chitosan Film  in water:acetic acid 2%
78843
    1CHTO  H203    1   5.846   6.438   6.503  0.0625  0.3271 -0.4765
    1CHTO   O82    2   5.781   6.469   6.444  0.0307  0.3782 -0.4133
    1CHTO  C123    3   5.862   6.494   6.324 -0.3174 -0.0409 -0.6373
    1CHTO  H227    4   5.955   6.545   6.353  1.0386 -2.9457  0.3133
    1CHTO   O77    5   5.909   6.360   6.278 -0.1261  0.8213  0.0254
    1CHTO  C118    6   5.986   6.361   6.157  0.6855 -0.3353  0.6978
    1CHTO  H222    7   6.082   6.411   6.178  0.8326 -0.6307  0.7332
    1CHTO  C125    8   6.011   6.216   6.102 -0.3832  0.5516 -1.0511
    1CHTO   O84    9   6.066   6.130   6.203  0.1698 -0.4553 -0.0072
    1CHTO  H205   10   6.022   6.048   6.195 -1.0933  0.2715 -0.7361
    1CHTO  C114   11   5.913   6.441   6.044 -0.1859  0.4885  0.4393
    1CHTO  H218   12   5.817   6.390   6.030  1.0031 -2.3275  2.1016
    1CHTO  C116   13   5.884   6.586   6.094  0.7995 -0.4137  0.0951
    1CHTO  H220   14   5.983   6.630   6.116  0.8015  0.5837 -1.7951
    1CHTO   O79   15   5.820   6.658   5.982  0.1168  0.2046  0.1438
    1CHTO  H201   16   5.880   6.692   5.918  0.2909  1.8930  1.1747
    1CHTO  C120   17   5.785   6.576   6.217 -0.1022 -0.0177  0.0826
    1CHTO  H224   18   5.699   6.520   6.175 -0.1967 -1.5594  2.2675
    1CHTO   N21   19   5.760   6.717   6.265 -0.1796  0.2103  0.3546
    1CHTO  H211   20   5.844   6.784   6.277 -1.0614  1.3256  0.4365
    1CHTO  H212   21   5.672   6.765   6.224  1.9124  1.9036 -2.3125
    1CHTO   O75   22   6.001   6.433   5.927 -0.3351  0.1573  0.4157
    1CHTO  C112   23   5.931   6.426   5.787  0.4372 -0.2521 -0.4131
    1CHTO  H216   24   5.855   6.504   5.788  0.9287  0.2955 -2.5393
    1CHTO   O73   25   5.873   6.293   5.774 -0.0750 -0.1641 -0.2363
    1CHTO  C113   26   5.799   6.266   5.659  0.2544  0.4464 -1.2794
    1CHTO  H217   27   5.727   6.350   5.651  0.4936  0.7628 -0.2035
    1CHTO  C124   28   5.710   6.148   5.668 -0.6341 -0.0902 -0.4381
    1CHTO   O83   29   5.771   6.027   5.717 -0.0677  0.0233 -0.7380
    1CHTO  H204   30   5.722   5.990   5.788 -1.4805  1.3801 -0.9807
    1CHTO  C109   31   5.900   6.259   5.551  0.7059 -0.2873 -0.2570
    1CHTO  H213   32   5.970   6.179   5.581  1.6862  1.2767  1.8141
    1CHTO  C110   33   5.976   6.398   5.537  0.2400  0.5065  0.6614
    1CHTO  H214   34   5.906   6.469   5.494  1.2156  0.7619 -0.5163
    1CHTO   O78   35   6.083   6.381   5.443  0.1413 -0.2806 -0.3502
    1CHTO  H200   36   6.084   6.460   5.392  0.0733  1.4423  2.2327
    1CHTO  C111   37   6.029   6.458   5.670  0.0499  0.9447  0.0931
    1CHTO  H215   38   6.125   6.409   5.690 -0.0612  1.2722  1.4849
    1CHTO   N19   39   6.060   6.604   5.679  0.6915  0.2686  0.2599
    1CHTO  H207   40   6.100   6.619   5.778  1.7994  2.1356 -0.4434
    1CHTO  H208   41   6.128   6.639   5.603 -0.5655  0.8447 -0.6178
    1CHTO   O74   42   5.836   6.224   5.418  0.0624 -0.0908  0.2538
    1CHTO  C115   43   5.864   6.083   5.340 -0.9998  0.0604  0.2868
    1CHTO  H219   44   5.930   6.021   5.401 -0.0368  0.7292 -0.0587
    1CHTO   O76   45   5.732   5.998   5.325  0.0402  0.9672 -0.0237
    1CHTO  C122   46   5.650   6.018   5.213  0.0477  0.1275 -0.3788
    1CHTO  H226   47   5.594   6.111   5.226 -1.3540 -0.6523 -0.6968
    1CHTO  C126   48   5.535   5.914   5.212  0.6306  0.2846 -0.3197
    1CHTO   O85   49   5.576   5.786   5.257  0.4127  0.5846  0.4206
    1CHTO  H206   50   5.620   5.786   5.339 -0.1376 -1.2476  0.7247
    1CHTO  C121   51   5.738   6.006   5.082  0.6710  0.0185  0.2692
    1CHTO  H225   52   5.709   5.916   5.025 -2.8499  1.8300 -0.9738
    1CHTO   O81   53   5.713   6.119   4.997 -0.1702 -0.5403 -0.3193
    1CHTO  H202   54   5.636   6.099   4.948  1.5333 -1.0481 -2.9577
    1CHTO  C119   55   5.886   6.003   5.105 -0.3509  0.4588  0.1599
    1CHTO  H223   56   5.893   5.910   5.161 -0.7668  1.0905  1.2849
    1CHTO  C117   57   5.928   6.120   5.204  1.0709  0.0095 -0.5267
    1CHTO  H221   58   5.891   6.218   5.177  0.0348  0.2715  1.7471
    1CHTO   N20   59   6.075   6.133   5.219 -0.0590  0.2527  0.4251
    1CHTO  H209   60   6.096   6.200   5.301  0.4910  1.2685 -0.5224
    1CHTO  H210   61   6.128   6.041   5.233  1.1902  0.9131  0.1063
    1CHTO   O80   62   5.975   5.965   4.987  0.2123  0.3714 -0.1961
    1CHTO  C103   63   6.045   5.816   4.984  0.2620 -0.0973 -0.2236
    1CHTO  H190   64   6.090   5.788   5.079 -0.9974  0.5231  0.5751
    1CHTO  C101   65   5.950   5.698   4.937  0.5335  0.8106 -0.0376
    1CHTO  H188   66   5.894   5.730   4.849  0.2549 -2.1204 -0.9533
    1CHTO   O68   67   5.840   5.659   5.051 -0.6444  0.0829  0.6344
    1CHTO  H168   68   5.783   5.593   5.016 -0.4910  0.5336 -0.4871
    1CHTO   C99   69   6.032   5.562   4.907  0.2738 -0.7702  0.6089
    1CHTO  H186   70   6.091   5.530   4.996 -2.2925  0.9690  3.0151
    1CHTO   N17   71   5.958   5.446   4.867 -0.0469  0.8631  0.3092
    1CHTO  H174   72   5.888   5.472   4.789 -0.0862 -1.2268 -0.3721
    1CHTO  H175   73   5.908   5.400   4.951  2.7977 -1.6764  0.6882
    1CHTO   C97   74   6.138   5.607   4.797  0.0745  0.4160 -0.3850
    1CHTO  H184   75   6.088   5.639   4.705  0.2318  1.1378 -0.2263
    1CHTO   O64   76   6.224   5.709   4.851 -0.1432 -0.1740 -0.3350
    1CHTO  C104   77   6.157   5.831   4.876  0.8178 -0.3942 -0.3999
    1CHTO  H191   78   6.108   5.872   4.787  2.2907 -0.2333 -1.1612
    1CHTO  C108   79   6.253   5.931   4.920 -0.3791  0.4498  0.0701
    1CHTO   O71   80   6.354   5.966   4.826  0.7012 -0.4306  0.2767
    1CHTO  H171   81   6.438   5.939   4.857  0.2705 -1.4393  0.6111
    1CHTO   O62   82   6.237   5.508   4.772 -0.1233  0.1561 -0.1976
    1CHTO   C91   83   6.330   5.516   4.663 -0.3046  0.1777 -0.0789
    1CHTO  H178   84   6.342   5.622   4.646  1.0994 -0.0003 -0.2688
    1CHTO   C92   85   6.258   5.451   4.542 -0.4274  0.8573  0.2053
    1CHTO  H179   86   6.156   5.492   4.543 -0.3270  1.1575 -1.0958
    1CHTO   O66   87   6.328   5.492   4.418  0.4388  0.2292 -0.0039
    1CHTO  H166   88   6.354   5.582   4.421  0.2656  0.2638  0.4115
    1CHTO   C93   89   6.258   5.288   4.534  0.2739 -0.0915 -0.2992
    1CHTO  H180   90   6.209   5.265   4.438  0.2458 -0.5868 -0.1678
    1CHTO   N16   91   6.174   5.222   4.636  0.1675 -0.0561  0.2858
    1CHTO  H172   92   6.128   5.300   4.694  1.5329  0.8556  0.1565
    1CHTO  H173   93   6.096   5.169   4.583 -0.1714  0.6283  0.0936
    1CHTO   C94   94   6.398   5.242   4.534  0.3335  0.6117  0.4877
    1CHTO  H181   95   6.416   5.159   4.602  1.6968 -1.0371 -1.7970
    1CHTO   O61   96   6.491   5.346   4.574  0.2733  0.4768 -0.0294
    1CHTO   C95   97   6.471   5.433   4.686  0.8154 -0.6129  0.4578
    1CHTO  H182   98   6.467   5.372   4.776 -0.4062 -1.5854 -0.2367
    1CHTO  C106   99   6.596   5.536   4.700 -0.2492  0.5394 -0.2519
    1CHTO   O69  100   6.710   5.453   4.721 -0.3028 -0.6708  0.0339
    1CHTO  H169  101   6.743   5.424   4.639  0.6291  2.2882 -0.7061
    1CHTO   O63  102   6.432   5.190   4.397  0.0968  0.0199  0.4668
    1CHTO   C96  103   6.541   5.066   4.397 -0.6795  0.6671  0.7583
    1CHTO  H183  104   6.502   4.999   4.473  1.3192 -1.4268  0.0111
    1CHTO   C98  105   6.687   5.112   4.433 -0.4603 -0.2139  0.4357
    1CHTO  H185  106   6.693   5.170   4.526 -0.1796  2.1624 -0.9990
    1CHTO   O67  107   6.764   4.995   4.453 -0.4901 -0.0498 -0.1514
    1CHTO  H167  108   6.747   4.967   4.540 -1.8639 -1.7195 -0.9376
    1CHTO  C102  109   6.756   5.196   4.310 -0.1883 -0.4226  0.2654
    1CHTO  H189  110   6.864   5.199   4.329 -0.2302 -0.1757  0.4605
    1CHTO   N18  111   6.716   5.343   4.287 -0.6658  0.5493 -0.3082
    1CHTO  H176  112   6.756   5.408   4.363  0.7222 -1.8181  1.0681
    1CHTO  H177  113   6.608   5.340   4.292 -0.5932 -2.1610  0.6455
    1CHTO  C105  114   6.726   5.120   4.173 -0.1451  0.3723 -0.8554
    1CHTO  H192  115   6.741   5.181   4.084  0.3759 -1.0614 -1.7704
    1CHTO   O65  116   6.600   5.066   4.152 -0.1216  0.7958  0.3057
    1CHTO  C100  117   6.534   4.992   4.259 -0.5186  0.1247 -0.4796
    1CHTO  H187  118   6.429   4.992   4.227 -0.8524  1.1847  0.5728
    1CHTO  C107  119   6.590   4.846   4.266 -0.7697 -0.1125 -0.1339
    1CHTO   O70  120   6.493   4.771   4.335 -0.6336 -0.0510  0.1398
    1CHTO  H170  121   6.518   4.681   4.322 -0.9621 -0.0275 -0.6977
    1CHTO   O57  122   6.831   5.019   4.170 -0.5141  0.1513 -0.2861
    1CHTO   C85  123   6.956   5.006   4.098 -0.3711  0.3912  0.7178
    1CHTO  H157  124   6.938   4.993   3.989 -1.9067 -1.1358  1.1257
    1CHTO   C83  125   7.024   4.876   4.144  0.1321  0.1419  0.4688
    1CHTO  H155  126   6.964   4.796   4.100 -0.0944  0.3632  0.3815
    1CHTO   O56  127   7.018   4.876   4.288 -0.1832  0.1719  0.1708
    1CHTO  H135  128   6.933   4.860   4.324  0.3574 -2.9022  0.2048
    1CHTO   C81  129   7.169   4.862   4.085 -0.4330  0.6074 -0.3394
    1CHTO  H153  130   7.172   4.881   3.978  0.8646  2.2368 -0.0334
    1CHTO   N14  131   7.234   4.730   4.108 -0.4786  0.3312  0.0339
    1CHTO  H141  132   7.335   4.731   4.073 -0.6120  1.5546 -0.3243
    1CHTO  H142  133   7.238   4.701   4.211 -1.2167  2.8072  0.7862
    1CHTO   C79  134   7.252   4.979   4.155  0.1696  0.4725  0.4040
    1CHTO  H151  135   7.350   4.984   4.107  0.2870  3.4386  0.8148
    1CHTO   O52  136   7.194   5.105   4.108 -0.7084 -0.0853 -0.3173
    1CHTO   C86  137   7.054   5.133   4.128 -0.3044  0.0676  0.2865
    1CHTO  H158  138   7.043   5.164   4.234 -1.9441 -1.2364  0.5264
    1CHTO   C90  139   7.008   5.254   4.047  0.4588 -0.0859  0.0135
    1CHTO   O60  140   7.054   5.247   3.914  0.2635  0.0613  0.2964
    1CHTO  H138  141   7.032   5.329   3.873  2.3475 -1.1002 -3.4040
    1CHTO   O50  142   7.280   4.967   4.294 -0.2845 -0.3055 -0.4506
    1CHTO   C73  143   7.352   4.989   4.418 -1.1877 -0.4022 -0.2330
    1CHTO  H145  144   7.437   4.920   4.413 -1.2473 -0.3539 -2.4755
    1CHTO   C74  145   7.267   4.943   4.539  0.1508 -0.3489 -0.0158
    1CHTO  H146  146   7.234   4.841   4.516  1.3972 -1.1285  1.5836
    1CHTO   O54  147   7.347   4.928   4.655 -0.0310  0.0118  0.1737
    1CHTO  H133  148   7.305   4.866   4.712  0.8531 -0.6818  0.0784
    1CHTO   C75  149   7.149   5.046   4.567 -0.0947  0.3713 -0.2131
    1CHTO  H147  150   7.088   5.055   4.476 -0.9376  1.8184  0.4936
    1CHTO   N13  151   7.058   5.015   4.678 -0.2912 -0.1336 -0.4101
    1CHTO  H139  152   7.105   5.018   4.775 -2.0113  0.0379  0.4481
    1CHTO  H140  153   6.980   5.090   4.679  1.0059  1.2216  1.1170
    1CHTO   C76  154   7.212   5.193   4.586 -0.7526  0.3534 -0.0637
    1CHTO  H148  155   7.266   5.200   4.681 -2.7910 -0.2366  1.1472
    1CHTO   O49  156   7.292   5.220   4.472  0.0370 -0.6461  0.2144
    1CHTO   C77  157   7.405   5.138   4.441  0.4948  0.4750  0.4789
    1CHTO  H149  158   7.472   5.136   4.527  0.6761 -0.6380  0.3261
    1CHTO   C88  159   7.473   5.198   4.315  0.5295  0.0296 -0.6690
    1CHTO   O58  160   7.523   5.331   4.311 -0.1689 -0.1457 -0.4281
    1CHTO  H136  161   7.535   5.361   4.223 -0.0926 -2.0119 -1.0798
    1CHTO   O51  162   7.108   5.312   4.587 -0.0440  0.4873  0.2689
    1CHTO   C78  163   7.168   5.442   4.615 -0.4035  0.0648 -0.2202
    1CHTO  H150  164   7.279   5.444   4.613 -0.4218  3.0954 -1.1868
    1CHTO   C80  165   7.115   5.476   4.758 -0.2676 -0.2236 -1.1448
    1CHTO  H152  166   7.008   5.449   4.768 -1.0509  2.7322 -0.8543
    1CHTO   O55  167   7.173   5.391   4.865  0.0934  0.1613 -0.3191
    1CHTO  H134  168   7.117   5.371   4.938  2.4356 -2.0814  0.9488
    1CHTO   C84  169   7.117   5.628   4.803  0.6116 -0.2907  0.0880
    1CHTO  H156  170   7.218   5.665   4.818 -0.5106  1.9670  2.5714
    1CHTO   N15  171   7.052   5.656   4.932 -0.3896  0.1413  0.0414
    1CHTO  H143  172   7.102   5.607   5.013 -0.1479  1.8698  0.9696
    1CHTO  H144  173   7.038   5.760   4.953 -0.0431  0.0054  0.9740
    1CHTO   C87  174   7.052   5.710   4.686  0.1295 -0.2863  0.0111
    1CHTO  H159  175   6.946   5.687   4.681 -0.5550  2.4031  1.1510
    1CHTO   O53  176   7.118   5.677   4.566  0.3355 -0.3303  0.1472
    1CHTO   C82  177   7.102   5.548   4.519 -0.1559 -0.0619 -0.5438
    1CHTO  H154  178   6.996   5.523   4.510 -0.6048  1.6488 -0.2665
    1CHTO   C89  179   7.167   5.547   4.375 -0.0141 -0.3181  0.1656
    1CHTO   O59  180   7.156   5.414   4.327  0.2904 -0.4976  0.4732
    1CHTO  H137  181   7.223   5.407   4.261  1.7731  1.4770  1.7173
    1CHTO   O45  182   7.061   5.886   4.706 -0.3201  0.1027 -0.3312
    1CHTO   C67  183   6.977   5.964   4.627  0.0693  0.3909 -0.1557
    1CHTO  H124  184   6.965   5.916   4.530  1.6595 -1.5331  0.5785
    1CHTO   C65  185   6.835   5.978   4.699 -0.6468  0.4347 -0.4870
    1CHTO  H122  186   6.850   5.954   4.804  0.2441 -0.4127 -0.7918
    1CHTO   O44  187   6.750   5.877   4.636 -0.4390  0.5759 -0.1041
    1CHTO  H102  188   6.745   5.888   4.543  1.1156 -0.0410 -0.2813
    1CHTO   C63  189   6.781   6.131   4.704 -0.6921 -0.1642  0.2809
    1CHTO  H120  190   6.844   6.188   4.773 -1.1765 -0.1001  0.6709
    1CHTO   N11  191   6.643   6.147   4.762 -0.8305 -0.1137  0.5037
    1CHTO  H108  192   6.586   6.215   4.702 -0.2601  0.3232  0.4486
    1CHTO  H109  193   6.640   6.174   4.865  1.1256 -1.2595  0.8755
    1CHTO   C61  194   6.807   6.209   4.568 -0.0879 -0.8202 -0.1265
    1CHTO  H118  195   6.802   6.315   4.598  2.8822 -0.4499 -0.8361
    1CHTO   O40  196   6.944   6.193   4.522 -0.7245  0.2826 -0.7387
    1CHTO   C68  197   7.038   6.111   4.592  0.5747 -0.0157 -0.2950
    1CHTO  H125  198   7.068   6.167   4.683 -3.1586  1.0296  0.3748
    1CHTO   C72  199   7.165   6.103   4.493 -0.9693  0.1382 -0.7721
    1CHTO   O48  200   7.257   6.001   4.538 -0.1722  0.5225  0.4049
    1CHTO  H105  201   7.280   5.944   4.467 -0.0042  1.2009 -0.0934
    1CHTO   O38  202   6.718   6.176   4.461  0.5647 -0.7635  0.0030
    1CHTO   C55  203   6.713   6.279   4.359  0.4455 -0.3648 -0.6272
    1CHTO  H112  204   6.789   6.358   4.367 -0.1300  0.0335  1.1237
    1CHTO   C56  205   6.569   6.335   4.381 -0.1873 -0.3303 -0.5888
    1CHTO  H113  206   6.495   6.255   4.371  0.7669 -1.0289 -2.2352
    1CHTO   O42  207   6.565   6.390   4.518  0.5775  0.2798  0.0454
    1CHTO  H100  208   6.502   6.347   4.573 -0.2642  1.6834  0.2140
    1CHTO   C57  209   6.538   6.448   4.271 -0.6087 -0.1298  1.0472
    1CHTO  H114  210   6.601   6.530   4.305 -2.1284  0.9501  1.2862
    1CHTO   N10  211   6.399   6.505   4.281  0.1248 -0.5515  0.3934
    1CHTO  H106  212   6.396   6.580   4.358 -2.6984 -0.1096 -0.0971
    1CHTO  H107  213   6.330   6.424   4.302  0.7385 -0.9732  0.8053
    1CHTO   C58  214   6.583   6.415   4.128 -0.7282 -0.0080  0.2846
    1CHTO  H115  215   6.514   6.340   4.084  0.2138 -0.3488 -0.6423
    1CHTO   O37  216   6.708   6.338   4.120 -0.1765 -0.1433 -0.1730
    1CHTO   C59  217   6.718   6.227   4.213 -0.1965 -0.2171 -0.2912
    1CHTO  H116  218   6.640   6.155   4.193  0.1859 -0.3027 -1.5126
    1CHTO   C70  219   6.853   6.155   4.191  0.2415 -0.0594 -0.4252
    1CHTO   O46  220   6.853   6.029   4.262  0.4497 -0.2511  0.3189
    1CHTO  H103  221   6.903   6.032   4.341  0.3799  1.1142  0.3260
    1CHTO   O39  222   6.602   6.554   4.028  0.0190  0.1701 -0.0434
    1CHTO   C60  223   6.547   6.544   3.893 -0.6077 -0.0114 -0.1984
    1CHTO  H117  224   6.574   6.445   3.855  1.4447  0.8106 -0.9783
    1CHTO   C62  225   6.396   6.562   3.893  0.6569 -0.1702 -0.1839
    1CHTO  H119  226   6.350   6.470   3.936 -0.5444  0.7152  0.4375
    1CHTO   O43  227   6.373   6.676   3.978  0.2848  0.6031 -0.0530
    1CHTO  H101  228   6.281   6.691   3.968  0.1484  0.5890  1.1425
    1CHTO   C66  229   6.327   6.562   3.749  0.2162 -0.0205  0.7923
    1CHTO  H123  230   6.347   6.466   3.702 -1.7302 -0.5532  0.9753
    1CHTO   N12  231   6.182   6.575   3.768  0.0955  1.1679  0.2187
    1CHTO  H110  232   6.161   6.675   3.802 -0.5559  0.1482  2.8751
    1CHTO  H111  233   6.147   6.556   3.667 -0.5873  0.4242  0.5921
    1CHTO   C69  234   6.387   6.662   3.647  0.0709 -0.0609 -0.7696
    1CHTO  H126  235   6.379   6.768   3.677 -0.7657 -0.0868 -0.8720
    1CHTO   O41  236   6.555   6.632   3.644 -0.0118  0.1082 -0.6050
    1CHTO   C64  237   6.615   6.643   3.803  0.9119  0.2640 -0.2122
    1CHTO  H121  238   6.601   6.749   3.829 -0.9120 -0.2913  1.1179
    1CHTO   C71  239   6.767   6.617   3.777  0.0715  0.7030 -0.0739
    1CHTO   O47  240   6.844   6.641   3.897  0.2759  0.0671 -0.1294
    1CHTO  H104  241   6.816   6.716   3.946 -0.9995 -0.6026  0.1948
    1CHTO   O34  242   6.335   6.649   3.512 -0.7475 -0.5371  0.9029
    1CHTO   C49  243   6.389   6.626   3.374  0.0824 -0.0156 -1.1803
    1CHTO   H91  244   6.469   6.552   3.387  0.7205  1.3162  2.9734
    1CHTO   C47  245   6.441   6.765   3.334 -0.0543  0.7180  0.2854
    1CHTO   H89  246   6.494   6.754   3.238  0.8678 -0.3350  0.8975
    1CHTO   O33  247   6.531   6.804   3.427 -0.3306 -0.2571 -0.3251
    1CHTO   H70  248   6.496   6.801   3.515 -1.6767 -0.5276 -0.8484
    1CHTO   C45  249   6.315   6.866   3.318 -0.1123  0.0694  0.1806
    1CHTO   H87  250   6.245   6.863   3.403  1.1772  1.2532  1.3152
    1CHTO    N8  251   6.356   7.005   3.287 -0.4596  0.1822 -0.6470
    1CHTO   H75  252   6.393   7.049   3.378 -1.1536 -0.2201 -0.1667
    1CHTO   H76  253   6.264   7.055   3.257 -0.8729  0.8173  1.6051
    1CHTO   C43  254   6.223   6.811   3.193  0.6674 -0.9282  0.3798
    1CHTO   H85  255   6.132   6.871   3.202  0.1904 -1.4693 -0.8258
    1CHTO   O29  256   6.195   6.672   3.208  0.6636 -0.1723  0.2858
    1CHTO   C50  257   6.287   6.574   3.271  0.3157 -0.1967  0.0809
    1CHTO   H92  258   6.221   6.499   3.317 -0.1104 -0.1849 -0.4984
    1CHTO   C54  259   6.346   6.485   3.156  0.5893  0.0077  0.2327
    1CHTO   O36  260   6.451   6.558   3.090 -0.9654  0.6035 -0.0481
    1CHTO   H72  261   6.519   6.576   3.153  0.5977 -1.2417 -1.1564
    1CHTO   O27  262   6.273   6.819   3.060 -0.3432  0.2870  0.1718
    1CHTO   C37  263   6.241   6.772   2.925  0.6034  0.2221 -0.0430
    1CHTO   H79  264   6.259   6.664   2.915 -1.2425 -0.2524  1.4126
    1CHTO   C38  265   6.089   6.794   2.902  0.0354  0.0691  0.0280
    1CHTO   H80  266   6.060   6.896   2.933  0.8859 -0.1271  1.5480
    1CHTO   O31  267   6.015   6.706   2.978  0.3740 -0.6052 -0.2433
    1CHTO   H68  268   5.946   6.741   3.031  0.8623  1.2998 -0.8477
    1CHTO   C39  269   6.049   6.772   2.749  0.9122 -0.1528  0.3915
    1CHTO   H81  270   6.034   6.667   2.724 -1.4529  0.9115 -3.1069
    1CHTO    N7  271   5.912   6.836   2.723 -0.2579  0.0550  0.2371
    1CHTO   H73  272   5.899   6.934   2.766 -1.6281 -0.6089  1.3844
    1CHTO   H74  273   5.836   6.764   2.749 -1.0749  0.8183 -0.0151
    1CHTO   C40  274   6.152   6.839   2.655  0.8313 -0.5492 -0.4327
    1CHTO   H82  275   6.133   6.945   2.638  2.1833 -0.4172 -1.2190
    1CHTO   O26  276   6.285   6.815   2.698  0.2042 -0.3306  0.0309
    1CHTO   C41  277   6.317   6.861   2.827 -0.2022  0.0737  0.6019
    1CHTO   H83  278   6.292   6.968   2.830 -0.8376  0.0315 -1.6484
    1CHTO   C52  279   6.469   6.849   2.845  0.4822 -0.3072 -0.1157
    1CHTO   O35  280   6.524   6.734   2.785  0.6719 -0.4430  0.0235
    1CHTO   H71  281   6.506   6.728   2.693  0.0474 -0.6666  0.1581
    1CHTO   O28  282   6.140   6.772   2.531  0.0048 -0.1134  0.3760
    1CHTO   C42  283   6.195   6.818   2.403  0.2208  0.3856  0.6055
    1CHTO   H84  284   6.157   6.747   2.329 -0.3710  1.3201  0.0128
    1CHTO   C44  285   6.348   6.812   2.398  0.7980 -0.3108  0.1613
    1CHTO   H86  286   6.393   6.882   2.469 -2.3898  1.5037  0.4889
    1CHTO   O32  287   6.385   6.684   2.446  0.0424  0.2167  0.0490
    1CHTO   H69  288   6.435   6.698   2.524 -0.1913  1.1555  0.0347
    1CHTO   C48  289   6.391   6.833   2.253 -0.8027  0.6742  0.0459
    1CHTO   H90  290   6.356   6.753   2.188 -1.1187 -0.6319  1.7874
    1CHTO    N9  291   6.544   6.828   2.226  0.0983  0.3600 -0.2505
    1CHTO   H77  292   6.579   6.752   2.295  3.6147  0.4136 -1.8732
    1CHTO   H78  293   6.565   6.813   2.122 -1.3913  1.0283 -0.6561
    1CHTO   C51  294   6.328   6.964   2.186 -0.8497  0.3184  0.3761
    1CHTO   H93  295   6.384   7.051   2.220  0.6232 -0.7896  0.8575
    1CHTO   O30  296   6.186   6.978   2.212 -0.2728 -0.0682  0.0111
    1CHTO   C46  297   6.141   6.951   2.360 -0.5624 -0.1773  0.9275
    1CHTO   H88  298   6.177   7.031   2.425 -1.3493  0.1092  1.0181
    1CHTO   C53  299   5.985   6.960   2.350 -0.4089  0.1651  0.4347
    1CHTO   O72  300   5.910   6.877   2.258 -0.1656  0.5572 -0.3031
    1CHTO  H199  301   5.900   6.929   2.180 -2.3894  2.7756  1.3966
    1CHTO   O22  302   6.333   6.960   2.045  0.2402 -0.1584  0.3413
    1CHTO   C31  303   6.310   7.076   1.951  0.1163  0.5631 -0.7245
    1CHTO   H59  304   6.293   7.025   1.854 -1.5118  0.2135 -0.2699
    1CHTO   C29  305   6.186   7.167   1.960  0.3887 -0.5560 -0.3508
    1CHTO   H57  306   6.199   7.238   2.043 -3.1180 -0.2178  0.0003
    1CHTO   O21  307   6.071   7.096   2.004  0.1682  0.0186  0.2007
    1CHTO   H37  308   6.080   7.067   2.093  0.7333  0.1566  0.1906
    1CHTO   C27  309   6.159   7.249   1.834 -0.0443  0.0543  0.0199
    1CHTO   H55  310   6.134   7.179   1.752 -0.7459 -0.9364  1.0675
    1CHTO    N5  311   6.048   7.352   1.849  0.5928  0.3704 -0.6433
    1CHTO   H43  312   5.957   7.299   1.876  1.3880  0.4887  2.4566
    1CHTO   H44  313   6.032   7.387   1.748  3.1941 -1.2205 -1.6438
    1CHTO   C25  314   6.293   7.324   1.794  0.0343 -0.1440 -0.5642
    1CHTO   H53  315   6.296   7.422   1.843 -1.9663  0.1977 -1.0741
    1CHTO   O17  316   6.413   7.243   1.811  1.2826  0.3163  0.2311
    1CHTO   C32  317   6.433   7.166   1.930  0.1210 -0.3981 -0.0933
    1CHTO   H60  318   6.446   7.231   2.017  0.4497 -0.3633 -0.1667
    1CHTO   C36  319   6.564   7.084   1.918  0.9766  0.1536  0.5222
    1CHTO   O25  320   6.675   7.171   1.924 -0.0742 -0.2452 -0.1739
    1CHTO   H40  321   6.748   7.116   1.902  1.0726  1.1073  0.2295
    1CHTO   O15  322   6.276   7.357   1.637  0.1528  0.3595 -0.0167
    1CHTO   C19  323   6.276   7.404   1.500  0.6248  0.5032 -0.0644
    1CHTO   H47  324   6.177   7.370   1.466  1.5150 -2.1022 -0.1490
    1CHTO   C20  325   6.288   7.561   1.496  0.9037  0.5117 -0.7393
    1CHTO   H48  326   6.370   7.598   1.558 -0.3962 -0.0808  1.3781
    1CHTO   O19  327   6.165   7.609   1.549  0.3009 -0.1009  0.1922
    1CHTO   H35  328   6.128   7.548   1.609 -1.6093  0.6884 -0.1489
    1CHTO   C21  329   6.314   7.614   1.345 -0.2715  0.0271  0.0607
    1CHTO   H49  330   6.215   7.611   1.298 -0.2957 -1.0130  0.1676
    1CHTO    N4  331   6.354   7.754   1.342 -0.1251  0.4467 -0.2507
    1CHTO   H41  332   6.346   7.807   1.436  2.1674  2.3063 -1.0786
    1CHTO   H42  333   6.300   7.809   1.266  1.4467  1.7339 -0.4578
    1CHTO   C22  334   6.409   7.526   1.262  0.7332 -0.4209  0.4758
    1CHTO   H50  335   6.509   7.537   1.305  0.7274  2.5437 -0.1802
    1CHTO   O14  336   6.363   7.392   1.277 -0.3610 -0.2764  0.0811
    1CHTO   C23  337   6.383   7.336   1.403  0.1250  0.1748 -0.6148
    1CHTO   H51  338   6.485   7.366   1.431  0.2563 -0.3771 -0.4848
    1CHTO   C34  339   6.382   7.184   1.400  0.4767 -0.4693 -0.4986
    1CHTO   O23  340   6.500   7.138   1.322  0.7564  0.0563 -0.0883
    1CHTO   H38  341   6.519   7.192   1.248  0.6879  2.5587  1.6666
    1CHTO   O16  342   6.403   7.557   1.120 -0.0988 -0.5179  0.0565
    1CHTO   C24  343   6.457   7.444   1.002 -0.2605 -0.2692 -0.3179
    1CHTO   H52  344   6.504   7.358   1.050  0.1343  0.4096  0.5205
    1CHTO   C26  345   6.565   7.520   0.931 -0.7524  0.3204  0.4028
    1CHTO   H54  346   6.531   7.624   0.914  0.5191  0.4494 -1.5296
    1CHTO   O20  347   6.673   7.539   1.026 -0.2274  0.5277  0.0831
    1CHTO   H36  348   6.642   7.583   1.103  1.2099  0.8356  0.4996
    1CHTO   C30  349   6.612   7.455   0.800 -0.0455 -0.1597 -0.4516
    1CHTO   H58  350   6.674   7.367   0.820  1.0173  0.9420  1.2158
    1CHTO    N6  351   6.699   7.545   0.722 -0.2564 -0.7243 -0.0219
    1CHTO   H45  352   6.734   7.629   0.780 -1.4336  0.0286 -0.3848
    1CHTO   H46  353   6.783   7.490   0.683  0.2243 -0.7911  1.0860
    1CHTO   C33  354   6.495   7.405   0.712  0.0548  0.5628  0.3204
    1CHTO   H61  355   6.429   7.484   0.673  0.0825 -0.4581 -1.8595
    1CHTO   O18  356   6.416   7.324   0.797  0.0473 -0.2835 -0.1291
    1CHTO   C28  357   6.345   7.392   0.901  0.2300  0.6556  0.1883
    1CHTO   H56  358   6.286   7.476   0.866  1.0851  0.7374 -1.1361
    1CHTO   C35  359   6.239   7.301   0.969 -0.2773 -0.1213 -0.4254
    1CHTO   O24  360   6.146   7.259   0.870 -0.3436 -0.4392  0.1732
    1CHTO   H39  361   6.095   7.188   0.903  1.3332 -2.0053 -0.5385
    1CHTO    O9  362   6.534   7.336   0.597 -0.1042 -0.0338 -0.1228
    1CHTO   C13  363   6.443   7.392   0.454 -0.3190 -0.6635 -0.3478
    1CHTO   H26  364   6.478   7.496   0.438  0.0240 -0.9737 -1.6662
    1CHTO   C11  365   6.287   7.388   0.475  0.7639  0.0127  0.2520
    1CHTO   H24  366   6.260   7.473   0.538  0.7193  0.9692 -1.0426
    1CHTO    O8  367   6.257   7.267   0.545  0.0777 -0.2132  0.0437
    1CHTO    H3  368   6.308   7.266   0.623 -0.5771  0.6292  0.4977
    1CHTO    C9  369   6.211   7.415   0.338 -0.6280  1.0338 -0.1231
    1CHTO   H22  370   6.241   7.515   0.301  0.6644  0.6304 -0.1962
    1CHTO    N2  371   6.070   7.448   0.338  0.4724 -0.9450  0.3072
    1CHTO   H10  372   6.023   7.392   0.258  1.2172 -0.0669 -0.7447
    1CHTO   H11  373   6.021   7.421   0.431  0.1865  2.1739  1.1253
    1CHTO    C7  374   6.244   7.293   0.236 -0.2332 -0.0039  0.0051
    1CHTO   H20  375   6.254   7.346   0.139  0.6597 -0.6298 -0.2515
    1CHTO    O4  376   6.371   7.225   0.265  0.1286  0.2999  0.0692
    1CHTO   C14  377   6.478   7.309   0.319  0.4315 -0.4674  0.2571
    1CHTO   H27  378   6.503   7.379   0.236 -0.0748 -0.3898  0.1667
    1CHTO   C18  379   6.597   7.213   0.339  0.5291  0.3146 -0.3437
    1CHTO   O13  380   6.628   7.139   0.220  0.1948 -0.3552 -0.4372
    1CHTO    H7  381   6.627   7.197   0.147 -0.8404  2.3171  1.5878
    1CHTO    O2  382   6.118   7.178   0.240 -0.0169  0.4380 -0.3631
    1CHTO    C1  383   6.128   7.100   0.116 -0.1590 -0.2802 -0.4939
    1CHTO   H14  384   6.233   7.075   0.090 -0.2220  1.7242 -2.7971
    1CHTO    C2  385   6.065   7.177  -0.005 -0.0629 -0.3234  0.6373
    1CHTO   H15  386   5.960   7.201   0.019  0.5608  1.4089  1.7304
    1CHTO    O6  387   6.133   7.299  -0.034 -0.5965  0.1156  0.0645
    1CHTO    H1  388   6.097   7.344  -0.108  0.7542 -0.7602 -1.1590
    1CHTO    C3  389   6.075   7.080  -0.130 -0.6408  0.0997  0.2899
    1CHTO   H16  390   6.179   7.067  -0.164  0.1056 -0.2930  2.6479
    1CHTO    N1  391   6.015   7.138  -0.253  0.2705  0.2960 -0.0691
    1CHTO    H8  392   6.089   7.204  -0.295  0.2591  0.6584  0.4883
    1CHTO    H9  393   5.992   7.064  -0.329 -0.7975 -1.1220  1.6146
    1CHTO    C4  394   6.025   6.938  -0.097 -0.3508  0.2128  0.0259
    1CHTO   H17  395   5.918   6.933  -0.077 -0.1731 -0.8224  0.7665
    1CHTO    O1  396   6.093   6.887   0.023 -0.6745 -0.0694  0.3794
    1CHTO    C5  397   6.064   6.965   0.140  0.7174 -0.3020  0.1956
    1CHTO   H18  398   5.958   6.977   0.161  0.7851 -0.9112  0.8751
    1CHTO   C16  399   6.124   6.886   0.253  0.5685  0.2025 -0.1164
    1CHTO   O11  400   6.266   6.862   0.248  0.0341  0.0711 -0.2631
    1CHTO    H5  401   6.292   6.830   0.164 -4.0073 -0.6575 -1.3718
    1CHTO    O3  402   6.065   6.844  -0.196  0.2638 -0.0939  0.2200
    1CHTO    C6  403   5.976   6.727  -0.207 -0.2982 -1.0754 -0.2445
    1CHTO   H19  404   5.917   6.708  -0.118  0.8674  3.5762  1.7114
    1CHTO    C8  405   5.872   6.747  -0.325 -0.2560 -0.2749  0.4891
    1CHTO   H21  406   5.930   6.757  -0.417 -2.2290 -0.7458 -0.8616
    1CHTO    O7  407   5.788   6.865  -0.309 -0.2917  0.0710  0.0270
    1CHTO    H2  408   5.787   6.912  -0.390  0.0596  0.2901  0.1466
    1CHTO   C12  409   5.778   6.618  -0.332  0.5349 -0.1188  0.3943
    1CHTO   H25  410   5.733   6.622  -0.230 -1.7330 -0.3929 -0.5574
    1CHTO    N3  411   5.665   6.622  -0.434 -0.0510  0.2650 -0.1406
    1CHTO   H12  412   5.690   6.704  -0.500  1.6760 -1.0105 -1.1324
    1CHTO   H13  413   5.680   6.530  -0.489  2.7816 -0.0720  1.1017
    1CHTO   C15  414   5.872   6.489  -0.341 -0.5016 -0.0173  0.0588
    1CHTO   H28  415   5.903   6.455  -0.440 -1.7829  0.1482 -0.4076
    1CHTO   O10  416   5.787   6.369  -0.281  0.0368 -0.5011  0.3537
    1CHTO    H4  417   5.800   6.289  -0.327  1.7637 -0.9810  1.6373
    1CHTO    O5  418   5.971   6.482  -0.237 -0.1422  0.4412 -0.5325
    1CHTO   C10  419   6.056   6.596  -0.238  0.3117  0.1485  0.0890
    1CHTO   H23  420   6.108   6.594  -0.334  0.3121 -0.5925  0.1045
    1CHTO   C17  421   6.172   6.565  -0.138 -0.1620  0.0170 -0.0236
    1CHTO   O12  422   6.134   6.520  -0.013 -0.5866  0.1151 -0.2711
    1CHTO    H6  423   6.041   6.524  -0.006 -0.3997  2.2404  1.3537
    2CHTO  H203  424   6.061   5.191   7.172 -2.1764 -1.7739 -0.9509
    2CHTO   O82  425   6.016   5.270   7.150  0.7604  0.4107  0.4927
    2CHTO  C123  426   5.915   5.226   7.062  0.8184  0.0294 -0.6626
    2CHTO  H227  427   5.900   5.118   7.074  0.1720 -0.0753 -2.2788
    2CHTO   O77  428   5.799   5.290   7.122  0.3630 -0.0831 -0.5763
    2CHTO  C118  429   5.674   5.256   7.059  0.1466  0.7769 -0.0427
    2CHTO  H222  430   5.672   5.147   7.045 -2.2929  0.9172 -0.9111
    2CHTO  C125  431   5.546   5.290   7.153  0.4224 -0.6650 -0.0851
    2CHTO   O84  432   5.533   5.430   7.169 -0.3677 -0.2029 -0.6917
    2CHTO  H205  433   5.521   5.463   7.082 -0.4352  1.8259  0.0699
    2CHTO  C114  434   5.668   5.317   6.919 -0.4128  0.0057 -0.0143
    2CHTO  H218  435   5.679   5.426   6.925  0.9630 -0.1233  0.1398
    2CHTO  C116  436   5.788   5.269   6.834  0.2470 -0.3574 -0.2090
    2CHTO  H220  437   5.769   5.161   6.814  0.4909 -0.8676  2.1145
    2CHTO   O79  438   5.781   5.326   6.706  0.5001 -0.6370 -0.4868
    2CHTO  H201  439   5.700   5.303   6.664  0.3559 -1.4171  0.1833
    2CHTO  C120  440   5.927   5.279   6.914  0.4821 -0.2563  0.1954
    2CHTO  H224  441   5.961   5.384   6.917 -1.4679  0.3551  2.3849
    2CHTO   N21  442   6.031   5.207   6.838  0.0465 -0.2375  0.4880
    2CHTO  H211  443   6.086   5.272   6.771 -0.4092  0.9939  1.2791
    2CHTO  H212  444   5.972   5.136   6.781 -1.3297  0.0432  1.5392
    2CHTO   O75  445   5.538   5.276   6.872 -0.3995 -0.0770 -0.2831
    2CHTO  C112  446   5.460   5.386   6.768 -0.4505 -0.2531  0.0900
    2CHTO  H216  447   5.527   5.409   6.685  0.1102 -1.7762  0.1084
    2CHTO   O73  448   5.426   5.508   6.845  0.1426 -0.4989  0.0501
    2CHTO  C113  449   5.351   5.596   6.760 -0.5392 -0.4559  0.9340
    2CHTO  H217  450   5.409   5.610   6.666  0.3460 -1.9332  1.2277
    2CHTO  C124  451   5.331   5.735   6.830 -0.3314  0.1651 -0.3113
    2CHTO   O83  452   5.441   5.825   6.823 -0.3386 -0.5518  0.1586
    2CHTO  H204  453   5.523   5.780   6.832  1.1869  2.1029 -0.1896
    2CHTO  C109  454   5.215   5.533   6.724 -0.1492  0.7089  0.0708
    2CHTO  H213  455   5.158   5.533   6.818 -2.2302 -1.7126 -1.1377
    2CHTO  C110  456   5.226   5.401   6.654  0.4026  0.2740 -0.6039
    2CHTO  H214  457   5.255   5.420   6.550  0.5540  1.3552 -0.3733
    2CHTO   O78  458   5.099   5.327   6.630 -0.1904  0.1015  0.1035
    2CHTO  H200  459   5.026   5.383   6.610 -0.3286 -0.0408  0.2069
    2CHTO  C111  460   5.327   5.308   6.730  0.2563  0.5769  0.4537
    2CHTO  H215  461   5.274   5.270   6.818  0.2231 -1.7863 -0.5261
    2CHTO   N19  462   5.354   5.185   6.652 -0.9668 -0.4568  0.0098
    2CHTO  H207  463   5.290   5.104   6.682 -0.5106 -0.9070 -0.2303
    2CHTO  H208  464   5.350   5.209   6.547 -2.3621 -5.1808 -1.1194
    2CHTO   O74  465   5.147   5.628   6.636 -0.2857  0.1192  0.4124
    2CHTO  C115  466   4.967   5.632   6.664 -0.8773  0.6552  0.0557
    2CHTO  H219  467   4.914   5.608   6.572  0.3593 -1.6238 -0.1002
    2CHTO   O76  468   4.925   5.535   6.760 -0.3221 -0.4373  0.0940
    2CHTO  C122  469   4.793   5.539   6.812  0.1339  0.1509 -0.6182
    2CHTO  H226  470   4.796   5.491   6.910 -0.1385  4.0937  1.4023
    2CHTO  C126  471   4.691   5.455   6.718 -0.1392 -0.4246 -0.1382
    2CHTO   O85  472   4.736   5.326   6.683 -0.3160  0.6263  1.1869
    2CHTO  H206  473   4.659   5.272   6.680 -0.5738  1.0788 -0.6888
    2CHTO  C121  474   4.747   5.678   6.850  0.8136  0.3901  0.5379
    2CHTO  H225  475   4.640   5.681   6.878  0.8643 -0.5401  0.8633
    2CHTO   O81  476   4.805   5.735   6.965  0.1255  0.6179 -0.3042
    2CHTO  H202  477   4.768   5.819   6.982  0.2641  0.5152  0.5058
    2CHTO  C119  478   4.765   5.775   6.725  0.1231  0.4515 -1.0550
    2CHTO  H223  479   4.723   5.721   6.640  1.3358 -2.9705  0.4201
    2CHTO  C117  480   4.922   5.780   6.700  0.3495 -0.0860 -0.3307
    2CHTO  H221  481   4.978   5.813   6.787  0.6710 -1.0004 -0.1855
    2CHTO   N20  482   4.960   5.878   6.588  0.0706  0.0165  0.2593
    2CHTO  H209  483   4.912   5.851   6.495 -0.5464  1.7208  0.0660
    2CHTO  H210  484   4.959   5.981   6.619  0.5314 -0.6205  2.4874
    2CHTO   O80  485   4.692   5.896   6.722 -0.3524 -0.4658  0.1348
    2CHTO  C103  486   4.551   5.909   6.637  0.3012 -0.0471 -0.3632
    2CHTO  H190  487   4.568   5.857   6.543  0.4496 -0.8415  0.0972
    2CHTO  C101  488   4.419   5.850   6.698 -0.0719  0.6405 -0.0993
    2CHTO  H188  489   4.411   5.875   6.804  0.8001 -0.3054  0.2007
    2CHTO   O68  490   4.433   5.679   6.696 -0.0143  0.6404  0.1657
    2CHTO  H168  491   4.519   5.649   6.673 -0.6744 -1.4907  0.3256
    2CHTO   C99  492   4.302   5.911   6.629 -0.8373  0.4735  0.5776
    2CHTO  H186  493   4.301   5.877   6.523 -2.2966  1.4668  0.2586
    2CHTO   N17  494   4.174   5.860   6.684  0.0617  0.0281 -0.3113
    2CHTO  H174  495   4.104   5.850   6.603 -0.9171  1.8146  0.2807
    2CHTO  H175  496   4.129   5.923   6.760  1.8870  1.4648 -0.3788
    2CHTO   C97  497   4.304   6.065   6.633 -0.0640 -0.3571 -0.4947
    2CHTO  H184  498   4.298   6.094   6.739 -0.7423 -0.4865 -0.4981
    2CHTO   O64  499   4.421   6.116   6.568  0.2761  0.2570 -0.6614
    2CHTO  C104  500   4.544   6.068   6.612 -0.0663 -0.1052  0.0627
    2CHTO  H191  501   4.576   6.114   6.705 -2.4212  0.3489  0.6879
    2CHTO  C108  502   4.652   6.111   6.515  0.2845  0.3622 -0.4053
    2CHTO   O71  503   4.675   6.252   6.495 -0.0034 -0.5681 -0.1759
    2CHTO  H171  504   4.726   6.276   6.420  0.2837 -0.9363 -0.1005
    2CHTO   O62  505   4.190   6.124   6.562  0.8474  0.2260 -0.2719
    2CHTO   C91  506   4.152   6.256   6.589 -0.1767 -0.0749 -0.5422
    2CHTO  H178  507   4.196   6.285   6.684  0.3218  0.8372 -1.0466
    2CHTO   C92  508   3.996   6.262   6.620  0.1511  0.1284  0.3843
    2CHTO  H179  509   3.973   6.187   6.697 -0.2464 -0.4277 -0.2756
    2CHTO   O66  510   3.958   6.392   6.672  0.7985  0.1152 -0.1883
    2CHTO  H166  511   3.867   6.411   6.660  0.7602 -0.0625 -0.1849
    2CHTO   C93  512   3.910   6.237   6.488  0.2363 -0.0122 -0.0022
    2CHTO  H180  513   3.814   6.286   6.507  0.6070  0.3078  1.0321
    2CHTO   N16  514   3.883   6.094   6.465  0.2475  0.3551  0.1086
    2CHTO  H172  515   3.947   6.042   6.394  0.9932  0.0371  1.0036
    2CHTO  H173  516   3.778   6.074   6.457  0.0774  0.9322  0.8424
    2CHTO   C94  517   3.978   6.305   6.367 -0.2315 -0.0639 -0.0379
    2CHTO  H181  518   4.035   6.236   6.306 -0.1332  1.4177 -1.6408
    2CHTO   O61  519   4.072   6.408   6.412 -0.1928  1.0048  0.0691
    2CHTO   C95  520   4.187   6.359   6.480  0.2942 -0.2557 -0.5324
    2CHTO  H182  521   4.253   6.313   6.407  0.7887  0.4681 -0.5481
    2CHTO  C106  522   4.260   6.488   6.545 -0.2812  0.9710  0.6390
    2CHTO   O69  523   4.207   6.536   6.666  0.4509  0.1173 -0.2023
    2CHTO  H169  524   4.141   6.600   6.652 -0.7149 -0.7678  1.0473
    2CHTO   O63  525   3.855   6.391   6.289  0.3037 -0.1274  0.2314
    2CHTO   C96  526   3.885   6.445   6.171  0.3115  0.0495 -0.6832
    2CHTO  H183  527   3.993   6.455   6.173  0.1522  1.6970  0.0510
    2CHTO   C98  528   3.821   6.595   6.170 -0.4123  0.3994 -0.0508
    2CHTO  H185  529   3.725   6.605   6.222  0.7806  3.0528  1.7295
    2CHTO   O67  530   3.906   6.674   6.252  0.3058 -0.1838 -0.1167
    2CHTO  H167  531   3.998   6.673   6.234  0.3769  1.4659  0.0535
    2CHTO  C102  532   3.822   6.658   6.020 -0.6766  0.1174  0.0499
    2CHTO  H189  533   3.869   6.757   6.031 -2.1925  0.8375  0.1900
    2CHTO   N18  534   3.681   6.692   5.982  0.4291 -0.3338 -0.1655
    2CHTO  H176  535   3.619   6.605   5.999  1.0485 -0.8223 -0.4104
    2CHTO  H177  536   3.677   6.715   5.876  0.6681  0.9966  0.0965
    2CHTO  C105  537   3.893   6.568   5.917 -0.7754  0.3549  0.5362
    2CHTO  H192  538   3.883   6.612   5.818  1.2578 -2.9615 -1.2310
    2CHTO   O65  539   3.848   6.430   5.920  0.7270 -0.3779  0.6774
    2CHTO  C100  540   3.822   6.365   6.048 -0.1273  0.2399  0.2959
    2CHTO  H187  541   3.715   6.380   6.070 -0.2940 -0.7837  0.1750
    2CHTO  C107  542   3.860   6.212   6.040  0.6477  0.1709  0.1749
    2CHTO   O70  543   3.995   6.199   6.024  0.1898  0.3722 -0.1804
    2CHTO  H170  544   4.008   6.148   5.946 -1.1578 -0.2844  0.0199
    2CHTO   O57  545   4.048   6.592   5.961  0.6435  0.2683  0.4067
    2CHTO   C85  546   4.156   6.495   5.924 -0.0407 -0.3989 -0.1845
    2CHTO  H157  547   4.104   6.406   5.883  1.2570 -0.4921 -1.7225
    2CHTO   C83  548   4.236   6.447   6.050 -0.6370  0.0963 -0.3069
    2CHTO  H155  549   4.180   6.361   6.087  1.9963 -2.1913 -1.5187
    2CHTO   O56  550   4.224   6.548   6.152  0.2656  0.1679  0.5311
    2CHTO  H135  551   4.193   6.525   6.237 -1.5946 -0.5154 -0.3038
    2CHTO   C81  552   4.388   6.399   6.020 -0.2303  1.0461  0.1908
    2CHTO  H153  553   4.385   6.310   5.957 -0.4336  0.6631  0.7329
    2CHTO   N14  554   4.463   6.345   6.139  0.1433 -0.3112 -0.1907
    2CHTO  H141  555   4.523   6.262   6.107 -2.6753 -2.0311 -1.1835
    2CHTO  H142  556   4.522   6.420   6.186  1.0529 -1.7916  1.0778
    2CHTO   C79  557   4.460   6.516   5.945 -0.3940 -0.0053  0.0842
    2CHTO  H151  558   4.562   6.483   5.924 -1.1537 -1.9591 -0.7259
    2CHTO   O52  559   4.395   6.533   5.808 -0.0907  0.5578 -0.1176
    2CHTO   C86  560   4.252   6.560   5.811 -0.0521 -0.2243 -0.5768
    2CHTO  H158  561   4.257   6.670   5.827  0.2375 -0.2979 -0.1706
    2CHTO   C90  562   4.202   6.539   5.667  0.2648 -0.1092 -0.5346
    2CHTO   O60  563   4.244   6.649   5.582  0.1133 -0.6369  0.2074
    2CHTO  H138  564   4.204   6.727   5.615  2.8004  1.3546 -1.0272
    2CHTO   O50  565   4.471   6.648   6.008 -0.3213  0.1587 -0.1043
    2CHTO   C73  566   4.491   6.792   6.010 -0.4389  0.6297  0.3079
    2CHTO  H145  567   4.402   6.851   5.984  0.4909  1.8306 -0.2152
    2CHTO   C74  568   4.602   6.829   5.912  0.0922 -0.1118 -0.1524
    2CHTO  H146  569   4.560   6.802   5.813  1.8028 -0.2585 -0.8555
    2CHTO   O54  570   4.636   6.972   5.910 -0.6308  0.1225 -0.1494
    2CHTO  H133  571   4.643   7.001   5.999 -1.6904 -2.3242  0.7746
    2CHTO   C75  572   4.734   6.746   5.956  0.1803 -0.1259 -0.1750
    2CHTO  H147  573   4.707   6.640   5.951 -2.5220  0.6337 -3.1634
    2CHTO   N13  574   4.848   6.762   5.869 -0.2231 -0.3738  0.2090
    2CHTO  H139  575   4.935   6.704   5.896 -0.3261 -0.5448  0.1715
    2CHTO  H140  576   4.877   6.866   5.863 -0.2997 -0.3992 -0.6978
    2CHTO   C76  577   4.773   6.774   6.106 -0.6186 -0.0179 -0.1388
    2CHTO  H148  578   4.809   6.876   6.116  1.1187 -0.4801 -1.5460
    2CHTO   O49  579   4.653   6.754   6.192 -0.5826 -0.1977 -0.2740
    2CHTO   C77  580   4.530   6.823   6.161  0.0708 -0.1221  0.0961
    2CHTO  H149  581   4.555   6.929   6.164 -1.6741  0.4910 -3.9335
    2CHTO   C88  582   4.427   6.786   6.263  0.1569  0.1084 -0.2026
    2CHTO   O58  583   4.436   6.668   6.296 -0.6282 -0.5490 -0.0771
    2CHTO  H136  584   4.508   6.658   6.356 -0.7532 -0.0191  0.1620
    2CHTO   O51  585   4.887   6.667   6.164 -0.2803 -0.5535 -0.0038
    2CHTO   C78  586   4.972   6.715   6.281 -0.6633 -0.0017  0.5649
    2CHTO  H150  587   4.926   6.800   6.336 -2.3118 -0.6916  0.2971
    2CHTO   C80  588   5.107   6.750   6.214  0.0661 -0.1165 -0.4699
    2CHTO  H152  589   5.142   6.666   6.150  0.4925 -0.3784  0.1024
    2CHTO   O55  590   5.086   6.861   6.122 -0.1281  0.2482 -0.0589
    2CHTO  H134  591   5.158   6.873   6.063  0.3336  1.6501  0.7631
    2CHTO   C84  592   5.224   6.777   6.320 -0.2566  0.5169  0.3804
    2CHTO  H156  593   5.211   6.873   6.371 -2.1476  0.3968  0.1625
    2CHTO   N15  594   5.356   6.793   6.256  0.3723  0.1764  0.0562
    2CHTO  H143  595   5.436   6.822   6.320 -1.2055  1.2900  1.5644
    2CHTO  H144  596   5.381   6.699   6.210 -0.3971 -0.4142  0.8327
    2CHTO   C87  597   5.220   6.669   6.428  0.1167  0.2992  0.9311
    2CHTO  H159  598   5.242   6.577   6.374  0.0197  0.7425  0.1257
    2CHTO   O53  599   5.066   6.650   6.482 -0.4497  0.3303 -0.2254
    2CHTO   C82  600   4.978   6.610   6.384  0.7614  0.0985  0.4417
    2CHTO  H154  601   4.992   6.510   6.342 -2.1953  0.4019 -1.4051
    2CHTO   C89  602   4.846   6.603   6.467  0.4144  0.4492 -0.2157
    2CHTO   O59  603   4.741   6.532   6.392 -0.2190  0.1703 -0.0443
    2CHTO  H137  604   4.725   6.445   6.424 -1.1873 -0.2518 -1.6723
    2CHTO   O45  605   5.331   6.696   6.537 -0.0690  0.4696  0.0539
    2CHTO   C67  606   5.346   6.584   6.629  0.0367 -0.2092 -0.5141
    2CHTO  H124  607   5.259   6.519   6.622  0.9570 -1.5954  0.6393
    2CHTO   C65  608   5.476   6.492   6.596  0.2096  0.0874  0.7205
    2CHTO  H122  609   5.557   6.561   6.571 -0.1150  0.5648  0.9818
    2CHTO   O44  610   5.441   6.411   6.485  0.0570 -0.0658 -0.3302
    2CHTO  H102  611   5.516   6.362   6.457  0.0651 -1.1773  1.6000
    2CHTO   C63  612   5.528   6.412   6.726  0.3920  0.0342 -0.9430
    2CHTO  H120  613   5.596   6.475   6.784 -1.0270 -0.1499  0.9612
    2CHTO   N11  614   5.624   6.295   6.687  0.2880  0.2376 -0.1182
    2CHTO  H108  615   5.648   6.242   6.776  0.4503  0.0261 -0.2886
    2CHTO  H109  616   5.577   6.228   6.617 -0.8441 -0.3710  1.1967
    2CHTO   C61  617   5.411   6.395   6.829 -0.0348 -0.4125  0.2903
    2CHTO  H118  618   5.447   6.347   6.921  0.1637 -2.1479 -0.6525
    2CHTO   O40  619   5.358   6.521   6.871 -0.4483 -0.5164 -0.7050
    2CHTO   C68  620   5.356   6.630   6.782 -0.6989 -0.6662  0.3822
    2CHTO  H125  621   5.451   6.684   6.802 -1.5759  1.4683 -1.0339
    2CHTO   C72  622   5.248   6.737   6.820 -0.0368 -0.1502  0.6776
    2CHTO   O48  623   5.115   6.692   6.819  0.3801 -0.7307 -0.5056
    2CHTO  H105  624   5.071   6.756   6.872 -1.2642 -1.3094 -1.1190
    2CHTO   O38  625   5.308   6.309   6.777 -0.6545 -0.2530 -0.4714
    2CHTO   C55  626   5.207   6.266   6.869 -0.0486  0.2898 -0.0955
    2CHTO  H112  627   5.174   6.351   6.931 -0.6466 -1.9788  2.8082
    2CHTO   C56  628   5.266   6.149   6.963  0.0624  0.2657 -0.3209
    2CHTO  H113  629   5.307   6.069   6.900 -1.4443 -0.8801  0.1267
    2CHTO   O42  630   5.376   6.189   7.039  0.6978 -0.1836 -0.5446
    2CHTO  H100  631   5.414   6.273   7.020 -1.7888  1.0548 -0.3045
    2CHTO   C57  632   5.149   6.079   7.049 -0.5289 -0.1666 -1.0462
    2CHTO  H114  633   5.121   6.151   7.126 -0.0538 -0.2072 -0.8348
    2CHTO   N10  634   5.190   5.949   7.120  0.4365 -0.2331 -0.1865
    2CHTO  H106  635   5.108   5.880   7.134  1.1990 -0.9562  0.8671
    2CHTO  H107  636   5.257   5.904   7.049  0.7621 -1.6623  0.9945
    2CHTO   C58  637   5.029   6.054   6.960  0.0679 -0.0638  0.6441
    2CHTO  H115  638   5.051   5.966   6.895 -2.0453 -0.0310 -0.1513
    2CHTO   O37  639   4.990   6.166   6.873  0.1069 -0.4645 -0.5418
    2CHTO   C59  640   5.090   6.210   6.785 -0.5186  0.6191  0.2462
    2CHTO  H116  641   5.129   6.124   6.731 -1.0679 -0.0240  0.8587
    2CHTO   C70  642   5.038   6.314   6.680  0.1612 -1.2102 -0.7154
    2CHTO   O46  643   4.954   6.272   6.582  0.5132  0.0388  0.2594
    2CHTO  H103  644   4.985   6.191   6.546 -2.6255 -1.2655  0.3224
    2CHTO   O39  645   4.902   6.008   7.060 -0.1269 -0.1555  0.0940
    2CHTO   C60  646   4.789   6.100   7.072 -0.0475  0.6602  0.6286
    2CHTO  H117  647   4.775   6.157   6.980  1.3016 -1.6630 -1.0788
    2CHTO   C62  648   4.651   6.021   7.063 -0.4375 -0.1629  0.7413
    2CHTO  H119  649   4.666   5.963   6.970 -2.9599 -2.5076  1.7231
    2CHTO   O43  650   4.640   5.937   7.183 -0.9550  0.6195  0.0152
    2CHTO  H101  651   4.722   5.940   7.229 -0.9710 -1.0782  0.1726
    2CHTO   C66  652   4.529   6.124   7.052 -0.4701  0.4496  0.2334
    2CHTO  H123  653   4.545   6.180   6.960 -2.7823  0.7358 -0.0450
    2CHTO   N12  654   4.387   6.062   7.038 -0.1557 -0.1444  0.6042
    2CHTO  H110  655   4.356   6.027   6.941 -0.8464  1.0760  0.3897
    2CHTO  H111  656   4.370   5.987   7.114 -0.4064 -0.2339  0.4608
    2CHTO   C69  657   4.522   6.215   7.180 -0.4073 -0.6719 -0.2721
    2CHTO  H126  658   4.496   6.157   7.272 -1.0120  0.7738  0.4844
    2CHTO   O41  659   4.663   6.279   7.208 -0.1721  0.0990 -0.3394
    2CHTO   C64  660   4.791   6.198   7.187 -0.3386  0.4319  0.2396
    2CHTO  H121  661   4.820   6.150   7.283 -0.2636  0.0115  0.0098
    2CHTO   C71  662   4.903   6.304   7.160 -0.1847  0.3099 -0.1900
    2CHTO   O47  663   4.854   6.392   7.056 -0.1217 -0.3245 -0.2580
    2CHTO  H104  664   4.798   6.462   7.085 -0.8702 -1.0325  0.0112
    2CHTO   O34  665   4.412   6.340   7.180 -0.6960 -0.1511 -0.1563
    2CHTO   C49  666   4.377   6.504   7.095 -0.0286  0.3619  0.6290
    2CHTO   H91  667   4.273   6.529   7.114  0.2115  1.2464  0.7698
    2CHTO   C47  668   4.396   6.491   6.944 -0.1444 -0.4343 -1.4690
    2CHTO   H89  669   4.352   6.579   6.894  0.6261  1.0929  0.4812
    2CHTO   O33  670   4.325   6.372   6.902 -0.2049  0.1836 -0.1554
    2CHTO   H70  671   4.290   6.394   6.818 -1.2846 -1.9635 -0.3011
    2CHTO   C45  672   4.555   6.485   6.914  0.0103  0.0621  0.3857
    2CHTO   H87  673   4.601   6.400   6.966 -0.3366 -0.9911 -1.0177
    2CHTO    N8  674   4.587   6.475   6.769 -0.2332  0.4889 -0.5347
    2CHTO   H75  675   4.555   6.560   6.710 -0.6372  0.4440 -0.3841
    2CHTO   H76  676   4.550   6.382   6.728 -0.2590 -0.1519  0.9172
    2CHTO   C43  677   4.627   6.618   6.973  0.5881  0.3325  0.3357
    2CHTO   H85  678   4.734   6.600   6.962  0.0815 -1.1604 -2.4848
    2CHTO   O29  679   4.594   6.631   7.111 -0.3055 -0.1415  0.3107
    2CHTO   C50  680   4.458   6.622   7.150  0.6076  0.3405  0.3507
    2CHTO   H92  681   4.454   6.603   7.259  1.4274  3.0503  0.8919
    2CHTO   C54  682   4.385   6.753   7.120  0.0647  0.3000  0.3905
    2CHTO   O36  683   4.451   6.866   7.181  0.2138  0.2730  0.9426
    2CHTO   H72  684   4.414   6.945   7.147 -1.9281 -0.8917  0.4646
    2CHTO   O27  685   4.606   6.736   6.893  0.1841  0.2444 -0.7019
    2CHTO   C37  686   4.619   6.860   6.824 -0.1889  0.6024  1.1199
    2CHTO   H79  687   4.698   6.850   6.748  0.3470  1.6077  1.5343
    2CHTO   C38  688   4.491   6.893   6.741 -0.0877  0.2122  0.4224
    2CHTO   H80  689   4.405   6.903   6.809 -1.2020  0.9976 -1.0660
    2CHTO   O31  690   4.472   6.779   6.656  0.0968  0.3830  0.0286
    2CHTO   H68  691   4.546   6.732   6.624  0.2033 -0.1496  1.0439
    2CHTO   C39  692   4.517   7.031   6.671  0.6021  0.9687 -0.2586
    2CHTO   H81  693   4.591   7.013   6.593  1.1822 -0.5326  0.6300
    2CHTO    N7  694   4.394   7.067   6.590 -0.0156  0.2666 -0.1993
    2CHTO   H73  695   4.302   7.080   6.646  0.6059 -0.2477  0.9464
    2CHTO   H74  696   4.413   7.144   6.517  0.6355 -1.3376 -1.7444
    2CHTO   C40  697   4.558   7.146   6.769 -0.2053 -0.2015 -0.5582
    2CHTO   H82  698   4.478   7.165   6.840 -0.7704 -0.6926 -1.0669
    2CHTO   O26  699   4.678   7.102   6.834 -0.1205 -0.2121 -0.2186
    2CHTO   C41  700   4.662   6.978   6.907 -0.1952 -0.0658 -0.5493
    2CHTO   H83  701   4.592   6.989   6.990  0.6547  1.5191 -0.0157
    2CHTO   C52  702   4.801   6.952   6.979  0.2812  0.1447  0.7426
    2CHTO   O35  703   4.813   7.070   7.075 -0.1008 -0.8461 -0.1182
    2CHTO   H71  704   4.886   7.124   7.050  0.2747 -1.0623  0.4792
    2CHTO   O28  705   4.594   7.276   6.713  0.2104 -0.4936  0.1851
    2CHTO   C42  706   4.599   7.397   6.791  0.2414 -0.3104  0.3495
    2CHTO   H84  707   4.643   7.468   6.721  0.8473 -0.9538  0.0718
    2CHTO   C44  708   4.690   7.395   6.919  0.2287 -0.0247  0.4807
    2CHTO   H86  709   4.650   7.322   6.990 -2.0265  2.0527  1.4564
    2CHTO   O32  710   4.821   7.362   6.869 -0.1588  0.3781 -0.0172
    2CHTO   H69  711   4.870   7.443   6.867  0.1084  0.1929 -2.8203
    2CHTO   C48  712   4.681   7.527   6.994  0.7977 -0.1680  0.2249
    2CHTO   H90  713   4.718   7.608   6.933  1.7043 -0.7930 -0.0671
    2CHTO    N9  714   4.781   7.538   7.110 -0.4607 -0.4012 -0.1704
    2CHTO   H77  715   4.804   7.638   7.144  1.7641 -1.1803  0.7354
    2CHTO   H78  716   4.873   7.493   7.076 -0.4222 -0.3239 -0.1704
    2CHTO   C51  717   4.528   7.556   7.032 -0.0737 -0.2936 -0.7137
    2CHTO   H93  718   4.490   7.484   7.105  2.6354 -0.1425  0.8966
    2CHTO   O30  719   4.458   7.564   6.905  0.0446  0.0104 -0.2796
    2CHTO   C46  720   4.453   7.440   6.820  0.0003 -0.3979 -0.4372
    2CHTO   H88  721   4.392   7.369   6.877 -0.4961  0.5989  0.2848
    2CHTO   C53  722   4.386   7.466   6.687  0.6107  0.2614 -0.2364
    2CHTO   O72  723   4.252   7.505   6.703 -0.1451 -0.1325  0.0490
    2CHTO  H199  724   4.198   7.431   6.725  0.5493 -0.2439  1.4094
    2CHTO   O22  725   4.510   7.692   7.088  0.0813 -0.1876 -0.0453
    2CHTO   C31  726   4.385   7.746   7.153  0.6149 -0.1574  0.3487
    2CHTO   H59  727   4.404   7.846   7.197  1.5271  0.0854 -0.5723
    2CHTO   C29  728   4.265   7.763   7.056  0.3857 -0.5961 -1.1615
    2CHTO   H57  729   4.243   7.667   7.008 -0.7868 -0.8337 -0.1632
    2CHTO   O21  730   4.319   7.853   6.958  0.4150  0.2487 -0.0037
    2CHTO   H37  731   4.307   7.819   6.871 -0.0372  0.2027  0.0713
    2CHTO   C27  732   4.137   7.815   7.131  0.4520 -0.2453 -0.4742
    2CHTO   H55  733   4.165   7.913   7.171  0.8128 -0.0871 -1.1153
    2CHTO    N5  734   4.016   7.838   7.042 -0.2049  0.3346  0.0394
    2CHTO   H43  735   3.950   7.754   7.025 -0.0250  0.4160 -1.0846
    2CHTO   H44  736   4.053   7.862   6.944  0.4605  0.2192  0.2604
    2CHTO   C25  737   4.104   7.727   7.255 -1.0227  0.6737 -0.3393
    2CHTO   H53  738   4.072   7.625   7.231  0.7340  0.1139 -0.3132
    2CHTO   O17  739   4.225   7.698   7.341 -0.1630 -0.1041 -0.3863
    2CHTO   C32  740   4.347   7.659   7.272  0.8626  0.1307 -0.8173
    2CHTO   H60  741   4.334   7.556   7.239  2.4066 -0.8137  1.3914
    2CHTO   C36  742   4.453   7.670   7.385  0.4270  0.5331  0.2616
    2CHTO   O25  743   4.575   7.609   7.346  0.0323 -0.4940 -0.1105
    2CHTO   H40  744   4.617   7.655   7.276 -0.0848 -0.5288 -0.2025
    2CHTO   O15  745   3.992   7.799   7.345  0.0868 -0.2443 -0.0705
    2CHTO   C19  746   3.904   7.760   7.447  0.6583 -1.2901  0.1729
    2CHTO   H47  747   3.847   7.850   7.474 -0.5281 -2.1285  0.5199
    2CHTO   C20  748   3.809   7.647   7.401  0.1812 -0.2799 -0.4413
    2CHTO   H48  749   3.860   7.551   7.385  0.0081 -0.9481  2.6734
    2CHTO   O19  750   3.738   7.686   7.283  0.2493 -0.1297  0.6082
    2CHTO   H35  751   3.791   7.666   7.208  0.7205 -0.7155  1.0972
    2CHTO   C21  752   3.705   7.619   7.515  0.8888  0.3677  0.3344
    2CHTO   H49  753   3.651   7.711   7.536 -0.0478 -0.5144  1.9274
    2CHTO    N4  754   3.600   7.515   7.488  0.2973 -0.1384  0.8769
    2CHTO   H41  755   3.644   7.419   7.466 -0.2050 -0.3091  0.6211
    2CHTO   H42  756   3.542   7.509   7.579  0.2092  1.3879  0.9303
    2CHTO   C22  757   3.784   7.595   7.648 -0.1695 -0.3947  0.4370
    2CHTO   H50  758   3.841   7.503   7.639  2.6357  1.5455 -2.5067
    2CHTO   O14  759   3.869   7.707   7.674  0.0320  0.2038  0.2090
    2CHTO   C23  760   3.974   7.719   7.575  0.2533 -0.8422 -0.4348
    2CHTO   H51  761   4.028   7.624   7.562 -0.3815 -1.1438 -0.9153
    2CHTO   C34  762   4.082   7.823   7.622 -0.3895 -0.3950 -0.5689
    2CHTO   O23  763   4.163   7.775   7.728 -0.8232  0.4211  0.4330
    2CHTO   H38  764   4.209   7.851   7.760  0.3230  0.4363 -1.1784
    2CHTO   O16  765   3.690   7.584   7.763 -0.2564 -0.1380 -0.3467
    2CHTO   C24  766   3.754   7.573   7.915  0.1039  0.1811 -0.5262
    2CHTO   H52  767   3.850   7.624   7.921 -0.6878  1.5196  0.9909
    2CHTO   C26  768   3.767   7.426   7.957 -0.4312 -0.5103 -0.6705
    2CHTO   H54  769   3.668   7.376   7.950 -1.1015  0.7315 -0.2570
    2CHTO   O20  770   3.859   7.367   7.868 -0.0317  0.1228 -0.2019
    2CHTO   H36  771   3.821   7.306   7.807 -1.2978 -0.6519  1.3194
    2CHTO   C30  772   3.815   7.414   8.106 -0.1845 -0.9333 -0.3577
    2CHTO   H58  773   3.915   7.458   8.121 -1.0932  0.0499  3.3903
    2CHTO    N6  774   3.826   7.273   8.147  0.2901  0.0307 -0.0823
    2CHTO   H45  775   3.748   7.217   8.097 -2.6808  2.6646  1.4605
    2CHTO   H46  776   3.823   7.254   8.253  1.7324 -0.7995 -0.1695
    2CHTO   C33  777   3.719   7.506   8.194  0.1484  0.1664 -0.4183
    2CHTO   H61  778   3.622   7.454   8.198 -0.0771  0.6146 -0.0637
    2CHTO   O18  779   3.706   7.636   8.144  0.1768 -0.5148  0.0118
    2CHTO   C28  780   3.657   7.648   8.007 -0.4354 -0.5783  0.1865
    2CHTO   H56  781   3.557   7.606   7.994 -1.0114 -0.0079  2.4857
    2CHTO   C35  782   3.659   7.803   7.974  0.3917 -0.1037  0.3526
    2CHTO   O24  783   3.585   7.821   7.854 -0.0126 -0.5541 -0.4589
    2CHTO   H39  784   3.493   7.830   7.870  0.5124 -0.9292  3.2244
    2CHTO    O9  785   3.769   7.506   8.330 -0.4876 -0.1420 -0.5492
    2CHTO   C13  786   3.662   7.593   8.448  0.6346 -0.5121 -0.6271
    2CHTO   H26  787   3.561   7.607   8.404  0.3754 -0.8308 -0.1460
    2CHTO   C11  788   3.725   7.732   8.487  0.4782  0.4790 -0.4383
    2CHTO   H24  789   3.714   7.792   8.395  3.2469 -1.4555 -2.0940
    2CHTO    O8  790   3.869   7.715   8.503  0.5499  0.0320 -0.2287
    2CHTO    H3  791   3.919   7.779   8.455 -0.6595  0.1841 -1.3374
    2CHTO    C9  792   3.650   7.797   8.608 -1.1879  1.0573 -0.1904
    2CHTO   H22  793   3.543   7.803   8.583 -0.6262  0.6131 -2.8304
    2CHTO    N2  794   3.690   7.938   8.635 -0.3316  0.8237  0.3659
    2CHTO   H10  795   3.788   7.956   8.593 -0.7021  0.4224 -0.6862
    2CHTO   H11  796   3.617   8.013   8.609  0.1287  1.0648 -0.2504
    2CHTO    C7  797   3.682   7.710   8.736  0.2396 -0.4952  0.2830
    2CHTO   H20  798   3.593   7.727   8.800 -1.0640 -0.0055 -1.6244
    2CHTO    O4  799   3.674   7.570   8.707  0.4438  0.1031 -0.0265
    2CHTO   C14  800   3.640   7.508   8.582  0.3126 -0.0554  0.1205
    2CHTO   H27  801   3.534   7.475   8.584  0.2891 -0.2472 -2.8781
    2CHTO   C18  802   3.722   7.382   8.578 -0.1895 -0.5271 -0.4106
    2CHTO   O13  803   3.693   7.269   8.667 -0.2427 -0.1869 -0.2889
    2CHTO    H7  804   3.641   7.300   8.739 -0.0116 -0.6847  0.0949
    2CHTO    O2  805   3.818   7.728   8.804  0.1652 -0.0245  0.6385
    2CHTO    C1  806   3.819   7.731   8.945 -0.5223  0.1529  0.5908
    2CHTO   H14  807   3.731   7.672   8.979  0.3585 -1.7586 -0.3687
    2CHTO    C2  808   3.815   7.878   9.007 -0.1648 -0.1639  0.1309
    2CHTO   H15  809   3.890   7.942   8.958  1.7812 -1.9627  0.6623
    2CHTO    O6  810   3.686   7.931   8.974 -0.0472  0.0786 -0.2427
    2CHTO    H1  811   3.612   7.879   9.000 -0.2717  0.5836  0.1404
    2CHTO    C3  812   3.850   7.879   9.166  0.1619  0.0673 -0.1891
    2CHTO   H16  813   3.755   7.848   9.212 -0.1835 -1.3225 -1.7797
    2CHTO    N1  814   3.883   8.017   9.209  0.1668  0.0517  0.1840
    2CHTO    H8  815   3.906   8.010   9.315 -1.0815  0.4370  0.4945
    2CHTO    H9  816   3.807   8.087   9.178  0.9514  0.2967 -1.2130
    2CHTO    C4  817   3.960   7.774   9.201 -0.1378 -0.0169  0.3492
    2CHTO   H17  818   4.055   7.822   9.178 -0.5764  0.4187 -0.5799
    2CHTO    O1  819   3.950   7.652   9.140 -0.4035  0.1366 -0.3738
    2CHTO    C5  820   3.940   7.644   8.998  0.2420  0.1176 -0.1918
    2CHTO   H18  821   4.028   7.691   8.954 -0.3644  3.1772  1.6801
    2CHTO   C16  822   3.933   7.501   8.959 -0.2443 -0.5866  0.3512
    2CHTO   O11  823   4.063   7.445   8.955  0.5835 -0.2618 -0.1330
    2CHTO    H5  824   4.112   7.472   9.030  0.0111  2.5996 -0.7601
    2CHTO    O3  825   3.954   7.743   9.341  0.5020  0.0467 -0.0636
    2CHTO    C6  826   4.066   7.708   9.430 -0.1476 -0.6750  0.1080
    2CHTO   H19  827   4.157   7.696   9.371 -0.9113  0.8556 -1.4237
    2CHTO    C8  828   4.085   7.835   9.528  0.7200  0.5715  0.3900
    2CHTO   H21  829   3.986   7.866   9.563  0.1322 -0.0530 -0.6970
    2CHTO    O7  830   4.133   7.946   9.453 -0.0134 -0.1189  0.2298
    2CHTO    H2  831   4.052   7.976   9.415  0.3644 -0.7438 -1.1134
    2CHTO   C12  832   4.176   7.800   9.654 -0.0620 -0.3835 -0.1825
    2CHTO   H25  833   4.275   7.790   9.604  0.6580  0.3382  1.0610
    2CHTO    N3  834   4.174   7.919   9.746 -0.6024 -0.6723  0.5720
    2CHTO   H12  835   4.212   8.011   9.703 -2.5235 -0.7642 -1.4235
    2CHTO   H13  836   4.236   7.896   9.831 -0.0192 -0.1479  0.2885
    2CHTO   C15  837   4.142   7.660   9.717  0.0516  0.2298 -0.9103
    2CHTO   H28  838   4.044   7.657   9.764 -0.2410 -0.2881 -1.5417
    2CHTO   O10  839   4.244   7.602   9.792  0.0423 -0.7597 -0.2237
    2CHTO    H4  840   4.218   7.523   9.835 -0.0479  0.5398  2.2265
    2CHTO    O5  841   4.138   7.558   9.615 -0.2230  1.0933  0.1763
    2CHTO   C10  842   4.039   7.581   9.511 -0.7978  0.1987  0.1418
    2CHTO   H23  843   3.940   7.584   9.556 -1.3828  2.7600 -1.1922
    2CHTO   C17  844   4.041   7.462   9.418 -0.2801  0.1721 -0.4086
    2CHTO   O12  845   3.964   7.358   9.469 -0.0068 -0.0604 -0.2128
    2CHTO    H6  846   3.939   7.291   9.409  1.0262  0.3615 -1.1335
    3CHTO  H203  847   6.027   3.413   5.254 -2.3978  0.9412  0.5410
    3CHTO   O82  848   6.001   3.438   5.167 -0.7348 -0.3341 -0.3518
    3CHTO  C123  849   5.943   3.333   5.089  0.5136  0.2554  0.4428
    3CHTO  H227  850   5.841   3.316   5.127  1.0033  0.1237  1.7343
    3CHTO   O77  851   5.939   3.401   4.954  0.3810  0.2550  0.3482
    3CHTO  C118  852   5.848   3.331   4.881 -0.4740  0.2413  0.3166
    3CHTO  H222  853   5.751   3.327   4.932 -1.1508 -3.1562 -1.1660
    3CHTO  C125  854   5.832   3.423   4.742 -0.4760  0.1859  0.0209
    3CHTO   O84  855   5.716   3.388   4.671 -0.2360  0.2632  0.4497
    3CHTO  H205  856   5.641   3.422   4.716 -0.6536 -1.6755  1.2644
    3CHTO  C114  857   5.911   3.196   4.835  0.7455 -0.2622 -0.4293
    3CHTO  H218  858   6.002   3.220   4.779  1.6160 -1.0039  0.6404
    3CHTO  C116  859   5.955   3.120   4.966 -0.1298 -0.8037  0.0485
    3CHTO  H220  860   5.868   3.067   5.010 -0.3044  1.0059  1.9645
    3CHTO   O79  861   6.040   3.014   4.907 -0.6502 -0.0595  0.4610
    3CHTO  H201  862   6.054   2.941   4.963  4.6444  0.6169  0.2434
    3CHTO  C120  863   6.024   3.207   5.072 -0.5012  0.0408 -0.3276
    3CHTO  H224  864   6.132   3.228   5.057 -0.2631 -0.5793  0.4383
    3CHTO   N21  865   6.037   3.126   5.197 -0.6502  0.1264 -0.6955
    3CHTO  H211  866   5.951   3.127   5.263 -0.3122 -0.3685 -0.2456
    3CHTO  H212  867   6.122   3.173   5.243 -0.1160  0.6443 -2.2051
    3CHTO   O75  868   5.806   3.129   4.759 -0.3584  0.5403 -0.4038
    3CHTO  C112  869   5.862   3.066   4.610 -0.6152 -0.0292 -0.1936
    3CHTO  H216  870   5.889   2.960   4.621 -2.0789 -0.5874 -1.7717
    3CHTO   O73  871   5.971   3.144   4.552 -0.2803  0.6499  0.0150
    3CHTO  C113  872   6.022   3.080   4.431 -0.3049  0.3939  0.2399
    3CHTO  H217  873   6.042   2.973   4.449  0.3317  0.7391  1.7073
    3CHTO  C124  874   6.159   3.144   4.407 -0.0581  0.6549 -0.6233
    3CHTO   O83  875   6.238   3.074   4.316 -0.2703 -0.1943  0.6046
    3CHTO  H204  876   6.327   3.093   4.336 -0.0531 -0.7581  0.1672
    3CHTO  C109  877   5.915   3.105   4.321  0.7171  0.0012  0.3610
    3CHTO  H213  878   5.899   3.213   4.306 -0.2434 -0.6802 -4.2561
    3CHTO  C110  879   5.784   3.030   4.369  0.1837 -0.2686  0.2555
    3CHTO  H214  880   5.808   2.924   4.370 -0.5998 -0.4508 -0.2952
    3CHTO   O78  881   5.673   3.056   4.273 -0.2444  0.0972  0.0288
    3CHTO  H200  882   5.605   3.109   4.310 -1.0787 -0.3267 -0.8965
    3CHTO  C111  883   5.743   3.072   4.515  1.5003 -0.4492 -0.2124
    3CHTO  H215  884   5.710   3.177   4.514 -1.6988 -1.3936  1.4358
    3CHTO   N19  885   5.624   2.998   4.562  0.1455 -0.3627 -0.1109
    3CHTO  H207  886   5.549   2.995   4.485  0.8506 -2.1105 -0.7363
    3CHTO  H208  887   5.599   3.031   4.662  1.0633 -2.6073  0.8822
    3CHTO   O74  888   5.964   3.048   4.190 -0.2367  0.3491 -0.2270
    3CHTO  C115  889   5.958   3.151   4.069  0.2721 -0.3058 -0.6363
    3CHTO  H219  890   5.941   3.255   4.097  2.1106  1.0208 -4.1465
    3CHTO   O76  891   6.099   3.155   3.993  0.1394  0.6327 -0.3834
    3CHTO  C122  892   6.144   3.028   3.954 -0.5211 -0.4372  0.1010
    3CHTO  H226  893   6.164   2.975   4.047  0.5980  1.3496  0.9047
    3CHTO  C126  894   6.282   3.031   3.877 -0.9618  0.0460  0.4424
    3CHTO   O85  895   6.404   3.048   3.958 -0.1979  0.4975 -0.1103
    3CHTO  H206  896   6.464   3.102   3.910  0.3823  0.0988  0.1649
    3CHTO  C121  897   6.036   2.950   3.868  1.0908  0.0539  0.0207
    3CHTO  H225  898   6.078   2.926   3.768 -1.2235  0.6815 -1.1355
    3CHTO   O81  899   6.019   2.831   3.941 -0.1583 -0.0769  0.0532
    3CHTO  H202  900   6.001   2.755   3.888  1.4330 -0.6013  0.2273
    3CHTO  C119  901   5.908   3.037   3.837  0.0268  0.2520  0.1980
    3CHTO  H223  902   5.951   3.116   3.776  0.2185  0.4198  0.5507
    3CHTO  C117  903   5.848   3.104   3.966 -0.8266  0.2137 -0.9120
    3CHTO  H221  904   5.783   3.037   4.022 -0.2103  1.7763  1.7344
    3CHTO   N20  905   5.752   3.213   3.925 -0.5593  0.2529  0.1374
    3CHTO  H209  906   5.781   3.311   3.962  2.7356 -1.1692  1.5301
    3CHTO  H210  907   5.756   3.228   3.818  1.0503 -0.4788  0.0793
    3CHTO   O80  908   5.795   2.981   3.732  0.6429 -0.1136 -0.5925
    3CHTO  C103  909   5.710   2.853   3.771 -0.2423  0.5681  0.1770
    3CHTO  H190  910   5.755   2.793   3.850 -0.1132  0.5325  0.0759
    3CHTO  C101  911   5.565   2.876   3.820 -0.0012 -0.6135 -0.3954
    3CHTO  H188  912   5.522   2.958   3.761  3.2912  0.2074 -1.7503
    3CHTO   O68  913   5.557   2.920   3.972 -0.3778  0.2333  0.3809
    3CHTO  H168  914   5.636   2.899   4.019  0.6007  0.9338 -0.9041
    3CHTO   C99  915   5.477   2.743   3.802 -0.5478 -0.0091  0.3453
    3CHTO  H186  916   5.511   2.670   3.878 -2.1967  1.6393  2.7585
    3CHTO   N17  917   5.328   2.767   3.816 -0.4053  0.2058 -0.4791
    3CHTO  H174  918   5.310   2.873   3.829 -0.3521 -0.1277  2.8401
    3CHTO  H175  919   5.296   2.706   3.899 -1.0656 -0.1519 -0.9990
    3CHTO   C97  920   5.498   2.669   3.663  0.2621  0.0702  0.1283
    3CHTO  H184  921   5.440   2.710   3.579 -0.0638 -0.8664 -0.1079
    3CHTO   O64  922   5.636   2.645   3.629 -0.5755  0.1400 -0.2007
    3CHTO  C104  923   5.714   2.764   3.640 -0.0784  0.0139 -0.0203
    3CHTO  H191  924   5.683   2.823   3.553  1.6197 -1.5470 -1.7319
    3CHTO  C108  925   5.867   2.732   3.614 -0.6853 -0.3975  0.2173
    3CHTO   O71  926   5.893   2.715   3.472 -0.5391 -0.4423  0.0241
    3CHTO  H171  927   5.866   2.795   3.432 -1.9999 -0.4246  1.0028
    3CHTO   O62  928   5.455   2.531   3.685 -0.2619  0.2114  0.0232
    3CHTO   C91  929   5.441   2.446   3.569  0.2203 -0.0537  0.8374
    3CHTO  H178  930   5.448   2.502   3.476  0.5661  0.6158  1.2614
    3CHTO   C92  931   5.301   2.382   3.570 -0.3991  0.7281 -0.2326
    3CHTO  H179  932   5.279   2.336   3.667 -1.0889  0.0272 -0.7083
    3CHTO   O66  933   5.197   2.480   3.552 -0.0971  0.3985  0.5328
    3CHTO  H166  934   5.172   2.510   3.637 -0.6598  0.8761  0.2023
    3CHTO   C93  935   5.280   2.255   3.475 -0.3533  0.2946 -0.2398
    3CHTO  H180  936   5.286   2.294   3.372  1.7009 -2.4228 -1.1858
    3CHTO   N16  937   5.150   2.188   3.484 -0.0924 -0.0760 -0.2790
    3CHTO  H172  938   5.089   2.214   3.398  1.0114  0.1999 -0.9998
    3CHTO  H173  939   5.098   2.215   3.575 -0.9007  1.2619 -1.1095
    3CHTO   C94  940   5.403   2.153   3.492 -0.0154  0.1998 -0.2394
    3CHTO  H181  941   5.370   2.058   3.534  3.6047 -1.4862 -0.9861
    3CHTO   O61  942   5.518   2.195   3.568 -0.0439  0.1927 -0.1182
    3CHTO   C95  943   5.556   2.330   3.560 -0.4999  0.1193  1.3296
    3CHTO  H182  944   5.629   2.349   3.639 -0.3014  0.3246  1.0993
    3CHTO  C106  945   5.633   2.356   3.427 -0.1995 -0.3210  0.0513
    3CHTO   O69  946   5.740   2.267   3.420  0.1281 -0.7456  0.4573
    3CHTO  H169  947   5.706   2.196   3.368 -1.9508 -0.6348  1.5915
    3CHTO   O63  948   5.450   2.115   3.339 -0.3257  0.3569 -0.0093
    3CHTO   C96  949   5.471   1.952   3.320 -0.1820 -0.0201  0.4388
    3CHTO  H183  950   5.406   1.904   3.393 -0.2278 -0.0151  0.4002
    3CHTO   C98  951   5.619   1.896   3.339 -0.1811  0.3113  0.3325
    3CHTO  H185  952   5.689   1.944   3.270  2.1846  0.1757  2.5451
    3CHTO   O67  953   5.674   1.918   3.474  0.6934  0.4176 -0.1862
    3CHTO  H167  954   5.746   1.860   3.486  0.9546  0.8070  0.1446
    3CHTO  C102  955   5.626   1.735   3.315 -0.1481 -0.4891 -0.3182
    3CHTO  H189  956   5.606   1.687   3.412 -3.5317  1.0180 -0.1968
    3CHTO   N18  957   5.757   1.679   3.268  0.6162  0.3162  0.2783
    3CHTO  H176  958   5.742   1.593   3.204 -2.1372 -0.6943  2.1932
    3CHTO  H177  959   5.819   1.754   3.221  0.8968  0.3894  0.7629
    3CHTO  C105  960   5.515   1.689   3.210 -0.3282  0.6883  0.0643
    3CHTO  H192  961   5.556   1.670   3.111 -0.0162 -1.1292  0.5182
    3CHTO   O65  962   5.400   1.773   3.187 -0.5546 -0.7752 -0.5812
    3CHTO  C100  963   5.426   1.913   3.179  0.0484 -0.0605 -0.2754
    3CHTO  H187  964   5.506   1.952   3.114 -0.7299  0.9743 -0.6203
    3CHTO  C107  965   5.290   1.987   3.143 -0.3964  0.1295 -0.6448
    3CHTO   O70  966   5.245   1.933   3.018 -0.7439  0.1533 -0.2860
    3CHTO  H170  967   5.195   1.854   3.033 -0.0431  0.0111  1.3269
    3CHTO   O57  968   5.483   1.532   3.267  0.4266 -0.6036  0.3189
    3CHTO   C85  969   5.426   1.438   3.175 -0.1773  0.4579  0.1464
    3CHTO  H157  970   5.514   1.428   3.107  0.2186 -1.1513  0.8615
    3CHTO   C83  971   5.303   1.497   3.100  0.7186 -0.9204  0.1989
    3CHTO  H155  972   5.338   1.580   3.039  0.8705 -1.5332 -0.5575
    3CHTO   O56  973   5.208   1.543   3.195  0.0203 -0.3818 -0.4564
    3CHTO  H135  974   5.146   1.590   3.142 -1.8733 -1.1829  0.9623
    3CHTO   C81  975   5.257   1.383   3.001  0.4194 -0.0065 -0.0880
    3CHTO  H153  976   5.345   1.352   2.944 -0.1240  3.5154 -3.0139
    3CHTO   N14  977   5.162   1.426   2.903  0.6524  0.0481  0.5543
    3CHTO  H141  978   5.187   1.374   2.813 -0.1235  0.1814  0.2573
    3CHTO  H142  979   5.159   1.531   2.880  1.2369  0.4455  2.2341
    3CHTO   C79  980   5.213   1.256   3.086  0.9578  0.5042  0.0625
    3CHTO  H151  981   5.190   1.175   3.017 -2.0185  1.2752  0.0772
    3CHTO   O52  982   5.327   1.203   3.158 -0.2296  0.3779 -0.0911
    3CHTO   C86  983   5.387   1.297   3.233 -0.6204 -0.3538 -0.3193
    3CHTO  H158  984   5.313   1.323   3.312  1.3505  2.1799  0.7731
    3CHTO   C90  985   5.505   1.232   3.305 -0.3984  0.1316  0.2618
    3CHTO   O60  986   5.623   1.219   3.226  0.0604  0.6838  0.0684
    3CHTO  H138  987   5.642   1.128   3.213 -1.7418  0.2273  0.4126
    3CHTO   O50  988   5.096   1.282   3.165  0.5900  0.2324 -0.1359
    3CHTO   C73  989   5.005   1.219   3.259 -0.0788  0.6769 -0.5864
    3CHTO  H145  990   5.036   1.116   3.285  0.8409  0.7016 -1.5546
    3CHTO   C74  991   4.867   1.201   3.195  0.2946  0.6188  0.6145
    3CHTO  H146  992   4.870   1.136   3.106 -0.1859  1.4545 -0.0197
    3CHTO   O54  993   4.784   1.124   3.287  0.4772  0.3237 -0.6654
    3CHTO  H133  994   4.709   1.091   3.241  1.1531 -1.4185 -0.5471
    3CHTO   C75  995   4.823   1.348   3.158  0.1486  0.1013 -0.3115
    3CHTO  H147  996   4.904   1.393   3.098  1.0226  1.2368  1.6606
    3CHTO   N13  997   4.698   1.352   3.080  0.6012  0.3076  0.0037
    3CHTO  H139  998   4.623   1.314   3.147 -0.8425 -0.3410 -1.9483
    3CHTO  H140  999   4.674   1.451   3.044  0.6575  0.4281  0.3000
    3CHTO   C76 1000   4.813   1.444   3.287 -0.1986  0.3158  0.2818
    3CHTO  H148 1001   4.728   1.417   3.350  0.1868 -2.4966 -0.3411
    3CHTO   O49 1002   4.944   1.434   3.352 -0.4881 -0.5065  0.2263
    3CHTO   C77 1003   4.979   1.305   3.396  0.0298  0.1042  0.2166
    3CHTO  H149 1004   4.909   1.256   3.464  0.9525 -0.5767  0.6895
    3CHTO   C88 1005   5.111   1.327   3.474  0.5976  0.1393  0.4956
    3CHTO   O58 1006   5.175   1.177   3.524  0.0690 -0.1360 -0.1711
    3CHTO  H136 1007   5.108   1.114   3.544  0.4647 -0.5471 -0.1433
    3CHTO   O51 1008   4.799   1.595   3.230 -0.0915  0.0301 -0.1888
    3CHTO   C78 1009   4.748   1.698   3.325  0.1201 -0.0132  0.2787
    3CHTO  H150 1010   4.755   1.665   3.431 -1.8653  1.5409  0.9342
    3CHTO   C80 1011   4.598   1.717   3.297 -0.0028 -0.4153 -0.4475
    3CHTO  H152 1012   4.590   1.745   3.190 -1.3094 -0.1920 -0.2943
    3CHTO   O55 1013   4.534   1.593   3.327  0.1312  0.3866 -0.0664
    3CHTO  H134 1014   4.441   1.606   3.333  0.4651  3.4072 -0.6960
    3CHTO   C84 1015   4.544   1.844   3.381 -0.3627  0.1020 -0.8331
    3CHTO  H156 1016   4.528   1.804   3.482  1.1469 -2.2969 -1.5119
    3CHTO   N15 1017   4.400   1.872   3.343 -0.2739  0.9708 -0.1456
    3CHTO  H143 1018   4.348   1.923   3.422 -0.9575 -3.0065  2.0916
    3CHTO  H144 1019   4.355   1.776   3.331  0.8798  0.5221 -0.9685
    3CHTO   C87 1020   4.625   1.979   3.376 -0.0360 -0.3495  0.8979
    3CHTO  H159 1021   4.619   2.031   3.280  1.7615  4.0283  2.9617
    3CHTO   O53 1022   4.776   1.931   3.394 -0.1598  0.3200 -0.2812
    3CHTO   C82 1023   4.827   1.835   3.300  0.1333 -0.7953 -0.6971
    3CHTO  H154 1024   4.818   1.860   3.194 -0.1453 -0.9762 -0.7171
    3CHTO   C89 1025   4.975   1.812   3.323 -0.5982  0.3789  0.0023
    3CHTO   O59 1026   5.019   1.777   3.457  0.0490 -0.0017 -0.0377
    3CHTO  H137 1027   5.112   1.773   3.468 -0.0084 -0.1408  0.4058
    3CHTO   O45 1028   4.581   2.068   3.504  0.9668  0.5096 -0.3619
    3CHTO   C67 1029   4.683   2.131   3.591 -1.0126  0.2910 -0.1022
    3CHTO  H124 1030   4.787   2.112   3.564 -1.7854 -1.3045 -2.0518
    3CHTO   C65 1031   4.659   2.289   3.593 -0.0238  0.1426 -0.4241
    3CHTO  H122 1032   4.579   2.300   3.520  0.1629 -0.2425 -0.6926
    3CHTO   O44 1033   4.770   2.354   3.541 -0.1247  0.4920  0.1362
    3CHTO  H102 1034   4.853   2.320   3.568  0.4678  1.4367 -0.4458
    3CHTO   C63 1035   4.610   2.348   3.732  0.5831  0.3271 -0.0302
    3CHTO  H120 1036   4.517   2.297   3.755  2.3988 -2.5060  1.3313
    3CHTO   N11 1037   4.568   2.489   3.739  0.3722  0.8882 -0.7344
    3CHTO  H108 1038   4.658   2.541   3.764  0.2067  0.4000  0.9171
    3CHTO  H109 1039   4.530   2.520   3.644 -0.8639  1.4274 -0.0780
    3CHTO   C61 1040   4.704   2.300   3.853  0.3434  0.2411  0.1604
    3CHTO  H118 1041   4.653   2.309   3.951  0.5997  1.1542  0.2141
    3CHTO   O40 1042   4.732   2.157   3.838 -0.2119  0.2937 -0.5872
    3CHTO   C68 1043   4.668   2.067   3.741  0.1019  0.1477 -0.4274
    3CHTO  H125 1044   4.560   2.053   3.764 -0.0734 -1.2520 -1.9740
    3CHTO   C72 1045   4.728   1.925   3.750 -0.7348 -0.0495 -0.0993
    3CHTO   O48 1046   4.859   1.934   3.698 -0.2306  0.8602 -0.5891
    3CHTO  H105 1047   4.918   1.863   3.716  2.1004  3.0736  0.7601
    3CHTO   O38 1048   4.835   2.370   3.852  0.0169  0.4481  0.0767
    3CHTO   C55 1049   4.925   2.346   3.966  0.2343 -0.0358  0.0191
    3CHTO  H112 1050   4.896   2.263   4.032 -0.5414 -1.0498 -1.5901
    3CHTO   C56 1051   4.932   2.487   4.040  0.1056  0.2690  0.2492
    3CHTO  H113 1052   4.931   2.566   3.964  1.9211  2.4043  2.3748
    3CHTO   O42 1053   4.803   2.504   4.109 -0.8346  0.0652 -0.1038
    3CHTO  H100 1054   4.800   2.592   4.140  0.3992  0.3372 -0.6956
    3CHTO   C57 1055   5.051   2.502   4.136  0.2669  0.3512  1.1307
    3CHTO  H114 1056   5.028   2.439   4.222  0.9921 -1.6981 -0.1262
    3CHTO   N10 1057   5.067   2.646   4.175 -0.0082 -0.0330  0.2168
    3CHTO  H106 1058   5.003   2.667   4.259 -0.3522 -1.3544  0.3021
    3CHTO  H107 1059   5.166   2.682   4.197 -0.4514  0.6768  1.0507
    3CHTO   C58 1060   5.182   2.455   4.074  0.0835  0.0169  0.3661
    3CHTO  H115 1061   5.214   2.527   3.996 -2.1796  3.2052  2.1991
    3CHTO   O37 1062   5.170   2.327   4.021  0.3220  0.2810 -0.0901
    3CHTO   C59 1063   5.071   2.316   3.916 -0.2635  0.1187  0.5584
    3CHTO  H116 1064   5.114   2.387   3.845  0.6801 -1.3074 -0.3324
    3CHTO   C70 1065   5.073   2.173   3.862 -0.8851 -0.2218 -0.3641
    3CHTO   O46 1066   5.200   2.133   3.817 -0.2665  0.0956 -0.0358
    3CHTO  H103 1067   5.205   2.040   3.809 -3.0297 -0.0949 -0.1875
    3CHTO   O39 1068   5.306   2.439   4.198 -0.6541  0.0114  0.1712
    3CHTO   C60 1069   5.440   2.456   4.157 -0.3868 -0.3812 -0.6818
    3CHTO  H117 1070   5.437   2.459   4.049 -1.9074  1.7573 -0.6112
    3CHTO   C62 1071   5.506   2.597   4.195 -0.7710 -0.3649 -0.3833
    3CHTO  H119 1072   5.452   2.676   4.139  0.2896  1.4538  1.0610
    3CHTO   O43 1073   5.496   2.618   4.342  0.4375 -0.6297  0.1153
    3CHTO  H101 1074   5.457   2.701   4.362  2.2671  0.1693  0.5348
    3CHTO   C66 1075   5.657   2.594   4.131  0.2946  0.2494 -0.6622
    3CHTO  H123 1076   5.654   2.582   4.022  1.2380  0.4401 -0.7098
    3CHTO   N12 1077   5.751   2.710   4.142 -0.1940 -0.2627 -0.0830
    3CHTO  H110 1078   5.831   2.707   4.070  2.0170  1.2536  2.2171
    3CHTO  H111 1079   5.787   2.712   4.244 -2.0349  0.3127  0.5778
    3CHTO   C69 1080   5.730   2.469   4.188 -0.4454  0.2627  0.6538
    3CHTO  H126 1081   5.745   2.476   4.297  1.1497  0.1583  0.4621
    3CHTO   O41 1082   5.648   2.330   4.158 -0.1932 -0.2668  0.0162
    3CHTO   C64 1083   5.512   2.321   4.192  0.4900  0.8547  1.1481
    3CHTO  H121 1084   5.504   2.298   4.301 -0.4995  1.0290  1.1098
    3CHTO   C71 1085   5.462   2.199   4.121  0.1825  0.0206  0.7246
    3CHTO   O47 1086   5.465   2.217   3.976 -0.1622  0.2526 -0.4539
    3CHTO  H104 1087   5.553   2.216   3.944  0.7099  0.6981  1.8573
    3CHTO   O34 1088   5.868   2.436   4.122 -0.4857  0.0782  0.0465
    3CHTO   C49 1089   5.948   2.442   3.995  0.4185 -0.1898  0.4692
    3CHTO   H91 1090   5.959   2.548   3.974 -1.1958 -0.1249 -0.1691
    3CHTO   C47 1091   5.874   2.374   3.875 -1.5457  0.2314  0.2325
    3CHTO   H89 1092   5.929   2.409   3.785 -1.8952  2.7662  0.9511
    3CHTO   O33 1093   5.748   2.430   3.867  0.6636 -0.4393 -0.2991
    3CHTO   H70 1094   5.743   2.514   3.825 -0.1346  0.7745  2.1025
    3CHTO   C45 1095   5.871   2.210   3.896  0.5656  0.3215 -0.1280
    3CHTO   H87 1096   5.832   2.200   3.998  0.7905  0.5718 -0.0167
    3CHTO    N8 1097   5.781   2.137   3.803 -0.1114 -0.1481  0.5479
    3CHTO   H75 1098   5.703   2.205   3.774 -0.4673 -0.1851  1.3999
    3CHTO   H76 1099   5.835   2.116   3.711  1.0830  1.9706  0.7117
    3CHTO   C43 1100   6.022   2.166   3.891 -0.3657  0.1447 -0.4607
    3CHTO   H85 1101   6.034   2.058   3.900  3.2488  0.7447  3.6855
    3CHTO   O29 1102   6.099   2.234   3.999  0.5611 -0.7589 -0.2379
    3CHTO   C50 1103   6.089   2.378   4.006 -0.2476 -0.4150  0.0230
    3CHTO   H92 1104   6.134   2.414   4.099  0.3212  1.1341 -0.8327
    3CHTO   C54 1105   6.190   2.445   3.910 -0.5370  0.3400 -0.1109
    3CHTO   O36 1106   6.321   2.408   3.964 -0.0031 -0.6545 -0.4893
    3CHTO   H72 1107   6.373   2.480   3.934 -1.5622  1.2222  1.1443
    3CHTO   O27 1108   6.098   2.186   3.771  0.4790  0.3483  0.5950
    3CHTO   C37 1109   6.122   2.137   3.640  0.2925  0.1246  0.1773
    3CHTO   H79 1110   6.230   2.136   3.621  0.1657  3.0538 -0.9226
    3CHTO   C38 1111   6.084   1.986   3.615 -0.0696 -0.4895  0.6279
    3CHTO   H80 1112   5.979   1.972   3.643 -0.6895  1.0321 -0.8459
    3CHTO   O31 1113   6.169   1.923   3.713  0.1174  0.6243  0.2579
    3CHTO   H68 1114   6.127   1.842   3.735  2.1577 -0.8711 -1.1843
    3CHTO   C39 1115   6.120   1.949   3.465  0.4442 -0.2554 -0.3303
    3CHTO   H81 1116   6.224   1.980   3.458  0.7145 -0.1088  3.2401
    3CHTO    N7 1117   6.094   1.796   3.438 -0.4007  0.4885 -0.3755
    3CHTO   H73 1118   6.135   1.776   3.340 -1.4964 -3.3680 -0.1429
    3CHTO   H74 1119   5.990   1.764   3.433 -0.4772  0.9946 -3.3121
    3CHTO   C40 1120   6.045   2.053   3.364 -0.2933 -0.0097 -0.2071
    3CHTO   H82 1121   5.937   2.040   3.372 -0.3167  0.7587  0.7780
    3CHTO   O26 1122   6.084   2.182   3.401  0.5553  0.3172  0.0474
    3CHTO   C41 1123   6.046   2.227   3.539  0.4308 -0.1392  0.2601
    3CHTO   H83 1124   5.939   2.226   3.562  1.0526  0.1094  3.3014
    3CHTO   C52 1125   6.090   2.370   3.548 -0.1730  0.5286  0.0066
    3CHTO   O35 1126   6.008   2.445   3.517 -0.0727 -0.8265  0.2477
    3CHTO   H71 1127   6.020   2.523   3.568  0.6131 -0.7482 -0.0290
    3CHTO   O28 1128   6.098   2.053   3.232  0.2595  0.6893 -0.4961
    3CHTO   C42 1129   6.033   2.035   3.104  0.6232 -0.6676 -0.3622
    3CHTO   H84 1130   6.102   2.090   3.040 -0.6461 -1.3858 -2.4120
    3CHTO   C44 1131   5.890   2.105   3.080 -0.1595 -0.0326 -0.7620
    3CHTO   H86 1132   5.823   2.075   3.161  1.4240  1.1433  1.0535
    3CHTO   O32 1133   5.906   2.255   3.092  0.1625 -0.1732 -0.0153
    3CHTO   H69 1134   5.836   2.293   3.142 -0.6834 -1.1241 -0.4427
    3CHTO   C48 1135   5.827   2.049   2.947 -0.6390 -0.4660 -0.4824
    3CHTO   H90 1136   5.889   2.096   2.870  0.1982 -0.2784  0.2919
    3CHTO    N9 1137   5.691   2.096   2.916  0.2797  0.2820  0.5098
    3CHTO   H77 1138   5.615   2.066   2.987  1.1161 -2.3854  0.3158
    3CHTO   H78 1139   5.678   2.199   2.885 -1.2678  0.2048  0.8272
    3CHTO   C51 1140   5.833   1.899   2.935 -1.1818 -0.7852 -0.1904
    3CHTO   H93 1141   5.773   1.849   3.011 -0.2829 -1.3869  0.1458
    3CHTO   O30 1142   5.971   1.858   2.946 -0.1675 -0.8318  0.2966
    3CHTO   C46 1143   6.038   1.884   3.067 -0.5339  0.6054 -0.1654
    3CHTO   H88 1144   5.998   1.825   3.149  0.4227 -3.1331 -2.2638
    3CHTO   C53 1145   6.178   1.853   3.021  0.0326 -0.1365 -0.0195
    3CHTO   O72 1146   6.269   1.837   3.132  0.3740 -0.1055 -0.0371
    3CHTO  H199 1147   6.279   1.923   3.170 -0.3354  0.8729 -2.0064
    3CHTO   O22 1148   5.802   1.848   2.800  0.3859 -0.3116  0.3622
    3CHTO   C31 1149   5.764   1.713   2.761  0.0486 -0.0818 -0.3714
    3CHTO   H59 1150   5.783   1.703   2.653 -0.1966 -0.5537 -0.3718
    3CHTO   C29 1151   5.838   1.594   2.829 -0.0500 -0.2988  0.4670
    3CHTO   H57 1152   5.838   1.597   2.939  0.3444 -0.1795  0.4626
    3CHTO   O21 1153   5.972   1.606   2.793 -1.1945  0.3301 -0.0357
    3CHTO   H37 1154   6.011   1.525   2.822 -0.4748  0.1593 -1.4253
    3CHTO   C27 1155   5.789   1.453   2.782  0.3118 -0.0669 -0.2194
    3CHTO   H55 1156   5.791   1.454   2.672  0.1282 -2.1927 -0.2564
    3CHTO    N5 1157   5.867   1.333   2.837 -0.2212  0.1511  0.2923
    3CHTO   H43 1158   5.973   1.352   2.847  0.0174 -0.5842 -0.7078
    3CHTO   H44 1159   5.827   1.314   2.936 -0.3858 -0.6121  0.0789
    3CHTO   C25 1160   5.634   1.458   2.808 -0.1547 -0.1436 -0.0889
    3CHTO   H53 1161   5.617   1.476   2.915 -1.8284  0.9308 -0.5210
    3CHTO   O17 1162   5.565   1.565   2.744  0.8318 -0.5873  0.0078
    3CHTO   C32 1163   5.607   1.694   2.775  0.1436 -0.1992 -0.4687
    3CHTO   H60 1164   5.579   1.710   2.879 -3.3584  1.8995 -1.6578
    3CHTO   C36 1165   5.522   1.791   2.689  0.6503 -0.4365 -0.1905
    3CHTO   O25 1166   5.388   1.770   2.730 -0.3664  0.2034 -0.1015
    3CHTO   H40 1167   5.344   1.823   2.665 -0.4542  1.1923  0.7419
    3CHTO   O15 1168   5.563   1.340   2.757 -0.5011 -0.2698  0.6406
    3CHTO   C19 1169   5.494   1.221   2.701 -0.5385  0.4260  0.9591
    3CHTO   H47 1170   5.567   1.173   2.633 -0.0252  0.5006  1.4501
    3CHTO   C20 1171   5.454   1.115   2.801  0.5757  0.4196 -0.6157
    3CHTO   H48 1172   5.424   1.164   2.895 -0.3371  1.7009 -1.5609
    3CHTO   O19 1173   5.565   1.036   2.832  0.5432  0.5327  0.0065
    3CHTO   H35 1174   5.548   0.965   2.891  1.3746 -1.4297 -2.0677
    3CHTO   C21 1175   5.335   1.020   2.750 -0.5193 -0.2890 -0.6440
    3CHTO   H49 1176   5.378   0.949   2.680  0.6705 -1.6067  1.3712
    3CHTO    N4 1177   5.278   0.932   2.849 -0.5906  0.3041  0.7674
    3CHTO   H41 1178   5.218   0.849   2.815 -0.3940  0.8159 -0.9001
    3CHTO   H42 1179   5.342   0.904   2.931  0.9657  1.1720 -0.1163
    3CHTO   C22 1180   5.224   1.095   2.673 -0.4015  0.0238 -0.1565
    3CHTO   H50 1181   5.178   1.165   2.743 -0.5525 -2.9324  2.8209
    3CHTO   O14 1182   5.281   1.173   2.567  0.7612  0.8992  0.3887
    3CHTO   C23 1183   5.376   1.271   2.613  0.3088  0.0981 -0.6534
    3CHTO   H51 1184   5.309   1.335   2.671 -1.6327 -2.2069 -0.3023
    3CHTO   C34 1185   5.417   1.348   2.497 -0.3789 -0.3991  0.5911
    3CHTO   O23 1186   5.507   1.288   2.398  0.3953 -0.5108  0.3459
    3CHTO   H38 1187   5.469   1.271   2.314 -2.0530  0.0464  1.2917
    3CHTO   O16 1188   5.118   1.021   2.612  0.0739 -0.2616 -0.5988
    3CHTO   C24 1189   4.975   1.106   2.618  1.0047  0.1709 -0.2176
    3CHTO   H52 1190   4.991   1.212   2.641  1.1188  0.2143 -0.4833
    3CHTO   C26 1191   4.881   1.049   2.735 -0.7648 -0.2147  0.1752
    3CHTO   H54 1192   4.875   0.938   2.727  0.4606 -0.3158  0.5518
    3CHTO   O20 1193   4.954   1.088   2.850 -0.2732  0.2086 -0.3270
    3CHTO   H36 1194   4.923   1.036   2.922  0.5374  1.6792  1.1237
    3CHTO   C30 1195   4.735   1.104   2.729  0.4146  0.1432 -0.2057
    3CHTO   H58 1196   4.740   1.205   2.772  0.6408 -0.5836  1.5277
    3CHTO    N6 1197   4.646   1.033   2.824  0.0008 -0.5370 -0.0119
    3CHTO   H45 1198   4.622   1.095   2.909 -1.0100  0.7725 -1.2284
    3CHTO   H46 1199   4.552   1.007   2.778  0.7198  1.1373 -2.5260
    3CHTO   C33 1200   4.684   1.115   2.580 -0.0419  0.3154  0.1133
    3CHTO   H61 1201   4.656   1.015   2.543 -1.1860  0.4523  0.5784
    3CHTO   O18 1202   4.787   1.168   2.495  0.1247 -0.3293  0.3731
    3CHTO   C28 1203   4.905   1.093   2.487 -0.1999 -0.5027  0.4783
    3CHTO   H56 1204   4.885   0.988   2.468  0.8682 -0.7780  0.8707
    3CHTO   C35 1205   4.991   1.143   2.369  0.3873 -0.2732  0.1437
    3CHTO   O24 1206   5.059   1.268   2.399  0.3929 -0.1837 -0.5137
    3CHTO   H39 1207   5.151   1.253   2.398  0.1391 -1.8357 -0.8860
    3CHTO    O9 1208   4.564   1.194   2.577 -0.0434 -0.6852  0.0751
    3CHTO   C13 1209   4.573   1.358   2.598 -0.5678 -0.6957 -0.5718
    3CHTO   H26 1210   4.676   1.383   2.630 -1.0677 -2.8237  3.0026
    3CHTO   C11 1211   4.465   1.387   2.712 -0.5994  0.4297 -0.1674
    3CHTO   H24 1212   4.495   1.336   2.805 -0.6102  0.1989 -0.2895
    3CHTO    O8 1213   4.334   1.337   2.673  0.3115 -0.0914  0.0629
    3CHTO    H3 1214   4.326   1.245   2.684 -1.1928 -0.3218 -2.4361
    3CHTO    C9 1215   4.459   1.535   2.747  0.1975 -0.3959 -0.5094
    3CHTO   H22 1216   4.545   1.556   2.812  0.1944  1.1968 -0.9831
    3CHTO    N2 1217   4.351   1.572   2.846  0.3509  0.3048  0.3734
    3CHTO   H10 1218   4.378   1.564   2.950 -2.1590 -0.6934  0.9715
    3CHTO   H11 1219   4.270   1.504   2.828  2.2034 -1.4428 -1.6939
    3CHTO    C7 1220   4.477   1.629   2.614  0.2528 -0.2761  0.2165
    3CHTO   H20 1221   4.580   1.670   2.622 -0.1335  0.7196  0.1704
    3CHTO    O4 1222   4.458   1.553   2.492 -0.0447  0.1196  0.0438
    3CHTO   C14 1223   4.547   1.446   2.468  0.2525 -0.0644  0.0033
    3CHTO   H27 1224   4.641   1.489   2.427  0.6398 -2.3161 -1.5576
    3CHTO   C18 1225   4.485   1.367   2.351  0.0761  0.7772  0.5003
    3CHTO   O13 1226   4.360   1.310   2.392  0.2971 -0.3194 -0.3579
    3CHTO    H7 1227   4.280   1.358   2.385 -0.0516 -0.9188 -0.5381
    3CHTO    O2 1228   4.372   1.752   2.614  0.1050  0.2792 -0.1992
    3CHTO    C1 1229   4.437   1.883   2.634  0.0641  0.2805  0.3946
    3CHTO   H14 1230   4.534   1.885   2.581  0.5385 -1.2518  1.1913
    3CHTO    C2 1231   4.462   1.931   2.787 -0.7070  0.8110  0.4177
    3CHTO   H15 1232   4.365   1.931   2.839 -0.5725  0.7220  0.6693
    3CHTO    O6 1233   4.542   1.836   2.856  0.1562  0.3931 -0.0171
    3CHTO    H1 1234   4.498   1.778   2.915 -0.5296 -0.2738 -1.1607
    3CHTO    C3 1235   4.525   2.074   2.790  0.1984  0.3748  0.4260
    3CHTO   H16 1236   4.626   2.072   2.746  1.9682 -0.4031  4.3425
    3CHTO    N1 1237   4.533   2.127   2.927 -0.1177  0.7814 -0.2288
    3CHTO    H8 1238   4.590   2.060   2.989  0.5830  0.6337 -1.0224
    3CHTO    H9 1239   4.444   2.168   2.973  1.5675  1.9239  2.1283
    3CHTO    C4 1240   4.439   2.172   2.692  0.8918  0.4346 -0.4759
    3CHTO   H17 1241   4.345   2.208   2.734  0.3211  0.7436 -1.9884
    3CHTO    O1 1242   4.413   2.123   2.560 -0.3585 -0.5949  0.1750
    3CHTO    C5 1243   4.348   1.992   2.561  0.5320 -1.0575 -0.2595
    3CHTO   H18 1244   4.257   1.995   2.622  1.1348 -2.7544  0.7721
    3CHTO   C16 1245   4.306   1.969   2.411  0.3929  0.1644  0.2352
    3CHTO   O11 1246   4.165   1.998   2.389 -0.4340 -0.5866  0.3773
    3CHTO    H5 1247   4.147   1.976   2.300 -0.3952  0.1675  0.1807
    3CHTO    O3 1248   4.522   2.281   2.660 -0.1328 -0.0776 -0.5462
    3CHTO    C6 1249   4.472   2.409   2.608 -0.5419 -0.3264  0.3673
    3CHTO   H19 1250   4.380   2.388   2.554 -0.3149 -0.4893  0.0390
    3CHTO    C8 1251   4.446   2.527   2.704 -0.0801 -0.1253  0.2565
    3CHTO   H21 1252   4.540   2.555   2.751  0.4222 -1.6364  0.1630
    3CHTO    O7 1253   4.358   2.461   2.798 -0.4512 -0.2505  0.4812
    3CHTO    H2 1254   4.382   2.482   2.885  1.3948 -1.6869  0.3428
    3CHTO   C12 1255   4.373   2.640   2.627 -0.0008 -0.6412 -0.6757
    3CHTO   H25 1256   4.284   2.590   2.584 -0.5659  0.0418 -0.3086
    3CHTO    N3 1257   4.330   2.760   2.718  0.3141  0.3618  0.3545
    3CHTO   H12 1258   4.396   2.845   2.702  2.9998 -1.3809  1.8691
    3CHTO   H13 1259   4.335   2.732   2.822  0.4677  0.9884  0.5240
    3CHTO   C15 1260   4.474   2.678   2.508  0.5036 -0.4988 -0.0391
    3CHTO   H28 1261   4.564   2.722   2.550  0.8807 -1.0987 -0.2174
    3CHTO   O10 1262   4.422   2.772   2.402 -0.0420  0.3370  0.5964
    3CHTO    H4 1263   4.407   2.857   2.440 -0.9044  0.4231  0.0733
    3CHTO    O5 1264   4.513   2.564   2.432  0.0286  0.1306  0.2386
    3CHTO   C10 1265   4.574   2.460   2.506  0.0876  0.0699 -0.4133
    3CHTO   H23 1266   4.667   2.496   2.550  0.3763 -3.8456  2.4493
    3CHTO   C17 1267   4.610   2.352   2.400 -0.1435  0.3128  0.3950
    3CHTO   O12 1268   4.500   2.305   2.322  0.4166 -0.5019 -0.1296
    3CHTO    H6 1269   4.432   2.286   2.384  0.8219  0.4277  0.6188
    4CHTO  H203 1270   5.364   8.459   1.331 -1.4710 -2.9420  0.7425
    4CHTO   O82 1271   5.441   8.455   1.384 -0.3449 -0.3867 -0.5872
    4CHTO  C123 1272   5.553   8.392   1.326  0.1624  0.3202  0.0315
    4CHTO  H227 1273   5.518   8.304   1.270  0.8753  0.1227 -0.1114
    4CHTO   O77 1274   5.606   8.502   1.254  0.1066 -0.0616  0.0674
    4CHTO  C118 1275   5.723   8.477   1.179 -0.0429  0.3568  0.4029
    4CHTO  H222 1276   5.702   8.400   1.103  0.7998  0.5446 -0.0236
    4CHTO  C125 1277   5.751   8.607   1.093 -0.4829 -0.1556 -0.5593
    4CHTO   O84 1278   5.812   8.712   1.169  0.4630  0.2733  0.6320
    4CHTO  H205 1279   5.880   8.762   1.128  1.7608 -1.4737  0.5969
    4CHTO  C114 1280   5.842   8.432   1.264  0.0859 -1.3798  0.2268
    4CHTO  H218 1281   5.857   8.510   1.338  1.2548 -2.8719  1.5840
    4CHTO  C116 1282   5.797   8.309   1.345  0.4855  0.0635 -0.0125
    4CHTO  H220 1283   5.770   8.234   1.268 -0.9087  1.4665 -0.9297
    4CHTO   O79 1284   5.913   8.262   1.418  0.3160 -0.1968  0.0244
    4CHTO  H201 1285   5.938   8.179   1.381  1.0573 -0.6208  1.4488
    4CHTO  C120 1286   5.668   8.339   1.429 -0.1641 -0.1613 -0.0960
    4CHTO  H224 1287   5.683   8.419   1.505  0.9709  0.1003 -0.5809
    4CHTO   N21 1288   5.621   8.226   1.512  0.5753  0.1484 -0.1473
    4CHTO  H211 1289   5.608   8.258   1.614 -4.2605  1.2148 -0.9584
    4CHTO  H212 1290   5.519   8.196   1.490 -0.0109  0.2018  2.3186
    4CHTO   O75 1291   5.952   8.408   1.174 -0.5543  0.1857 -0.1127
    4CHTO  C112 1292   6.103   8.468   1.240  0.4972  0.2189  0.6215
    4CHTO  H216 1293   6.092   8.460   1.349 -3.7507 -0.5440  0.2169
    4CHTO   O73 1294   6.120   8.604   1.194 -0.4494  0.4677  0.6074
    4CHTO  C113 1295   6.231   8.680   1.254 -0.2729  0.5157  0.6103
    4CHTO  H217 1296   6.213   8.681   1.363 -1.2474  1.8122  0.4424
    4CHTO  C124 1297   6.213   8.824   1.200 -0.1567  0.7845  0.0698
    4CHTO   O83 1298   6.322   8.911   1.230  0.1572  0.0332 -0.0267
    4CHTO  H204 1299   6.326   8.967   1.155 -0.7547 -1.5669 -1.2978
    4CHTO  C109 1300   6.353   8.605   1.207  0.1946 -0.1193  0.2793
    4CHTO  H213 1301   6.360   8.620   1.099 -0.9868  0.7265  0.3113
    4CHTO  C110 1302   6.345   8.454   1.245  0.2356  0.2812  0.1728
    4CHTO  H214 1303   6.340   8.439   1.353  1.4758 -3.4792 -0.2252
    4CHTO   O78 1304   6.469   8.388   1.199  0.0845  0.5737  0.1430
    4CHTO  H200 1305   6.519   8.432   1.133  2.3507 -1.8204  0.2037
    4CHTO  C111 1306   6.223   8.390   1.178 -0.7292  0.1935 -0.0286
    4CHTO  H215 1307   6.228   8.413   1.071  0.0972 -0.9106 -0.2448
    4CHTO   N19 1308   6.209   8.243   1.201 -0.3682  0.2944  0.2715
    4CHTO  H207 1309   6.238   8.218   1.302 -0.5580 -0.6432  0.0960
    4CHTO  H208 1310   6.107   8.209   1.190 -0.0342 -0.3704 -0.8242
    4CHTO   O74 1311   6.471   8.652   1.276  0.1067  0.7371 -0.4816
    4CHTO  C115 1312   6.610   8.685   1.179  0.2135 -0.3768  0.4501
    4CHTO  H219 1313   6.604   8.635   1.082 -0.0191  0.1289  0.2065
    4CHTO   O76 1314   6.615   8.838   1.140 -0.0428 -0.5151 -0.4978
    4CHTO  C122 1315   6.660   8.920   1.249  0.2243  0.0339  0.0936
    4CHTO  H226 1316   6.594   8.898   1.333 -0.7504  0.3352 -0.5883
    4CHTO  C126 1317   6.639   9.069   1.205 -0.1195 -0.1075 -0.2262
    4CHTO   O85 1318   6.697   9.169   1.292  0.5613 -0.3487 -0.3133
    4CHTO  H206 1319   6.774   9.129   1.327 -0.2228 -1.9689 -0.4121
    4CHTO  C121 1320   6.810   8.885   1.278 -0.1019 -0.1011  0.3998
    4CHTO  H225 1321   6.873   8.962   1.229  0.3619 -1.0132 -0.4428
    4CHTO   O81 1322   6.827   8.903   1.418 -0.4731  0.6814  0.1444
    4CHTO  H202 1323   6.903   8.957   1.428 -0.3545  0.3693  0.8821
    4CHTO  C119 1324   6.854   8.749   1.223 -0.0492  0.2975 -0.2040
    4CHTO  H223 1325   6.865   8.763   1.116  1.7182  2.1273  0.1837
    4CHTO  C117 1326   6.746   8.640   1.251  0.1029 -0.3422 -0.7620
    4CHTO  H221 1327   6.730   8.626   1.358  2.0036 -1.1082 -0.5608
    4CHTO   N20 1328   6.799   8.508   1.205 -0.2851  0.1040 -0.0735
    4CHTO  H209 1329   6.755   8.427   1.261 -0.1899  0.8667  1.1437
    4CHTO  H210 1330   6.794   8.504   1.098  0.8715  1.7263 -0.2102
    4CHTO   O80 1331   7.014   8.712   1.257 -0.6333  0.2427  0.6835
    4CHTO  C103 1332   7.147   8.799   1.198  0.1172 -0.5072 -0.2620
    4CHTO  H190 1333   7.120   8.865   1.116  1.7354  0.5586  0.0386
    4CHTO  C101 1334   7.212   8.886   1.299  0.0689 -0.5534  0.1663
    4CHTO  H188 1335   7.228   8.826   1.389 -0.8619 -1.0338  0.0112
    4CHTO   O68 1336   7.109   9.031   1.323 -0.7930  0.2688  0.7180
    4CHTO  H168 1337   7.090   9.064   1.237  0.4211 -1.1329 -0.1118
    4CHTO   C99 1338   7.362   8.933   1.253 -0.2969 -0.1802 -0.2959
    4CHTO  H186 1339   7.363   9.010   1.172  1.6857  1.7395  1.4951
    4CHTO   N17 1340   7.444   9.001   1.351  0.0717 -0.2292 -0.4536
    4CHTO  H174 1341   7.543   8.964   1.374  0.4252  0.8032 -0.3169
    4CHTO  H175 1342   7.458   9.103   1.319  0.7947 -0.4470 -0.8332
    4CHTO   C97 1343   7.442   8.812   1.192  0.1288  0.6451  0.3190
    4CHTO  H184 1344   7.474   8.742   1.271  0.3523 -0.1360 -0.4483
    4CHTO   O64 1345   7.366   8.748   1.092  0.1344 -0.0541  0.0113
    4CHTO  C104 1346   7.241   8.692   1.131 -0.7797  0.1557 -0.0679
    4CHTO  H191 1347   7.248   8.602   1.192  2.6134 -0.7208 -1.6375
    4CHTO  C108 1348   7.175   8.645   1.006  0.0795 -0.0969  0.3008
    4CHTO   O71 1349   7.249   8.566   0.921  0.0179 -0.2147  0.4584
    4CHTO  H171 1350   7.339   8.575   0.945  0.0869 -0.3580  0.2572
    4CHTO   O62 1351   7.561   8.867   1.126 -0.1770  0.3998 -0.4818
    4CHTO   C91 1352   7.670   8.785   1.082  0.0550  0.4142  0.2986
    4CHTO  H178 1353   7.666   8.692   1.139  0.0792  1.0785  1.3908
    4CHTO   C92 1354   7.807   8.847   1.130  0.1977 -0.5485  0.2127
    4CHTO  H179 1355   7.814   8.858   1.239 -1.5871 -1.0646  0.4039
    4CHTO   O66 1356   7.912   8.756   1.084  0.3173 -0.1287 -0.1064
    4CHTO  H166 1357   7.973   8.741   1.154  0.6607  0.8303 -0.1907
    4CHTO   C93 1358   7.837   8.987   1.053 -0.6649 -0.6107 -1.0343
    4CHTO  H180 1359   7.944   9.007   1.045  0.4825 -4.7002  2.1047
    4CHTO   N16 1360   7.787   9.097   1.136  0.1213 -0.1835  0.0962
    4CHTO  H172 1361   7.743   9.174   1.075 -1.3351 -1.0641  0.0192
    4CHTO  H173 1362   7.707   9.066   1.202 -1.0695 -0.3801 -1.4224
    4CHTO   C94 1363   7.766   8.996   0.911 -0.5039 -0.7284 -0.2413
    4CHTO  H181 1364   7.666   9.036   0.921  0.2841  1.1853  0.1992
    4CHTO   O61 1365   7.753   8.860   0.853 -0.3852 -0.3103 -0.5967
    4CHTO   C95 1366   7.659   8.770   0.927  0.3053 -0.2007  0.6862
    4CHTO  H182 1367   7.555   8.795   0.908  0.3724  0.3860  1.0905
    4CHTO  C106 1368   7.672   8.623   0.877 -0.5659  0.5943  0.5326
    4CHTO   O69 1369   7.794   8.552   0.901  0.2984 -0.7416 -0.3185
    4CHTO  H169 1370   7.798   8.548   0.995  1.0957  0.7923 -0.2682
    4CHTO   O63 1371   7.853   9.082   0.804  0.4789  0.2350 -0.0283
    4CHTO   C96 1372   7.743   9.150   0.691 -0.3243 -1.2173  0.9437
    4CHTO  H183 1373   7.650   9.102   0.722 -0.4650  0.7115  3.5949
    4CHTO   C98 1374   7.779   9.105   0.545  0.3271  0.4093  0.1481
    4CHTO  H185 1375   7.888   9.118   0.538  0.2617  1.3227  0.7641
    4CHTO   O67 1376   7.752   8.962   0.529  0.0274 -0.3323  0.2110
    4CHTO  H167 1377   7.801   8.917   0.595  1.5488  3.0410  1.5017
    4CHTO  C102 1378   7.702   9.189   0.427  0.0028 -1.0747  0.3141
    4CHTO  H189 1379   7.605   9.140   0.412 -0.9667 -0.1990  3.3635
    4CHTO   N18 1380   7.771   9.187   0.296 -0.0406 -0.1285 -0.5381
    4CHTO  H176 1381   7.851   9.115   0.307 -0.3361 -0.4022 -0.1416
    4CHTO  H177 1382   7.709   9.155   0.213 -1.5248  0.4006  0.3490
    4CHTO  C105 1383   7.666   9.328   0.480 -0.4077  0.5039 -0.4746
    4CHTO  H192 1384   7.678   9.398   0.398  0.9585  0.7287 -0.0905
    4CHTO   O65 1385   7.733   9.384   0.596 -0.5907 -0.7340 -0.4547
    4CHTO  C100 1386   7.735   9.300   0.715  0.1197 -0.1576  0.4518
    4CHTO  H187 1387   7.824   9.321   0.776  0.4706 -0.2865 -0.0169
    4CHTO  C107 1388   7.623   9.340   0.806 -0.2372 -0.1062  0.8582
    4CHTO   O70 1389   7.665   9.455   0.881  0.1947 -0.3065  0.6250
    4CHTO  H170 1390   7.707   9.514   0.822 -1.6707  0.9854  0.5619
    4CHTO   O57 1391   7.499   9.320   0.515 -0.2827  0.3451  0.7689
    4CHTO   C85 1392   7.423   9.435   0.486 -0.0571 -0.0298 -0.2367
    4CHTO  H157 1393   7.496   9.517   0.473 -0.2317  0.4284  1.4813
    4CHTO   C83 1394   7.336   9.478   0.601  0.2363 -0.2104  0.2867
    4CHTO  H155 1395   7.401   9.512   0.682 -1.3243  0.6946  1.1735
    4CHTO   O56 1396   7.272   9.365   0.653 -0.4452  0.4830  0.4680
    4CHTO  H135 1397   7.325   9.333   0.723  0.3860 -1.8327 -1.1707
    4CHTO   C81 1398   7.246   9.595   0.559  0.0039 -0.3065 -0.3553
    4CHTO  H153 1399   7.302   9.677   0.514 -0.9759  0.7021  0.2481
    4CHTO   N14 1400   7.178   9.658   0.669  0.1190  0.2290 -0.4869
    4CHTO  H141 1401   7.231   9.702   0.750  0.7045 -2.0375  0.3887
    4CHTO  H142 1402   7.109   9.730   0.630 -0.5497 -1.3395 -2.2796
    4CHTO   C79 1403   7.146   9.547   0.455 -0.3794 -0.5494 -0.2667
    4CHTO  H151 1404   7.084   9.633   0.429  1.7755  1.5128  1.2281
    4CHTO   O52 1405   7.220   9.516   0.330  1.0199 -0.5603 -0.2917
    4CHTO   C86 1406   7.329   9.416   0.355  0.4737 -0.4895 -0.5420
    4CHTO  H158 1407   7.274   9.322   0.375  0.6399 -0.5000 -0.1198
    4CHTO   C90 1408   7.411   9.395   0.226  0.2280  0.3800 -0.3019
    4CHTO   O60 1409   7.486   9.516   0.198  0.3788 -0.3268  0.1892
    4CHTO  H138 1410   7.426   9.579   0.164  0.3352 -0.7401 -0.5059
    4CHTO   O50 1411   7.063   9.434   0.498 -0.2968  0.6030 -0.2397
    4CHTO   C73 1412   6.943   9.355   0.473  0.3354  0.4086  0.6995
    4CHTO  H145 1413   6.869   9.414   0.417 -0.5851 -1.1931  0.2001
    4CHTO   C74 1414   6.885   9.317   0.616  0.1837 -0.0859  0.2687
    4CHTO  H146 1415   6.875   9.413   0.669  3.6573 -0.5853  1.9769
    4CHTO   O54 1416   6.754   9.266   0.596  0.3844 -0.2692 -0.3423
    4CHTO  H133 1417   6.696   9.336   0.573  0.5423  0.6705  1.9051
    4CHTO   C75 1418   6.981   9.211   0.701  0.0642 -0.0187 -0.3870
    4CHTO  H147 1419   7.073   9.267   0.724 -0.2696  1.1361 -1.7957
    4CHTO   N13 1420   6.927   9.176   0.833 -0.3503 -0.4572 -0.2749
    4CHTO  H139 1421   6.839   9.113   0.841  1.1458 -2.6446 -0.5752
    4CHTO  H140 1422   6.906   9.267   0.887  0.6483  0.8918 -2.1184
    4CHTO   C76 1423   7.005   9.088   0.601  0.4185 -0.2086  0.0735
    4CHTO  H148 1424   6.905   9.046   0.591 -1.3352  3.5829  0.8018
    4CHTO   O49 1425   7.063   9.128   0.469  0.1426 -0.7362  0.0981
    4CHTO   C77 1426   6.973   9.221   0.393 -0.4570 -0.7777 -0.2869
    4CHTO  H149 1427   6.881   9.166   0.374  0.4145 -2.2639 -0.2262
    4CHTO   C88 1428   7.036   9.247   0.261 -0.0288  0.1467 -0.2762
    4CHTO   O58 1429   6.964   9.340   0.179  0.5863 -0.3410  0.8547
    4CHTO  H136 1430   7.026   9.366   0.113  1.3382  0.0436  1.6996
    4CHTO   O51 1431   7.102   8.995   0.655  0.0220  0.2471  0.2909
    4CHTO   C78 1432   7.147   8.865   0.554 -0.2123 -0.4542 -0.7533
    4CHTO  H150 1433   7.159   8.911   0.453 -2.5232  1.2572 -0.2844
    4CHTO   C80 1434   7.040   8.753   0.543  0.3925 -0.0661  0.2500
    4CHTO  H152 1435   7.004   8.727   0.645  2.5271  0.6086  1.1948
    4CHTO   O55 1436   6.920   8.806   0.487 -1.0321  0.7959 -0.3364
    4CHTO  H134 1437   6.890   8.882   0.532 -1.7280 -0.7374  1.8632
    4CHTO   C84 1438   7.095   8.626   0.474  0.5987 -0.3888  0.0804
    4CHTO  H156 1439   7.101   8.665   0.372 -1.3269  2.3198  0.9664
    4CHTO   N15 1440   6.992   8.517   0.461 -0.1831  0.0479 -0.4886
    4CHTO  H143 1441   6.901   8.546   0.414 -0.9243 -1.4443 -0.0125
    4CHTO  H144 1442   6.964   8.494   0.562 -1.0441 -1.6839 -1.1140
    4CHTO   C87 1443   7.236   8.593   0.532 -0.2260  0.6189  0.4343
    4CHTO  H159 1444   7.221   8.576   0.639 -0.0893  0.0522  0.3657
    4CHTO   O53 1445   7.328   8.711   0.524 -0.3668 -0.0556 -0.6312
    4CHTO   C82 1446   7.280   8.821   0.607  0.1664  0.4444  0.2943
    4CHTO  H154 1447   7.258   8.791   0.709 -0.2082 -0.2474  0.0118
    4CHTO   C89 1448   7.387   8.933   0.624  0.3495 -0.2676  0.4521
    4CHTO   O59 1449   7.442   8.984   0.500 -0.5709 -0.7901 -1.1006
    4CHTO  H137 1450   7.536   8.979   0.497 -0.4671  0.5756 -0.4825
    4CHTO   O45 1451   7.294   8.470   0.469 -0.6321  0.0543  0.5667
    4CHTO   C67 1452   7.429   8.439   0.511  0.5587  0.0074  0.4428
    4CHTO  H124 1453   7.488   8.530   0.517  0.4502  0.0141  1.5107
    4CHTO   C65 1454   7.429   8.366   0.653 -0.5209  0.0509  0.4874
    4CHTO  H122 1455   7.373   8.434   0.717 -0.5498 -0.7134  1.2767
    4CHTO   O44 1456   7.559   8.360   0.703 -0.7185  0.0174 -0.0081
    4CHTO  H102 1457   7.572   8.363   0.795  0.8399  3.0285 -0.2862
    4CHTO   C63 1458   7.345   8.232   0.644 -0.8933  0.0966  0.4409
    4CHTO  H120 1459   7.244   8.255   0.610 -1.2564  0.5060  1.7625
    4CHTO   N11 1460   7.322   8.159   0.771  0.2227 -0.4190  0.6063
    4CHTO  H108 1461   7.274   8.216   0.848 -1.5402 -0.7906 -0.1760
    4CHTO  H109 1462   7.260   8.075   0.749  0.6752  0.3631 -4.2149
    4CHTO   C61 1463   7.409   8.136   0.531 -0.9785 -0.6172  0.0856
    4CHTO  H118 1464   7.333   8.066   0.494 -0.9969 -1.3099  1.4071
    4CHTO   O40 1465   7.448   8.213   0.407  0.3354  0.7541 -0.2025
    4CHTO   C68 1466   7.497   8.349   0.402 -0.3910 -0.9193 -0.1074
    4CHTO  H125 1467   7.468   8.393   0.304 -0.0089  0.4703  0.3958
    4CHTO   C72 1468   7.651   8.352   0.401 -0.4179  0.5698 -0.1325
    4CHTO   O48 1469   7.709   8.484   0.413  0.2966  0.1046 -0.2847
    4CHTO  H105 1470   7.685   8.532   0.490  0.6553  2.1468 -1.3942
    4CHTO   O38 1471   7.533   8.072   0.568 -0.7376  0.0320 -0.1174
    4CHTO   C55 1472   7.547   7.935   0.519 -0.0630 -0.0656  0.0436
    4CHTO  H112 1473   7.512   7.936   0.415 -2.0992 -2.1860  0.6819
    4CHTO   C56 1474   7.478   7.823   0.598  0.0349 -0.6171 -0.6411
    4CHTO  H113 1475   7.516   7.835   0.700 -3.4267  0.0599  0.6650
    4CHTO   O42 1476   7.335   7.852   0.612 -0.1669 -0.4336  0.2401
    4CHTO  H100 1477   7.288   7.770   0.611 -0.9699  0.0097  1.0500
    4CHTO   C57 1478   7.508   7.670   0.549  0.8663  0.1888 -0.4577
    4CHTO  H114 1479   7.458   7.670   0.452  1.2669  1.3422 -0.6738
    4CHTO   N10 1480   7.444   7.557   0.619  0.3824 -0.6816  0.6716
    4CHTO  H106 1481   7.351   7.540   0.567  0.7953 -1.3011  0.1306
    4CHTO  H107 1482   7.427   7.575   0.724  0.5379  1.4541  0.3407
    4CHTO   C58 1483   7.659   7.656   0.527 -0.2809 -0.2494 -0.0597
    4CHTO  H115 1484   7.711   7.650   0.625  0.4913 -1.2628 -0.5288
    4CHTO   O37 1485   7.719   7.761   0.452 -0.0293  0.0961 -0.1925
    4CHTO   C59 1486   7.700   7.897   0.499  0.6602  0.6904  0.2670
    4CHTO  H116 1487   7.763   7.903   0.588 -1.2553 -1.7344  1.8406
    4CHTO   C70 1488   7.770   7.990   0.396 -0.6858  0.1546 -0.9740
    4CHTO   O46 1489   7.915   7.971   0.379  0.1035  0.0226  0.3519
    4CHTO  H103 1490   7.938   7.950   0.291  0.8912 -2.2232  1.0639
    4CHTO   O39 1491   7.708   7.515   0.448 -0.2930 -0.8438 -0.1731
    4CHTO   C60 1492   7.661   7.500   0.319  0.1169 -0.4567  0.7603
    4CHTO  H117 1493   7.558   7.537   0.318 -0.6475 -2.4947 -1.1764
    4CHTO   C62 1494   7.744   7.587   0.217  0.2716 -0.4309  0.0673
    4CHTO  H119 1495   7.716   7.694   0.231 -0.4243 -0.2789 -2.2422
    4CHTO   O43 1496   7.887   7.570   0.246 -0.4758  0.4617  0.2957
    4CHTO  H101 1497   7.908   7.491   0.292 -1.0112  0.5450  0.6905
    4CHTO   C66 1498   7.708   7.557   0.064 -0.7524  0.1042  0.4882
    4CHTO  H123 1499   7.601   7.562   0.046 -0.7886 -3.5816 -0.7617
    4CHTO   N12 1500   7.775   7.655  -0.026  0.0836  0.3031  0.7809
    4CHTO  H110 1501   7.714   7.696  -0.105  0.6629  1.8731  1.1332
    4CHTO  H111 1502   7.871   7.614  -0.054  0.8421  4.3227 -3.1002
    4CHTO   C69 1503   7.737   7.410   0.033 -0.1933  0.2285 -0.5254
    4CHTO  H126 1504   7.838   7.372   0.060 -1.3028 -0.3195  3.1409
    4CHTO   O41 1505   7.623   7.329   0.131  0.1118 -0.0448 -0.3998
    4CHTO   C64 1506   7.654   7.351   0.273  0.0416 -0.6653 -0.1169
    4CHTO  H121 1507   7.753   7.303   0.288  1.6948  3.1142  1.7778
    4CHTO   C71 1508   7.559   7.273   0.365  0.5032  0.1631 -0.0699
    4CHTO   O47 1509   7.582   7.133   0.340  0.0266  0.7950  0.0685
    4CHTO  H104 1510   7.563   7.111   0.251  1.2536  0.6953 -0.1786
    4CHTO   O34 1511   7.720   7.376  -0.111  0.3155  0.6278  0.0863
    4CHTO   C49 1512   7.795   7.248  -0.188  0.1638  0.7904 -0.8577
    4CHTO   H91 1513   7.892   7.280  -0.225  0.8121 -0.6452 -0.4411
    4CHTO   C47 1514   7.713   7.217  -0.308 -0.4479  0.5952  0.4542
    4CHTO   H89 1515   7.766   7.135  -0.360 -1.6088  0.1113  0.0049
    4CHTO   O33 1516   7.703   7.330  -0.399  0.0371 -0.3351  0.0065
    4CHTO   H70 1517   7.640   7.319  -0.467  0.0928  2.6599 -0.6096
    4CHTO   C45 1518   7.565   7.171  -0.265 -0.3473 -0.1164 -0.1058
    4CHTO   H87 1519   7.519   7.237  -0.190 -1.0053  2.0284 -2.3522
    4CHTO    N8 1520   7.459   7.155  -0.370 -0.0733  0.2949 -0.2622
    4CHTO   H75 1521   7.446   7.246  -0.428  0.3302  0.0366 -0.7580
    4CHTO   H76 1522   7.472   7.064  -0.427  2.4051  0.9575 -0.8078
    4CHTO   C43 1523   7.585   7.029  -0.184 -0.1600 -0.6316  0.0565
    4CHTO   H85 1524   7.488   6.998  -0.145 -1.8113  1.7688 -1.9609
    4CHTO   O29 1525   7.678   7.057  -0.079 -0.0218 -0.4441  0.6114
    4CHTO   C50 1526   7.803   7.118  -0.101  0.4294  0.2651  0.0705
    4CHTO   H92 1527   7.848   7.135  -0.003 -1.4054 -0.3185  1.0281
    4CHTO   C54 1528   7.899   7.016  -0.160  0.0784 -0.4924 -0.6546
    4CHTO   O36 1529   8.030   7.061  -0.203 -0.6030  0.2117  0.5218
    4CHTO   H72 1530   8.024   7.145  -0.244 -0.7120  0.0357  0.1724
    4CHTO   O27 1531   7.617   6.919  -0.273 -0.5378  0.0416  0.3282
    4CHTO   C37 1532   7.600   6.775  -0.287  1.1023  0.4030 -0.8446
    4CHTO   H79 1533   7.649   6.745  -0.381 -0.4565 -0.3265 -1.4456
    4CHTO   C38 1534   7.670   6.700  -0.166  0.2351  0.4340  0.8354
    4CHTO   H80 1535   7.646   6.753  -0.072 -0.6408 -2.3399  2.2469
    4CHTO   O31 1536   7.811   6.710  -0.185  0.1249 -0.1310 -0.7107
    4CHTO   H68 1537   7.856   6.687  -0.106  1.1163 -0.6430 -1.4145
    4CHTO   C39 1538   7.620   6.552  -0.155  0.1249 -0.1948 -0.0315
    4CHTO   H81 1539   7.670   6.489  -0.228  1.1194 -0.9407  1.2771
    4CHTO    N7 1540   7.652   6.488  -0.024  0.1839  0.2411  0.5606
    4CHTO   H73 1541   7.738   6.542   0.012 -0.0151  1.1559 -0.3098
    4CHTO   H74 1542   7.662   6.380  -0.018 -1.1587  0.1726  1.8679
    4CHTO   C40 1543   7.467   6.533  -0.181  0.5213  0.0476 -0.7361
    4CHTO   H82 1544   7.423   6.587  -0.097  1.4158  1.2175 -1.0105
    4CHTO   O26 1545   7.433   6.591  -0.305  0.4535 -0.0249  0.5445
    4CHTO   C41 1546   7.448   6.742  -0.299 -0.3241  1.1250 -0.7568
    4CHTO   H83 1547   7.396   6.778  -0.210 -1.9693 -0.5592 -1.0179
    4CHTO   C52 1548   7.380   6.794  -0.426 -0.0470  1.0534  0.4563
    4CHTO   O35 1549   7.250   6.727  -0.461 -0.3608 -0.1218  0.3126
    4CHTO   H71 1550   7.221   6.760  -0.544  2.4090 -0.2112 -0.7438
    4CHTO   O28 1551   7.427   6.395  -0.187  0.1491 -0.1382  0.1648
    4CHTO   C42 1552   7.294   6.369  -0.141  0.3712  0.7517 -0.1760
    4CHTO   H84 1553   7.280   6.276  -0.196 -0.4999 -0.2204  1.6314
    4CHTO   C44 1554   7.180   6.459  -0.182  0.3784 -0.0040 -0.0162
    4CHTO   H86 1555   7.203   6.557  -0.138  0.5510 -0.6336  1.3366
    4CHTO   O32 1556   7.177   6.480  -0.328 -0.1327 -0.4985 -0.0455
    4CHTO   H69 1557   7.105   6.534  -0.355  0.3172 -0.2632 -0.7836
    4CHTO   C48 1558   7.040   6.424  -0.122  0.1622  0.0021  0.3293
    4CHTO   H90 1559   7.015   6.325  -0.161 -0.8683 -0.3726  1.9234
    4CHTO    N9 1560   6.934   6.518  -0.166  0.3141  0.5937  0.2784
    4CHTO   H77 1561   6.952   6.616  -0.125  0.6054  0.5795  0.1844
    4CHTO   H78 1562   6.927   6.521  -0.274 -1.2342  1.9008  0.4073
    4CHTO   C51 1563   7.054   6.408   0.030  0.0825 -0.3252  0.0321
    4CHTO   H93 1564   7.081   6.504   0.075 -0.6268 -0.7771  1.4584
    4CHTO   O30 1565   7.154   6.315   0.057 -0.6049  0.5364 -0.1556
    4CHTO   C46 1566   7.294   6.331   0.015  0.2403 -0.0372  0.4517
    4CHTO   H88 1567   7.330   6.416   0.073  0.1345 -0.5142  1.2208
    4CHTO   C53 1568   7.378   6.205   0.049  0.3583 -0.2604  0.1208
    4CHTO   O72 1569   7.321   6.085  -0.001  0.1833  0.3784  0.5511
    4CHTO  H199 1570   7.278   6.047   0.073 -2.3285  0.1004 -0.9929
    4CHTO   O22 1571   6.933   6.355   0.089  0.1866  0.4395 -0.4455
    4CHTO   C31 1572   6.892   6.365   0.236  0.8129 -0.2055  0.4227
    4CHTO   H59 1573   6.977   6.418   0.285  1.2143  0.3534 -0.8622
    4CHTO   C29 1574   6.769   6.457   0.247 -0.1633 -0.1962  0.1435
    4CHTO   H57 1575   6.690   6.421   0.179 -0.6395  2.4345 -0.7635
    4CHTO   O21 1576   6.810   6.579   0.182 -0.4936  0.6692  0.3187
    4CHTO   H37 1577   6.739   6.640   0.185 -0.2752  0.9903 -0.8326
    4CHTO   C27 1578   6.715   6.477   0.395 -0.2280  0.7560 -0.6689
    4CHTO   H55 1579   6.793   6.528   0.453 -1.1346 -1.5950  2.7394
    4CHTO    N5 1580   6.590   6.556   0.402 -0.2369 -0.4909  0.5326
    4CHTO   H43 1581   6.608   6.662   0.398 -0.9523 -0.3583  0.6640
    4CHTO   H44 1582   6.544   6.524   0.494  0.1113 -2.9558 -0.1008
    4CHTO   C25 1583   6.704   6.332   0.462  0.9128 -0.5638 -0.0332
    4CHTO   H53 1584   6.625   6.271   0.416  0.8053  0.9941 -1.9894
    4CHTO   O17 1585   6.827   6.259   0.453 -0.4344 -0.2748 -0.4716
    4CHTO   C32 1586   6.867   6.237   0.317 -0.3517 -0.3840 -0.2796
    4CHTO   H60 1587   6.786   6.181   0.270  1.1210 -3.6810  0.9750
    4CHTO   C36 1588   6.989   6.148   0.318  0.1412  0.1931  0.0114
    4CHTO   O25 1589   7.096   6.208   0.393  0.0387 -0.0068  0.3279
    4CHTO   H40 1590   7.178   6.164   0.381  0.6613  0.9425  0.9872
    4CHTO   O15 1591   6.658   6.355   0.621  0.7675 -0.5253 -0.3294
    4CHTO   C19 1592   6.748   6.407   0.725  0.3552 -0.2835  0.7196
    4CHTO   H47 1593   6.736   6.340   0.811 -0.7586 -0.3569  0.5091
    4CHTO   C20 1594   6.899   6.394   0.694 -0.2212  0.1255 -0.5912
    4CHTO   H48 1595   6.926   6.432   0.595  1.7107 -1.6236 -0.7821
    4CHTO   O19 1596   6.925   6.252   0.702 -0.5057  0.3526  0.2672
    4CHTO   H35 1597   7.009   6.232   0.664 -0.3059 -1.2016  1.4809
    4CHTO   C21 1598   6.986   6.452   0.810 -0.3908  0.3515  0.5056
    4CHTO   H49 1599   6.962   6.392   0.898  0.4395  0.6168  0.9196
    4CHTO    N4 1600   7.131   6.450   0.783 -0.4579  0.2907  0.0854
    4CHTO   H41 1601   7.133   6.491   0.683 -0.6411 -2.3097 -1.0125
    4CHTO   H42 1602   7.184   6.356   0.787  0.4739  0.7690 -0.7108
    4CHTO   C22 1603   6.936   6.597   0.843 -1.1179  0.8211 -1.0958
    4CHTO   H50 1604   6.956   6.666   0.761 -0.7038  2.7425  0.5596
    4CHTO   O14 1605   6.798   6.588   0.879 -0.8413 -0.3130  0.4325
    4CHTO   C23 1606   6.724   6.550   0.767  0.3012 -0.4407 -1.0034
    4CHTO   H51 1607   6.735   6.619   0.682  0.0185 -1.0248 -1.5192
    4CHTO   C34 1608   6.582   6.568   0.810  0.4148 -0.4486 -0.7211
    4CHTO   O23 1609   6.542   6.471   0.914 -0.6729 -0.1479  0.4936
    4CHTO   H38 1610   6.587   6.489   0.995  0.3187 -1.0406  0.1535
    4CHTO   O16 1611   7.002   6.644   0.960 -0.0847  0.3086  0.3961
    4CHTO   C24 1612   6.989   6.801   0.973 -0.2448  0.4807 -0.0892
    4CHTO   H52 1613   6.910   6.840   0.908 -0.9349  0.2404  0.6029
    4CHTO   C26 1614   7.126   6.865   0.945  0.0305  0.5408 -0.5042
    4CHTO   H54 1615   7.200   6.806   1.002 -0.0154 -0.5228 -1.5237
    4CHTO   O20 1616   7.158   6.850   0.807  0.3118 -0.2626  0.4119
    4CHTO   H36 1617   7.250   6.864   0.796  0.7855 -1.7888  2.2798
    4CHTO   C30 1618   7.139   7.009   0.991 -0.5043 -0.2847 -0.0288
    4CHTO   H58 1619   7.071   7.064   0.925 -0.2430  1.1402  0.8696
    4CHTO    N6 1620   7.280   7.054   0.974 -0.9789  0.3256 -0.2512
    4CHTO   H45 1621   7.259   7.159   0.957  1.3882  0.8686 -0.0036
    4CHTO   H46 1622   7.326   7.045   1.071  0.4440  1.1456 -0.8186
    4CHTO   C33 1623   7.088   7.022   1.136 -0.0995 -0.8518 -0.7854
    4CHTO   H61 1624   7.150   6.968   1.209 -1.3402 -0.4920  0.5644
    4CHTO   O18 1625   6.954   6.968   1.147 -0.1296 -0.3156 -0.0977
    4CHTO   C28 1626   6.950   6.828   1.123  0.1634  0.3921 -0.4655
    4CHTO   H56 1627   7.017   6.768   1.185  1.7152 -0.0739 -2.5501
    4CHTO   C35 1628   6.807   6.777   1.157  0.1493 -0.0561  0.0985
    4CHTO   O24 1629   6.783   6.793   1.297 -0.8280  0.0516 -0.0629
    4CHTO   H39 1630   6.737   6.872   1.316 -0.0024  0.5566 -0.1783
    4CHTO    O9 1631   7.092   7.160   1.172 -0.2325  0.3340 -0.6778
    4CHTO   C13 1632   7.072   7.201   1.332  0.5170 -0.8835 -0.6325
    4CHTO   H26 1633   7.150   7.156   1.397 -2.0867 -0.5104  2.8873
    4CHTO   C11 1634   6.927   7.164   1.385 -0.2226  0.0587  0.2206
    4CHTO   H24 1635   6.923   7.055   1.376  1.0984 -0.1661  1.9145
    4CHTO    O8 1636   6.816   7.211   1.310 -0.0426 -0.6536  0.3269
    4CHTO    H3 1637   6.764   7.143   1.271 -0.1153  0.7471 -2.1217
    4CHTO    C9 1638   6.928   7.213   1.532  0.7679 -0.1226 -0.5220
    4CHTO   H22 1639   7.021   7.180   1.580  1.3189  1.2559 -0.6347
    4CHTO    N2 1640   6.822   7.142   1.606  0.4392  0.0726  0.7735
    4CHTO   H10 1641   6.864   7.087   1.690 -1.4963 -2.0385  0.4191
    4CHTO   H11 1642   6.752   7.212   1.649  0.1298  1.0303 -1.2482
    4CHTO    C7 1643   6.923   7.368   1.531  0.0750  0.5892  0.1592
    4CHTO   H20 1644   6.943   7.393   1.637 -0.9322 -0.0194  0.4913
    4CHTO    O4 1645   7.031   7.418   1.445  0.4255 -0.0662  0.8883
    4CHTO   C14 1646   7.110   7.350   1.343  0.1863  0.9826 -0.0963
    4CHTO   H27 1647   7.214   7.369   1.375  0.2500 -1.7280  1.4553
    4CHTO   C18 1648   7.085   7.433   1.209  0.2802 -0.3400 -0.1018
    4CHTO   O13 1649   6.950   7.454   1.187  0.4684 -0.4250  0.1818
    4CHTO    H7 1650   6.934   7.440   1.096  0.4839 -0.8232  0.2410
    4CHTO    O2 1651   6.782   7.450   1.489 -0.5813  0.3662  0.2302
    4CHTO    C1 1652   6.765   7.567   1.570  0.0635  0.1430 -0.6395
    4CHTO   H14 1653   6.857   7.606   1.617  0.9025 -1.5165 -0.8697
    4CHTO    C2 1654   6.656   7.553   1.683  0.4466  0.5882 -0.1144
    4CHTO   H15 1655   6.573   7.499   1.634 -0.0681 -0.1445  1.5480
    4CHTO    O6 1656   6.701   7.458   1.782  0.3231  0.1620 -0.2680
    4CHTO    H1 1657   6.776   7.496   1.822  0.5767  1.8545 -2.2527
    4CHTO    C3 1658   6.616   7.695   1.747  0.4427  0.2338 -0.4937
    4CHTO   H16 1659   6.704   7.739   1.796  0.0360 -1.0442  1.4241
    4CHTO    N1 1660   6.505   7.683   1.845  0.4157 -0.5165  0.6994
    4CHTO    H8 1661   6.537   7.684   1.949 -1.2468 -0.1308  1.2185
    4CHTO    H9 1662   6.427   7.758   1.842  0.1868 -0.6060  3.1578
    4CHTO    C4 1663   6.588   7.799   1.635 -0.0521 -0.0687  0.4023
    4CHTO   H17 1664   6.498   7.763   1.585  0.5165 -1.1917  0.1767
    4CHTO    O1 1665   6.700   7.798   1.545  0.3984  0.3864  0.0352
    4CHTO    C5 1666   6.716   7.676   1.475 -0.5743  0.1853  0.3371
    4CHTO   H18 1667   6.622   7.648   1.428 -1.0182  0.7289  0.9039
    4CHTO   C16 1668   6.824   7.698   1.360  0.3959  0.1865  0.1598
    4CHTO   O11 1669   6.748   7.765   1.265  0.5014 -0.0019  0.2187
    4CHTO    H5 1670   6.676   7.711   1.240  0.5189  0.1394 -0.1454
    4CHTO    O3 1671   6.567   7.936   1.679 -0.0801 -0.0286 -0.5542
    4CHTO    C6 1672   6.465   8.013   1.605  0.4098 -0.4997  0.4662
    4CHTO   H19 1673   6.442   7.965   1.510  0.0364  0.7351 -0.0715
    4CHTO    C8 1674   6.344   8.023   1.693 -0.5279  0.0303 -0.6346
    4CHTO   H21 1675   6.378   8.063   1.789 -0.8725 -0.1827 -0.4216
    4CHTO    O7 1676   6.293   7.896   1.709 -0.2153  0.0140 -0.2851
    4CHTO    H2 1677   6.290   7.871   1.800 -0.9307  0.4851 -0.1765
    4CHTO   C12 1678   6.242   8.130   1.636  0.3156  0.4933 -0.4699
    4CHTO   H25 1679   6.217   8.081   1.540 -1.4555  1.9852 -0.7941
    4CHTO    N3 1680   6.119   8.138   1.726 -0.0340  0.2370 -0.1153
    4CHTO   H12 1681   6.026   8.139   1.671 -0.0828  0.6692 -0.0265
    4CHTO   H13 1682   6.120   8.047   1.785  3.0953  0.4057  0.1642
    4CHTO   C15 1683   6.312   8.262   1.613 -0.1903  0.1243 -0.7002
    4CHTO   H28 1684   6.348   8.310   1.705 -2.3882  0.4780 -0.0050
    4CHTO   O10 1685   6.200   8.380   1.561 -0.1389 -0.3048 -0.5103
    4CHTO    H4 1686   6.212   8.396   1.469 -0.7938  3.5712 -0.0196
    4CHTO    O5 1687   6.424   8.253   1.523  0.2778 -0.3941  0.4656
    4CHTO   C10 1688   6.519   8.155   1.574 -0.8231  0.0014  0.2809
    4CHTO   H23 1689   6.563   8.196   1.665  0.7481 -1.8303  0.3767
    4CHTO   C17 1690   6.634   8.140   1.470  0.0634 -0.1610  0.4589
    4CHTO   O12 1691   6.579   8.095   1.346  0.4074 -0.3915 -0.6329
    4CHTO    H6 1692   6.500   8.144   1.334  2.0516  2.4728 -0.1547
    5CHTO  H203 1693   7.161   3.814   4.436  0.4965 -0.9580 -0.0597
    5CHTO   O82 1694   7.208   3.787   4.512 -0.3486 -0.5665  0.6015
    5CHTO  C123 1695   7.256   3.888   4.597  0.4836  0.4175 -0.1012
    5CHTO  H227 1696   7.347   3.930   4.552  2.1725 -1.9050  1.0578
    5CHTO   O77 1697   7.143   3.983   4.614  0.3628 -0.5250  0.2012
    5CHTO  C118 1698   7.181   4.095   4.695  0.7922 -0.0835  0.2171
    5CHTO  H222 1699   7.266   4.145   4.646 -1.0606  1.2576 -1.7711
    5CHTO  C125 1700   7.057   4.198   4.686  0.0400  0.4026  0.2412
    5CHTO   O84 1701   7.043   4.239   4.551  0.1045  0.3183  0.0701
    5CHTO  H205 1702   6.956   4.274   4.542 -0.2116 -0.5857 -0.5368
    5CHTO  C114 1703   7.209   4.053   4.837 -0.0352  0.0174  0.3218
    5CHTO  H218 1704   7.120   4.001   4.873  0.4713 -1.8807 -1.0586
    5CHTO  C116 1705   7.325   3.951   4.839  0.3322  0.5744 -0.0412
    5CHTO  H220 1706   7.413   4.014   4.812  1.0139 -0.3147  0.0589
    5CHTO   O79 1707   7.343   3.915   4.978 -0.7354  0.0577  0.2887
    5CHTO  H201 1708   7.423   3.868   4.989  0.5326  2.1114  0.1175
    5CHTO  C120 1709   7.291   3.831   4.739 -0.1260 -0.4134 -1.0494
    5CHTO  H224 1710   7.205   3.776   4.781 -0.8802  0.7433 -1.0605
    5CHTO   N21 1711   7.409   3.742   4.735  0.3529  0.2966 -0.4736
    5CHTO  H211 1712   7.383   3.639   4.716 -2.4149  0.8779 -0.0657
    5CHTO  H212 1713   7.470   3.753   4.823  0.2674 -0.7239 -0.2771
    5CHTO   O75 1714   7.246   4.168   4.904 -0.0047 -0.3663 -0.1178
    5CHTO  C112 1715   7.169   4.180   5.046  0.2741 -0.3176  0.4585
    5CHTO  H216 1716   7.203   4.094   5.106 -0.4747  1.0671  2.9076
    5CHTO   O73 1717   7.032   4.183   5.019  0.4540  0.2930 -0.2192
    5CHTO  C113 1718   6.969   4.188   5.147 -0.3211  0.9580 -0.0869
    5CHTO  H217 1719   7.008   4.102   5.205 -0.0334  1.2312  0.1285
    5CHTO  C124 1720   6.821   4.156   5.129 -0.7494 -0.0575 -0.2346
    5CHTO   O83 1721   6.760   4.246   5.035  0.0123  0.2487 -0.6277
    5CHTO  H204 1722   6.666   4.243   5.032 -0.0169 -1.7707  1.7420
    5CHTO  C109 1723   6.992   4.326   5.219  0.2865  0.2890  0.2819
    5CHTO  H213 1724   6.962   4.403   5.147  3.1465  0.0378 -1.2327
    5CHTO  C110 1725   7.141   4.329   5.247 -0.4695  0.2150 -0.4414
    5CHTO  H214 1726   7.177   4.252   5.315 -0.8039 -0.4775 -1.0459
    5CHTO   O78 1727   7.167   4.451   5.315  0.0710  0.0631  0.1053
    5CHTO  H200 1728   7.260   4.445   5.328  0.3760  2.1365 -1.0114
    5CHTO  C111 1729   7.222   4.313   5.115  0.0216 -0.0170  0.8476
    5CHTO  H215 1730   7.202   4.398   5.048 -0.1559 -0.6542  0.0711
    5CHTO   N19 1731   7.368   4.310   5.130 -0.2752  0.3990 -0.0457
    5CHTO  H207 1732   7.392   4.280   5.231 -2.4213  0.3593  0.4707
    5CHTO  H208 1733   7.397   4.414   5.121 -0.8222  0.4931 -0.8111
    5CHTO   O74 1734   6.908   4.323   5.337 -0.4354 -0.4939 -0.0798
    5CHTO  C115 1735   6.858   4.477   5.369  0.3438 -0.2486  0.2647
    5CHTO  H219 1736   6.941   4.548   5.373 -0.0665  0.2753 -0.3249
    5CHTO   O76 1737   6.756   4.536   5.242 -0.4109  0.4982  0.0969
    5CHTO  C122 1738   6.684   4.658   5.267 -0.4928 -0.4667  0.4987
    5CHTO  H226 1739   6.611   4.679   5.188  0.0925  1.6219  0.4635
    5CHTO  C126 1740   6.781   4.777   5.257  0.5063 -0.3355 -0.5520
    5CHTO   O85 1741   6.834   4.796   5.125  0.6992  0.0668 -0.0359
    5CHTO  H206 1742   6.893   4.869   5.115  2.5802 -1.6199 -1.5769
    5CHTO  C121 1743   6.609   4.647   5.404  0.4030  1.1384 -0.7752
    5CHTO  H225 1744   6.555   4.741   5.427 -3.1163 -1.0455  0.4871
    5CHTO   O81 1745   6.513   4.541   5.387  0.2115 -0.1655 -0.6682
    5CHTO  H202 1746   6.428   4.565   5.354 -0.0711 -0.8860 -0.4632
    5CHTO  C119 1747   6.701   4.606   5.524  0.1417  0.4356 -0.0401
    5CHTO  H223 1748   6.780   4.679   5.541 -0.7867  1.3899  0.2659
    5CHTO  C117 1749   6.775   4.472   5.499 -0.1742  0.4821  0.5814
    5CHTO  H221 1750   6.713   4.384   5.483 -1.1857  1.1435  0.8470
    5CHTO   N20 1751   6.860   4.431   5.615  0.2127 -0.0104  0.7656
    5CHTO  H209 1752   6.894   4.513   5.677 -0.1244  1.4154 -0.9107
    5CHTO  H210 1753   6.796   4.365   5.672  1.2889 -0.6865  1.2055
    5CHTO   O80 1754   6.613   4.620   5.685  0.0220 -0.3680 -0.3569
    5CHTO  C103 1755   6.469   4.577   5.698 -0.2762 -0.1732 -0.3141
    5CHTO  H190 1756   6.416   4.568   5.603 -0.5860  0.7324 -0.2287
    5CHTO  C101 1757   6.452   4.429   5.751  0.5494  1.2958 -0.3074
    5CHTO  H188 1758   6.523   4.411   5.831  0.8414  1.4576 -0.5266
    5CHTO   O68 1759   6.488   4.332   5.631 -0.3307  0.3225 -0.1896
    5CHTO  H168 1760   6.477   4.241   5.652 -4.2322  0.3038 -1.9532
    5CHTO   C99 1761   6.295   4.408   5.786  0.1540  0.4739  0.0804
    5CHTO  H186 1762   6.236   4.415   5.692  0.6638  2.5746 -0.1277
    5CHTO   N17 1763   6.274   4.272   5.848  0.2288 -0.2271 -0.1160
    5CHTO  H174 1764   6.169   4.248   5.860  0.3708 -0.0291  1.6398
    5CHTO  H175 1765   6.329   4.202   5.786  0.9275 -0.3547  0.6356
    5CHTO   C97 1766   6.251   4.530   5.879  0.6165  0.2066 -0.1175
    5CHTO  H184 1767   6.311   4.534   5.971 -1.9473  1.1515  1.5598
    5CHTO   O64 1768   6.266   4.648   5.800 -0.0994 -0.5572  0.2729
    5CHTO  C104 1769   6.402   4.684   5.785 -0.1936 -0.0735  0.2900
    5CHTO  H191 1770   6.458   4.693   5.878 -0.9256  0.8565  0.6426
    5CHTO  C108 1771   6.398   4.821   5.719 -0.1086 -0.1414  0.4730
    5CHTO   O71 1772   6.528   4.876   5.694  0.7459 -0.2653 -0.0760
    5CHTO  H171 1773   6.532   4.957   5.742 -0.7851 -0.4700  0.3963
    5CHTO   O62 1774   6.112   4.521   5.922 -0.2279 -0.2932 -0.1207
    5CHTO   C91 1775   5.997   4.567   5.845 -0.0279  0.4027  1.0025
    5CHTO  H178 1776   6.034   4.654   5.790 -0.0088 -0.8800 -1.0351
    5CHTO   C92 1777   5.881   4.606   5.942  0.0006 -0.1546  0.2724
    5CHTO  H179 1778   5.918   4.680   6.015  1.2875  0.3017 -0.8115
    5CHTO   O66 1779   5.775   4.684   5.870 -0.4942 -0.4608  0.2428
    5CHTO  H166 1780   5.695   4.664   5.914 -0.3356 -1.6155  0.0014
    5CHTO   C93 1781   5.819   4.474   6.002  0.3145 -0.5184 -0.4320
    5CHTO  H180 1782   5.714   4.492   6.028  0.4581  0.3527 -0.4667
    5CHTO   N16 1783   5.869   4.430   6.131 -0.4474 -0.1437 -0.0569
    5CHTO  H172 1784   5.967   4.388   6.113  0.5768  1.1155  2.3117
    5CHTO  H173 1785   5.814   4.357   6.189  0.5654 -0.4054  0.5867
    5CHTO   C94 1786   5.826   4.358   5.905 -0.0323  1.0058  0.2927
    5CHTO  H181 1787   5.920   4.303   5.913  0.7911  2.4716  0.9253
    5CHTO   O61 1788   5.821   4.405   5.777  0.2456  0.6617  0.3762
    5CHTO   C95 1789   5.950   4.460   5.732 -1.0208  1.1765 -0.2998
    5CHTO  H182 1790   6.027   4.383   5.723  1.3951  3.7968 -3.5245
    5CHTO  C106 1791   5.926   4.521   5.594 -0.1403  0.0662  0.0166
    5CHTO   O69 1792   6.047   4.557   5.536 -0.0737  0.4087  0.2957
    5CHTO  H169 1793   6.050   4.548   5.443 -1.0722  4.5460 -0.2373
    5CHTO   O63 1794   5.712   4.247   5.931 -0.4529  0.2611 -0.0081
    5CHTO   C96 1795   5.748   4.110   5.863 -0.3957 -0.2011  0.2959
    5CHTO  H183 1796   5.785   4.134   5.763 -1.6963 -0.1416 -0.1912
    5CHTO   C98 1797   5.615   4.039   5.824  0.1585  0.1493 -0.8439
    5CHTO  H185 1798   5.543   4.115   5.793  0.4994  0.9519  0.2932
    5CHTO   O67 1799   5.631   3.944   5.725 -0.0805 -0.3198  0.2825
    5CHTO  H167 1800   5.588   3.967   5.645 -0.5320 -1.4772  0.1812
    5CHTO  C102 1801   5.561   3.970   5.962 -0.1522  0.2360  0.2730
    5CHTO  H189 1802   5.468   3.914   5.942  1.4216 -2.1482 -0.6550
    5CHTO   N18 1803   5.519   4.063   6.067  0.4938  0.3381 -0.2472
    5CHTO  H176 1804   5.554   4.037   6.166 -3.3357 -1.3400  0.7577
    5CHTO  H177 1805   5.543   4.165   6.042 -0.7169  0.1362 -2.3209
    5CHTO  C105 1806   5.669   3.871   6.015  0.6632 -1.0449 -0.1294
    5CHTO  H192 1807   5.643   3.845   6.117 -0.5138  1.2736  0.2049
    5CHTO   O65 1808   5.804   3.915   6.027  0.0870 -0.2686 -0.0901
    5CHTO  C100 1809   5.857   4.027   5.946 -0.2576  0.2176  0.3857
    5CHTO  H187 1810   5.912   4.092   6.015  0.1490 -0.9135  1.1335
    5CHTO  C107 1811   5.961   3.958   5.853  0.5572  0.3158 -0.2252
    5CHTO   O70 1812   6.066   4.034   5.800 -0.2997  0.4972 -0.1271
    5CHTO  H170 1813   6.106   3.982   5.732 -1.0287 -1.7188  1.0965
    5CHTO   O57 1814   5.661   3.737   5.907  0.2194  0.2131  0.0319
    5CHTO   C85 1815   5.651   3.601   5.941  0.3764 -0.3703 -0.6065
    5CHTO  H157 1816   5.600   3.607   6.040  1.1453  0.8163 -0.2730
    5CHTO   C83 1817   5.789   3.545   5.968  0.1339 -0.1945  0.4673
    5CHTO  H155 1818   5.830   3.605   6.050 -1.9102 -0.5556  1.7784
    5CHTO   O56 1819   5.882   3.559   5.851 -0.0722 -0.5844 -0.6101
    5CHTO  H135 1820   5.890   3.651   5.833 -1.2168  0.4595  3.4895
    5CHTO   C81 1821   5.779   3.397   6.009  0.1899  0.1165  0.0830
    5CHTO  H153 1822   5.722   3.389   6.102  3.0015  0.1209  1.8946
    5CHTO   N14 1823   5.903   3.335   6.053 -0.7685  0.0751 -0.3469
    5CHTO  H141 1824   5.889   3.231   6.078 -0.1591 -0.2043 -1.1790
    5CHTO  H142 1825   5.926   3.384   6.146  1.9848 -2.0138  0.1426
    5CHTO   C79 1826   5.708   3.315   5.888  0.0853  0.6186 -0.7859
    5CHTO  H151 1827   5.695   3.213   5.923  0.9122  0.7404 -0.1073
    5CHTO   O52 1828   5.569   3.363   5.873 -0.1134  0.3909  0.2743
    5CHTO   C86 1829   5.578   3.505   5.837  0.4957 -0.1947  0.2186
    5CHTO  H158 1830   5.619   3.513   5.734 -0.7379  0.7332 -0.2128
    5CHTO   C90 1831   5.429   3.542   5.818  0.2759 -0.4860  0.2755
    5CHTO   O60 1832   5.418   3.671   5.752  0.5778  0.4801 -0.4099
    5CHTO  H138 1833   5.383   3.650   5.667 -1.0607  1.7095 -0.0744
    5CHTO   O50 1834   5.786   3.315   5.764  0.3545  0.2865  0.2060
    5CHTO   C73 1835   5.802   3.229   5.650  0.3371  0.0702 -0.0547
    5CHTO  H145 1836   5.700   3.195   5.627  0.7243 -0.5640 -0.8895
    5CHTO   C74 1837   5.898   3.111   5.666  0.0406  0.6334 -0.4976
    5CHTO  H146 1838   5.870   3.048   5.752 -0.0105 -3.1703 -3.1867
    5CHTO   O54 1839   5.900   3.012   5.559  0.3928  0.0533  0.4678
    5CHTO  H133 1840   5.911   2.924   5.588  3.2334  0.5716  1.1731
    5CHTO   C75 1841   6.048   3.162   5.675 -0.4118  0.3585 -0.6842
    5CHTO  H147 1842   6.058   3.227   5.763  1.8138 -2.5214  1.2865
    5CHTO   N13 1843   6.156   3.057   5.687  0.2931  0.5683 -0.4165
    5CHTO  H139 1844   6.257   3.097   5.688 -1.0908  4.3003 -1.0207
    5CHTO  H140 1845   6.154   2.975   5.617 -0.3593  1.5985 -1.6194
    5CHTO   C76 1846   6.087   3.261   5.549  0.0197  0.7821 -0.5804
    5CHTO  H148 1847   6.080   3.203   5.456 -0.2025  1.2614 -0.8633
    5CHTO   O49 1848   5.984   3.367   5.545  0.2937 -0.2529  0.2850
    5CHTO   C77 1849   5.852   3.317   5.529 -0.0540  0.4833  0.0003
    5CHTO  H149 1850   5.855   3.259   5.437  3.0661 -0.0808  0.3887
    5CHTO   C88 1851   5.763   3.432   5.503  0.1956  0.5456 -0.0279
    5CHTO   O58 1852   5.792   3.486   5.369 -0.0005 -0.2594 -0.1764
    5CHTO  H136 1853   5.744   3.440   5.303 -0.1882 -0.3221  0.0048
    5CHTO   O51 1854   6.217   3.324   5.563 -0.4589 -0.1760 -0.2337
    5CHTO   C78 1855   6.248   3.437   5.457  0.1573 -0.7284 -0.8632
    5CHTO  H150 1856   6.153   3.469   5.408  1.4514  2.8640 -1.1474
    5CHTO   C80 1857   6.345   3.399   5.348  0.3578  0.1945  0.4929
    5CHTO  H152 1858   6.435   3.362   5.401 -0.7234 -1.1089  1.4648
    5CHTO   O55 1859   6.284   3.296   5.264 -0.6458  0.2346 -0.6234
    5CHTO  H134 1860   6.329   3.297   5.181 -1.4039 -0.3329 -1.0496
    5CHTO   C84 1861   6.394   3.527   5.269 -0.5055  0.4304  0.1490
    5CHTO  H156 1862   6.310   3.572   5.215 -1.8772  0.8441  2.5729
    5CHTO   N15 1863   6.508   3.482   5.177  0.4865 -0.5819  0.1524
    5CHTO  H143 1864   6.471   3.416   5.101  1.9235 -1.5608  0.2806
    5CHTO  H144 1865   6.583   3.429   5.231 -1.1098 -1.0054  2.0031
    5CHTO   C87 1866   6.445   3.631   5.375 -0.4788  0.4440  0.5715
    5CHTO  H159 1867   6.520   3.582   5.436 -0.9828 -0.1560  0.7201
    5CHTO   O53 1868   6.322   3.670   5.455  0.4111 -0.1383  0.9364
    5CHTO   C82 1869   6.282   3.565   5.539 -0.1126 -0.3597 -0.6507
    5CHTO  H154 1870   6.359   3.528   5.606 -1.4230 -3.2612 -0.6397
    5CHTO   C89 1871   6.171   3.609   5.624  0.6421 -0.0556  0.7845
    5CHTO   O59 1872   6.202   3.728   5.681 -0.3664 -0.0707  0.1944
    5CHTO  H137 1873   6.231   3.715   5.769 -0.3470  0.0338  0.2040
    5CHTO   O45 1874   6.528   3.779   5.310 -0.4113 -0.0704 -0.3139
    5CHTO   C67 1875   6.601   3.841   5.413  0.3481  0.1155 -0.0648
    5CHTO  H124 1876   6.542   3.836   5.505 -0.3523  2.9431 -0.3203
    5CHTO   C65 1877   6.742   3.776   5.443 -0.2017  0.2025 -0.3653
    5CHTO  H122 1878   6.772   3.724   5.352  0.8738 -0.2549  0.2450
    5CHTO   O44 1879   6.717   3.681   5.550  0.6165 -0.1313 -0.1748
    5CHTO  H102 1880   6.695   3.720   5.633  1.3826 -0.7279  0.3155
    5CHTO   C63 1881   6.860   3.884   5.476  0.2304  0.5156 -0.8736
    5CHTO  H120 1882   6.887   3.933   5.383  0.2837  1.5500 -0.3176
    5CHTO   N11 1883   6.988   3.822   5.532 -0.3232 -0.0903 -0.5360
    5CHTO  H108 1884   7.038   3.769   5.454 -0.5185 -1.3962  0.2097
    5CHTO  H109 1885   7.048   3.868   5.608 -1.8487  0.6612  0.2500
    5CHTO   C61 1886   6.800   3.990   5.566 -0.6225 -0.9092  0.1214
    5CHTO  H118 1887   6.885   4.058   5.579  0.5881 -2.0574 -1.5781
    5CHTO   O40 1888   6.704   4.067   5.492  0.3847  0.4820  0.1498
    5CHTO   C68 1889   6.621   3.998   5.388  0.2942 -0.2746 -0.0752
    5CHTO  H125 1890   6.671   4.006   5.290 -0.0817  0.9934 -0.1834
    5CHTO   C72 1891   6.481   4.070   5.374  0.7245 -0.4597 -0.3528
    5CHTO   O48 1892   6.390   4.061   5.485  0.1344  0.4506  0.3476
    5CHTO  H105 1893   6.417   4.126   5.547  0.7834 -0.6235  1.2078
    5CHTO   O38 1894   6.753   3.943   5.695  0.4668  0.2005  0.4090
    5CHTO   C55 1895   6.710   4.035   5.791 -0.0226 -0.2871 -0.6181
    5CHTO  H112 1896   6.647   4.116   5.751  0.6563 -0.7467 -2.6574
    5CHTO   C56 1897   6.825   4.098   5.885 -0.3325 -0.0191  0.2935
    5CHTO  H113 1898   6.887   4.017   5.926 -2.3913 -1.2983  0.9644
    5CHTO   O42 1899   6.903   4.180   5.794  0.0900 -0.3127  0.5390
    5CHTO  H100 1900   6.921   4.127   5.718 -0.4652  0.7822 -0.3719
    5CHTO   C57 1901   6.770   4.185   6.001  0.1610 -0.4545 -0.1210
    5CHTO  H114 1902   6.736   4.275   5.950  2.6107 -0.1684 -1.3067
    5CHTO   N10 1903   6.871   4.226   6.099 -0.2145 -0.1232  0.3608
    5CHTO  H106 1904   6.906   4.145   6.162  1.4875  0.4753  0.2167
    5CHTO  H107 1905   6.820   4.298   6.161 -1.7845 -0.9773  0.0954
    5CHTO   C58 1906   6.651   4.117   6.068 -0.1458  0.3615 -0.7465
    5CHTO  H115 1907   6.694   4.042   6.137  0.4683  1.4964  0.1334
    5CHTO   O37 1908   6.554   4.054   5.979 -0.6539 -0.2374 -0.1235
    5CHTO   C59 1909   6.615   3.963   5.893 -0.2037  0.0391  1.2778
    5CHTO  H116 1910   6.674   3.892   5.949  1.3861  1.2555  1.1789
    5CHTO   C70 1911   6.506   3.877   5.828 -0.4016 -0.0812  0.4515
    5CHTO   O46 1912   6.403   3.949   5.758  0.1068  1.2081 -0.2033
    5CHTO  H103 1913   6.357   4.006   5.817 -0.5619 -0.1387  0.5884
    5CHTO   O39 1914   6.568   4.225   6.155 -0.3842 -0.2721  0.5223
    5CHTO   C60 1915   6.472   4.169   6.249  0.0464 -0.0424 -0.1860
    5CHTO  H117 1916   6.397   4.127   6.183  1.3641 -0.8483 -1.2001
    5CHTO   C62 1917   6.534   4.056   6.345  0.3614 -0.6232  0.2072
    5CHTO  H119 1918   6.576   3.965   6.298 -1.0171 -0.6524 -0.9958
    5CHTO   O43 1919   6.658   4.117   6.405 -0.1757 -0.1561 -0.3847
    5CHTO  H101 1920   6.732   4.099   6.351 -0.0070 -0.5369 -0.0253
    5CHTO   C66 1921   6.432   4.019   6.464  0.2246  0.3364 -0.4624
    5CHTO  H123 1922   6.348   3.965   6.421  0.6385 -1.1501  0.5471
    5CHTO   N12 1923   6.487   3.917   6.560  0.1883  0.1534  0.6327
    5CHTO  H110 1924   6.568   3.977   6.599  1.4222 -0.2060 -1.3144
    5CHTO  H111 1925   6.409   3.907   6.635 -1.0400  0.5124 -0.5810
    5CHTO   C69 1926   6.387   4.146   6.539 -0.5067 -0.8352  0.3014
    5CHTO  H126 1927   6.469   4.193   6.598 -0.5766 -2.0465  1.3980
    5CHTO   O41 1928   6.327   4.259   6.433  0.0452  0.1487 -0.5023
    5CHTO   C64 1929   6.414   4.295   6.324 -0.3001 -0.5855 -0.6364
    5CHTO  H121 1930   6.489   4.367   6.363  1.0587 -2.3565  0.0810
    5CHTO   C71 1931   6.341   4.386   6.229 -0.0609 -0.0763 -0.4663
    5CHTO   O47 1932   6.228   4.319   6.171 -0.0124  0.8239 -0.2630
    5CHTO  H104 1933   6.163   4.379   6.138  0.2326  2.0990  1.4942
    5CHTO   O34 1934   6.281   4.116   6.642 -0.1319  0.3549 -0.2126
    5CHTO   C49 1935   6.245   4.197   6.781  0.2693  0.1616  0.2759
    5CHTO   H91 1936   6.343   4.219   6.822  1.1099  1.0452 -2.1298
    5CHTO   C47 1937   6.171   4.107   6.877  0.2269  0.0004 -0.0255
    5CHTO   H89 1938   6.138   4.161   6.968  0.1300  0.2206 -0.1903
    5CHTO   O33 1939   6.246   3.989   6.916 -0.0032  0.2323 -0.2180
    5CHTO   H70 1940   6.292   4.016   6.993 -0.9020  0.6580  0.1761
    5CHTO   C45 1941   6.033   4.066   6.803  0.3143 -0.3219  0.7542
    5CHTO   H87 1942   6.074   4.028   6.708 -1.4267 -0.3316 -0.0012
    5CHTO    N8 1943   5.949   3.959   6.868 -0.1665  0.6085  0.2920
    5CHTO   H75 1944   5.993   3.865   6.899 -2.5217  0.3420  3.0464
    5CHTO   H76 1945   5.871   3.948   6.794 -0.8426  1.5138  0.8540
    5CHTO   C43 1946   5.941   4.201   6.764 -0.0517  0.1078 -0.1774
    5CHTO   H85 1947   5.865   4.161   6.697 -0.0093  0.5524 -0.4933
    5CHTO   O29 1948   6.026   4.298   6.697 -0.1501  0.0214  0.2689
    5CHTO   C50 1949   6.160   4.331   6.753 -0.0611 -0.2046  0.6715
    5CHTO   H92 1950   6.214   4.396   6.682 -1.4458 -1.7384 -1.8719
    5CHTO   C54 1951   6.137   4.418   6.885  0.8513  0.6045  0.4115
    5CHTO   O36 1952   6.264   4.474   6.911  0.4264 -0.1704  0.1192
    5CHTO   H72 1953   6.261   4.559   6.871 -0.3054 -1.2169 -2.1268
    5CHTO   O27 1954   5.864   4.250   6.882  0.0533  0.3056  0.4242
    5CHTO   C37 1955   5.738   4.302   6.915 -0.1493  0.2982  0.5083
    5CHTO   H79 1956   5.724   4.404   6.876  1.7484  0.2642 -0.2841
    5CHTO   C38 1957   5.617   4.215   6.853 -0.1463  0.1290  0.3955
    5CHTO   H80 1958   5.633   4.109   6.875  0.9588  0.3248  0.5712
    5CHTO   O31 1959   5.625   4.230   6.710 -0.1371  0.0972  0.6719
    5CHTO   H68 1960   5.591   4.155   6.665  0.9602 -0.7507  1.2294
    5CHTO   C39 1961   5.476   4.263   6.914 -0.3373 -0.9785 -0.2275
    5CHTO   H81 1962   5.458   4.370   6.897  0.3727 -1.0298 -1.3939
    5CHTO    N7 1963   5.349   4.202   6.859 -0.2457  0.0704  0.2108
    5CHTO   H73 1964   5.262   4.232   6.915 -0.4986 -1.5269  0.7202
    5CHTO   H74 1965   5.362   4.097   6.885 -0.8154  0.5587  2.5996
    5CHTO   C40 1966   5.490   4.254   7.070  0.1094  0.1749  0.5451
    5CHTO   H82 1967   5.503   4.149   7.096 -1.9331 -0.1038  0.5142
    5CHTO   O26 1968   5.604   4.335   7.107 -0.1981 -0.2603  0.1834
    5CHTO   C41 1969   5.734   4.307   7.066  0.1463 -0.4892 -0.5485
    5CHTO   H83 1970   5.754   4.208   7.109 -0.8902  0.5039  2.3290
    5CHTO   C52 1971   5.834   4.400   7.129 -0.2240 -0.2227 -0.3026
    5CHTO   O35 1972   5.838   4.377   7.271  0.1648  0.2343 -0.1776
    5CHTO   H71 1973   5.902   4.433   7.312  0.8190 -0.3158 -0.4411
    5CHTO   O28 1974   5.380   4.314   7.148  0.2214  0.2028  0.7633
    5CHTO   C42 1975   5.387   4.330   7.294 -0.0527  0.2469  0.0521
    5CHTO   H84 1976   5.286   4.297   7.319 -0.0677  0.6243  0.4779
    5CHTO   C44 1977   5.404   4.480   7.346 -0.3562  0.5074  0.1129
    5CHTO   H86 1978   5.481   4.522   7.281 -0.7233  1.5024  0.3142
    5CHTO   O32 1979   5.280   4.551   7.311  0.0240 -0.1058 -0.6007
    5CHTO   H69 1980   5.213   4.530   7.372  0.2153  1.1220  0.0670
    5CHTO   C48 1981   5.451   4.501   7.500 -0.2151  0.3567  0.0844
    5CHTO   H90 1982   5.367   4.482   7.566 -0.8593 -0.1369 -0.8635
    5CHTO    N9 1983   5.501   4.641   7.536 -0.1752  0.2865 -0.8044
    5CHTO   H77 1984   5.514   4.634   7.643 -1.8514 -1.6976 -0.6979
    5CHTO   H78 1985   5.597   4.650   7.488 -0.0653 -0.2262 -0.6855
    5CHTO   C51 1986   5.562   4.395   7.527  0.4164 -0.1903 -0.4985
    5CHTO   H93 1987   5.635   4.417   7.450  1.9170  1.6370  1.4219
    5CHTO   O30 1988   5.499   4.269   7.502  0.1236 -0.2103 -0.3532
    5CHTO   C46 1989   5.486   4.232   7.371  0.9994  0.2986  0.0028
    5CHTO   H88 1990   5.581   4.227   7.319  0.6437  1.7722 -0.8119
    5CHTO   C53 1991   5.435   4.088   7.371 -0.4686  0.0510  0.7150
    5CHTO   O72 1992   5.523   3.997   7.441  0.2592  0.3706 -0.1906
    5CHTO  H199 1993   5.614   4.019   7.445  0.3901 -0.1885 -0.1146
    5CHTO   O22 1994   5.623   4.373   7.655 -0.4127  0.3042  0.0365
    5CHTO   C31 1995   5.756   4.306   7.656 -0.5250  0.5657 -0.2195
    5CHTO   H59 1996   5.781   4.300   7.764  0.2707  2.0788 -0.3024
    5CHTO   C29 1997   5.756   4.159   7.603 -0.6790 -0.2704  0.0207
    5CHTO   H57 1998   5.717   4.165   7.501 -0.5516  0.9749  0.0362
    5CHTO   O21 1999   5.649   4.096   7.672 -0.0413  0.1228 -0.1371
    5CHTO   H37 2000   5.679   4.015   7.708 -0.4251  0.4613  0.9723
    5CHTO   C27 2001   5.902   4.093   7.612  0.1357 -0.0530  0.5902
    5CHTO   H55 2002   5.933   4.084   7.717  2.3917  1.8853  0.1365
    5CHTO    N5 2003   5.891   3.956   7.554  0.3839 -0.4548  0.3510
    5CHTO   H43 2004   5.990   3.926   7.523  1.1498  4.5160 -2.3823
    5CHTO   H44 2005   5.850   3.898   7.636 -1.9607 -0.1624 -0.5616
    5CHTO   C25 2006   6.001   4.189   7.533 -0.0323  0.5655  0.1222
    5CHTO   H53 2007   5.969   4.184   7.429  2.2607 -0.7614 -0.5702
    5CHTO   O17 2008   6.000   4.326   7.586  0.1390 -0.3122  0.3605
    5CHTO   C32 2009   5.875   4.397   7.602  0.4460 -1.0141  0.0031
    5CHTO   H60 2010   5.851   4.427   7.501 -0.5500  0.9250  0.7918
    5CHTO   C36 2011   5.903   4.536   7.674  0.3309 -0.3745 -0.1302
    5CHTO   O25 2012   5.995   4.619   7.607  0.4357 -0.5252 -0.3147
    5CHTO   H40 2013   5.984   4.702   7.647 -0.3726 -0.8846  0.2128
    5CHTO   O15 2014   6.140   4.144   7.534 -0.4623  0.8648 -0.2194
    5CHTO   C19 2015   6.261   4.219   7.500  0.0012  0.4381  0.3512
    5CHTO   H47 2016   6.225   4.321   7.479 -2.6726  0.3201  3.8937
    5CHTO   C20 2017   6.363   4.232   7.617 -0.1217  0.7606  0.6513
    5CHTO   H48 2018   6.397   4.136   7.657  1.3937  1.3826  0.8760
    5CHTO   O19 2019   6.303   4.322   7.713  0.0139  0.2629 -0.0939
    5CHTO   H35 2020   6.231   4.282   7.757  0.0950 -0.4601 -0.6055
    5CHTO   C21 2021   6.491   4.312   7.562  0.5279 -0.2620  0.5077
    5CHTO   H49 2022   6.463   4.412   7.528  1.6887 -0.1877 -0.2550
    5CHTO    N4 2023   6.596   4.318   7.669  0.1756  0.0389  0.1972
    5CHTO   H41 2024   6.629   4.219   7.698  1.3058  0.0670 -0.9423
    5CHTO   H42 2025   6.683   4.375   7.640  0.6577 -0.9785 -0.3663
    5CHTO   C22 2026   6.543   4.245   7.430 -0.3580  0.1229  0.0876
    5CHTO   H50 2027   6.579   4.145   7.453  1.0784  0.9436  1.5505
    5CHTO   O14 2028   6.435   4.240   7.339  0.5179 -0.3997  0.0694
    5CHTO   C23 2029   6.325   4.159   7.372  0.1681  0.0716 -0.2922
    5CHTO   H51 2030   6.365   4.058   7.390 -0.6105 -0.2507 -0.3370
    5CHTO   C34 2031   6.236   4.159   7.250  0.3799 -0.3429 -0.1695
    5CHTO   O23 2032   6.124   4.065   7.257 -0.3345  0.1778 -0.2920
    5CHTO   H38 2033   6.085   4.036   7.177 -1.1058 -0.5444  0.3318
    5CHTO   O16 2034   6.649   4.322   7.364  0.0332 -0.0385  0.0654
    5CHTO   C24 2035   6.723   4.229   7.261  0.1179  0.2778 -0.3532
    5CHTO   H52 2036   6.660   4.146   7.230 -1.0102  0.8042  0.5071
    5CHTO   C26 2037   6.854   4.170   7.313 -0.2103 -0.0312  0.2952
    5CHTO   H54 2038   6.909   4.256   7.357 -0.5117 -0.0588  0.7228
    5CHTO   O20 2039   6.824   4.069   7.413  0.1862  0.2819  0.6765
    5CHTO   H36 2040   6.894   4.050   7.472 -0.2820 -0.5654  0.9683
    5CHTO   C30 2041   6.937   4.103   7.198  0.5688 -0.4836 -0.6271
    5CHTO   H58 2042   6.906   3.998   7.183  0.4826 -0.4069 -0.9938
    5CHTO    N6 2043   7.080   4.102   7.238 -0.7191 -0.2621 -0.0200
    5CHTO   H45 2044   7.098   4.060   7.335  0.4769  3.2227  1.3397
    5CHTO   H46 2045   7.144   4.047   7.170  1.7039  1.4850  0.7890
    5CHTO   C33 2046   6.930   4.193   7.072 -0.0264  0.4433 -0.2956
    5CHTO   H61 2047   6.981   4.289   7.088 -0.7635  0.2827  3.3825
    5CHTO   O18 2048   6.793   4.224   7.043  0.1171 -0.4329 -0.1014
    5CHTO   C28 2049   6.743   4.319   7.138 -0.3210  0.1457  0.2425
    5CHTO   H56 2050   6.815   4.397   7.164 -0.9659  1.3872 -1.6368
    5CHTO   C35 2051   6.608   4.364   7.085  0.4449 -0.1773  0.0188
    5CHTO   O24 2052   6.504   4.272   7.041  0.2201 -0.4573  0.3788
    5CHTO   H39 2053   6.436   4.274   7.104 -1.5820  3.7327 -1.5008
    5CHTO    O9 2054   6.994   4.138   6.955 -0.0054 -0.1893 -0.2289
    5CHTO   C13 2055   6.925   4.016   6.881 -0.2755  0.0247  0.8655
    5CHTO   H26 2056   6.834   3.994   6.941 -0.1974 -1.2040  0.5387
    5CHTO   C11 2057   7.018   3.889   6.868 -0.0964 -0.0456 -0.1131
    5CHTO   H24 2058   7.036   3.853   6.970 -1.7314  0.2547  0.2951
    5CHTO    O8 2059   7.142   3.933   6.807 -0.2644 -0.1381 -0.4014
    5CHTO    H3 2060   7.206   3.866   6.821  0.4852  0.3855 -1.2556
    5CHTO    C9 2061   6.939   3.787   6.783  0.5384 -0.4470  0.4342
    5CHTO   H22 2062   6.849   3.757   6.841  1.1840  0.3109  1.8508
    5CHTO    N2 2063   7.010   3.651   6.778  0.2697  0.0333  0.3230
    5CHTO   H10 2064   6.922   3.589   6.775 -1.3936  1.8306  5.6722
    5CHTO   H11 2065   7.063   3.630   6.869 -0.0052 -2.0316  0.0171
    5CHTO    C7 2066   6.895   3.849   6.645 -0.1978  0.1806  0.6365
    5CHTO   H20 2067   6.818   3.776   6.610  0.3946 -0.2602  0.2286
    5CHTO    O4 2068   6.840   3.977   6.650 -0.2155 -0.2264  0.1183
    5CHTO   C14 2069   6.876   4.079   6.739 -0.2366 -0.0625  0.7048
    5CHTO   H27 2070   6.779   4.129   6.762  0.5571  2.3285 -1.0381
    5CHTO   C18 2071   6.972   4.186   6.684  0.0012  0.2525  0.1155
    5CHTO   O13 2072   6.915   4.256   6.571  0.6519  0.2925 -0.0754
    5CHTO    H7 2073   6.961   4.337   6.561  1.6742  0.0424  2.3284
    5CHTO    O2 2074   7.007   3.841   6.541 -0.0453  0.2160 -0.3057
    5CHTO    C1 2075   6.991   3.870   6.400 -0.0092  0.1780 -0.1605
    5CHTO   H14 2076   6.952   3.972   6.379 -0.4279  0.2184  0.7550
    5CHTO    C2 2077   6.896   3.757   6.333  0.4564  0.8466  0.2582
    5CHTO   H15 2078   6.927   3.660   6.373  2.3939  0.0199 -2.9744
    5CHTO    O6 2079   6.764   3.779   6.378  0.0096 -0.1875  0.5096
    5CHTO    H1 2080   6.762   3.772   6.472  0.3298  0.7730  0.5962
    5CHTO    C3 2081   6.904   3.765   6.171 -0.0421  0.2229 -0.2690
    5CHTO   H16 2082   6.851   3.852   6.130  0.0131  0.3924  0.0199
    5CHTO    N1 2083   6.850   3.637   6.109 -0.3562  0.0115 -0.2741
    5CHTO    H8 2084   6.902   3.552   6.149 -0.8567  0.0335  0.4411
    5CHTO    H9 2085   6.742   3.632   6.108 -0.4205  1.0566  0.4264
    5CHTO    C4 2086   7.056   3.783   6.130 -0.0348  0.8953 -0.2754
    5CHTO   H17 2087   7.106   3.687   6.143 -0.9980  0.4161 -0.0999
    5CHTO    O1 2088   7.126   3.885   6.201  0.0520  0.9089 -0.1735
    5CHTO    C5 2089   7.131   3.865   6.342 -0.0760  0.2584 -0.1619
    5CHTO   H18 2090   7.184   3.770   6.351  1.6708  1.2277  0.1993
    5CHTO   C16 2091   7.226   3.985   6.390  0.1970  0.1811  0.1916
    5CHTO   O11 2092   7.242   4.003   6.536 -0.3129 -0.0255 -0.1321
    5CHTO    H5 2093   7.306   4.071   6.545 -0.1422 -0.4380  1.8525
    5CHTO    O3 2094   7.060   3.824   5.994 -0.0179 -0.3660 -0.3417
    5CHTO    C6 2095   7.190   3.794   5.932  0.6669 -0.2139 -0.4148
    5CHTO   H19 2096   7.268   3.784   6.006 -0.5897 -1.2224  0.7998
    5CHTO    C8 2097   7.182   3.661   5.853 -0.1255 -0.0039 -0.4234
    5CHTO   H21 2098   7.089   3.669   5.795  0.2869  2.0804 -0.8493
    5CHTO    O7 2099   7.160   3.554   5.940  0.2929 -0.0795 -1.0203
    5CHTO    H2 2100   7.093   3.571   6.004  1.6703 -0.7234  0.6508
    5CHTO   C12 2101   7.306   3.637   5.756 -0.2095  1.3056  0.0060
    5CHTO   H25 2102   7.390   3.615   5.826 -0.7782 -0.3346  0.1959
    5CHTO    N3 2103   7.291   3.509   5.682 -0.1386  0.4414 -1.0608
    5CHTO   H12 2104   7.359   3.432   5.715  0.8651  1.6002 -0.3826
    5CHTO   H13 2105   7.302   3.533   5.577 -1.3813 -0.0108 -1.3001
    5CHTO   C15 2106   7.342   3.768   5.682 -0.5155  0.4043  0.3045
    5CHTO   H28 2107   7.273   3.794   5.601  0.0927 -2.0869 -1.0755
    5CHTO   O10 2108   7.492   3.762   5.639 -0.0826  0.0166 -0.0127
    5CHTO    H4 2109   7.499   3.712   5.560 -2.6703 -0.8768  0.2880
    5CHTO    O5 2110   7.355   3.876   5.775  0.1219  0.0335 -0.2030
    5CHTO   C10 2111   7.234   3.911   5.839 -0.9729  0.0920  0.8179
    5CHTO   H23 2112   7.162   3.937   5.762  1.3952  0.9796 -1.1497
    5CHTO   C17 2113   7.253   4.044   5.918  0.8321 -0.2675  0.0741
    5CHTO   O12 2114   7.276   4.157   5.831 -0.0080  0.1629 -0.1857
    5CHTO    H6 2115   7.220   4.162   5.756 -2.5187  0.1001  1.6209
    6CHTO  H203 2116   6.266   5.959   2.275  0.2229 -0.3592 -0.4358
    6CHTO   O82 2117   6.193   5.972   2.333  0.3850 -0.2268 -0.2634
    6CHTO  C123 2118   6.240   5.962   2.470 -0.6689 -0.0878 -0.0439
    6CHTO  H227 2119   6.268   6.061   2.511 -0.1514 -0.5461  0.7162
    6CHTO   O77 2120   6.118   5.942   2.547 -0.5857  0.0483  0.0770
    6CHTO  C118 2121   6.146   5.931   2.686  0.0900 -1.0536 -0.3037
    6CHTO  H222 2122   6.205   6.017   2.722 -0.3502 -0.4811 -0.9392
    6CHTO  C125 2123   6.006   5.926   2.753 -0.8394  0.2658  0.3858
    6CHTO   O84 2124   5.939   6.056   2.738 -0.1303 -0.3780 -0.5394
    6CHTO  H205 2125   5.852   6.048   2.771 -0.0661 -1.2353 -0.5698
    6CHTO  C114 2126   6.227   5.803   2.714 -0.3296 -0.0971 -0.0439
    6CHTO  H218 2127   6.184   5.718   2.661  1.2379 -0.8702 -0.1230
    6CHTO  C116 2128   6.367   5.809   2.635 -0.9453 -0.2702  0.8596
    6CHTO  H220 2129   6.423   5.884   2.693 -2.6800  2.2078 -0.5820
    6CHTO   O79 2130   6.427   5.674   2.647 -0.3841 -0.2359 -0.6850
    6CHTO  H201 2131   6.479   5.681   2.724 -1.1630  0.2341 -0.1900
    6CHTO  C120 2132   6.351   5.850   2.483  0.1599  0.6838  0.0545
    6CHTO  H224 2133   6.315   5.763   2.424 -0.3291  0.5847  0.4955
    6CHTO   N21 2134   6.490   5.875   2.429  0.2271  0.7793  0.6484
    6CHTO  H211 2135   6.542   5.781   2.423 -1.9850 -0.5321  1.4063
    6CHTO  H212 2136   6.490   5.911   2.327  1.7087 -0.2288  0.2736
    6CHTO   O75 2137   6.244   5.792   2.859 -0.1689 -0.3053  0.1862
    6CHTO  C112 2138   6.188   5.664   2.934  0.7191  0.0993 -0.1965
    6CHTO  H216 2139   6.251   5.580   2.903 -0.2653 -0.4929 -0.6182
    6CHTO   O73 2140   6.055   5.649   2.883  0.1299 -0.1854  0.0762
    6CHTO  C113 2141   5.985   5.534   2.928 -0.0355  0.6113 -0.0436
    6CHTO  H217 2142   6.045   5.444   2.907  0.7817  1.1631 -0.0767
    6CHTO  C124 2143   5.845   5.521   2.863 -0.2173 -0.0243  0.3976
    6CHTO   O83 2144   5.755   5.598   2.923  0.0693 -0.6120  0.0868
    6CHTO  H204 2145   5.674   5.628   2.886 -2.4489 -4.0852  2.4039
    6CHTO  C109 2146   5.977   5.541   3.084  0.3008  0.2105  0.2709
    6CHTO  H213 2147   5.916   5.629   3.109 -0.9604 -0.4123 -0.5327
    6CHTO  C110 2148   6.117   5.560   3.152  0.2683 -0.1496  0.4429
    6CHTO  H214 2149   6.176   5.469   3.136 -0.8735 -0.1883 -4.1447
    6CHTO   O78 2150   6.108   5.563   3.295  0.4408  0.6401 -0.2193
    6CHTO  H200 2151   6.046   5.627   3.324  0.0766  0.3822 -0.4207
    6CHTO  C111 2152   6.199   5.676   3.090 -0.3887 -0.5908  0.3100
    6CHTO  H215 2153   6.155   5.770   3.124 -1.6981 -0.5411 -1.4216
    6CHTO   N19 2154   6.342   5.680   3.123 -0.1210  0.2632  0.5174
    6CHTO  H207 2155   6.388   5.587   3.095  0.9356  0.0560  2.8622
    6CHTO  H208 2156   6.387   5.758   3.063  0.5378 -0.4626  0.0653
    6CHTO   O74 2157   5.908   5.425   3.132 -0.4527 -0.6095 -0.1479
    6CHTO  C115 2158   5.741   5.461   3.196 -0.3773  0.8229  0.1408
    6CHTO  H219 2159   5.722   5.568   3.197  1.4663  1.1752 -0.9087
    6CHTO   O76 2160   5.628   5.395   3.112  0.1580  0.1203 -0.3674
    6CHTO  C122 2161   5.636   5.253   3.104  0.3732  0.2242  0.9986
    6CHTO  H226 2162   5.701   5.226   3.021  0.5074  0.0268  1.1680
    6CHTO  C126 2163   5.492   5.198   3.075 -0.3543  0.0823  0.1308
    6CHTO   O85 2164   5.500   5.053   3.059  0.1821  0.1917 -0.3293
    6CHTO  H206 2165   5.421   5.024   3.017 -1.6335  1.6715  1.9595
    6CHTO  C121 2166   5.698   5.184   3.238  0.7270  0.3288  0.2079
    6CHTO  H225 2167   5.652   5.085   3.259 -1.0219  1.1929  0.5541
    6CHTO   O81 2168   5.834   5.148   3.208 -0.1892 -0.1180  0.0315
    6CHTO  H202 2169   5.861   5.076   3.261 -0.0015 -0.5245 -0.5991
    6CHTO  C119 2170   5.677   5.268   3.364 -0.0760 -0.9486  0.3036
    6CHTO  H223 2171   5.570   5.284   3.358  0.0221 -0.7701 -1.0477
    6CHTO  C117 2172   5.739   5.403   3.343 -0.0248  0.2830 -0.0624
    6CHTO  H221 2173   5.844   5.406   3.375 -0.8020 -2.7501  3.1351
    6CHTO   N20 2174   5.665   5.504   3.429  0.1906 -0.4850 -0.8383
    6CHTO  H209 2175   5.581   5.458   3.478  1.2705 -0.9223  0.6454
    6CHTO  H210 2176   5.741   5.538   3.498 -0.2934  1.2673 -1.1587
    6CHTO   O80 2177   5.688   5.193   3.503  0.5143  0.4421 -0.2767
    6CHTO  C103 2178   5.553   5.122   3.567 -0.0590 -0.0673 -0.1642
    6CHTO  H190 2179   5.572   5.105   3.673 -1.5771 -0.1464  0.1018
    6CHTO  C101 2180   5.411   5.187   3.543  0.1307 -0.0623 -1.0967
    6CHTO  H188 2181   5.400   5.211   3.437 -0.7824  0.4633 -0.8908
    6CHTO   O68 2182   5.385   5.328   3.624  0.1627  0.3988 -0.1522
    6CHTO  H168 2183   5.467   5.370   3.640 -0.3060  1.7249 -1.2038
    6CHTO   C99 2184   5.297   5.085   3.592  0.7343 -0.0572 -0.2810
    6CHTO  H186 2185   5.293   5.069   3.702 -0.8762 -0.9884 -0.4525
    6CHTO   N17 2186   5.155   5.134   3.556 -0.5403 -0.2292 -0.0509
    6CHTO  H174 2187   5.142   5.135   3.448  2.8876  0.3230 -0.5297
    6CHTO  H175 2188   5.136   5.235   3.590  0.0711  0.5211 -1.8529
    6CHTO   C97 2189   5.313   4.939   3.535 -0.3807 -0.1362  0.7862
    6CHTO  H184 2190   5.290   4.932   3.428  0.6286 -0.0226  0.5643
    6CHTO   O64 2191   5.450   4.899   3.561 -0.7081  0.5521  0.4650
    6CHTO  C104 2192   5.548   4.984   3.498 -0.0807 -0.4637 -0.0898
    6CHTO  H191 2193   5.514   5.002   3.396  0.2738  0.5325 -0.0412
    6CHTO  C108 2194   5.680   4.910   3.490  0.0807  0.1974 -0.6640
    6CHTO   O71 2195   5.669   4.774   3.442 -0.4343  0.4024  0.5651
    6CHTO  H171 2196   5.683   4.712   3.511  0.2309  0.2512  0.3009
    6CHTO   O62 2197   5.227   4.845   3.602  0.0744  0.6298 -0.3937
    6CHTO   C91 2198   5.238   4.812   3.743 -0.2326 -0.1709  0.2212
    6CHTO  H178 2199   5.290   4.889   3.800  0.1416 -2.2576  2.7713
    6CHTO   C92 2200   5.329   4.682   3.749 -0.2843 -0.0545 -0.6861
    6CHTO  H179 2201   5.402   4.692   3.667  0.8860  1.1511  0.4786
    6CHTO   O66 2202   5.407   4.674   3.868 -0.3249  0.2745  0.3590
    6CHTO  H166 2203   5.363   4.708   3.944  0.1092 -0.5631  0.9947
    6CHTO   C93 2204   5.241   4.553   3.744 -0.2245 -0.2967  0.6281
    6CHTO  H180 2205   5.311   4.471   3.766 -0.6363 -0.9422 -0.4170
    6CHTO   N16 2206   5.202   4.534   3.601 -0.0879  0.0326  0.2835
    6CHTO  H172 2207   5.283   4.567   3.537 -0.3593  0.4271  0.1372
    6CHTO  H173 2208   5.176   4.432   3.577 -0.2166 -0.1427  1.1668
    6CHTO   C94 2209   5.121   4.555   3.848 -0.1890 -0.1384  0.2862
    6CHTO  H181 2210   5.024   4.536   3.803  0.2369 -0.2716 -0.5812
    6CHTO   O61 2211   5.108   4.677   3.913 -0.3003  0.0199 -0.0133
    6CHTO   C95 2212   5.095   4.785   3.817  0.3086 -0.4952 -0.9134
    6CHTO  H182 2213   5.018   4.764   3.742 -1.0621  2.9593 -0.5583
    6CHTO  C106 2214   5.050   4.910   3.892  0.4818  0.4988 -0.1989
    6CHTO   O69 2215   4.929   4.877   3.953 -0.3730 -0.1571 -0.0706
    6CHTO  H169 2216   4.904   4.956   3.998  1.8980  0.6894 -0.2161
    6CHTO   O63 2217   5.159   4.433   3.962  0.1862 -0.0627 -0.2716
    6CHTO   C96 2218   5.043   4.394   4.052 -0.6473 -0.2005  0.8896
    6CHTO  H183 2219   4.975   4.342   3.984 -0.1955 -0.8880  0.9660
    6CHTO   C98 2220   4.965   4.496   4.135 -0.2204  0.0186  0.2859
    6CHTO  H185 2221   5.036   4.563   4.186  0.7505 -1.3540  0.7721
    6CHTO   O67 2222   4.887   4.579   4.043  0.0768  0.0586 -0.6401
    6CHTO  H167 2223   4.903   4.667   4.074 -2.4784 -0.5867  2.8717
    6CHTO  C102 2224   4.860   4.442   4.242 -0.1241  0.0109  0.1222
    6CHTO  H189 2225   4.776   4.403   4.183 -0.9499  0.7583  0.7831
    6CHTO   N18 2226   4.805   4.537   4.343 -0.1831 -0.5694  0.0716
    6CHTO  H176 2227   4.835   4.511   4.444  1.8244 -2.0513 -0.8801
    6CHTO  H177 2228   4.828   4.641   4.321 -1.4735  0.2614  2.4505
    6CHTO  C105 2229   4.909   4.315   4.308 -0.2315 -0.4989  0.2882
    6CHTO  H192 2230   4.990   4.337   4.379 -0.1099 -2.0640  0.6544
    6CHTO   O65 2231   4.975   4.228   4.213  0.0196  0.1676  0.1501
    6CHTO  C100 2232   5.090   4.279   4.151 -0.0751 -0.7556  0.3406
    6CHTO  H187 2233   5.159   4.324   4.224  3.7906 -1.6264 -2.6431
    6CHTO  C107 2234   5.158   4.169   4.085 -0.0221  0.4446  1.0328
    6CHTO   O70 2235   5.228   4.073   4.173  0.2963  0.0915 -0.4310
    6CHTO  H170 2236   5.289   4.113   4.233 -0.6536  1.8251 -0.5914
    6CHTO   O57 2237   4.776   4.235   4.392 -0.2648 -0.3774 -0.1379
    6CHTO   C85 2238   4.807   4.129   4.486  0.1208  0.7016  0.0706
    6CHTO  H157 2239   4.718   4.067   4.465  0.1038  0.5220  0.6787
    6CHTO   C83 2240   4.797   4.185   4.634 -0.0675 -0.1928  0.0049
    6CHTO  H155 2241   4.693   4.192   4.664 -0.1058  1.7054 -0.4926
    6CHTO   O56 2242   4.840   4.322   4.625 -0.0301 -0.2639 -0.3410
    6CHTO  H135 2243   4.933   4.323   4.624 -0.0233 -0.7942 -2.4716
    6CHTO   C81 2244   4.871   4.102   4.742  0.0218 -0.0115 -0.4798
    6CHTO  H153 2245   4.811   4.013   4.761  0.5255 -0.3287 -0.3676
    6CHTO   N14 2246   4.854   4.157   4.876  0.2079 -0.3664  0.2043
    6CHTO  H141 2247   4.879   4.261   4.885 -1.5764  0.2664 -1.6874
    6CHTO  H142 2248   4.902   4.105   4.956  1.4755  1.4947  0.6988
    6CHTO   C79 2249   5.018   4.067   4.691  0.1346  0.1306  0.2126
    6CHTO  H151 2250   5.073   4.019   4.772  1.3683  2.0823  0.5417
    6CHTO   O52 2251   5.014   3.979   4.572  0.1131 -0.3997 -0.0938
    6CHTO   C86 2252   4.939   4.043   4.467 -0.6251 -0.1225  0.9723
    6CHTO  H158 2253   5.014   4.106   4.415 -0.9935 -0.7993 -0.3967
    6CHTO   C90 2254   4.910   3.931   4.366 -0.0760 -0.2020 -0.2866
    6CHTO   O60 2255   5.024   3.857   4.332 -0.1433 -0.2801 -0.7037
    6CHTO  H138 2256   5.005   3.770   4.301  0.5905 -0.6084 -0.2611
    6CHTO   O50 2257   5.097   4.182   4.657  0.6601 -0.7323  0.1042
    6CHTO   C73 2258   5.220   4.241   4.709 -0.9881  0.0059 -0.0225
    6CHTO  H145 2259   5.272   4.164   4.768 -0.2764 -1.4720 -2.5163
    6CHTO   C74 2260   5.195   4.372   4.796 -0.1612  0.0854 -0.2777
    6CHTO  H146 2261   5.127   4.336   4.874 -0.5936  0.0041 -0.6851
    6CHTO   O54 2262   5.316   4.415   4.859 -0.6036 -0.1010  0.6280
    6CHTO  H133 2263   5.316   4.498   4.901  3.1545 -0.1286  0.8080
    6CHTO   C75 2264   5.129   4.474   4.700  0.3783 -0.6702  0.3438
    6CHTO  H147 2265   5.039   4.426   4.657 -0.9084  0.8239  1.3102
    6CHTO   N13 2266   5.094   4.602   4.771  0.6937  0.4178  0.0926
    6CHTO  H139 2267   4.994   4.602   4.812  0.2895 -1.2837 -0.8544
    6CHTO  H140 2268   5.164   4.634   4.847  1.3281  1.2095 -0.8197
    6CHTO   C76 2269   5.232   4.502   4.574  0.2321 -0.0912  0.5116
    6CHTO  H148 2270   5.328   4.539   4.610  0.2070  0.6657 -0.1648
    6CHTO   O49 2271   5.260   4.380   4.502  0.1779  0.6362  0.2905
    6CHTO   C77 2272   5.310   4.280   4.592  0.3397  0.1175  0.2184
    6CHTO  H149 2273   5.408   4.313   4.627  0.9144 -0.8577 -0.4322
    6CHTO   C88 2274   5.342   4.150   4.519  1.0473  0.7755 -0.3159
    6CHTO   O58 2275   5.452   4.144   4.423 -0.0697 -0.7330  0.3661
    6CHTO  H136 2276   5.458   4.218   4.366  1.3229 -0.4215  0.9000
    6CHTO   O51 2277   5.173   4.589   4.473  0.0411 -0.1391 -0.2955
    6CHTO   C78 2278   5.252   4.717   4.438 -0.3733  0.3147 -0.2696
    6CHTO  H150 2279   5.328   4.741   4.515 -0.8435  0.2799  0.2133
    6CHTO   C80 2280   5.150   4.839   4.441 -1.0397  0.0067 -0.5355
    6CHTO  H152 2281   5.055   4.818   4.388 -1.4583  1.9679 -0.6117
    6CHTO   O55 2282   5.105   4.863   4.574 -0.6129 -0.3848 -0.2147
    6CHTO  H134 2283   5.016   4.838   4.591 -1.0286  1.4016  0.4032
    6CHTO   C84 2284   5.221   4.972   4.387  0.1326 -0.1066  0.4216
    6CHTO  H156 2285   5.282   5.005   4.470  0.2721  0.3780  0.1293
    6CHTO   N15 2286   5.124   5.084   4.371 -0.2300  0.3838  0.5809
    6CHTO  H143 2287   5.160   5.154   4.298 -1.3018  0.4024  0.0694
    6CHTO  H144 2288   5.029   5.049   4.338 -0.3901  0.8383  0.5540
    6CHTO   C87 2289   5.300   4.952   4.257 -0.6929  0.3082 -0.1809
    6CHTO  H159 2290   5.233   4.944   4.171 -2.5820  2.1041  1.0753
    6CHTO   O53 2291   5.397   4.819   4.264  0.0972 -0.1679 -0.0244
    6CHTO   C82 2292   5.315   4.702   4.302  0.2964  0.5514 -0.2958
    6CHTO  H154 2293   5.238   4.687   4.226  2.3091 -1.8374 -1.9322
    6CHTO   C89 2294   5.413   4.581   4.292  0.5553 -0.1286 -0.0451
    6CHTO   O59 2295   5.483   4.582   4.163  0.1597  0.2673  0.0061
    6CHTO  H137 2296   5.512   4.496   4.140 -1.5421 -0.9968  2.4346
    6CHTO   O45 2297   5.401   5.074   4.232  0.6152 -0.0525 -0.1362
    6CHTO   C67 2298   5.447   5.083   4.096  0.9780 -0.6238 -0.7795
    6CHTO  H124 2299   5.377   5.019   4.042  0.4014 -0.2657 -0.4741
    6CHTO   C65 2300   5.448   5.226   4.039 -0.3335  0.2844 -0.0501
    6CHTO  H122 2301   5.363   5.271   4.090 -1.7419 -1.3932 -0.8839
    6CHTO   O44 2302   5.432   5.211   3.898  0.5796 -0.6062  0.1016
    6CHTO  H102 2303   5.504   5.174   3.851  0.4333  0.4765 -1.0135
    6CHTO   C63 2304   5.573   5.305   4.089 -0.0232  0.1377  0.6824
    6CHTO  H120 2305   5.564   5.309   4.197 -0.1475  1.7237  0.6164
    6CHTO   N11 2306   5.571   5.453   4.051  0.1908 -0.2763  0.7797
    6CHTO  H108 2307   5.669   5.491   4.072 -0.1560  1.8362 -1.2277
    6CHTO  H109 2308   5.504   5.510   4.112 -1.1104  0.4720 -1.2937
    6CHTO   C61 2309   5.706   5.231   4.043  0.6935 -0.3552  1.4904
    6CHTO  H118 2310   5.787   5.286   4.093  1.6155  1.9186 -2.3324
    6CHTO   O40 2311   5.707   5.094   4.100  0.5352  0.2534 -0.6812
    6CHTO   C68 2312   5.582   5.010   4.078  0.2463  0.3217  0.6320
    6CHTO  H125 2313   5.593   4.924   4.147  1.9208 -1.0052 -1.2471
    6CHTO   C72 2314   5.580   4.953   3.935  0.0214  0.2839  0.6914
    6CHTO   O48 2315   5.694   4.868   3.921  0.1129  0.8609 -0.2846
    6CHTO  H105 2316   5.668   4.778   3.915  0.8149  0.6209  0.1830
    6CHTO   O38 2317   5.726   5.230   3.898  0.2860 -0.4747  0.1175
    6CHTO   C55 2318   5.860   5.262   3.861 -0.4214 -0.2236  0.0982
    6CHTO  H112 2319   5.924   5.268   3.949  1.7442 -0.2475 -1.4449
    6CHTO   C56 2320   5.851   5.405   3.784 -0.1889  0.3251  0.4388
    6CHTO  H113 2321   5.760   5.410   3.722 -0.7552  2.4924  1.4096
    6CHTO   O42 2322   5.830   5.506   3.883  0.0024 -0.6835 -0.5093
    6CHTO  H100 2323   5.737   5.519   3.885  0.2053  0.5492  2.0075
    6CHTO   C57 2324   5.982   5.435   3.698 -0.2785  0.1263  0.1989
    6CHTO  H114 2325   6.065   5.450   3.767 -2.2553 -0.8845  2.8993
    6CHTO   N10 2326   5.974   5.557   3.614  0.3060 -0.1772 -0.0285
    6CHTO  H106 2327   6.073   5.598   3.595 -0.4338  1.6235 -0.0765
    6CHTO  H107 2328   5.926   5.538   3.520  1.3557  1.5263 -0.9417
    6CHTO   C58 2329   6.006   5.308   3.607  0.4235 -0.1399 -0.3133
    6CHTO  H115 2330   5.919   5.295   3.540  0.7114 -0.7226 -0.5818
    6CHTO   O37 2331   6.032   5.196   3.691  0.1214 -0.6441 -0.2336
    6CHTO   C59 2332   5.920   5.148   3.767  0.2866 -0.0274 -0.0041
    6CHTO  H116 2333   5.834   5.123   3.704 -0.4965  1.8782  0.2682
    6CHTO   C70 2334   5.971   5.031   3.853 -0.5687  0.2387 -0.0915
    6CHTO   O46 2335   6.005   4.920   3.772  0.2070 -0.2755  0.2602
    6CHTO  H103 2336   5.936   4.859   3.753 -1.0697  0.5059  2.2155
    6CHTO   O39 2337   6.150   5.337   3.520 -0.3508 -0.1491 -0.0758
    6CHTO   C60 2338   6.222   5.221   3.478 -0.3257  0.4152  0.8323
    6CHTO  H117 2339   6.259   5.164   3.563  2.1679 -0.7713 -0.9817
    6CHTO   C62 2340   6.138   5.128   3.383  0.3896  0.0662 -0.1203
    6CHTO  H119 2341   6.043   5.107   3.437 -0.3371  3.0938 -0.1302
    6CHTO   O43 2342   6.085   5.197   3.271 -0.6776  0.4605  0.3065
    6CHTO  H101 2343   6.016   5.257   3.290 -1.5693 -0.3990 -0.1811
    6CHTO   C66 2344   6.224   4.995   3.346 -0.4747  0.0721  0.1612
    6CHTO  H123 2345   6.261   4.947   3.436  4.1515  0.1191 -1.5742
    6CHTO   N12 2346   6.139   4.889   3.288 -0.3312 -0.2971  0.4254
    6CHTO  H110 2347   6.033   4.901   3.303 -0.4611 -1.8323  0.8229
    6CHTO  H111 2348   6.155   4.874   3.183 -1.0333 -0.5656  0.3515
    6CHTO   C69 2349   6.350   5.043   3.263 -0.5786 -0.5506  0.3333
    6CHTO  H126 2350   6.327   5.095   3.167 -0.5983 -2.6514 -0.8274
    6CHTO   O41 2351   6.426   5.124   3.342 -0.2540  0.1512 -0.3090
    6CHTO   C64 2352   6.348   5.263   3.387  0.1331 -0.6680 -0.4371
    6CHTO  H121 2353   6.309   5.312   3.295  0.1514 -1.2692 -0.7672
    6CHTO   C71 2354   6.449   5.365   3.450  0.1579  0.3572 -0.0459
    6CHTO   O47 2355   6.392   5.500   3.449  0.4534 -0.7481 -0.1702
    6CHTO  H104 2356   6.449   5.560   3.493  0.3054 -0.4341 -0.4057
    6CHTO   O34 2357   6.436   4.923   3.229  0.1763  0.3625 -0.1707
    6CHTO   C49 2358   6.490   4.792   3.250 -0.3391  0.2259  0.2535
    6CHTO   H91 2359   6.402   4.730   3.266 -0.6042  0.4965 -0.1516
    6CHTO   C47 2360   6.572   4.805   3.375  0.6505  0.0377 -0.2983
    6CHTO   H89 2361   6.597   4.698   3.393  2.0152  0.3324 -0.4170
    6CHTO   O33 2362   6.493   4.844   3.493 -0.3953  0.0658  0.1632
    6CHTO   H70 2363   6.513   4.931   3.521  0.3801  0.5880 -1.9166
    6CHTO   C45 2364   6.697   4.903   3.347 -0.1212  0.1424  0.4285
    6CHTO   H87 2365   6.667   4.996   3.400 -2.2268 -0.5085  0.4438
    6CHTO    N8 2366   6.809   4.848   3.424  0.5822  0.4406  0.4475
    6CHTO   H75 2367   6.775   4.834   3.525  0.3223 -0.6447  0.2185
    6CHTO   H76 2368   6.901   4.901   3.402  0.3564  0.1582 -1.2261
    6CHTO   C43 2369   6.721   4.940   3.191 -0.0273 -0.2233  0.6237
    6CHTO   H85 2370   6.644   5.013   3.167  1.8325  1.4411 -0.4056
    6CHTO   O29 2371   6.707   4.817   3.111 -0.3029  0.4182  0.1312
    6CHTO   C50 2372   6.581   4.751   3.124  0.0243 -0.9250 -0.6763
    6CHTO   H92 2373   6.523   4.777   3.034  3.0872  2.9507 -1.6459
    6CHTO   C54 2374   6.602   4.597   3.129  0.5281 -0.3819 -0.0205
    6CHTO   O36 2375   6.646   4.557   2.998  0.4205 -0.7039  0.2723
    6CHTO   H72 2376   6.716   4.616   2.978 -0.0198  0.1007  1.0651
    6CHTO   O27 2377   6.839   5.013   3.153 -0.7760 -0.1882  0.2463
    6CHTO   C37 2378   6.879   5.152   3.162  0.4723 -0.3394 -0.2695
    6CHTO   H79 2379   6.966   5.153   3.095  1.7837 -2.4435  1.3355
    6CHTO   C38 2380   6.766   5.244   3.105 -0.6207  0.5324 -0.5554
    6CHTO   H80 2381   6.673   5.214   3.154 -0.3325  0.4775 -0.0434
    6CHTO   O31 2382   6.758   5.228   2.959  0.2111 -0.3647 -0.6554
    6CHTO   H68 2383   6.673   5.258   2.934  0.0353  0.5978  0.9716
    6CHTO   C39 2384   6.792   5.394   3.139  0.0818 -1.0690  0.4913
    6CHTO   H81 2385   6.868   5.441   3.077  0.9764  1.8257  3.6419
    6CHTO    N7 2386   6.671   5.475   3.122  0.3190 -0.0892  0.3388
    6CHTO   H73 2387   6.642   5.484   3.019 -0.7233  0.1886  0.6469
    6CHTO   H74 2388   6.680   5.571   3.171  3.4381 -0.4974  0.6794
    6CHTO   C40 2389   6.846   5.417   3.285  0.0321 -0.2034 -0.7366
    6CHTO   H82 2390   6.769   5.405   3.361  1.0473  1.4926  0.5905
    6CHTO   O26 2391   6.955   5.329   3.312  0.1648 -0.5257 -0.8191
    6CHTO   C41 2392   6.927   5.188   3.301  0.5458  0.5313  0.3366
    6CHTO   H83 2393   6.847   5.167   3.373  1.7855 -0.5747  1.4180
    6CHTO   C52 2394   7.045   5.107   3.343  0.3946  0.1279  0.6565
    6CHTO   O35 2395   7.085   5.139   3.473  0.1123  0.0193  0.1109
    6CHTO   H71 2396   7.096   5.231   3.485  0.0402 -0.2165  2.2029
    6CHTO   O28 2397   6.893   5.553   3.294 -0.5285 -0.5787  0.4110
    6CHTO   C42 2398   6.920   5.628   3.411 -0.0468  0.7623  0.0522
    6CHTO   H84 2399   6.973   5.715   3.375  0.3321  1.5031  2.3026
    6CHTO   C44 2400   7.003   5.549   3.518  0.2835 -0.7906  0.3860
    6CHTO   H86 2401   6.946   5.467   3.562  0.4842 -1.0283  0.2020
    6CHTO   O32 2402   7.127   5.497   3.452 -0.8306  0.1173 -0.0336
    6CHTO   H69 2403   7.170   5.443   3.515  0.5748  2.0739  0.7294
    6CHTO   C48 2404   7.044   5.635   3.639  0.2163  0.0767  0.6572
    6CHTO   H90 2405   7.097   5.722   3.599 -1.2659  1.8202  2.3404
    6CHTO    N9 2406   7.138   5.574   3.739  0.0607  0.0514  0.0991
    6CHTO   H77 2407   7.232   5.545   3.695  1.0985  2.7187  0.4725
    6CHTO   H78 2408   7.154   5.651   3.813 -1.6988  0.4917  0.0459
    6CHTO   C51 2409   6.915   5.698   3.701 -0.0295  0.1885  0.0786
    6CHTO   H93 2410   6.851   5.621   3.744 -0.0274  0.3107  0.3034
    6CHTO   O30 2411   6.849   5.774   3.600 -0.0543  0.4878  0.3713
    6CHTO   C46 2412   6.794   5.680   3.479  0.3962 -0.1333  0.2830
    6CHTO   H88 2413   6.740   5.593   3.517  0.3888 -0.7584 -1.1044
    6CHTO   C53 2414   6.704   5.766   3.387 -0.0496  0.5344  0.3479
    6CHTO   O72 2415   6.779   5.868   3.321  0.0363  0.3896 -0.2348
    6CHTO  H199 2416   6.720   5.940   3.308 -2.1959 -0.8962  2.3404
    6CHTO   O22 2417   6.940   5.798   3.802  0.0990 -0.2285  0.0314
    6CHTO   C31 2418   6.843   5.881   3.875  0.2072  0.4481  0.3745
    6CHTO   H59 2419   6.898   5.931   3.958  0.2469  0.7606  0.1602
    6CHTO   C29 2420   6.764   5.992   3.800  0.2110  0.8648 -0.4066
    6CHTO   H57 2421   6.723   5.947   3.708  0.4710  0.9159 -0.5472
    6CHTO   O21 2422   6.862   6.088   3.745 -0.2109 -0.0876  0.0205
    6CHTO   H37 2423   6.890   6.141   3.817  1.1578  0.4692 -0.9057
    6CHTO   C27 2424   6.643   6.067   3.874 -0.0954  0.0238 -0.1281
    6CHTO   H55 2425   6.685   6.129   3.955 -0.8295  0.1852  0.1364
    6CHTO    N5 2426   6.571   6.161   3.791 -0.0017 -0.1236  0.4825
    6CHTO   H43 2427   6.467   6.140   3.806  0.2022 -0.5226  1.3448
    6CHTO   H44 2428   6.596   6.266   3.802 -0.1870  0.1363 -1.3588
    6CHTO   C25 2429   6.556   5.970   3.942  0.2673  0.0765 -0.5125
    6CHTO   H53 2430   6.517   5.897   3.870 -0.6707 -0.5340  0.5945
    6CHTO   O17 2431   6.646   5.880   4.025  0.9482  0.1124 -0.0521
    6CHTO   C32 2432   6.738   5.797   3.959 -0.7252  0.0448  0.1119
    6CHTO   H60 2433   6.667   5.749   3.891  0.8289 -0.1915 -1.3662
    6CHTO   C36 2434   6.807   5.714   4.072  0.0046  0.3353 -0.3769
    6CHTO   O25 2435   6.863   5.602   4.013 -0.3287  0.4159  0.5544
    6CHTO   H40 2436   6.791   5.547   3.987 -0.4927  0.9177 -0.0820
    6CHTO   O15 2437   6.429   6.029   4.036  0.4575 -0.6582 -0.0400
    6CHTO   C19 2438   6.326   6.019   4.146  0.2020 -0.1260 -0.9403
    6CHTO   H47 2439   6.246   5.963   4.095 -0.5320 -0.6157  0.7030
    6CHTO   C20 2440   6.360   5.941   4.280 -0.6761  0.1909 -0.7643
    6CHTO   H48 2441   6.455   5.976   4.322 -1.2708  0.6122  0.2491
    6CHTO   O19 2442   6.378   5.807   4.228  0.2698 -0.1091 -0.4415
    6CHTO   H35 2443   6.446   5.792   4.165  1.0393 -0.7257  0.5052
    6CHTO   C21 2444   6.241   5.956   4.391 -0.3187  0.5562  0.3002
    6CHTO   H49 2445   6.152   5.906   4.353 -3.1214  3.0486  3.4244
    6CHTO    N4 2446   6.284   5.898   4.524  0.0185 -0.6871  0.1641
    6CHTO   H41 2447   6.327   5.799   4.518  0.5975 -0.4281 -0.0684
    6CHTO   H42 2448   6.201   5.895   4.593  0.1003  3.1360  0.5241
    6CHTO   C22 2449   6.204   6.108   4.400 -0.0775  0.2092  0.5276
    6CHTO   H50 2450   6.297   6.161   4.423  0.4672 -0.8283  0.7834
    6CHTO   O14 2451   6.157   6.141   4.268 -0.5463 -0.4587 -1.3724
    6CHTO   C23 2452   6.257   6.156   4.169 -0.7117 -0.1848  0.5807
    6CHTO   H51 2453   6.328   6.230   4.209  1.2948 -1.9008  0.2704
    6CHTO   C34 2454   6.203   6.222   4.039 -0.1512  0.0188 -0.2256
    6CHTO   O23 2455   6.169   6.357   4.065 -0.4566  0.3052 -0.2148
    6CHTO   H38 2456   6.086   6.372   4.024  0.3833 -0.1208 -2.1534
    6CHTO   O16 2457   6.095   6.141   4.493 -0.0511 -0.1775 -0.1007
    6CHTO   C24 2458   6.115   6.277   4.550 -0.5509 -0.2177  0.3843
    6CHTO   H52 2459   6.182   6.338   4.488  1.9834 -1.2595  2.0292
    6CHTO   C26 2460   6.183   6.265   4.687  0.5373  0.1517 -0.7235
    6CHTO   H54 2461   6.126   6.185   4.739 -0.6089 -0.7239 -3.2327
    6CHTO   O20 2462   6.324   6.221   4.676 -0.3831 -0.6918  0.0810
    6CHTO   H36 2463   6.356   6.202   4.762 -1.8064 -0.7906  0.5881
    6CHTO   C30 2464   6.164   6.385   4.782 -0.2716  0.2334 -0.0704
    6CHTO   H58 2465   6.223   6.467   4.739 -0.0272 -0.7957 -1.7508
    6CHTO    N6 2466   6.212   6.362   4.924  0.0194 -0.0721  0.0700
    6CHTO   H45 2467   6.196   6.259   4.952 -2.4813  0.6385  1.4430
    6CHTO   H46 2468   6.159   6.429   4.991 -0.3126 -0.2450 -0.0153
    6CHTO   C33 2469   6.018   6.431   4.775  0.8227 -0.2737 -0.2903
    6CHTO   H61 2470   5.950   6.350   4.805 -0.8636  0.8511 -0.9893
    6CHTO   O18 2471   6.002   6.463   4.635 -0.1311 -0.2082 -0.6158
    6CHTO   C28 2472   5.977   6.352   4.549 -0.2994  0.1442  0.1376
    6CHTO   H56 2473   5.898   6.289   4.589  0.8806 -0.2326  1.9288
    6CHTO   C35 2474   5.933   6.399   4.412  0.5502  0.1515 -0.0896
    6CHTO   O24 2475   6.033   6.475   4.351  0.1141  0.2055  0.2316
    6CHTO   H39 2476   6.060   6.541   4.412  2.5350 -1.2878  0.8487
    6CHTO    O9 2477   5.987   6.546   4.858 -0.0399 -0.3938  0.5190
    6CHTO   C13 2478   5.855   6.503   4.988  0.3993  0.8003  0.3177
    6CHTO   H26 2479   5.888   6.416   5.048 -0.2606 -1.0922 -1.9745
    6CHTO   C11 2480   5.717   6.482   4.915 -0.2027  0.6833  0.3646
    6CHTO   H24 2481   5.726   6.398   4.844  1.8394  0.6205  0.6811
    6CHTO    O8 2482   5.680   6.604   4.854  0.2744 -0.2077 -0.1755
    6CHTO    H3 2483   5.601   6.597   4.804 -0.3094  0.0284  0.7006
    6CHTO    C9 2484   5.631   6.437   5.036  0.7439  0.1598  1.0037
    6CHTO   H22 2485   5.677   6.347   5.081  1.9186  0.1052 -0.2899
    6CHTO    N2 2486   5.492   6.397   5.002 -0.4653 -0.3762  0.4023
    6CHTO   H10 2487   5.504   6.329   4.919  1.2467 -0.5455  0.7599
    6CHTO   H11 2488   5.450   6.353   5.091  0.0608 -0.6163  0.5370
    6CHTO    C7 2489   5.630   6.549   5.154 -0.0314 -0.4957  0.0193
    6CHTO   H20 2490   5.686   6.493   5.232 -1.2104 -0.2942  1.0195
    6CHTO    O4 2491   5.716   6.662   5.118  0.0050  0.3536 -0.5977
    6CHTO   C14 2492   5.852   6.615   5.093  0.8820 -0.4165 -0.6662
    6CHTO   H27 2493   5.894   6.568   5.184 -1.1504  0.2726  0.6572
    6CHTO   C18 2494   5.944   6.737   5.053 -0.1567  0.1661 -0.3851
    6CHTO   O13 2495   5.881   6.810   4.947  0.3330  0.3688 -0.0043
    6CHTO    H7 2496   5.941   6.810   4.874 -0.1839 -0.2400 -0.4332
    6CHTO    O2 2497   5.489   6.607   5.220  0.7826  0.6752 -0.4926
    6CHTO    C1 2498   5.481   6.612   5.361 -0.1779  0.2032 -0.2738
    6CHTO   H14 2499   5.385   6.664   5.385  0.4028  0.7267  0.9593
    6CHTO    C2 2500   5.590   6.692   5.427  0.1068 -0.0433 -0.3110
    6CHTO   H15 2501   5.688   6.644   5.412  0.1806  0.0013  0.0137
    6CHTO    O6 2502   5.603   6.821   5.372 -0.9533  0.2634 -0.0968
    6CHTO    H1 2503   5.664   6.871   5.422 -0.4040 -2.1465  1.7031
    6CHTO    C3 2504   5.561   6.705   5.587  0.1168 -0.0872  0.1721
    6CHTO   H16 2505   5.476   6.775   5.596 -0.3634 -0.6018 -0.3419
    6CHTO    N1 2506   5.667   6.762   5.672  0.4309 -0.3822  0.3176
    6CHTO    H8 2507   5.733   6.676   5.675  1.0216  0.0627  0.2527
    6CHTO    H9 2508   5.631   6.779   5.772 -0.3170 -0.2887  0.0329
    6CHTO    C4 2509   5.515   6.564   5.650 -0.5362  0.1873  0.2480
    6CHTO   H17 2510   5.605   6.504   5.664  0.6376  1.6088 -1.0631
    6CHTO    O1 2511   5.427   6.492   5.562 -0.5320 -0.2280 -0.2746
    6CHTO    C5 2512   5.463   6.477   5.426 -0.2939  0.4748  0.6616
    6CHTO   H18 2513   5.560   6.428   5.426 -0.6466 -0.2301  0.7706
    6CHTO   C16 2514   5.363   6.384   5.353  0.3664  0.0650  0.2098
    6CHTO   O11 2515   5.239   6.449   5.320 -0.4598  0.3840 -0.2407
    6CHTO    H5 2516   5.183   6.465   5.393  0.9174  2.2756  0.4553
    6CHTO    O3 2517   5.443   6.588   5.775  0.4670 -0.0860 -0.0985
    6CHTO    C6 2518   5.401   6.466   5.841  0.6460  0.4390 -0.0331
    6CHTO   H19 2519   5.385   6.382   5.774 -4.2628  0.3866  1.0245
    6CHTO    C8 2520   5.500   6.432   5.960  0.1303 -0.5803 -0.2868
    6CHTO   H21 2521   5.493   6.511   6.034 -0.0205 -3.5682  3.0232
    6CHTO    O7 2522   5.627   6.412   5.904 -0.0891 -0.2432 -0.0255
    6CHTO    H2 2523   5.691   6.395   5.970 -1.0339  2.4317  1.6485
    6CHTO   C12 2524   5.438   6.315   6.044 -0.6592  0.1560 -0.3002
    6CHTO   H25 2525   5.442   6.225   5.980  1.6201  1.4531 -2.0073
    6CHTO    N3 2526   5.522   6.276   6.164 -0.1461  0.3219 -0.0199
    6CHTO   H12 2527   5.624   6.265   6.131 -0.0465 -0.3900  0.5276
    6CHTO   H13 2528   5.491   6.184   6.211 -1.9071  2.0968  2.4242
    6CHTO   C15 2529   5.287   6.346   6.083  0.2164 -0.6431 -0.5423
    6CHTO   H28 2530   5.279   6.422   6.161  3.5881 -1.5544  0.7547
    6CHTO   O10 2531   5.218   6.226   6.131 -0.0012 -0.5611  0.1368
    6CHTO    H4 2532   5.274   6.183   6.193 -1.6552 -2.5508  0.3143
    6CHTO    O5 2533   5.211   6.380   5.975 -0.0504 -0.1531  0.2929
    6CHTO   C10 2534   5.263   6.494   5.899 -0.1908 -0.1539 -0.3228
    6CHTO   H23 2535   5.263   6.585   5.960 -1.4759 -1.5410  1.7952
    6CHTO   C17 2536   5.157   6.539   5.793 -0.7175  0.3218 -0.3995
    6CHTO   O12 2537   5.130   6.427   5.707  0.1232  0.4547  0.1321
    6CHTO    H6 2538   5.206   6.389   5.667 -1.2487 -1.6664 -0.5557
    7CHTO  H203 2539   5.574   3.975   6.589 -0.0983  0.2086 -1.0667
    7CHTO   O82 2540   5.667   3.982   6.584 -0.0251 -0.0550 -0.1123
    7CHTO  C123 2541   5.717   3.930   6.462 -0.2132 -0.5615 -0.5487
    7CHTO  H227 2542   5.657   3.967   6.377  2.6237 -0.4172 -2.5852
    7CHTO   O77 2543   5.850   3.993   6.454 -0.1625 -0.0310  0.0775
    7CHTO  C118 2544   5.911   3.953   6.329 -0.4510  0.2806  0.3417
    7CHTO  H222 2545   5.844   3.993   6.251 -1.4644  1.2781  1.7128
    7CHTO  C125 2546   6.046   4.033   6.315 -0.0036 -0.0916  0.6324
    7CHTO   O84 2547   6.023   4.165   6.260 -0.3590 -0.0989  0.3661
    7CHTO  H205 2548   6.094   4.157   6.199  2.1906  1.4485  3.0161
    7CHTO  C114 2549   5.933   3.798   6.324 -0.2882 -0.5463 -0.3509
    7CHTO  H218 2550   6.006   3.766   6.399  0.0037  1.4543  0.2341
    7CHTO  C116 2551   5.792   3.721   6.341 -0.2028  0.4723 -0.7374
    7CHTO  H220 2552   5.731   3.723   6.248 -0.7188 -0.4845 -0.4229
    7CHTO   O79 2553   5.824   3.583   6.351  0.0496 -0.2143 -0.4912
    7CHTO  H201 2554   5.751   3.532   6.323  1.0613 -1.2308 -1.3177
    7CHTO  C120 2555   5.712   3.776   6.463 -0.2915  0.8257 -0.5442
    7CHTO  H224 2556   5.761   3.731   6.552 -0.3724  0.8096 -0.5078
    7CHTO   N21 2557   5.574   3.723   6.459 -0.0193  0.6085  0.6441
    7CHTO  H211 2558   5.530   3.711   6.361 -0.6596 -1.2783  1.1272
    7CHTO  H212 2559   5.559   3.631   6.514  0.2816 -0.5036 -1.0807
    7CHTO   O75 2560   5.984   3.775   6.200  0.0404 -0.1884  0.8551
    7CHTO  C112 2561   6.117   3.666   6.185  0.1617  0.3403  0.3596
    7CHTO  H216 2562   6.109   3.623   6.084 -1.6354  1.6376 -0.0774
    7CHTO   O73 2563   6.099   3.563   6.290 -0.4980  0.1676  0.7168
    7CHTO  C113 2564   6.208   3.467   6.300 -0.3540 -0.1663  0.2888
    7CHTO  H217 2565   6.198   3.413   6.204 -0.9906  1.5871 -0.6408
    7CHTO  C124 2566   6.171   3.369   6.412  0.9512  0.8069  0.3068
    7CHTO   O83 2567   6.263   3.262   6.441 -0.5527  0.2615 -0.4190
    7CHTO  H204 2568   6.247   3.224   6.525  1.7824 -1.2985 -0.6118
    7CHTO  C109 2569   6.356   3.530   6.318  0.1998 -0.2988  0.2973
    7CHTO  H213 2570   6.363   3.576   6.418 -1.5281  0.1805  0.2192
    7CHTO  C110 2571   6.377   3.641   6.212 -1.1554 -0.0886  0.0023
    7CHTO  H214 2572   6.400   3.588   6.119  1.8990 -2.1278  1.8483
    7CHTO   O78 2573   6.501   3.703   6.242 -0.2982 -0.3028 -0.3609
    7CHTO  H200 2574   6.567   3.664   6.190 -1.4646 -0.3119 -1.8591
    7CHTO  C111 2575   6.256   3.740   6.204 -0.3328 -0.3509  0.4033
    7CHTO  H215 2576   6.256   3.802   6.294 -1.4769  0.4639 -0.1503
    7CHTO   N19 2577   6.271   3.831   6.090  0.4702 -0.2418  0.0423
    7CHTO  H207 2578   6.190   3.901   6.080  1.2901  0.6378 -0.6441
    7CHTO  H208 2579   6.341   3.814   6.009 -0.1019 -2.0596 -0.0933
    7CHTO   O74 2580   6.447   3.415   6.310 -0.6693  0.0273  0.0501
    7CHTO  C115 2581   6.608   3.438   6.349 -0.1728 -0.2390  0.3691
    7CHTO  H219 2582   6.657   3.506   6.279 -1.1681  1.0203  0.8686
    7CHTO   O76 2583   6.624   3.506   6.490 -0.0823 -0.1865 -0.3003
    7CHTO  C122 2584   6.565   3.440   6.595  0.0153 -0.4389 -0.2145
    7CHTO  H226 2585   6.457   3.444   6.580  0.0308  1.9894  0.2607
    7CHTO  C126 2586   6.580   3.516   6.730 -0.7169  0.1338 -0.4429
    7CHTO   O85 2587   6.710   3.552   6.749 -0.1045 -0.7241  0.5760
    7CHTO  H206 2588   6.731   3.605   6.674 -1.0884 -0.2387  0.6318
    7CHTO  C121 2589   6.624   3.291   6.610  0.3154 -0.8799  0.7156
    7CHTO  H225 2590   6.691   3.305   6.698  1.5482  0.0724 -0.3476
    7CHTO   O81 2591   6.522   3.196   6.630 -0.8313 -0.6089  0.2036
    7CHTO  H202 2592   6.560   3.132   6.687  2.2870 -0.0918 -1.2144
    7CHTO  C119 2593   6.717   3.240   6.488  0.2497  0.7135  0.3427
    7CHTO  H223 2594   6.809   3.299   6.496  0.3701  0.5159  0.4287
    7CHTO  C117 2595   6.663   3.288   6.349 -0.0397 -0.2029 -0.2245
    7CHTO  H221 2596   6.577   3.228   6.319 -0.3623 -0.8709  1.9994
    7CHTO   N20 2597   6.761   3.271   6.236  0.1565  0.0155  0.6253
    7CHTO  H209 2598   6.704   3.293   6.147  2.4575 -1.0164 -1.1702
    7CHTO  H210 2599   6.780   3.165   6.227 -1.3655 -0.3439  1.4093
    7CHTO   O80 2600   6.763   3.098   6.498 -0.1165 -0.3272  0.5060
    7CHTO  C103 2601   6.892   3.051   6.604  0.2529 -0.5801  0.0316
    7CHTO  H190 2602   6.945   2.972   6.550 -1.8268 -2.1207  0.1878
    7CHTO  C101 2603   6.999   3.156   6.656 -0.3841  0.6873  0.2159
    7CHTO  H188 2604   6.952   3.238   6.710  1.6630  0.1558  2.9322
    7CHTO   O68 2605   7.058   3.215   6.531  0.4789 -0.0352  0.3921
    7CHTO  H168 2606   7.094   3.301   6.544 -0.0878 -0.0615  2.3431
    7CHTO   C99 2607   7.097   3.081   6.752  0.5136  0.4828  0.0358
    7CHTO  H186 2608   7.154   3.001   6.700  1.3726  0.4173  1.0484
    7CHTO   N17 2609   7.201   3.176   6.798  0.1670 -0.0580 -0.6803
    7CHTO  H174 2610   7.211   3.186   6.905  1.2410  1.7312 -0.9282
    7CHTO  H175 2611   7.294   3.171   6.744  0.8811  0.8984  0.4358
    7CHTO   C97 2612   7.030   2.999   6.863 -0.4579  0.3483  0.3496
    7CHTO  H184 2613   6.990   3.071   6.936 -1.2120  1.3440 -1.0312
    7CHTO   O64 2614   6.926   2.913   6.804  0.4399 -0.5403 -0.1886
    7CHTO  C104 2615   6.823   2.974   6.725 -0.0908 -0.0614  0.6492
    7CHTO  H191 2616   6.775   3.052   6.785  1.4047 -0.2579  2.1261
    7CHTO  C108 2617   6.713   2.870   6.684 -0.8500  0.0627  0.3539
    7CHTO   O71 2618   6.656   2.814   6.801 -0.1173 -0.3146 -0.0519
    7CHTO  H171 2619   6.572   2.851   6.819  0.9154  1.8439  0.4780
    7CHTO   O62 2620   7.124   2.919   6.939 -0.5681 -0.6378 -0.0273
    7CHTO   C91 2621   7.075   2.835   7.049 -0.3451 -0.5482 -0.5265
    7CHTO  H178 2622   6.975   2.873   7.071 -0.2926 -1.7616  1.9646
    7CHTO   C92 2623   7.163   2.852   7.180  0.0830  0.1369  0.1029
    7CHTO  H179 2624   7.174   2.958   7.207 -1.2660  0.1383  0.6978
    7CHTO   O66 2625   7.096   2.783   7.286  0.6889  0.1567 -0.2150
    7CHTO  H166 2626   7.111   2.690   7.280  1.5595  0.1363  1.7707
    7CHTO   C93 2627   7.303   2.792   7.147  0.2183  0.0846 -0.0076
    7CHTO  H180 2628   7.348   2.767   7.245 -0.1280  1.3238  0.4791
    7CHTO   N16 2629   7.394   2.894   7.091 -0.4017 -0.4438  0.3148
    7CHTO  H172 2630   7.492   2.883   7.135 -0.4221  4.5884  2.0077
    7CHTO  H173 2631   7.399   2.875   6.985 -1.9176  0.1239  0.1316
    7CHTO   C94 2632   7.295   2.660   7.066 -0.1299  0.3763  0.4962
    7CHTO  H181 2633   7.326   2.674   6.963 -1.1058  0.0258  0.1495
    7CHTO   O61 2634   7.162   2.604   7.053 -0.6556 -0.3101  0.1791
    7CHTO   C95 2635   7.056   2.683   7.001  0.3871 -0.4033 -0.3306
    7CHTO  H182 2636   7.057   2.681   6.892  0.4130  0.1565 -0.3430
    7CHTO  C106 2637   6.921   2.614   7.043 -0.2739 -0.1941  0.2055
    7CHTO   O69 2638   6.815   2.663   6.962  0.3786 -0.3797  0.3829
    7CHTO  H169 2639   6.737   2.631   7.003  0.2025 -2.3436 -1.3814
    7CHTO   O63 2640   7.394   2.534   7.136  0.1424  0.1131 -0.1552
    7CHTO   C96 2641   7.317   2.426   7.199  0.2376  0.4005 -0.3862
    7CHTO  H183 2642   7.231   2.408   7.134 -0.4260 -1.5070  0.9741
    7CHTO   C98 2643   7.265   2.457   7.347 -0.0156 -0.3757 -0.2046
    7CHTO  H185 2644   7.216   2.556   7.354  0.2075 -0.2679 -0.1435
    7CHTO   O67 2645   7.166   2.363   7.393 -0.0817 -0.7301 -0.2139
    7CHTO  H167 2646   7.093   2.363   7.334 -0.4219  1.5536  0.1784
    7CHTO  C102 2647   7.387   2.463   7.457 -0.0170 -0.2845 -0.5882
    7CHTO  H189 2648   7.344   2.435   7.555  0.6592  1.6494  0.2849
    7CHTO   N18 2649   7.442   2.601   7.478 -0.2149  0.4887 -0.0015
    7CHTO  H176 2650   7.370   2.670   7.519 -0.2576 -0.2566  1.2195
    7CHTO  H177 2651   7.475   2.644   7.385 -0.2392  0.5086 -0.0009
    7CHTO  C105 2652   7.502   2.368   7.421  0.4088  0.0664 -0.0374
    7CHTO  H192 2653   7.579   2.424   7.368  0.7457  0.7218  1.1091
    7CHTO   O65 2654   7.452   2.262   7.336 -0.6669  0.7535  0.1716
    7CHTO  C100 2655   7.413   2.299   7.204  0.1338  0.2928 -0.4187
    7CHTO  H187 2656   7.503   2.313   7.142  1.8460 -1.3248  1.6095
    7CHTO  C107 2657   7.344   2.179   7.145  0.3313 -0.1320 -0.1468
    7CHTO   O70 2658   7.421   2.055   7.166 -0.0635 -0.2191 -0.2673
    7CHTO  H170 2659   7.403   2.019   7.251  2.3130 -0.8978 -0.0051
    7CHTO   O57 2660   7.539   2.292   7.564 -0.0708 -0.2316  0.0267
    7CHTO   C85 2661   7.664   2.332   7.627 -0.6128 -0.0851 -0.2398
    7CHTO  H157 2662   7.699   2.431   7.591 -0.6410  0.0977  0.2307
    7CHTO   C83 2663   7.771   2.226   7.587 -0.3368 -0.5484  0.0918
    7CHTO  H155 2664   7.789   2.232   7.479 -0.1740  4.2337  0.2712
    7CHTO   O56 2665   7.721   2.096   7.611  0.0507  0.5248  0.1988
    7CHTO  H135 2666   7.638   2.089   7.655 -0.4614 -0.2712 -0.8724
    7CHTO   C81 2667   7.907   2.252   7.665  0.7721 -0.2554  0.2002
    7CHTO  H153 2668   7.941   2.355   7.656 -0.9393  0.3160  0.0489
    7CHTO   N14 2669   8.020   2.171   7.614 -0.1282 -0.2845  0.6591
    7CHTO  H141 2670   8.077   2.131   7.696  1.4687  1.0831  0.2507
    7CHTO  H142 2671   8.079   2.235   7.552  0.0217 -1.3176 -0.2872
    7CHTO   C79 2672   7.879   2.229   7.814  0.3535  0.3385 -0.3553
    7CHTO  H151 2673   7.971   2.242   7.870 -1.2366  1.4074  2.1391
    7CHTO   O52 2674   7.787   2.326   7.863 -1.0065  0.1382  0.4578
    7CHTO   C86 2675   7.656   2.332   7.786 -0.1781  0.2913  0.0943
    7CHTO  H158 2676   7.607   2.236   7.815  0.7923 -0.4867 -0.7987
    7CHTO   C90 2677   7.577   2.451   7.849 -0.4835 -0.7964  0.9697
    7CHTO   O60 2678   7.645   2.576   7.817 -0.1819  0.2412 -0.4273
    7CHTO  H138 2679   7.572   2.634   7.818 -0.2546  0.1587 -0.7592
    7CHTO   O50 2680   7.829   2.102   7.858 -0.4979 -0.2282  0.1125
    7CHTO   C73 2681   7.824   2.010   7.969  0.2936  0.3010  0.4651
    7CHTO  H145 2682   7.923   1.970   7.993  1.1346  1.2527 -1.3434
    7CHTO   C74 2683   7.737   1.897   7.927  0.4358  0.2820  0.1537
    7CHTO  H146 2684   7.786   1.856   7.838 -1.5237 -0.6773 -0.4989
    7CHTO   O54 2685   7.745   1.793   8.026 -0.1206 -0.5887  0.0565
    7CHTO  H133 2686   7.715   1.816   8.112 -2.5732  0.6022 -1.0606
    7CHTO   C75 2687   7.592   1.946   7.894 -1.1555  0.0075 -0.2825
    7CHTO  H147 2688   7.594   2.012   7.806 -0.3474  0.3145 -0.0406
    7CHTO   N13 2689   7.499   1.842   7.844  0.1277  0.4454 -1.1225
    7CHTO  H139 2690   7.519   1.748   7.892 -0.1773  0.3765 -1.1283
    7CHTO  H140 2691   7.520   1.825   7.739 -1.6307 -2.9691 -0.9902
    7CHTO   C76 2692   7.539   2.026   8.022  0.4476  0.4636 -0.3749
    7CHTO  H148 2693   7.531   1.955   8.105  2.5577  2.4307  1.5695
    7CHTO   O49 2694   7.632   2.127   8.063 -0.4119  0.6021  0.2364
    7CHTO   C77 2695   7.763   2.072   8.093  0.5934 -0.4366 -0.7416
    7CHTO  H149 2696   7.751   1.989   8.164  2.5801  0.3555  0.5536
    7CHTO   C88 2697   7.850   2.185   8.148 -0.0161  0.3303  0.3689
    7CHTO   O58 2698   7.795   2.247   8.272  0.2164  0.1748 -0.1488
    7CHTO  H136 2699   7.852   2.316   8.300  1.2363 -0.2681 -1.0746
    7CHTO   O51 2700   7.396   2.097   7.991 -0.0553  0.2543  0.2563
    7CHTO   C78 2701   7.285   2.078   8.125  0.6704 -0.2532 -0.3331
    7CHTO  H150 2702   7.352   2.065   8.212  2.3027 -0.6499 -1.6260
    7CHTO   C80 2703   7.194   1.955   8.116 -0.7519  0.2854 -0.0532
    7CHTO  H152 2704   7.171   1.934   8.010 -0.7737  3.8588 -0.8058
    7CHTO   O55 2705   7.278   1.848   8.157  0.1843 -0.6750 -0.1140
    7CHTO  H134 2706   7.277   1.768   8.107 -1.0102 -0.3960 -0.5340
    7CHTO   C84 2707   7.054   1.964   8.197 -0.3667  0.0818 -0.8210
    7CHTO  H156 2708   7.077   1.928   8.297  2.4367  2.3457 -0.5937
    7CHTO   N15 2709   6.958   1.853   8.147  0.0568  0.3662  0.0164
    7CHTO  H143 2710   6.997   1.779   8.081  1.3493 -0.8964  2.1307
    7CHTO  H144 2711   6.872   1.903   8.108  0.8100  1.4073 -0.3484
    7CHTO   C87 2712   6.990   2.105   8.205 -0.3419 -0.1624 -0.1703
    7CHTO  H159 2713   6.941   2.119   8.109  0.2187  1.2971 -0.2563
    7CHTO   O53 2714   7.095   2.201   8.234  0.3473 -0.1045 -0.4672
    7CHTO   C82 2715   7.207   2.213   8.142 -0.4129  0.3352  0.0561
    7CHTO  H154 2716   7.164   2.251   8.049 -0.8278  2.1632  0.9720
    7CHTO   C89 2717   7.311   2.321   8.194  0.4074  0.0816 -0.1998
    7CHTO   O59 2718   7.375   2.301   8.320 -0.0766  0.2848  0.6874
    7CHTO  H137 2719   7.428   2.376   8.339  1.5714 -0.8137  0.5056
    7CHTO   O45 2720   6.884   2.104   8.329 -0.0311  0.1649 -0.5042
    7CHTO   C67 2721   6.764   2.179   8.291 -0.1862  0.9113 -0.1127
    7CHTO  H124 2722   6.789   2.255   8.217  0.8270 -0.5743 -1.3348
    7CHTO   C65 2723   6.660   2.086   8.227 -0.1766 -1.0113  0.0570
    7CHTO  H122 2724   6.674   1.981   8.255 -1.2205 -2.4231 -4.3164
    7CHTO   O44 2725   6.688   2.094   8.086  0.1319  0.3761 -0.3402
    7CHTO  H102 2726   6.625   2.040   8.042 -0.3287 -0.0136  0.7613
    7CHTO   C63 2727   6.514   2.112   8.281 -0.4994 -0.7411 -0.1681
    7CHTO  H120 2728   6.511   2.072   8.382  1.6841 -1.5593 -0.3885
    7CHTO   N11 2729   6.409   2.029   8.214  0.0645  0.0834  0.4101
    7CHTO  H108 2730   6.450   1.932   8.196  4.8597  1.7882  1.4729
    7CHTO  H109 2731   6.371   2.085   8.131  0.5296 -1.0277 -0.5715
    7CHTO   C61 2732   6.493   2.268   8.288 -0.0363 -1.0812  0.3662
    7CHTO  H118 2733   6.391   2.278   8.326  0.5957  1.4019  1.4627
    7CHTO   O40 2734   6.587   2.337   8.376  0.3482 -0.1561 -0.4625
    7CHTO   C68 2735   6.711   2.264   8.412  0.3452 -0.0712 -0.3467
    7CHTO  H125 2736   6.683   2.196   8.494 -1.0618  1.1575  0.2089
    7CHTO   C72 2737   6.815   2.362   8.471  0.0324  0.4553  0.5415
    7CHTO   O48 2738   6.778   2.392   8.605  0.2098  0.2013 -0.5724
    7CHTO  H105 2739   6.837   2.450   8.649  1.2664 -0.5703 -0.9437
    7CHTO   O38 2740   6.489   2.326   8.152 -0.3133  0.5241  0.1059
    7CHTO   C55 2741   6.465   2.463   8.137  0.0477  0.0011  0.2366
    7CHTO  H112 2742   6.489   2.517   8.229 -0.4936  1.2208 -0.3276
    7CHTO   C56 2743   6.314   2.488   8.087  1.1999  1.0601  0.3347
    7CHTO  H113 2744   6.298   2.440   7.990 -1.4797  0.0475  1.2190
    7CHTO   O42 2745   6.217   2.431   8.179  0.2338 -0.0488  0.0236
    7CHTO  H100 2746   6.256   2.450   8.262  2.3376 -0.5763 -0.8042
    7CHTO   C57 2747   6.284   2.645   8.069 -0.0478 -0.0293 -0.2610
    7CHTO  H114 2748   6.269   2.687   8.169 -0.7996 -0.2728 -0.2633
    7CHTO   N10 2749   6.156   2.673   7.988 -0.1788 -0.0234 -0.4871
    7CHTO  H106 2750   6.135   2.763   7.932  0.1784  0.2881 -0.1208
    7CHTO  H107 2751   6.065   2.626   8.022  0.9254 -3.1995 -1.7014
    7CHTO   C58 2752   6.404   2.718   8.008 -0.0342 -0.2573  0.3779
    7CHTO  H115 2753   6.402   2.710   7.898  1.4383 -0.0665  0.3283
    7CHTO   O37 2754   6.535   2.669   8.051  0.5771  1.2648  0.2863
    7CHTO   C59 2755   6.554   2.530   8.031 -0.5470 -0.2999 -0.0801
    7CHTO  H116 2756   6.522   2.495   7.932  0.1688  0.7828 -0.7028
    7CHTO   C70 2757   6.706   2.495   8.039 -0.1826 -0.1961 -0.1021
    7CHTO   O46 2758   6.764   2.497   8.174 -0.1109 -0.1526 -0.2934
    7CHTO  H103 2759   6.784   2.584   8.200 -2.5199  0.0071  1.1991
    7CHTO   O39 2760   6.381   2.864   8.051  0.2806 -0.0763  0.2941
    7CHTO   C60 2761   6.430   2.961   7.962  0.0521  0.2669  0.7435
    7CHTO  H117 2762   6.522   2.926   7.915 -0.4633 -0.0854 -0.0209
    7CHTO   C62 2763   6.338   2.998   7.840 -0.4635  0.4672  0.4104
    7CHTO  H119 2764   6.318   2.897   7.799  0.7252 -0.5566  2.2528
    7CHTO   O43 2765   6.215   3.050   7.894  0.7617 -0.2213 -0.5547
    7CHTO  H101 2766   6.228   3.123   7.951 -2.0193  0.0472 -0.1819
    7CHTO   C66 2767   6.419   3.099   7.741 -0.4173 -0.6526 -1.1437
    7CHTO  H123 2768   6.515   3.060   7.706  0.7713  2.1324 -1.1450
    7CHTO   N12 2769   6.340   3.123   7.619  0.2867 -0.2269  0.2033
    7CHTO  H110 2770   6.389   3.083   7.532 -0.2930  0.8523 -0.6313
    7CHTO  H111 2771   6.232   3.112   7.625  0.4539 -1.4122  1.3609
    7CHTO   C69 2772   6.443   3.230   7.821  0.0399 -0.6831 -0.2299
    7CHTO  H126 2773   6.349   3.283   7.843 -0.5555 -0.6924 -2.6524
    7CHTO   O41 2774   6.524   3.196   7.969 -0.8495 -0.2759 -0.6087
    7CHTO   C64 2775   6.471   3.084   8.054 -0.3133 -0.6786  0.0737
    7CHTO  H121 2776   6.387   3.124   8.114  0.5477  1.5941 -0.2006
    7CHTO   C71 2777   6.580   3.041   8.157 -1.2711  0.0169  0.5099
    7CHTO   O47 2778   6.621   3.145   8.250 -0.4222  0.1289  0.0629
    7CHTO  H104 2779   6.701   3.129   8.297 -0.7048 -1.1281  0.1494
    7CHTO   O34 2780   6.533   3.330   7.733  0.5354  0.1103  0.0400
    7CHTO   C49 2781   6.652   3.413   7.668  0.1145 -0.0297 -0.0127
    7CHTO   H91 2782   6.615   3.498   7.611  1.2253 -0.1458 -0.9186
    7CHTO   C47 2783   6.713   3.313   7.569  0.4357  0.5919 -0.2116
    7CHTO   H89 2784   6.786   3.376   7.513 -2.0984  4.3538  0.5806
    7CHTO   O33 2785   6.613   3.279   7.470  0.1597 -0.0510 -0.3475
    7CHTO   H70 2786   6.625   3.188   7.447 -0.7920 -0.5906  1.1553
    7CHTO   C45 2787   6.767   3.181   7.636 -0.2258  0.0891  0.2469
    7CHTO   H87 2788   6.677   3.117   7.643  0.1576 -0.3255  1.6200
    7CHTO    N8 2789   6.867   3.120   7.547 -0.5645 -0.5087  0.2366
    7CHTO   H75 2790   6.955   3.182   7.546  0.1816 -1.5578 -1.2699
    7CHTO   H76 2791   6.910   3.025   7.576  0.8025 -0.2805 -0.9908
    7CHTO   C43 2792   6.816   3.210   7.792  0.0352 -0.5265 -0.5146
    7CHTO   H85 2793   6.727   3.194   7.851 -0.5990  1.2586 -0.9504
    7CHTO   O29 2794   6.861   3.344   7.801 -0.4750 -0.6769 -0.1856
    7CHTO   C50 2795   6.763   3.451   7.768  0.6919  0.2630  0.2443
    7CHTO   H92 2796   6.709   3.479   7.860 -0.6439  1.1311 -0.7925
    7CHTO   C54 2797   6.846   3.563   7.714 -0.4276  0.5163  0.6611
    7CHTO   O36 2798   6.941   3.622   7.809  0.5516  0.2549  0.0737
    7CHTO   H72 2799   7.002   3.667   7.754 -0.6668 -0.3184 -1.7940
    7CHTO   O27 2800   6.909   3.119   7.856 -0.5128  0.0264 -0.0610
    7CHTO   C37 2801   6.926   3.093   7.995 -0.1586  0.1694 -0.0677
    7CHTO   H79 2802   6.834   3.116   8.051  0.6541  0.1654  1.3188
    7CHTO   C38 2803   6.946   2.945   8.020 -1.0247  0.0007 -0.1452
    7CHTO   H80 2804   7.021   2.914   7.946 -0.6406  2.3276 -0.7712
    7CHTO   O31 2805   6.829   2.873   7.994  0.0882 -0.1218  0.2910
    7CHTO   H68 2806   6.836   2.863   7.901 -1.2028  1.0023  0.0470
    7CHTO   C39 2807   6.998   2.909   8.170  0.9549  0.4509  0.3530
    7CHTO   H81 2808   6.910   2.919   8.234 -2.9267 -1.1635 -4.4519
    7CHTO    N7 2809   7.030   2.768   8.183 -0.1530 -0.0093 -0.3756
    7CHTO   H73 2810   7.137   2.759   8.196 -0.0148  0.5210 -1.0733
    7CHTO   H74 2811   6.973   2.735   8.268 -0.9595 -0.6562 -1.1602
    7CHTO   C40 2812   7.115   3.008   8.213 -0.7047 -0.0443  0.4389
    7CHTO   H82 2813   7.203   2.983   8.153 -1.1487 -0.2199 -0.1498
    7CHTO   O26 2814   7.075   3.144   8.192  0.1343  0.5024 -0.2601
    7CHTO   C41 2815   7.046   3.176   8.054 -0.2341  0.1095 -0.5934
    7CHTO   H83 2816   7.134   3.142   7.998  0.4078 -0.9606  1.0139
    7CHTO   C52 2817   7.045   3.330   8.043  0.4803  0.0271  0.0864
    7CHTO   O35 2818   6.928   3.390   8.101 -0.2128  0.3413 -0.8375
    7CHTO   H71 2819   6.850   3.339   8.095 -0.5823  0.9678 -1.5774
    7CHTO   O28 2820   7.144   3.003   8.355  0.2131  0.9591  0.2557
    7CHTO   C42 2821   7.288   3.019   8.405 -0.0116  0.5877 -0.1448
    7CHTO   H84 2822   7.268   3.039   8.510 -3.2136  0.3029 -0.6230
    7CHTO   C44 2823   7.355   3.150   8.343  1.0158  0.5960 -0.1606
    7CHTO   H86 2824   7.360   3.137   8.235  0.7773  1.3609 -0.2689
    7CHTO   O32 2825   7.271   3.265   8.384 -0.2854  0.1049  0.7521
    7CHTO   H69 2826   7.306   3.346   8.352 -3.1466  1.7562  1.6079
    7CHTO   C48 2827   7.500   3.177   8.396  0.1645  0.0939 -0.2173
    7CHTO   H90 2828   7.488   3.203   8.501 -1.2235  1.6949 -0.7544
    7CHTO    N9 2829   7.568   3.297   8.341 -0.5034 -0.0565  0.4539
    7CHTO   H77 2830   7.498   3.377   8.322  1.6041  1.6644 -0.3130
    7CHTO   H78 2831   7.656   3.333   8.392  0.4180  0.8536 -1.6988
    7CHTO   C51 2832   7.580   3.044   8.363  0.3653 -0.1349  0.1560
    7CHTO   H93 2833   7.575   3.032   8.254  5.4152  2.5729 -0.5123
    7CHTO   O30 2834   7.528   2.934   8.436 -0.3139  0.4358 -0.3331
    7CHTO   C46 2835   7.378   2.893   8.387 -0.4546  0.2474 -0.4615
    7CHTO   H88 2836   7.386   2.865   8.282  0.5483  1.6441 -0.7738
    7CHTO   C53 2837   7.325   2.778   8.480  0.2408 -0.0447 -0.0365
    7CHTO   O72 2838   7.406   2.667   8.488 -0.0203 -0.9334 -0.5050
    7CHTO  H199 2839   7.491   2.689   8.518 -0.8639 -0.1197  1.3567
    7CHTO   O22 2840   7.719   3.049   8.398 -0.3336 -0.2619 -0.4429
    7CHTO   C31 2841   7.822   2.977   8.314 -0.1195 -0.3877  0.8387
    7CHTO   H59 2842   7.921   2.989   8.363  1.3495 -1.1534 -1.8129
    7CHTO   C29 2843   7.802   2.824   8.292 -0.8540 -0.4722 -0.4995
    7CHTO   H57 2844   7.700   2.812   8.253 -1.0785  2.1788 -0.8307
    7CHTO   O21 2845   7.809   2.755   8.426 -0.5112  0.0331  0.1064
    7CHTO   H37 2846   7.802   2.817   8.496 -1.3723  1.2531 -1.0556
    7CHTO   C27 2847   7.910   2.758   8.193  0.3941 -0.0377  1.0944
    7CHTO   H55 2848   8.011   2.754   8.235  1.0620  1.0340 -0.3983
    7CHTO    N5 2849   7.868   2.622   8.152  0.2203  0.2743  0.4334
    7CHTO   H43 2850   7.768   2.627   8.111  0.4856  3.2165  0.0009
    7CHTO   H44 2851   7.936   2.574   8.084  2.0346  1.0659  1.6602
    7CHTO   C25 2852   7.923   2.851   8.069 -0.1959  0.2507  0.3805
    7CHTO   H53 2853   7.824   2.855   8.021 -0.0708  1.0850  0.1859
    7CHTO   O17 2854   7.945   2.985   8.108  0.4761 -0.5725 -0.3730
    7CHTO   C32 2855   7.842   3.049   8.178 -0.3755  0.0729  0.7981
    7CHTO   H60 2856   7.748   3.050   8.124  0.8406  0.8113 -1.3794
    7CHTO   C36 2857   7.882   3.200   8.197 -0.1913  0.7242 -0.9433
    7CHTO   O25 2858   7.874   3.265   8.075 -0.3770  0.2173 -0.1850
    7CHTO   H40 2859   7.902   3.350   8.103  0.5673  0.5858 -2.0844
    7CHTO   O15 2860   8.041   2.815   7.957 -0.1346 -0.1982  0.3941
    7CHTO   C19 2861   8.030   2.818   7.812  0.3106  0.5543  0.4082
    7CHTO   H47 2862   8.127   2.779   7.777 -0.5940  0.3700 -1.9658
    7CHTO   C20 2863   7.914   2.737   7.741 -0.4773  0.2868 -0.5888
    7CHTO   H48 2864   7.816   2.766   7.780 -0.1532  0.6705 -0.0374
    7CHTO   O19 2865   7.936   2.600   7.783 -0.3209 -0.6082 -0.1815
    7CHTO   H35 2866   7.862   2.564   7.827  0.2947  0.9544  2.2222
    7CHTO   C21 2867   7.914   2.751   7.583 -0.6586 -0.4837  0.7423
    7CHTO   H49 2868   8.010   2.708   7.552 -0.1905  0.1433  1.3172
    7CHTO    N4 2869   7.807   2.673   7.511  0.3831  0.2290 -0.3028
    7CHTO   H41 2870   7.778   2.577   7.550  0.6746  0.1055 -0.3845
    7CHTO   H42 2871   7.840   2.659   7.409  1.8061 -1.4537  0.3491
    7CHTO   C22 2872   7.922   2.902   7.541  0.4796  0.4720 -0.6477
    7CHTO   H50 2873   7.830   2.946   7.579  0.9678  0.1185  0.9735
    7CHTO   O14 2874   8.028   2.965   7.605  0.1998 -0.7699 -0.1304
    7CHTO   C23 2875   8.020   2.965   7.750 -0.0107 -0.1478 -0.4983
    7CHTO   H51 2876   7.923   3.010   7.777  1.1946  1.5049  1.1761
    7CHTO   C34 2877   8.138   3.063   7.790  0.2597  0.2431 -0.3788
    7CHTO   O23 2878   8.138   3.089   7.931 -0.2593 -0.0734  0.5515
    7CHTO   H38 2879   8.187   3.166   7.953  0.2443 -0.1892 -0.1403
    7CHTO   O16 2880   7.953   2.922   7.401  0.1457  0.5008  0.3273
    7CHTO   C24 2881   7.923   3.092   7.344 -0.2181  0.4337 -0.5696
    7CHTO   H52 2882   7.921   3.162   7.428  1.0562  1.7926 -1.6473
    7CHTO   C26 2883   7.786   3.091   7.280 -0.9100  0.0026  0.5600
    7CHTO   H54 2884   7.791   3.017   7.197  1.0709  1.5061 -0.7256
    7CHTO   O20 2885   7.683   3.043   7.364 -0.5329 -0.2449 -0.5565
    7CHTO   H36 2886   7.666   3.102   7.435  1.2058 -0.4154  0.0431
    7CHTO   C30 2887   7.754   3.233   7.220 -0.5557  0.2226  0.0129
    7CHTO   H58 2888   7.740   3.303   7.305 -1.1471  0.0046  0.0945
    7CHTO    N6 2889   7.621   3.236   7.150 -1.1196 -0.2376  0.3309
    7CHTO   H45 2890   7.536   3.223   7.216 -1.9036 -1.0613 -0.8227
    7CHTO   H46 2891   7.611   3.168   7.066  0.2186  0.4045 -0.3575
    7CHTO   C33 2892   7.874   3.288   7.129 -0.0534 -0.3392  0.3167
    7CHTO   H61 2893   7.871   3.223   7.041  2.0826 -1.5174  1.0591
    7CHTO   O18 2894   8.004   3.272   7.199 -0.0071 -0.2592 -0.0892
    7CHTO   C28 2895   8.040   3.143   7.249 -0.1747  0.3703  0.1293
    7CHTO   H56 2896   8.052   3.070   7.169  0.9641  0.5278  0.1536
    7CHTO   C35 2897   8.166   3.148   7.342 -0.4101 -0.4449 -0.2537
    7CHTO   O24 2898   8.164   3.265   7.431 -0.1704 -0.3851  0.0026
    7CHTO   H39 2899   8.243   3.276   7.479 -0.6324 -0.9001  0.8840
    7CHTO    O9 2900   7.857   3.421   7.084  0.0183  0.6669  0.3007
    7CHTO   C13 2901   7.914   3.542   7.184  0.0656 -0.4109  0.3203
    7CHTO   H26 2902   8.018   3.515   7.212  0.6899  0.1807 -1.3199
    7CHTO   C11 2903   7.828   3.582   7.314  0.2884 -0.0478  0.3358
    7CHTO   H24 2904   7.868   3.508   7.386 -0.7109 -0.8024  0.1190
    7CHTO    O8 2905   7.689   3.558   7.293 -0.4454 -0.5243  0.0255
    7CHTO    H3 2906   7.677   3.577   7.202  1.7952 -1.2127 -0.4523
    7CHTO    C9 2907   7.865   3.731   7.360  0.4130  0.2155  0.3787
    7CHTO   H22 2908   7.975   3.733   7.366  0.3899  1.2935  0.5874
    7CHTO    N2 2909   7.831   3.763   7.500  0.0737  0.0933 -0.2035
    7CHTO   H10 2910   7.724   3.752   7.510 -0.0161  0.1263 -1.1407
    7CHTO   H11 2911   7.841   3.870   7.507 -1.0742  0.1282  1.2729
    7CHTO    C7 2912   7.817   3.827   7.250  0.3582  0.2361 -0.2719
    7CHTO   H20 2913   7.902   3.898   7.249 -0.5035  1.3213  1.1504
    7CHTO    O4 2914   7.812   3.766   7.121 -0.0575  0.0588  0.4114
    7CHTO   C14 2915   7.926   3.678   7.101 -0.1262 -0.6351 -0.2961
    7CHTO   H27 2916   8.017   3.727   7.142  0.4330 -0.3025 -1.9036
    7CHTO   C18 2917   7.953   3.667   6.942 -0.2226 -0.1823 -0.1462
    7CHTO   O13 2918   8.062   3.579   6.907 -0.2162 -0.4128 -0.1940
    7CHTO    H7 2919   8.104   3.543   6.982 -1.7794 -0.4496  0.6967
    7CHTO    O2 2920   7.671   3.905   7.278  0.5109  0.2304  0.2622
    7CHTO    C1 2921   7.669   4.035   7.203  0.2823 -0.0895 -0.0044
    7CHTO   H14 2922   7.736   4.038   7.114 -3.0733 -1.3088 -2.7015
    7CHTO    C2 2923   7.716   4.152   7.290  0.1830 -0.5784 -0.1965
    7CHTO   H15 2924   7.677   4.134   7.391 -0.0425 -0.7075 -0.3037
    7CHTO    O6 2925   7.862   4.154   7.293 -0.1313  0.2955  0.3735
    7CHTO    H1 2926   7.894   4.192   7.373  0.9614 -0.7110  0.4217
    7CHTO    C3 2927   7.671   4.300   7.244 -0.1796 -0.3121 -0.2859
    7CHTO   H16 2928   7.722   4.330   7.152  0.0260  3.2111  0.9089
    7CHTO    N1 2929   7.703   4.405   7.344  0.0155  0.1322 -0.7676
    7CHTO    H8 2930   7.651   4.394   7.438  1.4177 -0.3005 -0.0421
    7CHTO    H9 2931   7.685   4.506   7.310  0.0583 -0.5504 -2.8807
    7CHTO    C4 2932   7.519   4.291   7.195  0.0678 -0.9340 -0.3092
    7CHTO   H17 2933   7.448   4.261   7.272 -0.5728 -0.9977 -0.9244
    7CHTO    O1 2934   7.502   4.190   7.099  0.5212 -0.0654  0.1278
    7CHTO    C5 2935   7.519   4.058   7.163  0.4454 -0.2834  0.8125
    7CHTO   H18 2936   7.460   4.043   7.253  1.5163 -0.0250  1.5718
    7CHTO   C16 2937   7.465   3.952   7.062  0.7391 -0.1046  0.5550
    7CHTO   O11 2938   7.525   3.954   6.932 -0.1214  0.0397 -0.4404
    7CHTO    H5 2939   7.616   3.932   6.929 -1.0064 -4.1620 -0.6467
    7CHTO    O3 2940   7.467   4.403   7.122  0.3752  0.3843  0.3383
    7CHTO    C6 2941   7.320   4.412   7.112  0.4793  0.6140  0.0642
    7CHTO   H19 2942   7.276   4.319   7.150  1.3276  0.6133  1.0590
    7CHTO    C8 2943   7.275   4.531   7.205 -0.1630 -0.6700  0.7460
    7CHTO   H21 2944   7.329   4.622   7.179  3.6744 -2.7954  0.9041
    7CHTO    O7 2945   7.314   4.489   7.335  0.0685 -0.3385 -0.8240
    7CHTO    H2 2946   7.290   4.540   7.410 -1.9506  1.3192 -2.5304
    7CHTO   C12 2947   7.121   4.556   7.187 -0.0350 -0.1824  0.6152
    7CHTO   H25 2948   7.073   4.461   7.220  1.7124 -0.5226  2.2563
    7CHTO    N3 2949   7.077   4.674   7.263  0.2411  0.2401  0.5601
    7CHTO   H12 2950   6.995   4.656   7.331  0.0095  1.6824  0.6980
    7CHTO   H13 2951   7.164   4.704   7.321  2.5559 -4.5897 -0.1656
    7CHTO   C15 2952   7.090   4.572   7.029 -0.3534 -1.2878  0.3046
    7CHTO   H28 2953   7.138   4.660   6.986  1.9630 -3.3486 -1.4588
    7CHTO   O10 2954   6.937   4.568   6.986 -0.2964 -0.1924 -0.1411
    7CHTO    H4 2955   6.873   4.606   7.043  0.0461  1.1072 -0.6085
    7CHTO    O5 2956   7.132   4.454   6.957  0.5991 -0.7530  0.6029
    7CHTO   C10 2957   7.275   4.436   6.970  0.0482 -0.3779 -0.5357
    7CHTO   H23 2958   7.320   4.528   6.933  1.2916 -0.5638  0.5051
    7CHTO   C17 2959   7.311   4.324   6.876  0.3382  0.4386  0.5820
    7CHTO   O12 2960   7.446   4.343   6.835  0.4175 -0.1740  0.0404
    7CHTO    H6 2961   7.458   4.284   6.763 -1.5743  1.5219 -1.7784
    8CHTO  H203 2962   7.415   7.742   1.113 -1.4198 -0.6513 -1.9569
    8CHTO   O82 2963   7.375   7.824   1.134  0.1868 -0.2901 -0.1052
    8CHTO  C123 2964   7.230   7.804   1.114  0.0144  0.3929  0.3811
    8CHTO  H227 2965   7.196   7.721   1.178 -1.3846  0.0744 -0.7761
    8CHTO   O77 2966   7.182   7.929   1.176 -0.0669 -0.2445  0.0975
    8CHTO  C118 2967   7.043   7.947   1.163 -0.0072  0.0012 -0.0624
    8CHTO  H222 2968   7.002   7.863   1.222  0.4238  0.0889  0.3734
    8CHTO  C125 2969   6.996   8.087   1.232  0.1605  0.1844  0.3377
    8CHTO   O84 2970   7.035   8.208   1.167 -0.1752  0.1257  0.3006
    8CHTO  H205 2971   6.965   8.224   1.106 -1.5882  0.2266  1.9122
    8CHTO  C114 2972   6.987   7.939   1.016 -0.1193 -0.2151  0.1174
    8CHTO  H218 2973   7.030   8.009   0.945 -0.1186 -0.9294 -0.5925
    8CHTO  C116 2974   7.023   7.799   0.956  0.6582  0.0825  0.0018
    8CHTO  H220 2975   6.981   7.715   1.015  1.3995 -1.2886 -1.4008
    8CHTO   O79 2976   6.973   7.793   0.824 -0.0404  0.5461  0.0458
    8CHTO  H201 2977   6.880   7.782   0.834 -0.5207  3.4436 -0.6909
    8CHTO  C120 2978   7.179   7.784   0.961 -0.6533  0.1402  0.8284
    8CHTO  H224 2979   7.219   7.859   0.890 -1.9294  1.1544  1.1607
    8CHTO   N21 2980   7.217   7.648   0.910  0.1834 -0.6207 -0.3323
    8CHTO  H211 2981   7.305   7.607   0.958  0.3638 -0.8674 -0.8691
    8CHTO  H212 2982   7.232   7.631   0.804 -4.8621  0.8327 -1.3982
    8CHTO   O75 2983   6.842   7.955   1.023  0.0637  0.7273  0.2788
    8CHTO  C112 2984   6.775   8.056   0.925 -0.3837 -0.6320  0.5075
    8CHTO  H216 2985   6.763   8.007   0.827 -1.6918 -1.0792  0.8725
    8CHTO   O73 2986   6.850   8.179   0.915  0.1383 -0.0132 -0.3357
    8CHTO  C113 2987   6.798   8.286   0.833 -0.3115 -0.6331 -0.0106
    8CHTO  H217 2988   6.777   8.250   0.730 -1.7173 -1.4481  0.5531
    8CHTO  C124 2989   6.902   8.395   0.822 -0.0639 -0.1232 -0.6817
    8CHTO   O83 2990   7.012   8.381   0.738 -0.5891  0.9382 -0.1717
    8CHTO  H204 2991   7.074   8.451   0.742  0.2958  0.2250 -0.9311
    8CHTO  C109 2992   6.659   8.329   0.879  0.2376 -0.0084 -0.4787
    8CHTO  H213 2993   6.673   8.392   0.968  0.4885  0.3235 -0.7517
    8CHTO  C110 2994   6.562   8.208   0.897  0.3976 -0.3436 -0.8794
    8CHTO  H214 2995   6.538   8.173   0.797  0.0736 -1.4451 -0.4247
    8CHTO   O78 2996   6.433   8.250   0.951  0.4657  0.0899 -0.2269
    8CHTO  H200 2997   6.433   8.296   1.033  0.5463  0.0333 -0.1942
    8CHTO  C111 2998   6.625   8.092   0.976 -0.5764 -0.0794  0.6994
    8CHTO  H215 2999   6.638   8.122   1.082 -0.8037  0.6730  0.5193
    8CHTO   N19 3000   6.549   7.968   0.978 -0.1402  0.6262  0.2182
    8CHTO  H207 3001   6.463   7.979   0.913 -0.2657 -1.0266  0.0863
    8CHTO  H208 3002   6.511   7.938   1.075  1.0791 -0.8738  0.2458
    8CHTO   O74 3003   6.604   8.414   0.770 -0.9139 -0.4342 -0.1011
    8CHTO  C115 3004   6.517   8.544   0.819 -0.2936  0.4676 -0.5836
    8CHTO  H219 3005   6.471   8.525   0.916 -0.8797 -0.5368 -1.0477
    8CHTO   O76 3006   6.607   8.668   0.840 -0.1387 -0.1403 -0.2043
    8CHTO  C122 3007   6.671   8.712   0.719 -0.6418  0.8475 -0.3508
    8CHTO  H226 3008   6.745   8.638   0.687  0.6136  2.9177 -2.3793
    8CHTO  C126 3009   6.745   8.840   0.748 -0.0368 -0.1515 -0.1756
    8CHTO   O85 3010   6.852   8.821   0.842 -0.0014  0.2683  0.2254
    8CHTO  H206 3011   6.830   8.876   0.915  1.7916  2.0718 -0.5491
    8CHTO  C121 3012   6.564   8.742   0.604 -0.1486 -0.2887  0.2331
    8CHTO  H225 3013   6.578   8.849   0.577 -0.8855  0.3647  2.3509
    8CHTO   O81 3014   6.587   8.649   0.497  0.3751  0.7567  0.4263
    8CHTO  H202 3015   6.677   8.645   0.472  0.3819 -0.3490  0.6266
    8CHTO  C119 3016   6.419   8.718   0.658 -0.1240 -0.1295  0.6823
    8CHTO  H223 3017   6.399   8.783   0.743 -3.0243  1.1813 -0.9182
    8CHTO  C117 3018   6.400   8.568   0.711  0.4162  0.3159 -0.3995
    8CHTO  H221 3019   6.413   8.484   0.644  3.2133  0.8411 -0.5644
    8CHTO   N20 3020   6.261   8.548   0.768  0.1103 -0.1497  0.0323
    8CHTO  H209 3021   6.199   8.636   0.756  0.3593 -0.1256 -1.1412
    8CHTO  H210 3022   6.268   8.508   0.869 -0.0097 -0.7611 -0.1976
    8CHTO   O80 3023   6.308   8.764   0.558 -0.0621 -0.5874 -0.2411
    8CHTO  C103 3024   6.256   8.928   0.565  0.7190 -0.2467  0.5204
    8CHTO  H190 3025   6.156   8.934   0.522  1.1364  0.0780 -0.4126
    8CHTO  C101 3026   6.264   8.989   0.703  0.4885 -0.1508  0.0659
    8CHTO  H188 3027   6.365   8.979   0.744 -0.1548  0.5716  1.8785
    8CHTO   O68 3028   6.153   8.915   0.798 -0.4796 -0.3374 -0.0631
    8CHTO  H168 3029   6.159   8.961   0.879 -1.3694 -0.5967  0.1635
    8CHTO   C99 3030   6.232   9.146   0.686 -0.5391 -0.3797 -0.4701
    8CHTO  H186 3031   6.132   9.148   0.638 -0.9006  0.0782  0.2972
    8CHTO   N17 3032   6.219   9.220   0.818 -0.2166  0.1379  0.1746
    8CHTO  H174 3033   6.173   9.315   0.793 -1.3747 -0.7743 -1.2142
    8CHTO  H175 3034   6.311   9.232   0.873 -0.5028 -0.9133  0.8976
    8CHTO   C97 3035   6.328   9.212   0.587 -0.8231  0.4855 -0.2053
    8CHTO  H184 3036   6.430   9.202   0.628 -1.3506 -2.6064  0.4478
    8CHTO   O64 3037   6.310   9.140   0.463  0.5574 -0.5303 -0.0922
    8CHTO  C104 3038   6.352   9.005   0.465  0.2157  0.6377  0.1775
    8CHTO  H191 3039   6.456   9.001   0.497  0.2634 -0.7776 -0.1272
    8CHTO  C108 3040   6.345   8.953   0.325 -0.0392  0.4383  0.4744
    8CHTO   O71 3041   6.391   8.820   0.300 -0.1151  0.0992 -0.5768
    8CHTO  H171 3042   6.344   8.777   0.230  1.0188 -1.3512 -0.4749
    8CHTO   O62 3043   6.299   9.346   0.552 -0.1621 -0.1979 -0.1840
    8CHTO   C91 3044   6.412   9.441   0.543 -0.0501 -0.1241  0.5993
    8CHTO  H178 3045   6.509   9.396   0.562 -0.3112  0.3245  3.0826
    8CHTO   C92 3046   6.395   9.557   0.648 -0.9531  0.0670 -0.5106
    8CHTO  H179 3047   6.292   9.595   0.642 -1.5492 -0.9453  2.6194
    8CHTO   O66 3048   6.412   9.511   0.780 -0.3792  0.5826  0.3048
    8CHTO  H166 3049   6.389   9.421   0.792 -2.4652  1.0475  0.1122
    8CHTO   C93 3050   6.498   9.675   0.625 -0.0592  0.1589 -0.5659
    8CHTO  H180 3051   6.593   9.642   0.669 -0.8850  1.0654  2.0068
    8CHTO   N16 3052   6.471   9.801   0.699 -0.0996  0.1247  0.0091
    8CHTO  H172 3053   6.479   9.888   0.635 -0.5292 -1.3957 -2.1643
    8CHTO  H173 3054   6.550   9.807   0.772  0.5951  2.4870 -0.9120
    8CHTO   C94 3055   6.518   9.709   0.474  0.3143  0.2496  0.8591
    8CHTO  H181 3056   6.434   9.767   0.435 -0.5940  0.7773  3.4714
    8CHTO   O61 3057   6.541   9.587   0.403  0.2280  0.5971 -0.2235
    8CHTO   C95 3058   6.426   9.504   0.400  0.2050 -0.2164 -1.0438
    8CHTO  H182 3059   6.338   9.561   0.371  0.0903  0.3945  0.4252
    8CHTO  C106 3060   6.452   9.395   0.283 -0.3490 -0.0934  0.1848
    8CHTO   O69 3061   6.432   9.446   0.152  0.4711  0.5989  0.1531
    8CHTO  H169 3062   6.378   9.391   0.098  1.2372 -0.9135  0.8920
    8CHTO   O63 3063   6.652   9.806   0.442  0.1203  0.2752  0.1251
    8CHTO   C96 3064   6.659   9.842   0.303  0.1865 -0.2794  0.1071
    8CHTO  H183 3065   6.570   9.824   0.242  0.2938 -0.2111 -0.0702
    8CHTO   C98 3066   6.774   9.776   0.220  0.0647 -0.2415 -0.1596
    8CHTO  H185 3067   6.872   9.791   0.269 -0.8210  0.0902  1.5502
    8CHTO   O67 3068   6.754   9.629   0.225  0.3383  0.0520 -0.2338
    8CHTO  H167 3069   6.811   9.588   0.164 -0.1885  0.9205 -1.3275
    8CHTO  C102 3070   6.772   9.832   0.073  0.2583 -0.0235 -0.2140
    8CHTO  H189 3071   6.683   9.786   0.027 -0.7828  0.4765  1.2754
    8CHTO   N18 3072   6.885   9.779  -0.012  0.1877 -0.3494 -0.0254
    8CHTO  H176 3073   6.942   9.700   0.035 -1.0928 -0.4549  1.3791
    8CHTO  H177 3074   6.843   9.741  -0.104  0.2206 -1.1977  0.3006
    8CHTO  C105 3075   6.760   9.986   0.073 -0.0751 -0.1611 -0.2829
    8CHTO  H192 3076   6.858  10.026   0.101 -0.6386  1.1318 -0.1562
    8CHTO   O65 3077   6.658  10.028   0.159 -0.2681  0.1666  0.2110
    8CHTO  C100 3078   6.663   9.996   0.298 -0.1616  0.3680 -0.4211
    8CHTO  H187 3079   6.755  10.027   0.350  0.4445 -0.1106 -1.2114
    8CHTO  C107 3080   6.546  10.076   0.365 -0.1117  0.3735  0.5588
    8CHTO   O70 3081   6.555  10.090   0.503  0.1030 -0.2975 -0.1371
    8CHTO  H170 3082   6.495  10.153   0.537  0.6203 -0.3855  0.9791
    8CHTO   O57 3083   6.715  10.044  -0.082 -0.0443  0.5609  0.1491
    8CHTO   C85 3084   6.777  10.171  -0.125  0.4866  0.0061 -0.4006
    8CHTO  H157 3085   6.885  10.163  -0.099  0.1526 -0.2652  0.9528
    8CHTO   C83 3086   6.725  10.287  -0.028  0.3036 -0.6892  0.1025
    8CHTO  H155 3087   6.776  10.265   0.066  1.5222  0.7713 -0.2102
    8CHTO   O56 3088   6.582  10.275  -0.010 -0.1005  0.3221  0.2166
    8CHTO  H135 3089   6.567  10.193   0.032  1.3928  1.1542  2.5332
    8CHTO   C81 3090   6.771  10.426  -0.082  0.2560 -0.6292  0.1880
    8CHTO  H153 3091   6.879  10.429  -0.093  0.1455 -1.1987 -1.1952
    8CHTO   N14 3092   6.744  10.540   0.012 -0.5567 -0.6482 -0.2215
    8CHTO  H141 3093   6.800  10.625  -0.022 -2.2226  0.8424  0.6804
    8CHTO  H142 3094   6.643  10.571   0.027  0.2754  1.9506  0.3390
    8CHTO   C79 3095   6.712  10.448  -0.225  0.9525  0.3077  0.0882
    8CHTO  H151 3096   6.751  10.545  -0.258  1.2234  0.2012  0.0968
    8CHTO   O52 3097   6.769  10.345  -0.318  0.3752  0.3230  0.4635
    8CHTO   C86 3098   6.749  10.202  -0.278  0.3834 -0.0811 -0.5762
    8CHTO  H158 3099   6.642  10.183  -0.299  0.5001  1.7785 -3.0844
    8CHTO   C90 3100   6.829  10.099  -0.363  0.3804  0.5759  0.3763
    8CHTO   O60 3101   6.771  10.076  -0.487  0.6929 -0.2252  0.5847
    8CHTO  H138 3102   6.812  10.006  -0.534  0.0949 -1.7413  2.2886
    8CHTO   O50 3103   6.571  10.438  -0.233 -0.3102 -0.4382 -0.3084
    8CHTO   C73 3104   6.457  10.487  -0.306  0.0447  0.2399  0.2588
    8CHTO  H145 3105   6.481  10.505  -0.412  0.0067  1.8682  0.5062
    8CHTO   C74 3106   6.416  10.629  -0.259 -0.5166 -0.0355  0.5261
    8CHTO  H146 3107   6.502  10.693  -0.284  0.1794 -0.4824  1.7020
    8CHTO   O54 3108   6.314  10.671  -0.348  0.0410 -0.2622 -0.6454
    8CHTO  H133 3109   6.249  10.604  -0.354 -0.0739 -0.2912  0.7546
    8CHTO   C75 3110   6.387  10.625  -0.108 -0.0428 -0.0182  0.1526
    8CHTO  H147 3111   6.472  10.580  -0.055 -0.9068 -0.1828  1.4386
    8CHTO   N13 3112   6.362  10.758  -0.051  0.1088 -0.3848  0.1581
    8CHTO  H139 3113   6.436  10.779   0.026  1.7507 -3.2251 -0.5951
    8CHTO  H140 3114   6.268  10.760   0.003  1.0381  2.5498  1.8009
    8CHTO   C76 3115   6.264  10.526  -0.096  0.2193 -0.1743  0.1241
    8CHTO  H148 3116   6.183  10.572  -0.152 -0.3992  0.8939  1.8617
    8CHTO   O49 3117   6.292  10.390  -0.151 -0.0439  0.0919  0.2690
    8CHTO   C77 3118   6.334  10.399  -0.291 -0.1561  0.2966  0.9492
    8CHTO  H149 3119   6.252  10.434  -0.355 -0.8727 -3.5352 -0.3858
    8CHTO   C88 3120   6.360  10.258  -0.341 -0.2973  0.6579 -0.4943
    8CHTO   O58 3121   6.420  10.229  -0.475 -0.0931 -0.1097 -0.7005
    8CHTO  H136 3122   6.414  10.136  -0.485  0.8606 -0.4989  1.9198
    8CHTO   O51 3123   6.218  10.496   0.059  0.7098 -0.3229  0.1312
    8CHTO   C78 3124   6.072  10.418   0.067 -0.1203  1.4587 -0.4956
    8CHTO  H150 3125   6.040  10.381  -0.033  1.8394 -1.6516 -0.0253
    8CHTO   C80 3126   5.974  10.523   0.125 -0.7649  0.1582 -0.1653
    8CHTO  H152 3127   6.019  10.562   0.219 -0.4868  2.2341 -1.1180
    8CHTO   O55 3128   5.960  10.628   0.023 -0.2329  0.2802 -0.7434
    8CHTO  H134 3129   6.005  10.706   0.051  0.0449  0.3127 -1.2693
    8CHTO   C84 3130   5.839  10.450   0.163 -0.6190 -0.1403 -0.5301
    8CHTO  H156 3131   5.790  10.400   0.080 -2.1463  0.6672 -0.1369
    8CHTO   N15 3132   5.730  10.548   0.217 -0.0715 -0.4551 -0.1312
    8CHTO  H143 3133   5.657  10.509   0.284 -0.2361  1.9410  1.1439
    8CHTO  H144 3134   5.780  10.627   0.269 -0.9854 -0.6513  1.0597
    8CHTO   C87 3135   5.870  10.337   0.258  0.5611  0.2272  0.6401
    8CHTO  H159 3136   5.905  10.365   0.358 -0.4190  3.3310  0.1878
    8CHTO   O53 3137   5.963  10.234   0.195 -0.3276 -0.3600 -0.1338
    8CHTO   C82 3138   6.089  10.300   0.165 -0.1148 -0.0777 -0.5610
    8CHTO  H154 3139   6.135  10.341   0.255  0.1940 -0.8670 -0.3493
    8CHTO   C89 3140   6.194  10.198   0.108  0.5242 -0.6890  0.1646
    8CHTO   O59 3141   6.237  10.124   0.225  0.4050  0.0974  0.2871
    8CHTO  H137 3142   6.162  10.077   0.255 -0.0920 -0.2360 -1.4246
    8CHTO   O45 3143   5.730  10.248   0.305 -0.4215 -0.2802 -0.0097
    8CHTO   C67 3144   5.759  10.126   0.375  0.6363 -0.0892 -0.2538
    8CHTO  H124 3145   5.816  10.058   0.311  0.2448  0.1505 -0.8546
    8CHTO   C65 3146   5.847  10.154   0.505  0.4852 -0.3454 -0.2787
    8CHTO  H122 3147   5.852  10.261   0.522 -0.9025 -0.2241 -0.6190
    8CHTO   O44 3148   5.975  10.108   0.472 -0.0880  0.0593  0.0805
    8CHTO  H102 3149   6.019  10.176   0.424 -1.6971  0.7935 -0.4201
    8CHTO   C63 3150   5.774  10.100   0.633 -0.1220  0.2789  0.5793
    8CHTO  H120 3151   5.685  10.159   0.654  0.9722  1.9447  0.6254
    8CHTO   N11 3152   5.851  10.120   0.764  0.3534  0.1938  0.4368
    8CHTO  H108 3153   5.813  10.205   0.817  0.9993 -0.3001  1.7080
    8CHTO  H109 3154   5.865  10.031   0.822 -0.9207  0.4429  1.1244
    8CHTO   C61 3155   5.741   9.955   0.602  0.8139 -0.3203  0.4119
    8CHTO  H118 3156   5.687   9.915   0.690 -0.2820 -0.2178 -0.1999
    8CHTO   O40 3157   5.650   9.936   0.491 -0.2042  0.0588 -0.2611
    8CHTO   C68 3158   5.624  10.054   0.411 -0.2293  0.0756  0.0616
    8CHTO  H125 3159   5.566  10.125   0.474 -0.6369  0.1555 -0.4028
    8CHTO   C72 3160   5.542  10.029   0.285 -0.3980 -0.5659 -0.6489
    8CHTO   O48 3161   5.412  10.087   0.292  0.4101  0.7720  0.2145
    8CHTO  H105 3162   5.415  10.180   0.301  2.5792  0.7899 -0.4658
    8CHTO   O38 3163   5.855   9.869   0.593 -0.5102  0.5271 -0.1687
    8CHTO   C55 3164   5.850   9.732   0.546 -0.1497 -0.0628  0.0905
    8CHTO  H112 3165   5.779   9.733   0.462  0.2097 -0.1671 -0.2196
    8CHTO   C56 3166   5.811   9.629   0.656 -0.2667  0.2185 -0.1432
    8CHTO  H113 3167   5.871   9.651   0.746 -2.1591  1.2102  0.8837
    8CHTO   O42 3168   5.676   9.653   0.698 -0.2137 -0.5274  0.2135
    8CHTO  H100 3169   5.640   9.583   0.750 -2.9646 -0.2592 -1.2266
    8CHTO   C57 3170   5.842   9.482   0.606 -0.1436 -0.4322  0.0214
    8CHTO  H114 3171   5.766   9.445   0.537  1.1558 -2.0732 -0.5447
    8CHTO   N10 3172   5.843   9.390   0.723  0.2325 -0.2595 -0.0035
    8CHTO  H106 3173   5.745   9.347   0.740 -0.7642  0.8628 -2.5888
    8CHTO  H107 3174   5.877   9.440   0.812 -2.3504 -1.4281  1.6890
    8CHTO   C58 3175   5.982   9.469   0.538 -0.6645 -0.3220  0.4653
    8CHTO  H115 3176   6.064   9.489   0.610 -0.0205 -1.5756  0.0863
    8CHTO   O37 3177   6.000   9.570   0.441 -0.0958 -0.3701 -0.1811
    8CHTO   C59 3178   5.993   9.703   0.481  0.5735 -1.1015 -0.5428
    8CHTO  H116 3179   6.077   9.730   0.545  0.6971  0.6938 -1.4200
    8CHTO   C70 3180   6.013   9.796   0.360  0.4649  0.2256 -0.8113
    8CHTO   O46 3181   6.145   9.823   0.313 -0.6109  0.0684  0.1664
    8CHTO  H103 3182   6.133   9.861   0.229 -0.8175 -0.6598 -0.1362
    8CHTO   O39 3183   6.021   9.313   0.464 -0.6333  0.3019  0.0584
    8CHTO   C60 3184   5.949   9.302   0.341 -0.6228 -0.6314 -0.1728
    8CHTO  H117 3185   5.853   9.353   0.344 -0.1073  0.6658 -3.4178
    8CHTO   C62 3186   6.029   9.356   0.223  0.0726 -0.2610  0.0076
    8CHTO  H119 3187   6.066   9.460   0.236 -0.5837  0.1095 -1.0026
    8CHTO   O43 3188   6.158   9.285   0.221 -0.5438  0.4268 -0.0596
    8CHTO  H101 3189   6.152   9.195   0.197 -0.2091  0.4151 -0.0944
    8CHTO   C66 3190   5.947   9.343   0.079  0.0544 -0.2397 -0.3803
    8CHTO  H123 3191   5.844   9.376   0.093 -0.6653 -1.9170 -1.5663
    8CHTO   N12 3192   6.010   9.421  -0.028 -0.7806 -0.1654 -0.7193
    8CHTO  H110 3193   6.068   9.356  -0.092  0.9462  1.5054 -0.8835
    8CHTO  H111 3194   5.940   9.482  -0.084  0.2568 -0.4594 -2.3801
    8CHTO   C69 3195   5.932   9.191   0.062  0.0734  0.1874 -0.0903
    8CHTO  H126 3196   6.029   9.136   0.067 -0.2724 -0.1939  3.4572
    8CHTO   O41 3197   5.851   9.127   0.189 -0.0486  0.0475  0.7324
    8CHTO   C64 3198   5.914   9.154   0.318  0.1385  0.4433 -0.6250
    8CHTO  H121 3199   6.009   9.096   0.323 -0.9159 -1.6622 -3.4854
    8CHTO   C71 3200   5.824   9.086   0.425 -0.3342  0.0714  0.4116
    8CHTO   O47 3201   5.683   9.122   0.414 -0.3216 -0.3561 -0.1097
    8CHTO  H104 3202   5.639   9.049   0.373  1.1176 -1.0249 -0.4945
    8CHTO   O34 3203   5.863   9.149  -0.079  0.1565  0.2168 -0.3048
    8CHTO   C49 3204   5.718   9.104  -0.109 -0.3991  0.0707 -0.1775
    8CHTO   H91 3205   5.715   8.999  -0.082 -0.1675 -0.3936 -1.8780
    8CHTO   C47 3206   5.693   9.111  -0.261  0.2490  0.3886 -0.2228
    8CHTO   H89 3207   5.597   9.058  -0.275  0.0230 -0.1692  2.9593
    8CHTO   O33 3208   5.789   9.037  -0.332 -0.1869  0.3557 -0.1331
    8CHTO   H70 3209   5.742   8.985  -0.394 -0.7964 -0.0552  0.6634
    8CHTO   C45 3210   5.674   9.261  -0.318 -0.5274 -0.3508  0.4508
    8CHTO   H87 3211   5.770   9.302  -0.353  0.1473 -3.5757 -1.7214
    8CHTO    N8 3212   5.579   9.254  -0.432  0.5952  0.5577  0.1152
    8CHTO   H75 3213   5.561   9.358  -0.455  3.2948  1.1648  0.6519
    8CHTO   H76 3214   5.637   9.218  -0.516 -0.7941 -1.6163  0.0389
    8CHTO   C43 3215   5.641   9.358  -0.199  0.8291 -1.0254 -0.5123
    8CHTO   H85 3216   5.740   9.378  -0.157  1.7546  1.9443 -3.8376
    8CHTO   O29 3217   5.552   9.291  -0.104  0.1398  0.7840  0.2616
    8CHTO   C50 3218   5.615   9.189  -0.030 -0.5146  0.3211  0.1788
    8CHTO   H92 3219   5.670   9.227   0.058  0.3129  1.8004 -0.9444
    8CHTO   C54 3220   5.507   9.086   0.024 -0.2037 -0.1119  0.0803
    8CHTO   O36 3221   5.430   9.026  -0.074  0.4788  0.4532 -0.7581
    8CHTO   H72 3222   5.341   9.026  -0.042  1.3246  1.9091  1.7598
    8CHTO   O27 3223   5.594   9.484  -0.238  0.7345 -0.5028 -0.5097
    8CHTO   C37 3224   5.552   9.615  -0.195  0.4366 -0.5285  0.0902
    8CHTO   H79 3225   5.458   9.608  -0.138  0.1786  0.7507 -0.1632
    8CHTO   C38 3226   5.656   9.684  -0.101  0.1576  0.2989  0.4042
    8CHTO   H80 3227   5.756   9.675  -0.146 -0.7492  0.7979 -1.7806
    8CHTO   O31 3228   5.677   9.631   0.034  0.1480  0.2778  0.0822
    8CHTO   H68 3229   5.698   9.540   0.018 -0.7506  0.3823 -1.7175
    8CHTO   C39 3230   5.628   9.841  -0.095 -0.3602 -0.0965  0.1811
    8CHTO   H81 3231   5.546   9.845  -0.023 -0.8542 -0.6358 -0.3469
    8CHTO    N7 3232   5.746   9.922  -0.044 -0.4607  0.1421 -0.0050
    8CHTO   H73 3233   5.712  10.023  -0.024 -1.8818 -0.3049 -0.0861
    8CHTO   H74 3234   5.818   9.927  -0.124 -2.8290 -0.4877 -2.2627
    8CHTO   C40 3235   5.581   9.906  -0.229  0.4466  0.4005  0.1807
    8CHTO   H82 3236   5.667   9.910  -0.297 -0.3347 -3.2134 -1.1309
    8CHTO   O26 3237   5.479   9.825  -0.286  0.6450  0.6135 -0.1626
    8CHTO   C41 3238   5.522   9.693  -0.326  0.0215  0.5018 -0.5647
    8CHTO   H83 3239   5.609   9.701  -0.393  0.9061 -0.2166  0.4698
    8CHTO   C52 3240   5.402   9.646  -0.406 -0.2437  0.0410  0.3534
    8CHTO   O35 3241   5.397   9.701  -0.539  0.1802 -0.2159 -0.3087
    8CHTO   H71 3242   5.484   9.723  -0.565  0.6124 -0.9697  0.4702
    8CHTO   O28 3243   5.514  10.036  -0.198  0.0940  0.3510 -0.0087
    8CHTO   C42 3244   5.514  10.139  -0.300 -0.2943 -0.0011 -0.3175
    8CHTO   H84 3245   5.460  10.222  -0.254  0.3770 -0.2159  0.8831
    8CHTO   C44 3246   5.430  10.104  -0.431 -0.4607 -0.1390  0.4174
    8CHTO   H86 3247   5.475  10.015  -0.476  0.3493 -0.0138  0.9568
    8CHTO   O32 3248   5.295  10.079  -0.386  0.2575  0.2949  0.0002
    8CHTO   H69 3249   5.295   9.992  -0.352 -1.6960 -0.0810 -0.9524
    8CHTO   C48 3250   5.443  10.215  -0.539 -0.1979 -0.1652 -0.7334
    8CHTO   H90 3251   5.386  10.299  -0.498 -1.6096 -0.8408 -1.2924
    8CHTO    N9 3252   5.367  10.181  -0.668 -0.2052  0.2050 -0.0071
    8CHTO   H77 3253   5.439  10.124  -0.726  0.5418  0.7176  0.4016
    8CHTO   H78 3254   5.341  10.271  -0.722  1.1740 -0.2887 -1.5573
    8CHTO   C51 3255   5.591  10.256  -0.555 -0.2535 -0.0480 -0.4723
    8CHTO   H93 3256   5.645  10.177  -0.608  0.7105  0.1670  0.1635
    8CHTO   O30 3257   5.657  10.292  -0.441 -0.3859  0.5892 -0.1908
    8CHTO   C46 3258   5.657  10.193  -0.330 -0.3356 -0.1557  0.4108
    8CHTO   H88 3259   5.721  10.110  -0.361  0.6768  0.8053 -0.0607
    8CHTO   C53 3260   5.710  10.264  -0.212 -0.4313 -0.2099  0.1313
    8CHTO   O72 3261   5.854  10.265  -0.212 -0.3490 -0.3155  0.0275
    8CHTO  H199 3262   5.891  10.331  -0.155 -1.1358  1.0849 -1.0426
    8CHTO   O22 3263   5.600  10.384  -0.614 -0.1357  0.0684  0.1650
    8CHTO   C31 3264   5.721  10.446  -0.687  0.2687  0.0132 -0.7651
    8CHTO   H59 3265   5.687  10.547  -0.721 -1.7300 -0.8323 -1.3318
    8CHTO   C29 3266   5.845  10.466  -0.597 -0.0627 -0.0904 -0.2182
    8CHTO   H57 3267   5.855  10.366  -0.552 -1.1211 -0.0372  0.1645
    8CHTO   O21 3268   5.806  10.550  -0.489  0.2845  0.4900 -0.2052
    8CHTO   H37 3269   5.732  10.511  -0.447  0.8032 -0.2167  0.0708
    8CHTO   C27 3270   5.974  10.514  -0.679 -0.5576 -0.1352  0.1150
    8CHTO   H55 3271   5.954  10.617  -0.709 -3.3000 -0.7925 -0.4599
    8CHTO    N5 3272   6.097  10.509  -0.599 -0.3736 -0.7686 -0.2661
    8CHTO   H43 3273   6.182  10.545  -0.656 -2.3348  1.4771 -1.8764
    8CHTO   H44 3274   6.081  10.561  -0.506 -1.4216  2.9233 -2.4052
    8CHTO   C25 3275   5.991  10.423  -0.808  0.6935  0.1052  0.2206
    8CHTO   H53 3276   6.019  10.322  -0.775 -1.8137 -1.1181 -1.2843
    8CHTO   O17 3277   5.864  10.423  -0.883 -0.4812 -0.0745  0.2926
    8CHTO   C32 3278   5.749  10.365  -0.815 -0.1341 -0.6142  0.2341
    8CHTO   H60 3279   5.784  10.267  -0.784  1.4963 -0.7512 -1.9143
    8CHTO   C36 3280   5.633  10.355  -0.907 -0.2094  0.3349  0.3014
    8CHTO   O25 3281   5.655  10.266  -1.019 -0.1565  0.3037  0.1106
    8CHTO   H40 3282   5.727  10.296  -1.070  1.3680 -0.4483  1.7819
    8CHTO   O15 3283   6.116  10.471  -0.911 -0.2357  0.7914  0.0554
    8CHTO   C19 3284   6.255  10.445  -0.948 -0.2816  0.4158 -1.1721
    8CHTO   H47 3285   6.268  10.448  -1.058 -0.3374  0.5632 -1.1738
    8CHTO   C20 3286   6.368  10.541  -0.882  0.3856  0.2075  0.0280
    8CHTO   H48 3287   6.364  10.541  -0.772  2.9164 -0.1443  0.1448
    8CHTO   O19 3288   6.340  10.678  -0.928  0.2907  0.0149 -0.3629
    8CHTO   H35 3289   6.249  10.699  -0.916  0.5500  0.5585  0.7653
    8CHTO   C21 3290   6.511  10.490  -0.921  0.6868 -0.3673  0.3850
    8CHTO   H49 3291   6.529  10.501  -1.028  2.0597 -0.3287  0.6066
    8CHTO    N4 3292   6.626  10.564  -0.861  0.1495 -0.0361 -0.4416
    8CHTO   H41 3293   6.607  10.667  -0.834  0.2402 -0.0034 -0.5039
    8CHTO   H42 3294   6.709  10.557  -0.929  0.1944 -0.9112 -0.2941
    8CHTO   C22 3295   6.530  10.337  -0.897 -0.4676 -0.1082 -0.2384
    8CHTO   H50 3296   6.532  10.316  -0.790  0.6619  1.1848 -0.0003
    8CHTO   O14 3297   6.419  10.266  -0.955 -0.1008  0.0821 -0.0073
    8CHTO   C23 3298   6.288  10.297  -0.905 -0.5483 -0.3390 -0.3309
    8CHTO   H51 3299   6.293  10.285  -0.796  3.4665 -0.9580 -0.5241
    8CHTO   C34 3300   6.194  10.190  -0.962 -0.4605  0.3055  0.4500
    8CHTO   O23 3301   6.205  10.076  -0.883 -0.3005  0.7066  0.1212
    8CHTO   H38 3302   6.295  10.055  -0.871 -0.6181 -0.3173  0.8412
    8CHTO   O16 3303   6.642  10.278  -0.969 -0.0369  0.3696 -0.2929
    8CHTO   C24 3304   6.668  10.134  -0.908  0.0737  0.6488  0.8722
    8CHTO   H52 3305   6.593  10.099  -0.837 -0.4281 -2.8010 -1.2635
    8CHTO   C26 3306   6.799  10.158  -0.844  0.0426 -0.5962  0.6289
    8CHTO   H54 3307   6.864  10.217  -0.912 -0.7657 -1.6540 -1.0905
    8CHTO   O20 3308   6.776  10.252  -0.733  0.1531 -0.3971  0.4953
    8CHTO   H36 3309   6.759  10.337  -0.769  1.6762  0.0528  0.7806
    8CHTO   C30 3310   6.875  10.024  -0.812  0.0158 -0.2885  0.0094
    8CHTO   H58 3311   6.831   9.963  -0.731  3.3408 -0.6856  1.5985
    8CHTO    N6 3312   7.012  10.047  -0.763 -0.2991 -0.2521  0.3288
    8CHTO   H45 3313   7.013  10.096  -0.667  1.7287 -0.4350  0.4106
    8CHTO   H46 3314   7.067   9.954  -0.755 -0.5906 -0.4976 -0.5334
    8CHTO   C33 3315   6.879   9.927  -0.934  0.0329 -0.1857  0.3607
    8CHTO   H61 3316   6.941   9.973  -1.013 -1.5402 -2.1010 -2.0678
    8CHTO   O18 3317   6.747   9.913  -0.988 -0.3869 -0.0297  0.2460
    8CHTO   C28 3318   6.674  10.034  -1.016 -0.2928 -0.0887 -0.0117
    8CHTO   H56 3319   6.708  10.078  -1.110 -1.4125 -2.7128 -1.7027
    8CHTO   C35 3320   6.533   9.987  -1.054 -0.0368 -0.1094 -0.0040
    8CHTO   O24 3321   6.483   9.895  -0.955 -0.2819  0.1063 -0.2552
    8CHTO   H39 3322   6.424   9.831  -0.989 -0.2528 -0.1986  0.2723
    8CHTO    O9 3323   6.940   9.800  -0.901 -0.0067  0.1622  0.5980
    8CHTO   C13 3324   6.958   9.694  -1.011  0.5996 -0.2804  0.3224
    8CHTO   H26 3325   6.946   9.745  -1.109 -1.9749  0.0401  0.7712
    8CHTO   C11 3326   6.846   9.583  -0.992  0.8809  0.5178 -0.1324
    8CHTO   H24 3327   6.749   9.629  -1.018  0.4513 -1.2097 -1.6741
    8CHTO    O8 3328   6.835   9.548  -0.854  0.0997 -0.3899 -0.6058
    8CHTO    H3 3329   6.873   9.465  -0.832  0.1937  0.3420  2.1483
    8CHTO    C9 3330   6.874   9.470  -1.099  0.0965 -0.2600  0.3675
    8CHTO   H22 3331   6.897   9.526  -1.191 -1.1656  0.3944  0.4425
    8CHTO    N2 3332   6.761   9.388  -1.142  0.5262  0.4614  0.4019
    8CHTO   H10 3333   6.755   9.350  -1.242 -1.1366  0.8043  0.3607
    8CHTO   H11 3334   6.666   9.436  -1.124  1.0513  1.0820  1.6497
    8CHTO    C7 3335   7.006   9.393  -1.047  0.4173  0.0252 -0.4579
    8CHTO   H20 3336   7.058   9.363  -1.141 -0.8014  1.2976 -1.5663
    8CHTO    O4 3337   7.101   9.481  -0.981 -0.0343  0.1268  0.0841
    8CHTO   C14 3338   7.100   9.624  -1.009  0.0340  0.0634 -0.0318
    8CHTO   H27 3339   7.138   9.637  -1.113  0.5751 -0.3529  0.1121
    8CHTO   C18 3340   7.201   9.687  -0.911  0.1140 -0.4048 -0.0988
    8CHTO   O13 3341   7.337   9.650  -0.932 -0.2763  0.1303  0.0148
    8CHTO    H7 3342   7.362   9.581  -0.874 -2.4729 -0.7416 -0.0396
    8CHTO    O2 3343   6.974   9.258  -0.940  0.1178 -0.2807  0.0598
    8CHTO    C1 3344   7.083   9.208  -0.861  0.0847  0.1950  0.7105
    8CHTO   H14 3345   7.120   9.293  -0.799  0.7475  0.3251  0.1435
    8CHTO    C2 3346   7.208   9.153  -0.950 -0.3076  0.0879  0.5406
    8CHTO   H15 3347   7.164   9.095  -1.032 -0.0066  0.9962 -0.2750
    8CHTO    O6 3348   7.279   9.257  -1.017 -0.1378  0.3328 -0.0992
    8CHTO    H1 3349   7.294   9.327  -0.956 -2.0559  1.2441 -0.6411
    8CHTO    C3 3350   7.310   9.059  -0.865  0.0846  0.4294  0.1300
    8CHTO   H16 3351   7.385   9.113  -0.806 -1.4974  1.4176  1.3111
    8CHTO    N1 3352   7.397   8.976  -0.953  0.0463 -0.0720 -0.1820
    8CHTO    H8 3353   7.479   8.943  -0.891 -0.9966 -2.1806  0.1043
    8CHTO    H9 3354   7.430   9.047  -1.027  0.1910 -0.3365 -0.3684
    8CHTO    C4 3355   7.223   8.973  -0.770  0.0674 -0.5047 -0.3400
    8CHTO   H17 3356   7.159   8.909  -0.832 -0.7424 -2.4564  2.4065
    8CHTO    O1 3357   7.134   9.053  -0.689 -0.0951  0.1260 -0.2881
    8CHTO    C5 3358   7.026   9.109  -0.761  0.6146 -0.0529  0.2314
    8CHTO   H18 3359   6.974   9.025  -0.807  2.1806  0.1878 -2.0541
    8CHTO   C16 3360   6.939   9.184  -0.657 -0.1000  0.0194  0.0713
    8CHTO   O11 3361   6.812   9.237  -0.696 -0.3257 -0.2394 -0.3695
    8CHTO    H5 3362   6.752   9.252  -0.626  0.2316 -1.2119  0.3347
    8CHTO    O3 3363   7.303   8.892  -0.678  0.0024 -0.1689  0.5977
    8CHTO    C6 3364   7.247   8.769  -0.621 -0.2041 -0.4013 -0.4759
    8CHTO   H19 3365   7.141   8.756  -0.643 -0.3240  0.1634 -0.2402
    8CHTO    C8 3366   7.309   8.636  -0.673  0.0632 -0.1309  0.3819
    8CHTO   H21 3367   7.414   8.631  -0.646  0.3494 -1.0137 -0.8395
    8CHTO    O7 3368   7.294   8.639  -0.819  0.1934 -0.6857 -0.4487
    8CHTO    H2 3369   7.369   8.679  -0.860 -0.4165  1.1495  0.2233
    8CHTO   C12 3370   7.239   8.510  -0.610 -0.7648 -0.1812 -0.5196
    8CHTO   H25 3371   7.133   8.527  -0.639 -1.2655 -1.6491  0.4200
    8CHTO    N3 3372   7.288   8.376  -0.667  0.2019  0.4611 -0.0284
    8CHTO   H12 3373   7.214   8.323  -0.726 -0.1761 -2.4663  2.9054
    8CHTO   H13 3374   7.327   8.313  -0.588  0.5965  0.5227 -0.1743
    8CHTO   C15 3375   7.253   8.527  -0.453  0.4620 -0.4266  0.0545
    8CHTO   H28 3376   7.353   8.504  -0.418  0.0532 -1.3626  0.6170
    8CHTO   O10 3377   7.156   8.441  -0.376  0.2404 -0.2918 -0.3350
    8CHTO    H4 3378   7.085   8.411  -0.430 -0.6038  1.6799 -0.3776
    8CHTO    O5 3379   7.208   8.659  -0.411  0.7527 -0.2208 -0.3741
    8CHTO   C10 3380   7.257   8.773  -0.475 -0.0283 -0.1575  0.2943
    8CHTO   H23 3381   7.360   8.774  -0.438  0.5275 -0.4900 -1.1977
    8CHTO   C17 3382   7.187   8.892  -0.412  0.4730  0.4324 -0.2224
    8CHTO   O12 3383   7.215   8.911  -0.279  0.1840 -0.5857  0.0314
    8CHTO    H6 3384   7.149   8.968  -0.243 -0.4870 -0.0254 -2.0455
    9CHTO  H203 3385   7.221   5.293   5.845 -1.3790 -0.3393 -0.2167
    9CHTO   O82 3386   7.251   5.209   5.816 -0.5973 -0.1254 -0.0424
    9CHTO  C123 3387   7.356   5.209   5.720 -0.5150 -0.4934 -0.1307
    9CHTO  H227 3388   7.442   5.252   5.773 -1.4482  0.7011  0.4469
    9CHTO   O77 3389   7.363   5.062   5.678 -0.3783 -0.2957 -0.4400
    9CHTO  C118 3390   7.478   5.039   5.596  0.2093  0.1870 -0.6298
    9CHTO  H222 3391   7.572   5.091   5.618  0.9233 -0.8177 -1.2333
    9CHTO  C125 3392   7.513   4.886   5.593 -0.3115 -0.0024 -0.4567
    9CHTO   O84 3393   7.560   4.835   5.724 -0.3778 -0.1848  0.1992
    9CHTO  H205 3394   7.648   4.864   5.739  0.4314 -2.2423 -0.3765
    9CHTO  C114 3395   7.453   5.098   5.459 -0.3621  0.1587  0.2847
    9CHTO  H218 3396   7.360   5.054   5.423  0.1402 -0.9309  0.3145
    9CHTO  C116 3397   7.435   5.254   5.471 -0.6323 -0.1415 -0.1491
    9CHTO  H220 3398   7.533   5.302   5.495 -0.7978 -0.4435  1.1492
    9CHTO   O79 3399   7.392   5.308   5.341 -0.5274  0.4135 -0.1739
    9CHTO  H201 3400   7.461   5.283   5.282  0.4063 -0.3115  1.1994
    9CHTO  C120 3401   7.330   5.295   5.590 -0.2663  0.5869  0.1964
    9CHTO  H224 3402   7.239   5.262   5.535  0.4063 -1.2029  0.1291
    9CHTO   N21 3403   7.329   5.439   5.622  0.0708 -0.2388 -0.8049
    9CHTO  H211 3404   7.372   5.488   5.536 -0.0306  0.5253 -0.4263
    9CHTO  H212 3405   7.223   5.455   5.638 -0.0741 -1.6041 -0.3066
    9CHTO   O75 3406   7.556   5.073   5.365 -0.3046  0.2847 -0.1797
    9CHTO  C112 3407   7.499   4.981   5.235  0.0554 -0.5212  0.2528
    9CHTO  H216 3408   7.390   4.986   5.225  0.0622 -2.9318 -1.3053
    9CHTO   O73 3409   7.544   4.848   5.257  0.9775  0.1424  0.7923
    9CHTO  C113 3410   7.520   4.748   5.156  0.3165 -0.1060 -0.7148
    9CHTO  H217 3411   7.410   4.741   5.168  0.3871  0.3043  0.2084
    9CHTO  C124 3412   7.568   4.618   5.216  0.8723  0.6303 -0.3847
    9CHTO   O83 3413   7.706   4.611   5.233  0.1878 -0.0745  0.1192
    9CHTO  H204 3414   7.731   4.674   5.298 -0.6929  0.1058  0.2951
    9CHTO  C109 3415   7.576   4.786   5.016  0.0698 -0.0757 -0.2755
    9CHTO  H213 3416   7.686   4.783   5.021  0.1510  0.9535 -1.2700
    9CHTO  C110 3417   7.537   4.929   4.973 -0.6376 -0.4975  1.3832
    9CHTO  H214 3418   7.430   4.926   4.953 -0.9000 -1.0888  2.7727
    9CHTO   O78 3419   7.603   4.962   4.849  0.9870  0.2166 -0.2220
    9CHTO  H200 3420   7.586   4.893   4.788  2.3006  0.9473 -1.4565
    9CHTO  C111 3421   7.556   5.026   5.091  0.3965  0.4016 -0.0731
    9CHTO  H215 3422   7.663   5.041   5.109  0.6850 -1.4551 -0.1731
    9CHTO   N19 3423   7.504   5.159   5.055 -0.5585  0.8380 -0.8265
    9CHTO  H207 3424   7.398   5.157   5.038 -0.8254  1.1548  0.7400
    9CHTO  H208 3425   7.533   5.225   5.135  1.9451 -0.4716 -0.5858
    9CHTO   O74 3426   7.524   4.696   4.919  0.0076 -0.2821  0.8976
    9CHTO  C115 3427   7.623   4.663   4.801 -0.0140  0.0765  0.0399
    9CHTO  H219 3428   7.695   4.742   4.782  1.7981 -1.9429 -1.8931
    9CHTO   O76 3429   7.711   4.531   4.831  0.7356 -0.0998 -0.2577
    9CHTO  C122 3430   7.627   4.417   4.865  0.2819 -0.8521 -0.2940
    9CHTO  H226 3431   7.558   4.434   4.948 -3.1619 -2.6103 -2.6541
    9CHTO  C126 3432   7.711   4.289   4.904 -0.2685 -0.6813 -0.0332
    9CHTO   O85 3433   7.638   4.175   4.956  0.1211 -0.1357  0.2023
    9CHTO  H206 3434   7.699   4.104   4.957 -0.1616 -0.4711 -2.7636
    9CHTO  C121 3435   7.545   4.386   4.737  0.1706  0.0002  0.0361
    9CHTO  H225 3436   7.608   4.357   4.650  0.0139 -0.5387  0.0986
    9CHTO   O81 3437   7.453   4.282   4.764 -0.4655 -0.2380  0.4002
    9CHTO  H202 3438   7.486   4.197   4.786  0.1904 -0.2305 -0.5219
    9CHTO  C119 3439   7.454   4.512   4.698  0.0952  0.2464  0.0218
    9CHTO  H223 3440   7.402   4.471   4.611 -0.5589 -2.5874  1.6864
    9CHTO  C117 3441   7.537   4.641   4.668  0.0491 -0.0159  0.1159
    9CHTO  H221 3442   7.480   4.733   4.659  1.6382  1.0400  0.6079
    9CHTO   N20 3443   7.623   4.637   4.550  0.5739  0.1763  0.0944
    9CHTO  H209 3444   7.606   4.702   4.466  0.3998 -3.0272 -2.4236
    9CHTO  H210 3445   7.620   4.541   4.502  0.9980  0.5473 -0.6775
    9CHTO   O80 3446   7.331   4.539   4.795  0.6164 -0.2659 -0.3267
    9CHTO  C103 3447   7.200   4.621   4.756  0.0608 -0.1809  0.6845
    9CHTO  H190 3448   7.228   4.726   4.750  0.8649 -0.3713  1.0247
    9CHTO  C101 3449   7.119   4.569   4.631  0.4246 -0.4724  0.0292
    9CHTO  H188 3450   7.094   4.463   4.635 -0.6039 -0.1750  1.8863
    9CHTO   O68 3451   7.207   4.592   4.490 -0.1754  0.4534  0.4477
    9CHTO  H168 3452   7.229   4.682   4.479  0.7934  0.1646  0.0248
    9CHTO   C99 3453   6.977   4.648   4.635  0.7325  0.3319  0.3591
    9CHTO  H186 3454   6.999   4.757   4.637 -1.0825  0.7182 -0.1369
    9CHTO   N17 3455   6.893   4.620   4.514  0.1342 -0.2815  0.3824
    9CHTO  H174 3456   6.819   4.696   4.493 -0.0092 -1.0958 -2.1604
    9CHTO  H175 3457   6.857   4.519   4.520  0.8940 -0.5294  0.8225
    9CHTO   C97 3458   6.905   4.626   4.771  0.2769 -0.0319  0.2045
    9CHTO  H184 3459   6.879   4.521   4.793 -0.0679 -0.2613 -1.2541
    9CHTO   O64 3460   6.987   4.681   4.873  0.2839  0.3557 -0.1781
    9CHTO  C104 3461   7.113   4.612   4.891  0.2218 -0.2885  0.0119
    9CHTO  H191 3462   7.111   4.508   4.924 -0.1796 -0.6540 -1.1538
    9CHTO  C108 3463   7.186   4.687   5.000  0.2959 -0.4157  0.0874
    9CHTO   O71 3464   7.113   4.692   5.125  0.3381  0.3480  0.3428
    9CHTO  H171 3465   7.157   4.751   5.183  0.1804  0.5991  0.2113
    9CHTO   O62 3466   6.795   4.715   4.805 -0.7096  0.1834  0.5949
    9CHTO   C91 3467   6.662   4.665   4.770  0.9748 -0.3252  0.4522
    9CHTO  H178 3468   6.671   4.586   4.695  1.2476  0.5243 -0.4154
    9CHTO   C92 3469   6.591   4.780   4.687 -0.1417  0.2294  0.4792
    9CHTO  H179 3470   6.665   4.814   4.613 -0.4532 -0.7209 -0.2706
    9CHTO   O66 3471   6.478   4.743   4.604 -0.0699 -0.1965  0.2011
    9CHTO  H166 3472   6.453   4.816   4.551 -1.6431 -0.2316  0.8929
    9CHTO   C93 3473   6.549   4.894   4.780 -0.7049  0.1952 -0.3119
    9CHTO  H180 3474   6.471   4.948   4.724  0.4129  1.4308 -0.7044
    9CHTO   N16 3475   6.650   4.998   4.803  0.3269  0.5727  0.4140
    9CHTO  H172 3476   6.607   5.089   4.843  3.2742  1.4513  1.6985
    9CHTO  H173 3477   6.723   4.969   4.878  0.1985 -3.0516 -0.8140
    9CHTO   C94 3478   6.495   4.845   4.921  0.3165 -0.1592 -0.0092
    9CHTO  H181 3479   6.569   4.850   5.001  0.7176 -0.7207 -0.3318
    9CHTO   O61 3480   6.466   4.704   4.914 -0.0059 -0.1460  0.3362
    9CHTO   C95 3481   6.582   4.622   4.898 -0.2925  0.0332  0.3793
    9CHTO  H182 3482   6.649   4.635   4.984  1.6232  1.2347 -1.2375
    9CHTO  C106 3483   6.538   4.475   4.891 -0.0545 -0.3250 -0.0900
    9CHTO   O69 3484   6.528   4.429   5.025  0.4316  0.5734 -0.6077
    9CHTO  H169 3485   6.613   4.434   5.064  0.1595 -2.1486  0.3820
    9CHTO   O63 3486   6.349   4.914   4.953  0.1912 -0.0867 -0.2811
    9CHTO   C96 3487   6.362   5.014   5.062  0.0394  0.0742 -0.3846
    9CHTO  H183 3488   6.443   5.081   5.032  0.6355 -0.5801 -0.2434
    9CHTO   C98 3489   6.401   4.940   5.194 -0.0733 -0.5743  0.2307
    9CHTO  H185 3490   6.478   4.863   5.178  0.4876  0.1601 -0.6572
    9CHTO   O67 3491   6.462   5.038   5.272  0.2359 -0.2273  0.1052
    9CHTO  H167 3492   6.443   5.014   5.361  0.4868 -2.7730 -0.4847
    9CHTO  C102 3493   6.274   4.880   5.273  0.1344 -0.5534  0.6552
    9CHTO  H189 3494   6.311   4.866   5.375  1.8440 -1.7593 -0.1070
    9CHTO   N18 3495   6.224   4.750   5.227 -0.2751  0.0694 -0.3848
    9CHTO  H176 3496   6.150   4.701   5.288 -2.1265  0.4796 -2.2480
    9CHTO  H177 3497   6.310   4.686   5.212 -0.2868  0.4764 -2.2589
    9CHTO  C105 3498   6.158   4.980   5.286  1.0300  1.0072 -0.5636
    9CHTO  H192 3499   6.067   4.937   5.246  0.3426  0.2807  1.7069
    9CHTO   O65 3500   6.184   5.100   5.218  0.7948 -0.1829 -0.3560
    9CHTO  C100 3501   6.226   5.090   5.079  0.1011 -0.1297  0.0298
    9CHTO  H187 3502   6.145   5.042   5.022  0.9373 -0.4076 -0.9217
    9CHTO  C107 3503   6.246   5.228   5.015 -0.4170  0.6254  0.3149
    9CHTO   O70 3504   6.314   5.319   5.096  0.1291  0.7096 -0.2549
    9CHTO  H170 3505   6.242   5.367   5.133  0.1323  0.7866 -0.3500
    9CHTO   O57 3506   6.127   5.007   5.439 -0.6811  0.3140  0.5432
    9CHTO   C85 3507   6.001   5.049   5.482  1.1383  0.2934  0.4273
    9CHTO  H157 3508   5.934   4.970   5.442 -0.2117  2.7079 -2.2840
    9CHTO   C83 3509   5.956   5.179   5.415  0.6265  0.1813  0.1438
    9CHTO  H155 3510   5.946   5.161   5.308 -1.4815 -0.6434  0.4497
    9CHTO   O56 3511   6.054   5.285   5.426 -0.4433 -0.1796  0.1954
    9CHTO  H135 3512   6.023   5.373   5.418  1.3981  0.5188  0.4810
    9CHTO   C81 3513   5.815   5.213   5.475  0.3507 -0.3892 -0.7119
    9CHTO  H153 3514   5.747   5.130   5.457 -1.3831  0.7050  0.6693
    9CHTO   N14 3515   5.748   5.328   5.402  0.1987  1.0355 -0.6673
    9CHTO  H141 3516   5.796   5.422   5.417  0.0448  1.0592 -0.3322
    9CHTO  H142 3517   5.747   5.295   5.300  0.6113 -2.8521  0.4886
    9CHTO   C79 3518   5.825   5.235   5.632 -0.1116  0.0756  0.1359
    9CHTO  H151 3519   5.725   5.263   5.665 -0.4619  0.6635 -1.3762
    9CHTO   O52 3520   5.865   5.107   5.692 -0.1974 -0.2375  0.0091
    9CHTO   C86 3521   5.996   5.058   5.637  0.0696  0.2465 -0.1090
    9CHTO  H158 3522   6.078   5.118   5.682  3.5548 -2.7863 -2.0482
    9CHTO   C90 3523   6.016   4.908   5.686  0.1653  0.4172 -0.7742
    9CHTO   O60 3524   6.050   4.915   5.828  0.2031  0.1503 -0.6129
    9CHTO  H138 3525   6.039   4.834   5.874 -2.4813  1.0059  0.2918
    9CHTO   O50 3526   5.917   5.337   5.670  0.4220 -0.4018  0.1010
    9CHTO   C73 3527   5.944   5.463   5.733 -0.5893 -0.1082 -0.0268
    9CHTO  H145 3528   5.882   5.474   5.823 -1.2257  1.0984 -0.6080
    9CHTO   C74 3529   5.907   5.583   5.642  0.3867 -0.2840 -0.7642
    9CHTO  H146 3530   5.801   5.568   5.615  0.2375  0.8517 -0.8436
    9CHTO   O54 3531   5.910   5.706   5.716 -0.1334  0.4809 -0.2138
    9CHTO  H133 3532   5.887   5.787   5.674  0.1461  0.1645 -0.9905
    9CHTO   C75 3533   5.996   5.590   5.512 -0.0251  0.0814 -0.1701
    9CHTO  H147 3534   5.967   5.499   5.456 -0.2106 -0.4400  0.7621
    9CHTO   N13 3535   5.985   5.703   5.415  0.1157  0.5025 -0.3596
    9CHTO  H139 3536   5.885   5.745   5.413 -0.1438 -0.1566 -1.2280
    9CHTO  H140 3537   6.055   5.782   5.439  0.1248  0.2193  0.5593
    9CHTO   C76 3538   6.153   5.570   5.543  0.0227  1.1659 -0.6118
    9CHTO  H148 3539   6.203   5.664   5.570  0.8568 -0.0617  2.3700
    9CHTO   O49 3540   6.169   5.473   5.647  0.8255  0.1122  0.2799
    9CHTO   C77 3541   6.090   5.484   5.762  0.5623  0.0140 -0.3854
    9CHTO  H149 3542   6.104   5.579   5.814 -0.5795  2.1009 -3.6893
    9CHTO   C88 3543   6.146   5.367   5.843 -0.5131  0.2846 -0.0143
    9CHTO   O58 3544   6.125   5.383   5.994 -0.2460 -0.1055 -0.2350
    9CHTO  H136 3545   6.189   5.336   6.042  0.8742  1.4906 -0.1371
    9CHTO   O51 3546   6.237   5.501   5.420 -0.3987  0.0666  0.0867
    9CHTO   C78 3547   6.369   5.528   5.411 -0.1170 -0.0723 -0.1899
    9CHTO  H150 3548   6.406   5.571   5.506  0.0584  0.6323 -0.5730
    9CHTO   C80 3549   6.392   5.634   5.295 -0.3962  0.1421 -0.4465
    9CHTO  H152 3550   6.341   5.608   5.200  0.2806 -1.4918 -0.3755
    9CHTO   O55 3551   6.344   5.756   5.348  0.4667  0.4242  0.5631
    9CHTO  H134 3552   6.261   5.774   5.309  1.5215  0.8101 -1.6202
    9CHTO   C84 3553   6.543   5.652   5.255  1.0977 -1.1149 -1.2330
    9CHTO  H156 3554   6.584   5.705   5.340 -0.1028  0.0691 -1.3800
    9CHTO   N15 3555   6.563   5.742   5.135  0.1558  0.4328 -0.4050
    9CHTO  H143 3556   6.659   5.728   5.089  0.7889 -2.5274  1.6734
    9CHTO  H144 3557   6.554   5.845   5.161  0.9565  1.2300 -3.1056
    9CHTO   C87 3558   6.622   5.520   5.245  0.4621  0.0483  0.3470
    9CHTO  H159 3559   6.596   5.467   5.153  0.5416 -1.6259  1.2639
    9CHTO   O53 3560   6.591   5.431   5.366 -0.2996  0.1513 -0.2480
    9CHTO   C82 3561   6.451   5.400   5.378  0.3417  0.1042 -0.4285
    9CHTO  H154 3562   6.429   5.342   5.288 -3.8804  0.5310  0.2213
    9CHTO   C89 3563   6.443   5.301   5.495 -0.5663  0.1868 -0.2829
    9CHTO   O59 3564   6.319   5.238   5.496  0.1224  0.3141  0.4109
    9CHTO  H137 3565   6.325   5.175   5.566 -1.4376  1.1277  1.2969
    9CHTO   O45 3566   6.782   5.554   5.243  0.0809 -0.1092 -1.1187
    9CHTO   C67 3567   6.854   5.438   5.266  0.1273 -0.1867  0.4352
    9CHTO  H124 3568   6.822   5.389   5.358 -1.9346 -1.2404 -0.7921
    9CHTO   C65 3569   6.837   5.327   5.149  0.4346  0.5039  0.2247
    9CHTO  H122 3570   6.832   5.383   5.055 -1.1083 -0.3773 -0.2336
    9CHTO   O44 3571   6.714   5.250   5.177 -0.2860 -0.2251 -0.0297
    9CHTO  H102 3572   6.711   5.228   5.268  1.2699 -0.9309 -0.1284
    9CHTO   C63 3573   6.967   5.232   5.138  0.0541 -0.6328  0.3189
    9CHTO  H120 3574   7.046   5.283   5.082 -1.6580 -0.1771 -1.7321
    9CHTO   N11 3575   6.951   5.110   5.046 -0.3237 -0.0411 -0.4824
    9CHTO  H108 3576   6.997   5.112   4.949  1.2098 -1.0333  0.2122
    9CHTO  H109 3577   6.851   5.071   5.053 -0.4018 -0.0368 -1.4748
    9CHTO   C61 3578   7.032   5.209   5.281 -0.7549 -0.2318 -0.0754
    9CHTO  H118 3579   7.123   5.148   5.268  0.6830  1.6600  0.9398
    9CHTO   O40 3580   7.077   5.340   5.335  0.5233 -0.1596  0.2132
    9CHTO   C68 3581   7.011   5.464   5.284  0.1467 -0.6914 -0.3070
    9CHTO  H125 3582   7.054   5.487   5.185  1.1136 -1.6783 -0.1243
    9CHTO   C72 3583   7.048   5.583   5.379  0.0632  0.1010  0.0590
    9CHTO   O48 3584   7.176   5.639   5.347  0.2180 -0.0916 -0.2762
    9CHTO  H105 3585   7.186   5.721   5.392 -0.4601 -0.3140  0.2994
    9CHTO   O38 3586   6.932   5.150   5.366 -0.2184  0.0161 -0.2986
    9CHTO   C55 3587   6.970   5.105   5.498 -0.0815  0.6032 -0.2241
    9CHTO  H112 3588   7.053   5.165   5.538  1.4507 -0.8057 -1.1980
    9CHTO   C56 3589   7.006   4.949   5.497 -0.1827 -0.8322 -0.3695
    9CHTO  H113 3590   6.917   4.892   5.464  0.1531 -0.9952 -1.0075
    9CHTO   O42 3591   7.110   4.922   5.401 -0.5925  0.1500 -0.3297
    9CHTO  H100 3592   7.079   4.916   5.313  0.0434  2.3762 -0.7149
    9CHTO   C57 3593   7.042   4.910   5.642  0.1592 -0.0789 -0.6217
    9CHTO  H114 3594   7.115   4.986   5.668 -0.6387  0.2066  0.8682
    9CHTO   N10 3595   7.086   4.773   5.657 -0.1072 -0.0047 -0.0120
    9CHTO  H106 3596   7.040   4.713   5.580 -1.3123  1.9596 -0.8498
    9CHTO  H107 3597   7.193   4.770   5.642 -0.0349 -0.2921  0.5152
    9CHTO   C58 3598   6.915   4.937   5.735 -0.3690 -0.3486 -0.0493
    9CHTO  H115 3599   6.831   4.873   5.701  0.4327 -2.1968  1.3799
    9CHTO   O37 3600   6.875   5.074   5.728 -0.1264 -0.3736 -0.0733
    9CHTO   C59 3601   6.852   5.128   5.599 -0.2426  0.2197 -0.0528
    9CHTO  H116 3602   6.757   5.089   5.563 -1.3215 -0.0628  2.9245
    9CHTO   C70 3603   6.825   5.279   5.621  0.5379  0.0693 -0.2325
    9CHTO   O46 3604   6.931   5.373   5.648  0.4860 -0.4878  0.6973
    9CHTO  H103 3605   6.933   5.378   5.742 -2.8690  2.0761  0.7356
    9CHTO   O39 3606   6.955   4.899   5.898  0.1412 -0.4560  0.6972
    9CHTO   C60 3607   6.851   4.842   5.981  0.2530  0.7706  0.2818
    9CHTO  H117 3608   6.763   4.903   5.960 -0.3217 -0.2400 -0.3199
    9CHTO   C62 3609   6.812   4.692   5.966 -0.4288  0.4293  0.0240
    9CHTO  H119 3610   6.776   4.674   5.862  1.3542 -2.5785 -0.1334
    9CHTO   O43 3611   6.933   4.617   5.982 -0.0383  0.1946  0.2468
    9CHTO  H101 3612   6.943   4.545   5.921 -1.9883  0.6303 -0.6294
    9CHTO   C66 3613   6.702   4.662   6.085 -0.2436  0.3252 -0.4091
    9CHTO  H123 3614   6.625   4.738   6.077  2.0175  2.6804 -0.6335
    9CHTO   N12 3615   6.647   4.524   6.079 -0.0003 -0.1609 -0.2431
    9CHTO  H110 3616   6.551   4.528   6.128  0.0861 -0.0377 -0.0855
    9CHTO  H111 3617   6.640   4.490   5.977 -0.1159 -2.0450  0.3788
    9CHTO   C69 3618   6.758   4.690   6.227  0.5827  0.1600 -0.1927
    9CHTO  H126 3619   6.839   4.616   6.244  0.9369  0.7871  0.9059
    9CHTO   O41 3620   6.797   4.847   6.235 -0.5360  0.1978 -0.0847
    9CHTO   C64 3621   6.897   4.885   6.124  0.2938 -0.6248  0.7712
    9CHTO  H121 3622   6.994   4.838   6.152  1.4419  0.3712 -1.4205
    9CHTO   C71 3623   6.913   5.040   6.132  0.2161  0.2595  0.2963
    9CHTO   O47 3624   7.037   5.082   6.063 -0.2802  0.4846  1.0419
    9CHTO  H104 3625   7.027   5.160   6.012 -1.0653 -0.9230 -1.0176
    9CHTO   O34 3626   6.656   4.661   6.346  0.1222 -0.5062 -0.4733
    9CHTO   C49 3627   6.609   4.667   6.487 -0.2737  0.0490 -0.5607
    9CHTO   H91 3628   6.501   4.683   6.484 -0.5375 -1.0124  1.9811
    9CHTO   C47 3629   6.667   4.789   6.561 -0.3340 -0.5065  0.2445
    9CHTO   H89 3630   6.619   4.796   6.661  1.5758  0.3267  1.1239
    9CHTO   O33 3631   6.645   4.912   6.489  0.2439 -0.3499  0.7163
    9CHTO   H70 3632   6.664   4.905   6.398  2.6471 -0.2713  1.1551
    9CHTO   C45 3633   6.829   4.761   6.583  0.5329 -0.1964 -0.3167
    9CHTO   H87 3634   6.889   4.809   6.505  1.3661  0.4731  0.7271
    9CHTO    N8 3635   6.867   4.820   6.711  0.4156  0.0294 -0.0992
    9CHTO   H75 3636   6.825   4.918   6.726 -0.9159 -0.7637  1.5262
    9CHTO   H76 3637   6.839   4.758   6.796  0.0295  0.0514 -0.2094
    9CHTO   C43 3638   6.864   4.602   6.568  0.0630  1.1384  0.2785
    9CHTO   H85 3639   6.865   4.578   6.462  3.1415  1.9211  0.0729
    9CHTO   O29 3640   6.764   4.528   6.635 -0.2999 -0.5415 -0.3404
    9CHTO   C50 3641   6.640   4.533   6.566  0.4887  0.2131  0.7892
    9CHTO   H92 3642   6.653   4.451   6.493 -0.3918  0.8304 -0.0667
    9CHTO   C54 3643   6.541   4.472   6.666  0.0954  0.0351 -0.2805
    9CHTO   O36 3644   6.518   4.556   6.786  0.1841  0.0624  0.0167
    9CHTO   H72 3645   6.587   4.566   6.849 -0.4294 -1.0857  0.8840
    9CHTO   O27 3646   6.999   4.576   6.610 -0.2519  0.2797  0.0861
    9CHTO   C37 3647   7.126   4.571   6.548 -0.2463 -0.1517  0.2220
    9CHTO   H79 3648   7.190   4.492   6.589 -0.7352 -0.8347 -0.3310
    9CHTO   C38 3649   7.116   4.548   6.397  0.5661  0.0243  0.3254
    9CHTO   H80 3650   7.041   4.616   6.355  1.2829  1.6814  1.6785
    9CHTO   O31 3651   7.065   4.416   6.377  0.1717  0.1317  0.1213
    9CHTO   H68 3652   7.104   4.371   6.304 -0.9788 -1.2322  0.3327
    9CHTO   C39 3653   7.252   4.576   6.323  0.4665 -1.2296  0.7359
    9CHTO   H81 3654   7.334   4.513   6.356  1.4326 -1.2111 -1.4803
    9CHTO    N7 3655   7.236   4.557   6.175  0.2788 -0.0605 -0.6246
    9CHTO   H73 3656   7.210   4.454   6.156  0.0482 -0.3425  1.0878
    9CHTO   H74 3657   7.312   4.591   6.106 -0.0402  2.0129  0.0156
    9CHTO   C40 3658   7.297   4.725   6.359  0.1744 -0.1087  0.2971
    9CHTO   H82 3659   7.214   4.788   6.328  0.8705  1.1748  1.0190
    9CHTO   O26 3660   7.320   4.730   6.501  0.1563 -0.0913  0.6111
    9CHTO   C41 3661   7.197   4.709   6.582 -0.0582  0.2413  0.2544
    9CHTO   H83 3662   7.136   4.799   6.565 -0.4040 -0.0088  0.1620
    9CHTO   C52 3663   7.245   4.714   6.732 -0.5227 -0.3099 -0.0067
    9CHTO   O35 3664   7.272   4.840   6.790  0.0293 -0.7022 -0.3352
    9CHTO   H71 3665   7.335   4.828   6.859  2.1917 -0.4274 -2.2216
    9CHTO   O28 3666   7.416   4.759   6.297  0.0070 -0.2830 -0.2134
    9CHTO   C42 3667   7.467   4.901   6.295  0.4878  0.3299 -0.7182
    9CHTO   H84 3668   7.564   4.903   6.245  1.1871 -0.0886  0.5866
    9CHTO   C44 3669   7.492   4.971   6.431  0.5200 -0.3347  0.1559
    9CHTO   H86 3670   7.400   4.978   6.489  2.4935  0.7016  3.3084
    9CHTO   O32 3671   7.583   4.886   6.499  0.7964 -0.5992 -0.0474
    9CHTO   H69 3672   7.534   4.834   6.559  0.9107 -0.5431  0.0942
    9CHTO   C48 3673   7.543   5.122   6.399  0.3266 -0.0323 -0.2818
    9CHTO   H90 3674   7.635   5.117   6.339  1.3256  0.0177  1.2160
    9CHTO    N9 3675   7.563   5.207   6.529 -0.0751 -0.3194  0.1973
    9CHTO   H77 3676   7.492   5.202   6.609  0.1651 -0.4263  0.4018
    9CHTO   H78 3677   7.665   5.190   6.562 -0.7987  1.1303  3.3061
    9CHTO   C51 3678   7.432   5.197   6.316  0.8739 -0.1104  0.4019
    9CHTO   H93 3679   7.337   5.177   6.367 -0.5508  0.9225 -1.7325
    9CHTO   O30 3680   7.435   5.134   6.189  0.3096  0.2133 -0.0321
    9CHTO   C46 3681   7.362   4.992   6.212 -0.4009  0.1668 -0.5528
    9CHTO   H88 3682   7.264   4.997   6.259 -1.3354 -0.3574 -2.3832
    9CHTO   C53 3683   7.326   4.940   6.070 -0.3469 -0.0999  0.4033
    9CHTO   O72 3684   7.437   4.923   5.988 -0.5872 -0.0410 -0.2681
    9CHTO  H199 3685   7.494   4.863   6.033 -1.0665  0.5832  1.2201
    9CHTO   O22 3686   7.439   5.345   6.294 -0.2512  0.8022 -0.5222
    9CHTO   C31 3687   7.325   5.429   6.276 -0.5799 -0.7906  0.0523
    9CHTO   H59 3688   7.355   5.536   6.277  0.3017 -0.9007 -4.1482
    9CHTO   C29 3689   7.273   5.406   6.130 -0.0136 -0.7812 -0.5943
    9CHTO   H57 3690   7.274   5.296   6.122  0.5087 -0.7150 -1.4822
    9CHTO   O21 3691   7.360   5.458   6.027  0.1808  0.0138 -0.5130
    9CHTO   H37 3692   7.382   5.393   5.963 -1.1107  0.2700 -1.2396
    9CHTO   C27 3693   7.130   5.466   6.104  0.0794  1.0434  0.4270
    9CHTO   H55 3694   7.146   5.575   6.099  1.1925  0.9202  1.2445
    9CHTO    N5 3695   7.070   5.418   5.974 -0.1069 -0.6289 -0.4979
    9CHTO   H43 3696   7.153   5.413   5.905  1.1766 -1.2505  1.0628
    9CHTO   H44 3697   7.003   5.496   5.939  0.4707  0.1017  0.0083
    9CHTO   C25 3698   7.036   5.444   6.224 -0.2661 -0.0882 -0.4596
    9CHTO   H53 3699   7.020   5.336   6.233 -0.5273  0.0183  0.3693
    9CHTO   O17 3700   7.096   5.492   6.345  0.4442 -0.4474  0.1459
    9CHTO   C32 3701   7.208   5.417   6.375  0.1114  0.1278 -0.6559
    9CHTO   H60 3702   7.188   5.310   6.382 -2.8489  0.7100  0.4251
    9CHTO   C36 3703   7.252   5.455   6.521  0.3843 -0.0800  0.1322
    9CHTO   O25 3704   7.156   5.409   6.617  0.3955  0.0767  0.5109
    9CHTO   H40 3705   7.203   5.425   6.697  1.9037  0.5703 -0.4594
    9CHTO   O15 3706   6.890   5.522   6.208 -0.4906 -0.6295 -0.2845
    9CHTO   C19 3707   6.760   5.476   6.180 -0.5088  0.4018 -0.4169
    9CHTO   H47 3708   6.710   5.572   6.202  0.1195  0.8740 -1.0200
    9CHTO   C20 3709   6.731   5.442   6.027  0.4067 -0.3081 -0.1896
    9CHTO   H48 3710   6.792   5.357   5.991 -0.0616 -1.3961  1.5215
    9CHTO   O19 3711   6.759   5.560   5.951 -0.8378  0.3016 -0.3889
    9CHTO   H35 3712   6.786   5.542   5.863  1.3395 -0.2140  0.3392
    9CHTO   C21 3713   6.580   5.414   6.015 -0.6305  0.2540 -0.6373
    9CHTO   H49 3714   6.521   5.502   6.043 -1.4181 -0.3128 -0.4917
    9CHTO    N4 3715   6.541   5.377   5.872  0.0604 -0.0818 -0.0164
    9CHTO   H41 3716   6.579   5.452   5.803 -0.9041  0.3005 -0.1311
    9CHTO   H42 3717   6.435   5.396   5.876 -0.3543 -1.7783 -2.1933
    9CHTO   C22 3718   6.538   5.300   6.117 -0.3873 -0.3212 -0.4053
    9CHTO   H50 3719   6.596   5.210   6.097  0.5621 -0.1271  1.3085
    9CHTO   O14 3720   6.566   5.345   6.251 -0.1449 -0.1310 -0.3662
    9CHTO   C23 3721   6.702   5.370   6.278  0.2131 -0.1063  0.0427
    9CHTO   H51 3722   6.753   5.273   6.269  1.3602  0.4504  0.4271
    9CHTO   C34 3723   6.714   5.416   6.421 -0.0822  0.4084  0.1528
    9CHTO   O23 3724   6.758   5.309   6.506 -0.5027 -0.5228  0.1362
    9CHTO   H38 3725   6.726   5.327   6.592 -0.7355 -0.1705 -0.0220
    9CHTO   O16 3726   6.397   5.265   6.109  0.4384 -0.1351 -0.3813
    9CHTO   C24 3727   6.357   5.153   6.208 -0.2598  0.8098  0.2449
    9CHTO   H52 3728   6.424   5.148   6.294 -1.3128  0.5877  1.0526
    9CHTO   C26 3729   6.357   5.019   6.136 -0.1649  0.0768 -0.3153
    9CHTO   H54 3730   6.294   5.032   6.046  0.6460 -0.0458 -0.9118
    9CHTO   O20 3731   6.490   4.980   6.090  0.0500  0.1139  0.7578
    9CHTO   H36 3732   6.477   4.938   6.007  0.5923 -0.4456  0.9486
    9CHTO   C30 3733   6.298   4.904   6.221  0.3846 -0.4253  0.2391
    9CHTO   H58 3734   6.374   4.880   6.297 -0.0960 -1.6919  0.3330
    9CHTO    N6 3735   6.274   4.779   6.152 -0.8312 -0.0590  0.0657
    9CHTO   H45 3736   6.170   4.749   6.147 -0.7077 -0.4981  0.2097
    9CHTO   H46 3737   6.316   4.792   6.053 -3.7012 -1.7961 -1.4738
    9CHTO   C33 3738   6.169   4.945   6.304 -0.1777 -0.1262 -0.1654
    9CHTO   H61 3739   6.086   4.945   6.231 -0.2824  0.2396 -0.0448
    9CHTO   O18 3740   6.186   5.071   6.360  0.1217  0.0247 -0.5710
    9CHTO   C28 3741   6.216   5.174   6.262  0.2910  0.3083  0.3567
    9CHTO   H56 3742   6.147   5.162   6.178  1.4175 -2.6378 -0.2246
    9CHTO   C35 3743   6.201   5.314   6.333  0.2994  0.2050 -0.2388
    9CHTO   O24 3744   6.074   5.328   6.396 -0.1015  0.0596 -0.0236
    9CHTO   H39 3745   6.084   5.366   6.482 -0.3248  1.3846 -0.5665
    9CHTO    O9 3746   6.136   4.848   6.405 -0.4204 -0.8396 -0.2623
    9CHTO   C13 3747   5.978   4.810   6.398 -0.2602 -0.2016 -0.4017
    9CHTO   H26 3748   5.951   4.788   6.293 -1.6654  0.3014 -0.1585
    9CHTO   C11 3749   5.897   4.938   6.454  0.0930 -0.0845  0.8134
    9CHTO   H24 3750   5.880   5.006   6.369  1.0340 -1.3551 -0.4102
    9CHTO    O8 3751   5.981   5.007   6.555  0.4584  0.5489 -0.2190
    9CHTO    H3 3752   5.973   4.982   6.645 -0.4690 -0.7856 -0.6545
    9CHTO    C9 3753   5.765   4.890   6.526  0.1534  0.0805  0.1128
    9CHTO   H22 3754   5.711   4.837   6.446  2.1174 -1.7129 -0.0747
    9CHTO    N2 3755   5.669   5.000   6.564 -0.0822 -0.1276  0.2697
    9CHTO   H10 3756   5.659   5.090   6.506 -2.0276  0.5905  1.6505
    9CHTO   H11 3757   5.586   4.970   6.627  0.0361 -0.9951  0.0264
    9CHTO    C7 3758   5.807   4.786   6.640 -0.4549 -0.4298  0.2534
    9CHTO   H20 3759   5.717   4.730   6.675  0.4770 -2.7854 -1.0398
    9CHTO    O4 3760   5.913   4.698   6.609 -0.6041  0.6946  0.5400
    9CHTO   C14 3761   5.949   4.675   6.471  0.2336  0.0544 -0.3986
    9CHTO   H27 3762   5.857   4.633   6.426 -0.1992  1.5353 -0.9266
    9CHTO   C18 3763   6.062   4.562   6.463 -0.3345 -0.2321 -0.0544
    9CHTO   O13 3764   6.168   4.590   6.558  0.1673 -0.2228  0.2413
    9CHTO    H7 3765   6.128   4.579   6.642 -0.6657  0.2781 -0.0726
    9CHTO    O2 3766   5.858   4.868   6.772  0.1574  0.2027 -0.0791
    9CHTO    C1 3767   5.887   4.795   6.894  0.1467  0.8085 -0.3844
    9CHTO   H14 3768   5.876   4.686   6.875 -1.1921  0.5671  1.5957
    9CHTO    C2 3769   5.791   4.834   7.012  0.1321  0.6630  0.0216
    9CHTO   H15 3770   5.777   4.942   7.002  0.1660  0.6016 -0.7299
    9CHTO    O6 3771   5.668   4.778   6.967  0.2368  0.2154  0.5127
    9CHTO    H1 3772   5.604   4.801   7.032  0.4436 -0.5777  0.9973
    9CHTO    C3 3773   5.833   4.786   7.160 -0.0704 -0.1834 -0.6272
    9CHTO   H16 3774   5.821   4.678   7.174  2.0498 -0.3304  0.2226
    9CHTO    N1 3775   5.748   4.843   7.275 -0.0578 -0.7139 -0.0294
    9CHTO    H8 3776   5.729   4.772   7.355  0.3911 -2.8214 -1.7552
    9CHTO    H9 3777   5.655   4.883   7.236 -0.0578 -0.5656  0.1195
    9CHTO    C4 3778   5.992   4.809   7.175 -0.3808  0.7115 -0.1176
    9CHTO   H17 3779   6.010   4.916   7.186 -2.1298  1.0513 -0.4209
    9CHTO    O1 3780   6.060   4.756   7.061 -0.0983  0.2373 -0.2349
    9CHTO    C5 3781   6.034   4.824   6.939 -0.5215  0.1031  0.5239
    9CHTO   H18 3782   6.044   4.931   6.958 -2.7259  0.6460 -1.1779
    9CHTO   C16 3783   6.145   4.781   6.846 -0.2844 -0.5681  0.1628
    9CHTO   O11 3784   6.241   4.887   6.811 -0.3965  0.2047  1.2734
    9CHTO    H5 3785   6.324   4.872   6.852  0.3046  0.5524 -0.0105
    9CHTO    O3 3786   6.044   4.747   7.297  1.1310 -0.1151 -0.1907
    9CHTO    C6 3787   6.176   4.769   7.346 -0.4131  0.1652 -0.1321
    9CHTO   H19 3788   6.244   4.820   7.277 -0.2958 -2.0077 -1.6754
    9CHTO    C8 3789   6.180   4.865   7.470 -0.2513 -0.1834 -0.5103
    9CHTO   H21 3790   6.105   4.840   7.545  2.0270 -0.1787  1.8263
    9CHTO    O7 3791   6.152   4.997   7.411 -0.7307  0.2225 -0.2536
    9CHTO    H2 3792   6.117   5.055   7.476  0.8587 -0.1237  0.9750
    9CHTO   C12 3793   6.325   4.880   7.540  0.4553  0.1634  0.3553
    9CHTO   H25 3794   6.386   4.938   7.468  0.7891 -0.4472  0.1405
    9CHTO    N3 3795   6.334   4.974   7.662 -0.1980  0.1547 -0.1480
    9CHTO   H12 3796   6.350   5.078   7.640  1.2078 -0.4501 -2.1278
    9CHTO   H13 3797   6.245   4.964   7.722  0.3707 -1.1718  0.5107
    9CHTO   C15 3798   6.382   4.737   7.561 -0.0349 -0.1545 -0.0157
    9CHTO   H28 3799   6.333   4.673   7.633  0.9659 -0.6269  0.2479
    9CHTO   O10 3800   6.528   4.749   7.583  0.0110  0.4588 -0.0983
    9CHTO    H4 3801   6.537   4.769   7.675  0.8051 -0.5527  0.0491
    9CHTO    O5 3802   6.390   4.673   7.432  0.0250 -0.0288 -0.2273
    9CHTO   C10 3803   6.255   4.637   7.387  0.2365 -0.2367 -0.0672
    9CHTO   H23 3804   6.205   4.582   7.467  1.0026  0.5315  0.9432
    9CHTO   C17 3805   6.263   4.534   7.269  0.1403 -0.1787  0.5752
    9CHTO   O12 3806   6.355   4.573   7.165  0.2649 -0.6900 -0.9053
    9CHTO    H6 3807   6.442   4.591   7.194  0.1250  1.6677 -1.8617
   10CHTO  H203 3808   6.242   6.920   6.574  0.9235 -1.6851 -0.2982
   10CHTO   O82 3809   6.196   6.921   6.492  0.0958 -0.2468  0.1662
   10CHTO  C123 3810   6.058   6.956   6.523 -0.5992  0.0962  0.4440
   10CHTO  H227 3811   6.006   6.989   6.432 -1.9987  1.1138  1.5886
   10CHTO   O77 3812   5.989   6.841   6.578  0.0065 -0.6476  0.0585
   10CHTO  C118 3813   5.858   6.873   6.630  0.9359 -0.3476  0.2487
   10CHTO  H222 3814   5.803   6.918   6.546  1.2397  1.3429  0.9360
   10CHTO  C125 3815   5.786   6.736   6.665 -0.0717  0.3419 -0.3090
   10CHTO   O84 3816   5.861   6.652   6.757 -0.0254  0.4915  0.2975
   10CHTO  H205 3817   5.822   6.658   6.842  0.6426 -0.0083  0.6420
   10CHTO  C114 3818   5.872   6.955   6.758  0.4028 -0.1802  0.5923
   10CHTO  H218 3819   5.924   6.888   6.826  1.2712 -0.5878 -0.4432
   10CHTO  C116 3820   5.934   7.093   6.721 -0.2068  0.0291  0.2365
   10CHTO  H220 3821   5.857   7.157   6.674  0.9701  1.7018  0.5438
   10CHTO   O79 3822   5.963   7.161   6.838 -0.2086 -0.3900 -0.5733
   10CHTO  H201 3823   6.054   7.184   6.844  0.0284 -1.4030 -0.2169
   10CHTO  C120 3824   6.065   7.075   6.635 -0.2401  0.4272 -0.0897
   10CHTO  H224 3825   6.148   7.050   6.705 -0.5715  1.0294  0.5316
   10CHTO   N21 3826   6.109   7.200   6.573 -0.9382  0.2966  0.5576
   10CHTO  H211 3827   6.184   7.252   6.630 -0.1597 -0.4425  0.2308
   10CHTO  H212 3828   6.156   7.180   6.478 -3.3186  0.9229 -0.7845
   10CHTO   O75 3829   5.737   6.963   6.799 -0.3621  0.5230 -0.1849
   10CHTO  C112 3830   5.701   6.916   6.955 -0.0947 -0.0285  0.2096
   10CHTO  H216 3831   5.789   6.942   7.017  0.0320 -0.1129  0.0644
   10CHTO   O73 3832   5.678   6.774   6.949 -0.0184 -0.7820 -0.0059
   10CHTO  C113 3833   5.651   6.719   7.081 -0.2901 -0.4109 -0.5084
   10CHTO  H217 3834   5.730   6.743   7.155 -2.5341 -0.0396  1.8097
   10CHTO  C124 3835   5.646   6.570   7.065  0.1939 -0.3348 -0.2676
   10CHTO   O83 3836   5.768   6.512   7.025  0.1675 -0.1497 -0.0448
   10CHTO  H204 3837   5.772   6.423   7.055 -2.7267 -0.3199  0.0019
   10CHTO  C109 3838   5.517   6.782   7.134  0.1288  0.0700  0.0603
   10CHTO  H213 3839   5.441   6.754   7.059 -0.5066  1.5956  0.1175
   10CHTO  C110 3840   5.536   6.938   7.147  0.0426 -0.2837  0.9326
   10CHTO  H214 3841   5.611   6.961   7.223 -0.9579 -0.6825  2.0518
   10CHTO   O78 3842   5.413   6.995   7.195 -0.1211 -0.3042 -0.2003
   10CHTO  H200 3843   5.427   7.087   7.194  0.6484 -0.3696  2.3235
   10CHTO  C111 3844   5.581   6.995   7.015 -0.4131  0.3160 -0.9854
   10CHTO  H215 3845   5.504   6.976   6.939 -2.0552 -0.4388  0.8125
   10CHTO   N19 3846   5.605   7.143   7.015  0.1461  0.1087 -0.4368
   10CHTO  H207 3847   5.658   7.170   7.105  1.3788 -1.6655 -0.6153
   10CHTO  H208 3848   5.665   7.174   6.931  0.6410  1.7508  0.5020
   10CHTO   O74 3849   5.476   6.723   7.262 -0.3344 -0.0651  0.4778
   10CHTO  C115 3850   5.326   6.637   7.242 -0.2530  0.1026 -0.3147
   10CHTO  H219 3851   5.298   6.638   7.137  1.5735  2.6748 -0.8268
   10CHTO   O76 3852   5.334   6.493   7.274 -0.1185  0.6909 -0.0485
   10CHTO  C122 3853   5.336   6.472   7.419 -0.7964  0.1712  0.8724
   10CHTO  H226 3854   5.431   6.503   7.462  0.2345 -0.1597 -1.1222
   10CHTO  C126 3855   5.345   6.316   7.436  0.6016  0.7286 -0.0103
   10CHTO   O85 3856   5.308   6.268   7.569 -0.0487 -0.0635 -0.1903
   10CHTO  H206 3857   5.364   6.294   7.640  0.7744  0.0353 -0.8623
   10CHTO  C121 3858   5.210   6.525   7.494 -0.3189  0.6930  0.4137
   10CHTO  H225 3859   5.157   6.432   7.525 -1.5429  1.3358  0.2849
   10CHTO   O81 3860   5.245   6.572   7.625  0.1695  0.0997 -0.1790
   10CHTO  H202 3861   5.247   6.502   7.687  2.2267  2.1926  2.2261
   10CHTO  C119 3862   5.127   6.614   7.407  0.3953  0.2847 -0.5798
   10CHTO  H223 3863   5.077   6.549   7.335 -0.0839 -1.3553  1.2249
   10CHTO  C117 3864   5.215   6.720   7.331  0.7256 -0.3637 -0.4821
   10CHTO  H221 3865   5.282   6.785   7.388 -0.1972  0.4697 -0.3148
   10CHTO   N20 3866   5.141   6.816   7.240 -0.3882 -0.1935  0.4096
   10CHTO  H209 3867   5.184   6.915   7.248  0.7732 -0.4859 -1.7078
   10CHTO  H210 3868   5.130   6.783   7.138 -0.5607  0.5788  0.1766
   10CHTO   O80 3869   4.996   6.681   7.482  0.2974  0.1562  0.2164
   10CHTO  C103 3870   4.855   6.610   7.462  0.2403  0.3540  0.4086
   10CHTO  H190 3871   4.844   6.567   7.362 -2.6663  0.4431  0.6487
   10CHTO  C101 3872   4.811   6.491   7.559 -0.2523  0.4389  0.6275
   10CHTO  H188 3873   4.819   6.529   7.661 -1.5925 -1.0723  1.3218
   10CHTO   O68 3874   4.896   6.369   7.534 -0.0927  0.9258  0.2559
   10CHTO  H168 3875   4.875   6.303   7.597  0.5288  0.1605 -0.3406
   10CHTO   C99 3876   4.651   6.452   7.538 -0.8633 -0.2751  0.2694
   10CHTO  H186 3877   4.627   6.414   7.436  1.2827  0.2632 -0.4626
   10CHTO   N17 3878   4.599   6.335   7.626 -0.0977 -0.5061  0.1555
   10CHTO  H174 3879   4.601   6.247   7.563  0.2209  0.2855 -0.9487
   10CHTO  H175 3880   4.655   6.330   7.718 -0.1809  2.9169  0.4699
   10CHTO   C97 3881   4.566   6.579   7.559 -0.2563  0.2061  0.2232
   10CHTO  H184 3882   4.573   6.618   7.662 -0.8286 -0.0629  0.3615
   10CHTO   O64 3883   4.610   6.674   7.457 -0.0124  0.1867  0.2492
   10CHTO  C104 3884   4.744   6.723   7.472  0.5726 -0.2229  0.3069
   10CHTO  H191 3885   4.749   6.773   7.569  1.0050  0.3624 -0.0170
   10CHTO  C108 3886   4.785   6.824   7.362 -0.9335  0.1505  0.1953
   10CHTO   O71 3887   4.681   6.924   7.347 -0.3162  0.3462 -0.2290
   10CHTO  H171 3888   4.708   6.997   7.399 -1.2732 -0.0266  0.8237
   10CHTO   O62 3889   4.431   6.566   7.530  0.6598 -0.4012 -0.1976
   10CHTO   C91 3890   4.334   6.630   7.613  0.2787 -0.2482  0.1553
   10CHTO  H178 3891   4.368   6.606   7.714  2.1777 -2.4233 -0.9422
   10CHTO   C92 3892   4.196   6.571   7.581 -0.0087 -1.2257 -0.0437
   10CHTO  H179 3893   4.180   6.565   7.473  1.2234 -0.2119 -0.2893
   10CHTO   O66 3894   4.202   6.430   7.613  0.3443 -0.0490  0.1221
   10CHTO  H166 3895   4.212   6.417   7.706 -1.4484 -1.6286  0.1517
   10CHTO   C93 3896   4.075   6.629   7.663 -0.1006  0.0908  0.2051
   10CHTO  H180 3897   4.059   6.570   7.755 -0.3472 -1.0496 -0.5658
   10CHTO   N16 3898   3.946   6.609   7.594 -0.0294  0.3815  0.1878
   10CHTO  H172 3899   3.918   6.701   7.546 -1.4920  1.1782  2.4846
   10CHTO  H173 3900   3.873   6.574   7.666  0.1535  0.4493  0.4078
   10CHTO   C94 3901   4.106   6.774   7.707  0.3564  0.6767 -0.8073
   10CHTO  H181 3902   4.018   6.837   7.708  1.1018  1.7145  0.7053
   10CHTO   O61 3903   4.201   6.850   7.623  0.1941 -0.0170  0.0009
   10CHTO   C95 3904   4.326   6.789   7.600 -0.3420 -0.4334 -0.4564
   10CHTO  H182 3905   4.363   6.813   7.501  0.7739  1.3023  0.3481
   10CHTO  C106 3906   4.425   6.859   7.702 -0.4966 -0.6423 -0.5405
   10CHTO   O69 3907   4.449   6.986   7.646  0.2109 -0.9591  0.8447
   10CHTO  H169 3908   4.537   7.011   7.665 -1.0155  1.8712  3.0902
   10CHTO   O63 3909   4.166   6.763   7.860  0.3470 -0.2381  0.5794
   10CHTO   C96 3910   4.044   6.792   7.970 -0.4900  0.3809 -0.0160
   10CHTO  H183 3911   3.951   6.742   7.940  1.2240 -3.2430  0.4152
   10CHTO   C98 3912   4.005   6.943   8.005 -0.8705 -0.1074  0.5699
   10CHTO  H185 3913   3.961   6.999   7.921  0.9101 -1.1340 -1.0888
   10CHTO   O67 3914   3.904   6.928   8.102  0.4183 -0.2637 -0.2970
   10CHTO  H167 3915   3.831   6.985   8.114 -0.8127 -1.8120 -0.1953
   10CHTO  C102 3916   4.134   7.025   8.067 -0.1232 -0.3614  0.0710
   10CHTO  H189 3917   4.092   7.094   8.140  2.4315  0.2520  1.0304
   10CHTO   N18 3918   4.211   7.103   7.970  0.0406  0.5742 -0.3232
   10CHTO  H176 3919   4.250   7.037   7.894  2.6932  0.7393  0.8257
   10CHTO  H177 3920   4.296   7.144   8.023  0.2113  0.2092 -0.3168
   10CHTO  C105 3921   4.222   6.922   8.144 -0.3752 -0.8567 -0.8251
   10CHTO  H192 3922   4.293   6.872   8.078  2.4158  1.8831 -0.0061
   10CHTO   O65 3923   4.144   6.812   8.202  0.0473  0.8932  0.1299
   10CHTO  C100 3924   4.099   6.720   8.096 -0.3806 -0.8920 -0.9420
   10CHTO  H187 3925   4.190   6.659   8.086 -0.3052 -0.9734  0.1141
   10CHTO  C107 3926   4.009   6.619   8.164 -0.6330  0.0112  0.2716
   10CHTO   O70 3927   4.071   6.549   8.273 -0.4745  0.3748  0.1487
   10CHTO  H170 3928   4.135   6.486   8.246  1.6273  1.7647  1.7746
   10CHTO   O57 3929   4.297   7.006   8.267 -0.1059  1.2332  0.3959
   10CHTO   C85 3930   4.221   7.074   8.367  0.3541 -0.1017 -0.1210
   10CHTO  H157 3931   4.114   7.077   8.336  0.4043  0.1718 -0.2704
   10CHTO   C83 3932   4.270   7.225   8.354 -0.1756  0.4841 -0.1349
   10CHTO  H155 3933   4.267   7.251   8.248 -0.7984  0.8929 -0.0192
   10CHTO   O56 3934   4.410   7.216   8.392  0.0324 -0.1635  0.6468
   10CHTO  H135 3935   4.412   7.230   8.485 -0.2574 -0.4618  0.6987
   10CHTO   C81 3936   4.179   7.316   8.443  0.3716  0.3638  0.2340
   10CHTO  H153 3937   4.076   7.301   8.408  0.3255  0.5875  0.2712
   10CHTO   N14 3938   4.213   7.461   8.428  0.0549 -0.2360 -0.1597
   10CHTO  H141 3939   4.151   7.529   8.483 -0.0759  1.3818 -2.2562
   10CHTO  H142 3940   4.214   7.493   8.326 -0.1382  0.1090 -0.0540
   10CHTO   C79 3941   4.187   7.262   8.592 -1.1898 -0.4388  0.0086
   10CHTO  H151 3942   4.102   7.304   8.646 -1.7438 -0.8331 -0.5586
   10CHTO   O52 3943   4.173   7.115   8.611 -0.1421 -0.0264 -0.1125
   10CHTO   C86 3944   4.240   7.027   8.515 -0.0832  0.8889  0.1677
   10CHTO  H158 3945   4.347   7.033   8.544 -0.0661  1.9413 -0.0975
   10CHTO   C90 3946   4.206   6.878   8.530  0.1676  0.2321  0.0244
   10CHTO   O60 3947   4.244   6.826   8.659  0.2312  0.2030 -0.3584
   10CHTO  H138 3948   4.175   6.790   8.711  1.2012  1.2969  1.7534
   10CHTO   O50 3949   4.307   7.311   8.664  0.0568 -0.1036 -0.4861
   10CHTO   C73 3950   4.435   7.277   8.704 -0.2103 -0.3910  0.3526
   10CHTO  H145 3951   4.490   7.231   8.621  0.6070  1.2070 -0.0119
   10CHTO   C74 3952   4.418   7.182   8.832 -0.4384 -0.1636  0.0860
   10CHTO  H146 3953   4.356   7.101   8.790 -1.8871 -0.2155  2.2804
   10CHTO   O54 3954   4.544   7.128   8.873  0.7899 -0.0845 -0.0311
   10CHTO  H133 3955   4.566   7.167   8.955 -0.2249  0.2719  0.0820
   10CHTO   C75 3956   4.336   7.264   8.944 -0.0328 -0.0713  1.0781
   10CHTO  H147 3957   4.243   7.298   8.895  1.3662  0.4831 -1.2544
   10CHTO   N13 3958   4.300   7.190   9.065 -0.2922 -0.5944  0.1610
   10CHTO  H139 3959   4.380   7.134   9.110 -0.0719  0.3813  1.0004
   10CHTO  H140 3960   4.253   7.253   9.139  0.6775 -1.1091  1.2334
   10CHTO   C76 3961   4.425   7.387   8.984 -0.2033 -0.6553 -0.0942
   10CHTO  H148 3962   4.522   7.352   9.020  0.3183  0.2513 -0.5884
   10CHTO   O49 3963   4.457   7.468   8.867  0.5389  0.0481 -0.0637
   10CHTO   C77 3964   4.509   7.409   8.744  0.2007  0.7065  0.4547
   10CHTO  H149 3965   4.613   7.378   8.761  0.4912  0.9291 -0.8356
   10CHTO   C88 3966   4.512   7.510   8.631 -0.0853  0.0209 -0.0905
   10CHTO   O58 3967   4.621   7.635   8.642 -0.2177  0.5467  0.0485
   10CHTO  H136 3968   4.596   7.700   8.705 -2.3732 -1.1052  1.0062
   10CHTO   O51 3969   4.354   7.493   9.088 -0.0387 -0.1512  0.0455
   10CHTO   C78 3970   4.440   7.605   9.138 -0.3837  0.8328  0.2650
   10CHTO  H150 3971   4.532   7.616   9.078 -0.8582  1.4693 -0.3500
   10CHTO   C80 3972   4.476   7.570   9.285 -0.2867 -0.0236  0.0965
   10CHTO  H152 3973   4.380   7.542   9.333 -0.1195  2.2819  1.8369
   10CHTO   O55 3974   4.563   7.455   9.286 -0.1557  1.1693  0.0919
   10CHTO  H134 3975   4.541   7.400   9.213 -1.4838 -0.3167  1.5717
   10CHTO   C84 3976   4.548   7.695   9.361 -0.3542  0.2697  0.1638
   10CHTO  H156 3977   4.653   7.693   9.331 -0.1589  1.7051  0.7246
   10CHTO   N15 3978   4.550   7.674   9.506  0.1199  0.5416  0.2659
   10CHTO  H143 3979   4.455   7.694   9.551  0.1313  2.0056 -0.3403
   10CHTO  H144 3980   4.624   7.743   9.541 -0.1381  1.2267 -0.5155
   10CHTO   C87 3981   4.479   7.827   9.330 -0.5426 -0.0866 -0.0568
   10CHTO  H159 3982   4.388   7.844   9.386  0.5716  0.7992  1.5203
   10CHTO   O53 3983   4.456   7.845   9.179  0.0551  0.5799 -0.1291
   10CHTO   C82 3984   4.364   7.739   9.135 -0.8595 -0.5479  0.0607
   10CHTO  H154 3985   4.269   7.738   9.189 -3.3392  0.9612 -4.0442
   10CHTO   C89 3986   4.316   7.762   8.987  0.0349 -0.0084 -0.6525
   10CHTO   O59 3987   4.436   7.779   8.911  0.2809 -0.3320  0.0920
   10CHTO  H137 3988   4.411   7.776   8.820  2.4945  2.2447 -0.6584
   10CHTO   O45 3989   4.590   7.943   9.379  0.1027 -0.0699 -0.6238
   10CHTO   C67 3990   4.538   8.063   9.420 -0.7645 -0.3059  0.3990
   10CHTO  H124 3991   4.447   8.096   9.370  0.1639  3.5845  1.1061
   10CHTO   C65 3992   4.514   8.061   9.572 -0.1662  0.1493  0.0523
   10CHTO  H122 3993   4.456   7.969   9.580 -0.9018  0.3804 -2.2238
   10CHTO   O44 3994   4.430   8.171   9.608  0.5517  0.1385 -0.0298
   10CHTO  H102 3995   4.391   8.208   9.531 -3.5745 -1.6731  1.0467
   10CHTO   C63 3996   4.643   8.051   9.663 -0.5468  0.2126  0.2214
   10CHTO  H120 3997   4.694   7.958   9.640 -2.8415 -0.7267 -1.1984
   10CHTO   N11 3998   4.613   8.020   9.808 -0.4260 -0.0932 -0.4783
   10CHTO  H108 3999   4.573   8.105   9.860 -0.7887 -1.6051  1.7977
   10CHTO  H109 4000   4.689   7.984   9.874 -2.2053  1.9046  2.7714
   10CHTO   C61 4001   4.745   8.167   9.627 -0.2198  0.3583 -0.1458
   10CHTO  H118 4002   4.848   8.145   9.659  0.7264  1.2357 -2.5015
   10CHTO   O40 4003   4.756   8.192   9.481 -0.1043  0.5614  0.5902
   10CHTO   C68 4004   4.643   8.185   9.389  0.3081  0.3779  0.1116
   10CHTO  H125 4005   4.684   8.166   9.288 -0.3104  1.3569 -0.3318
   10CHTO   C72 4006   4.568   8.328   9.379 -0.5517 -0.5830  0.3829
   10CHTO   O48 4007   4.647   8.437   9.337 -0.5966  0.4481 -0.1174
   10CHTO  H105 4008   4.680   8.479   9.414  1.3957  0.3350 -0.8910
   10CHTO   O38 4009   4.699   8.288   9.695  0.6682 -0.1402 -0.0807
   10CHTO   C55 4010   4.804   8.366   9.764 -1.2163  0.8015  0.1067
   10CHTO  H112 4011   4.892   8.380   9.700 -2.1575  1.8229 -0.9987
   10CHTO   C56 4012   4.844   8.297   9.909  0.2864 -0.6631 -0.5922
   10CHTO  H113 4013   4.752   8.263   9.959  0.3750 -1.0082 -0.6606
   10CHTO   O42 4014   4.908   8.168   9.886 -0.3821  0.1413 -0.5115
   10CHTO  H100 4015   4.988   8.183   9.840 -0.6397 -0.5577 -1.1850
   10CHTO   C57 4016   4.920   8.397  10.006  0.4412  0.2182 -0.0218
   10CHTO  H114 4017   5.026   8.386   9.981  0.8835  1.5261  1.1968
   10CHTO   N10 4018   4.906   8.363  10.148  0.2320 -0.3541  0.2195
   10CHTO  H106 4019   4.986   8.294  10.170 -1.3772 -2.2717  0.2105
   10CHTO  H107 4020   4.928   8.457  10.197 -2.8334  0.6945 -0.3402
   10CHTO   C58 4021   4.884   8.549   9.986 -0.1834 -0.4255 -0.4804
   10CHTO  H115 4022   4.803   8.584  10.054  1.0191 -0.2057  0.8594
   10CHTO   O37 4023   4.856   8.588   9.846  0.3124  0.5368 -0.1600
   10CHTO   C59 4024   4.751   8.507   9.790  0.3350 -0.9686 -0.3212
   10CHTO  H116 4025   4.662   8.510   9.853 -0.6219  1.2671 -1.7138
   10CHTO   C70 4026   4.705   8.566   9.655 -0.1502 -0.2037  0.2736
   10CHTO   O46 4027   4.615   8.679   9.665 -0.1468  0.5398 -0.4691
   10CHTO  H103 4028   4.574   8.701   9.583  1.7041 -2.3950 -2.2666
   10CHTO   O39 4029   5.004   8.639  10.013 -0.2862  0.8509 -0.3195
   10CHTO   C60 4030   4.991   8.754  10.095 -0.0842 -0.5417  0.5572
   10CHTO  H117 4031   4.894   8.797  10.071  0.2527 -0.2726 -0.3459
   10CHTO   C62 4032   5.008   8.725  10.244  0.4407  0.0093  1.0233
   10CHTO  H119 4033   4.925   8.653  10.260  0.4105 -0.3802 -0.7416
   10CHTO   O43 4034   5.135   8.659  10.259  0.1825 -0.4826 -0.3521
   10CHTO  H101 4035   5.207   8.716  10.279 -0.7386 -0.0806  2.0015
   10CHTO   C66 4036   4.984   8.859  10.332 -0.1977 -0.1239  0.0799
   10CHTO  H123 4037   4.881   8.896  10.324  0.0840  0.4617 -0.9626
   10CHTO   N12 4038   4.996   8.834  10.476  0.1603  0.1446  0.1469
   10CHTO  H110 4039   4.956   8.739  10.508  0.4249 -1.0064 -2.8238
   10CHTO  H111 4040   4.952   8.907  10.542  2.7834  1.1850  0.8308
   10CHTO   C69 4041   5.083   8.967  10.282  0.4932 -0.4192 -0.2819
   10CHTO  H126 4042   5.190   8.941  10.297  0.2219 -1.2547  0.2352
   10CHTO   O41 4043   5.066   8.988  10.136  0.3982  0.0674 -0.4899
   10CHTO   C64 4044   5.091   8.855  10.044  0.0027 -0.1722 -0.6475
   10CHTO  H121 4045   5.196   8.824  10.062 -0.0060  0.7094  0.9934
   10CHTO   C71 4046   5.067   8.894   9.899  0.4828  0.0782 -0.7148
   10CHTO   O47 4047   4.947   8.968   9.873  0.2538 -0.2737  0.4191
   10CHTO  H104 4048   4.971   9.044   9.823  1.9080 -1.1618 -0.1649
   10CHTO   O34 4049   5.061   9.093  10.351  0.1967  0.0974  0.1387
   10CHTO   C49 4050   5.175   9.195  10.424  0.4151  0.1457 -0.3190
   10CHTO   H91 4051   5.253   9.128  10.459  0.0348  0.9996  2.3113
   10CHTO   C47 4052   5.098   9.254  10.546  0.3730  0.5491  1.1531
   10CHTO   H89 4053   5.178   9.311  10.597  1.0256 -0.7579  1.5842
   10CHTO   O33 4054   5.067   9.142  10.631 -0.1269  0.0102  0.2954
   10CHTO   H70 4055   5.039   9.174  10.715  2.3903  0.5064  0.9828
   10CHTO   C45 4056   4.988   9.349  10.483  0.3075  0.1397  0.1306
   10CHTO   H87 4057   4.920   9.295  10.416  0.2859  0.6530 -0.2649
   10CHTO    N8 4058   4.907   9.410  10.593 -0.2225  0.4910 -0.0750
   10CHTO   H75 4059   4.828   9.474  10.557  1.3893  3.1350  1.0019
   10CHTO   H76 4060   4.881   9.346  10.676  1.2641 -0.3235 -0.2274
   10CHTO   C43 4061   5.045   9.465  10.388  0.1215  0.4493 -0.3731
   10CHTO   H85 4062   4.955   9.513  10.349  0.1628  0.3425 -0.5968
   10CHTO   O29 4063   5.120   9.401  10.286  0.1203  0.1006  0.4117
   10CHTO   C50 4064   5.219   9.304  10.321 -0.0250 -0.3473 -0.5374
   10CHTO   H92 4065   5.240   9.250  10.227  2.3963  0.8774 -0.7323
   10CHTO   C54 4066   5.358   9.379  10.349  0.2445 -0.1737  0.5970
   10CHTO   O36 4067   5.410   9.425  10.225 -0.0161  0.4298 -0.5615
   10CHTO   H72 4068   5.442   9.512  10.240  0.3439 -0.2159  2.8030
   10CHTO   O27 4069   5.123   9.562  10.463  0.5241 -0.6781 -0.3543
   10CHTO   C37 4070   5.155   9.701  10.476  0.5919  0.2614 -0.1402
   10CHTO   H79 4071   5.226   9.717  10.393  0.3949  0.1363 -0.3310
   10CHTO   C38 4072   5.043   9.807  10.461 -0.1040  0.9112 -0.6471
   10CHTO   H80 4073   4.961   9.780  10.529  0.6324 -0.7326 -0.4031
   10CHTO   O31 4074   4.978   9.787  10.331  0.0558  0.2555 -0.4888
   10CHTO   H68 4075   4.937   9.703  10.342 -0.8223  0.8064  0.4641
   10CHTO   C39 4076   5.092   9.957  10.482 -0.5815  0.3590 -0.2528
   10CHTO   H81 4077   5.154   9.976  10.395  0.1167  0.5100  0.2717
   10CHTO    N7 4078   4.989  10.064  10.480 -0.6206 -0.0993 -0.6784
   10CHTO   H73 4079   5.032  10.163  10.490 -0.0683 -0.3609 -0.3756
   10CHTO   H74 4080   4.906  10.059  10.548  1.0337  1.2090  1.5298
   10CHTO   C40 4081   5.181   9.966  10.608 -0.0362 -0.9364 -0.0084
   10CHTO   H82 4082   5.113   9.956  10.693  0.0976 -1.0373  0.0867
   10CHTO   O26 4083   5.282   9.864  10.606  0.2008 -0.0466 -0.1509
   10CHTO   C41 4084   5.228   9.729  10.611  0.9578 -0.4720  0.3967
   10CHTO   H83 4085   5.155   9.718  10.692  0.7894 -0.2197  0.2795
   10CHTO   C52 4086   5.341   9.650  10.640  0.1715 -0.4372 -1.0256
   10CHTO   O35 4087   5.312   9.515  10.673 -0.1112  0.5732  0.2479
   10CHTO   H71 4088   5.364   9.460  10.730 -0.0918  2.1832  1.8134
   10CHTO   O28 4089   5.251  10.089  10.613 -0.1018 -0.1029 -0.0832
   10CHTO   C42 4090   5.317  10.158  10.727  0.3114  0.9619 -0.3644
   10CHTO   H84 4091   5.411  10.195  10.687  1.7099 -1.2432  0.7555
   10CHTO   C44 4092   5.352  10.080  10.851  0.1966 -0.5297 -0.0311
   10CHTO   H86 4093   5.265  10.027  10.890 -1.9441  1.2921 -2.0983
   10CHTO   O32 4094   5.446   9.982  10.804 -0.0232  0.3419  0.6680
   10CHTO   H69 4095   5.468   9.923  10.874 -0.0382  0.2996  0.6375
   10CHTO   C48 4096   5.415  10.162  10.968 -0.1226  0.2208 -0.6364
   10CHTO   H90 4097   5.515  10.183  10.931  0.5226 -1.0575  0.3907
   10CHTO    N9 4098   5.437  10.088  11.102  0.1533 -0.0469  0.3431
   10CHTO   H77 4099   5.345  10.088  11.158 -0.9107  2.0153 -1.2957
   10CHTO   H78 4100   5.512  10.131  11.167  1.0074  1.4117 -1.5344
   10CHTO   C51 4101   5.323  10.291  10.993 -0.5886  0.1080  0.3631
   10CHTO   H93 4102   5.226  10.259  11.032 -0.8618 -0.0116 -0.4054
   10CHTO   O30 4103   5.315  10.359  10.868  0.3681  0.0313 -0.1714
   10CHTO   C46 4104   5.231  10.287  10.767  0.1548 -0.0324  0.5172
   10CHTO   H88 4105   5.135  10.250  10.803 -1.4158  2.2899 -1.1244
   10CHTO   C53 4106   5.210  10.383  10.651  0.3766 -0.2488  0.0078
   10CHTO   O72 4107   5.113  10.488  10.679 -0.0236  0.5128  1.0014
   10CHTO  H199 4108   5.147  10.536  10.751  0.1945 -1.3641  2.1907
   10CHTO   O22 4109   5.379  10.387  11.085  0.0872  0.2435  0.2755
   10CHTO   C31 4110   5.305  10.475  11.167 -0.7727  0.2994 -0.3130
   10CHTO   H59 4111   5.201  10.484  11.131 -1.1437  0.3290  0.7339
   10CHTO   C29 4112   5.300  10.415  11.308  0.9950 -0.2629  0.4679
   10CHTO   H57 4113   5.402  10.386  11.337  0.4661 -1.5538  1.0910
   10CHTO   O21 4114   5.233  10.285  11.306 -0.0670  1.0189  0.3658
   10CHTO   H37 4115   5.186  10.280  11.225  2.3427 -0.8188 -0.9691
   10CHTO   C27 4116   5.237  10.505  11.423  0.4977 -0.0824  0.6296
   10CHTO   H55 4117   5.130  10.518  11.397  0.1398  0.4328  2.3299
   10CHTO    N5 4118   5.245  10.445  11.556  0.3084 -0.0290  0.1448
   10CHTO   H43 4119   5.234  10.338  11.550 -2.1124  0.2422 -0.7595
   10CHTO   H44 4120   5.330  10.480  11.612  1.7640 -1.2475 -1.2783
   10CHTO   C25 4121   5.304  10.644  11.410 -0.1897  0.3628  0.6664
   10CHTO   H53 4122   5.410  10.623  11.431  1.1136  1.5724 -4.0104
   10CHTO   O17 4123   5.296  10.707  11.277  0.0323  0.2594 -0.1169
   10CHTO   C32 4124   5.359  10.621  11.182  0.1436  0.1697  0.8978
   10CHTO   H60 4125   5.465  10.609  11.205  0.0530  0.4199  1.4400
   10CHTO   C36 4126   5.348  10.708  11.052  0.0181  0.1847 -0.6424
   10CHTO   O25 4127   5.433  10.658  10.944 -0.2839  0.5336  0.5121
   10CHTO   H40 4128   5.400  10.654  10.856  0.9815 -0.5865  0.0767
   10CHTO   O15 4129   5.230  10.733  11.517 -0.5742 -0.1261 -0.7296
   10CHTO   C19 4130   5.273  10.841  11.610  0.6638  0.3646 -0.2027
   10CHTO   H47 4131   5.331  10.796  11.691  0.0085 -0.4307 -0.1691
   10CHTO   C20 4132   5.358  10.945  11.538 -0.3999 -0.5431  0.0739
   10CHTO   H48 4133   5.300  11.000  11.464 -0.5832  1.6825  1.8158
   10CHTO   O19 4134   5.465  10.892  11.457  0.0532  0.3834 -0.3024
   10CHTO   H35 4135   5.481  10.804  11.483  1.8776 -0.3878 -3.6474
   10CHTO   C21 4136   5.408  11.050  11.648  0.1102 -0.4141 -0.2580
   10CHTO   H49 4137   5.462  10.997  11.727 -0.4010 -4.1328 -2.3145
   10CHTO    N4 4138   5.493  11.151  11.592 -0.1894 -0.2845 -0.2122
   10CHTO   H41 4139   5.586  11.109  11.555 -0.0329 -0.5651  0.4771
   10CHTO   H42 4140   5.514  11.225  11.669  0.2607 -1.1942  0.5544
   10CHTO   C22 4141   5.286  11.112  11.721  0.0741  0.4010  0.4542
   10CHTO   H50 4142   5.226  11.167  11.648  0.0989  0.4573  0.4766
   10CHTO   O14 4143   5.195  11.011  11.770  0.2388  0.3734 -0.6063
   10CHTO   C23 4144   5.150  10.913  11.669 -0.9063 -0.1344 -0.2532
   10CHTO   H51 4145   5.091  10.963  11.591 -3.2611  1.1750  2.3126
   10CHTO   C34 4146   5.063  10.807  11.732  0.0415  0.0475  0.2619
   10CHTO   O23 4147   4.963  10.852  11.827  0.2603 -0.0975  0.5377
   10CHTO   H38 4148   4.976  10.941  11.853  0.8054  0.7375 -2.3885
   10CHTO   O16 4149   5.326  11.186  11.842 -0.1157  0.3700  0.3213
   10CHTO   C24 4150   5.210  11.284  11.920 -0.2700  0.7175  0.0118
   10CHTO   H52 4151   5.109  11.247  11.904  0.7376 -2.1537  0.0867
   10CHTO   C26 4152   5.217  11.426  11.864 -0.1479 -0.8858  0.3596
   10CHTO   H54 4153   5.325  11.452  11.853 -0.0006 -1.6547 -0.1025
   10CHTO   O20 4154   5.171  11.422  11.727  0.0120  0.0464  0.5339
   10CHTO   H36 4155   5.141  11.504  11.695 -0.6075 -0.2769  0.2791
   10CHTO   C30 4156   5.137  11.527  11.949  0.4848 -0.5601 -0.6151
   10CHTO   H58 4157   5.027  11.516  11.947  0.2420  1.5177 -0.0650
   10CHTO    N6 4158   5.158  11.664  11.905 -0.0502 -0.2431  0.3213
   10CHTO   H45 4159   5.065  11.697  11.862  1.0521 -0.1892 -2.0692
   10CHTO   H46 4160   5.241  11.679  11.837 -0.1961  0.5725  0.3167
   10CHTO   C33 4161   5.164  11.500  12.102  0.1145  0.2663  0.5913
   10CHTO   H61 4162   5.267  11.533  12.123  1.4556 -1.7149 -2.6357
   10CHTO   O18 4163   5.150  11.359  12.138 -0.2115 -0.3433 -0.4591
   10CHTO   C28 4164   5.242  11.274  12.073  0.6575  0.3636 -0.2797
   10CHTO   H56 4165   5.346  11.300  12.090  1.0369 -1.4531  0.2772
   10CHTO   C35 4166   5.226  11.126  12.121 -0.2430 -0.0250  0.3443
   10CHTO   O24 4167   5.266  11.101  12.256 -0.0219 -0.5244 -0.1665
   10CHTO   H39 4168   5.241  11.014  12.282 -1.5339 -0.2176 -0.5480
   10CHTO    O9 4169   5.074  11.581  12.189  0.2740 -0.4376  0.3667
   10CHTO   C13 4170   5.110  11.569  12.346  0.2247 -0.5453 -0.7544
   10CHTO   H26 4171   5.159  11.471  12.362 -1.6907 -1.4193 -0.0730
   10CHTO   C11 4172   4.982  11.580  12.431  1.5816 -0.2673 -0.0743
   10CHTO   H24 4173   4.923  11.490  12.406 -0.3882  1.1365 -0.5597
   10CHTO    O8 4174   4.901  11.687  12.374 -0.2355 -0.1083 -0.6658
   10CHTO    H3 4175   4.874  11.666  12.287  0.0995  0.1489 -0.8335
   10CHTO    C9 4176   5.005  11.595  12.584 -0.1571 -0.2600  0.2285
   10CHTO   H22 4177   5.079  11.518  12.610  0.1679  0.1439  0.5147
   10CHTO    N2 4178   4.878  11.577  12.665 -0.1348  0.7167 -1.0263
   10CHTO   H10 4179   4.804  11.656  12.664 -1.2439 -0.3119 -2.7997
   10CHTO   H11 4180   4.911  11.553  12.765  1.3160 -1.4592 -1.9888
   10CHTO    C7 4181   5.083  11.733  12.605  0.3516 -0.0309 -0.0257
   10CHTO   H20 4182   5.143  11.714  12.696  1.7826 -2.0074 -1.3291
   10CHTO    O4 4183   5.173  11.765  12.492 -0.0399  0.0158  0.1916
   10CHTO   C14 4184   5.220  11.679  12.393  0.3734 -0.4532  0.2167
   10CHTO   H27 4185   5.308  11.624  12.431  1.0068  0.3588 -0.0742
   10CHTO   C18 4186   5.273  11.775  12.291  0.3648 -0.3388 -0.2849
   10CHTO   O13 4187   5.169  11.860  12.237  0.7533  0.2639  0.2431
   10CHTO    H7 4188   5.127  11.906  12.307  0.4886 -0.1288  0.3421
   10CHTO    O2 4189   4.979  11.857  12.622  0.2580 -0.2657  0.2588
   10CHTO    C1 4190   5.028  11.965  12.696  0.6824  0.6216 -0.4734
   10CHTO   H14 4191   5.138  11.963  12.714  0.3169 -2.0224  1.9298
   10CHTO    C2 4192   4.954  11.968  12.836  0.6449  0.3624  0.4267
   10CHTO   H15 4193   4.846  11.966  12.815  0.3243 -0.8219  2.1061
   10CHTO    O6 4194   4.993  11.847  12.907  0.4562  0.2090 -0.6084
   10CHTO    H1 4195   5.072  11.860  12.956  3.3586 -3.3677 -4.0830
   10CHTO    C3 4196   4.983  12.097  12.923 -0.4536 -0.1638 -0.1654
   10CHTO   H16 4197   5.089  12.088  12.951 -0.4373 -1.5725 -0.6559
   10CHTO    N1 4198   4.896  12.105  13.045  0.9709 -0.2753 -0.3235
   10CHTO    H8 4199   4.803  12.153  13.020  1.3509  0.1605 -0.9179
   10CHTO    H9 4200   4.886  12.003  13.080  2.0978 -1.3106 -2.8637
   10CHTO    C4 4201   4.977  12.227  12.834 -0.0351 -0.3381  0.2936
   10CHTO   H17 4202   4.875  12.258  12.815 -0.0442  0.1717  1.1029
   10CHTO    O1 4203   5.046  12.216  12.708 -0.2721  0.2227 -0.0848
   10CHTO    C5 4204   4.995  12.102  12.629 -0.1796  0.2572 -1.1715
   10CHTO   H18 4205   4.888  12.121  12.618  0.1360  1.3921 -2.4541
   10CHTO   C16 4206   5.066  12.105  12.493  0.3311  0.1771 -0.1358
   10CHTO   O11 4207   5.047  12.224  12.416 -0.2469  0.5007  0.6012
   10CHTO    H5 4208   5.056  12.203  12.325 -1.1259  0.4043  0.5318
   10CHTO    O3 4209   5.042  12.337  12.909  0.5436 -0.3961 -0.0498
   10CHTO    C6 4210   5.010  12.478  12.865  1.1807  0.1043 -0.5414
   10CHTO   H19 4211   4.990  12.482  12.758  2.5377  0.6590 -0.7860
   10CHTO    C8 4212   4.885  12.541  12.937  0.3303 -0.6258 -0.5965
   10CHTO   H21 4213   4.908  12.548  13.043  0.6701 -3.8152 -0.3946
   10CHTO    O7 4214   4.776  12.446  12.947 -0.0535  0.0603 -0.1058
   10CHTO    H2 4215   4.713  12.455  12.878 -1.5738 -1.5764  1.0353
   10CHTO   C12 4216   4.867  12.679  12.873 -0.6192  0.1711  0.5222
   10CHTO   H25 4217   4.844  12.680  12.764 -1.8285 -1.2448  0.7478
   10CHTO    N3 4218   4.742  12.739  12.926 -1.0018  0.3725 -0.1891
   10CHTO   H12 4219   4.728  12.737  13.033 -1.0719 -0.9123 -0.2054
   10CHTO   H13 4220   4.723  12.834  12.880  2.7531  1.9225  1.2424
   10CHTO   C15 4221   4.996  12.766  12.901 -0.1910 -0.0246  0.3568
   10CHTO   H28 4222   5.011  12.796  13.004 -1.0891  0.5777  0.3159
   10CHTO   O10 4223   4.997  12.898  12.814 -0.9538 -0.6591  0.1041
   10CHTO    H4 4224   4.943  12.964  12.853 -0.6926 -0.0883 -0.4830
   10CHTO    O5 4225   5.113  12.701  12.846  0.3769 -0.0820 -0.1478
   10CHTO   C10 4226   5.130  12.564  12.885 -0.1812 -0.0542 -0.3194
   10CHTO   H23 4227   5.167  12.564  12.987 -0.8757 -1.9300 -0.0543
   10CHTO   C17 4228   5.249  12.515  12.804  0.1495  0.4858  0.4645
   10CHTO   O12 4229   5.375  12.556  12.855 -0.2792  0.0063 -0.0974
   10CHTO    H6 4230   5.401  12.641  12.825  3.7456 -0.6335  1.2575
   11CHTO  H203 4231   6.625   6.219   3.437  0.7228 -2.0261  2.1123
   11CHTO   O82 4232   6.717   6.212   3.419  0.5869 -0.3907  0.5927
   11CHTO  C123 4233   6.750   6.221   3.276  0.3569 -0.3293 -0.0179
   11CHTO  H227 4234   6.849   6.176   3.256 -0.2337 -0.9712 -1.6309
   11CHTO   O77 4235   6.645   6.144   3.207 -0.0472 -0.3859 -0.6986
   11CHTO  C118 4236   6.673   6.141   3.067  0.1239 -0.1678 -0.2310
   11CHTO  H222 4237   6.779   6.115   3.051 -0.0875  0.4775 -2.8573
   11CHTO  C125 4238   6.570   6.034   3.006  0.2288 -0.9391 -0.1795
   11CHTO   O84 4239   6.611   5.989   2.877 -0.5471 -0.3425  0.2364
   11CHTO  H205 4240   6.553   5.923   2.845 -0.3566 -1.6932  2.6364
   11CHTO  C114 4241   6.658   6.282   3.006 -0.3236  0.6110  0.2568
   11CHTO  H218 4242   6.561   6.323   3.034 -0.6555 -0.1285  0.2171
   11CHTO  C116 4243   6.760   6.384   3.072  0.8271 -0.1601 -0.2702
   11CHTO  H220 4244   6.864   6.353   3.046  1.7808  1.1454  1.8898
   11CHTO   O79 4245   6.736   6.506   3.003 -0.1279  0.1100 -0.2344
   11CHTO  H201 4246   6.755   6.579   3.059  0.1477  0.1810 -0.4131
   11CHTO  C120 4247   6.744   6.376   3.228  0.1389  0.5310 -0.1365
   11CHTO  H224 4248   6.642   6.416   3.250 -0.0351 -0.5297  1.0475
   11CHTO   N21 4249   6.841   6.466   3.289  0.8017 -0.4484  0.1645
   11CHTO  H211 4250   6.795   6.560   3.313  1.6111 -1.0288  4.3200
   11CHTO  H212 4251   6.883   6.431   3.382  0.4867 -0.5967  0.2534
   11CHTO   O75 4252   6.677   6.266   2.866  0.2829  0.4282  0.3395
   11CHTO  C112 4253   6.573   6.347   2.774  0.1964  0.5429 -0.3465
   11CHTO  H216 4254   6.593   6.455   2.778  0.1773  0.6273 -2.0508
   11CHTO   O73 4255   6.441   6.315   2.823 -0.8618 -0.5142  0.3069
   11CHTO  C113 4256   6.332   6.376   2.769 -0.3433  0.3145 -0.2970
   11CHTO  H217 4257   6.345   6.485   2.784 -0.8915  0.2041  1.0435
   11CHTO  C124 4258   6.217   6.335   2.856  0.6916 -0.1201  0.2150
   11CHTO   O83 4259   6.119   6.444   2.847 -0.6978 -0.1429  0.2192
   11CHTO  H204 4260   6.162   6.515   2.890 -1.0648 -0.3421  0.9191
   11CHTO  C109 4261   6.326   6.326   2.619  0.0418  0.2152  0.3214
   11CHTO  H213 4262   6.293   6.221   2.625 -1.5043  0.7062  0.8047
   11CHTO  C110 4263   6.459   6.346   2.544 -0.1620 -0.5293  0.5770
   11CHTO  H214 4264   6.463   6.450   2.511 -2.0770 -0.3877  0.7186
   11CHTO   O78 4265   6.452   6.272   2.421 -0.3337 -0.5077  0.4828
   11CHTO  H200 4266   6.529   6.277   2.369 -1.7105  2.2365 -1.4315
   11CHTO  C111 4267   6.583   6.296   2.623  0.6994 -0.0977  0.4447
   11CHTO  H215 4268   6.571   6.187   2.634  0.4403 -0.1055  0.0892
   11CHTO   N19 4269   6.714   6.323   2.565 -0.3284 -0.2656  0.0443
   11CHTO  H207 4270   6.754   6.235   2.518  0.4479  0.0601  0.0840
   11CHTO  H208 4271   6.709   6.404   2.494 -1.2453 -0.3160  0.0455
   11CHTO   O74 4272   6.227   6.406   2.551 -0.0788  0.0927 -0.0687
   11CHTO  C115 4273   6.118   6.321   2.470  0.4814  0.0816  0.4352
   11CHTO  H219 4274   6.143   6.216   2.455 -1.6202 -0.1247 -1.8813
   11CHTO   O76 4275   5.959   6.321   2.554 -0.3932  0.5204  0.3397
   11CHTO  C122 4276   5.905   6.452   2.555 -0.6099 -0.0202  0.5830
   11CHTO  H226 4277   5.978   6.519   2.602  0.0030 -1.7956  2.2056
   11CHTO  C126 4278   5.780   6.462   2.643 -0.6003  0.1000 -0.3506
   11CHTO   O85 4279   5.697   6.577   2.626 -0.6254 -0.0836 -0.2229
   11CHTO  H206 4280   5.609   6.552   2.605 -1.6952  2.0730  1.4512
   11CHTO  C121 4281   5.879   6.498   2.405  0.5872  0.0207  0.1251
   11CHTO  H225 4282   5.769   6.500   2.389  0.7063  5.1144 -0.6876
   11CHTO   O81 4283   5.915   6.638   2.392 -0.5662  0.1988  0.1038
   11CHTO  H202 4284   5.837   6.686   2.412 -0.9849 -1.3403  2.3303
   11CHTO  C119 4285   5.944   6.408   2.299 -0.7749  0.1609 -0.0597
   11CHTO  H223 4286   5.897   6.311   2.315  0.0906 -0.0914  1.0537
   11CHTO  C117 4287   6.099   6.381   2.326  0.4666  0.6394  0.2096
   11CHTO  H221 4288   6.165   6.467   2.317  0.3653  0.6656 -0.2815
   11CHTO   N20 4289   6.157   6.286   2.226 -0.5199  0.3933  0.2969
   11CHTO  H209 4290   6.264   6.278   2.238 -0.8005 -2.3343  1.4283
   11CHTO  H210 4291   6.111   6.188   2.228  0.3376 -0.0001  1.2732
   11CHTO   O80 4292   5.901   6.452   2.145 -0.2297 -0.4524  0.1352
   11CHTO  C103 4293   5.972   6.600   2.077  0.3582 -0.8919  0.0910
   11CHTO  H190 4294   6.006   6.664   2.158  0.9730  1.9185 -2.3425
   11CHTO  C101 4295   6.087   6.601   1.971 -0.4926  0.2261  0.9113
   11CHTO  H188 4296   6.077   6.523   1.896  0.4923  0.4831  0.5003
   11CHTO   O68 4297   6.203   6.568   2.033 -0.4921  0.7079  0.1805
   11CHTO  H168 4298   6.219   6.476   2.041 -1.7961  0.6213  1.9347
   11CHTO   C99 4299   6.099   6.748   1.900  0.2813  0.3375 -0.0126
   11CHTO  H186 4300   6.123   6.819   1.982 -0.2239 -0.2255  0.6329
   11CHTO   N17 4301   6.193   6.760   1.783  0.9403  0.0851  0.7477
   11CHTO  H174 4302   6.149   6.757   1.685  1.5896  1.2178  0.4219
   11CHTO  H175 4303   6.252   6.850   1.796  2.4185 -0.8541  0.7139
   11CHTO   C97 4304   5.955   6.781   1.854 -0.3733 -0.2815  0.3246
   11CHTO  H184 4305   5.928   6.701   1.783 -1.0122  0.3924 -0.2014
   11CHTO   O64 4306   5.862   6.794   1.956 -0.0475 -0.6983  0.0238
   11CHTO  C104 4307   5.841   6.662   2.011 -0.2159  0.1420  0.0482
   11CHTO  H191 4308   5.795   6.597   1.937  2.8485 -2.4847  0.3074
   11CHTO  C108 4309   5.729   6.685   2.112  0.3694  0.2276 -0.4161
   11CHTO   O71 4310   5.599   6.721   2.054  0.0799 -0.2116  0.3644
   11CHTO  H171 4311   5.563   6.645   2.012 -1.0573  1.9775 -2.8483
   11CHTO   O62 4312   5.946   6.916   1.800 -0.2484  0.3686  0.7412
   11CHTO   C91 4313   5.827   6.954   1.728 -0.6830  0.7508 -0.4426
   11CHTO  H178 4314   5.738   6.899   1.759  0.3261  0.6049  2.3723
   11CHTO   C92 4315   5.848   6.942   1.581  0.3227 -0.2916 -0.1700
   11CHTO  H179 4316   5.920   6.859   1.571  1.3417  0.3037  2.0262
   11CHTO   O66 4317   5.723   6.899   1.524  0.4501 -0.2282 -0.4196
   11CHTO  H166 4318   5.701   6.944   1.445 -1.7604  0.3639  0.5028
   11CHTO   C93 4319   5.906   7.067   1.505 -0.0857  0.0759 -0.3346
   11CHTO  H180 4320   5.874   7.055   1.400 -2.2338 -0.2330  0.3318
   11CHTO   N16 4321   6.055   7.074   1.506  0.2161 -0.1099  0.0079
   11CHTO  H172 4322   6.094   6.996   1.569 -1.0238  0.5296  1.6118
   11CHTO  H173 4323   6.095   7.070   1.405 -0.4292  1.5056 -0.3305
   11CHTO   C94 4324   5.843   7.199   1.554 -0.7438  0.1611  0.3868
   11CHTO  H181 4325   5.914   7.261   1.609 -0.2657  1.2658 -1.4528
   11CHTO   O61 4326   5.741   7.172   1.645  0.1562  0.4212  0.6400
   11CHTO   C95 4327   5.779   7.099   1.765  0.0948  0.1896  0.1093
   11CHTO  H182 4328   5.859   7.152   1.816  0.7734  1.1862 -1.9376
   11CHTO  C106 4329   5.651   7.106   1.856 -0.0743  0.2285 -0.0538
   11CHTO   O69 4330   5.683   7.096   1.993  0.1449  0.2536 -0.1524
   11CHTO  H169 4331   5.699   7.006   2.013 -2.7836  0.1674  2.0308
   11CHTO   O63 4332   5.789   7.282   1.417 -0.3913 -0.6462 -0.1426
   11CHTO   C96 4333   5.825   7.434   1.420  0.4858  0.4230  0.1883
   11CHTO  H183 4334   5.921   7.435   1.473  0.6565 -2.7373  0.0140
   11CHTO   C98 4335   5.723   7.525   1.496 -0.4734  0.5451  0.7353
   11CHTO  H185 4336   5.679   7.474   1.583  0.3068  1.0445  1.4353
   11CHTO   O67 4337   5.787   7.639   1.553 -1.0928  0.0692  0.7055
   11CHTO  H167 4338   5.833   7.621   1.632 -0.7037 -1.9215  0.0574
   11CHTO  C102 4339   5.611   7.587   1.403  0.3425 -0.1833  0.0781
   11CHTO  H189 4340   5.575   7.678   1.454  2.0202  1.6491 -1.9169
   11CHTO   N18 4341   5.495   7.491   1.393 -0.0704  0.4831 -0.3694
   11CHTO  H176 4342   5.520   7.393   1.353 -2.9210 -0.6191  0.4414
   11CHTO  H177 4343   5.430   7.475   1.477 -0.1733 -0.7775 -0.6675
   11CHTO  C105 4344   5.667   7.630   1.266  0.0794  0.0213 -0.2495
   11CHTO  H192 4345   5.618   7.580   1.183 -0.7202  1.1479 -0.4760
   11CHTO   O65 4346   5.807   7.609   1.250  0.1552 -0.8676  0.6909
   11CHTO  C100 4347   5.842   7.473   1.265 -0.6361  0.1261  0.6832
   11CHTO  H187 4348   5.772   7.413   1.203 -0.2031 -0.0939  0.4014
   11CHTO  C107 4349   5.975   7.431   1.208 -0.5518 -0.8251  0.2730
   11CHTO   O70 4350   5.993   7.287   1.216  0.1753  0.0549 -0.7532
   11CHTO  H170 4351   5.937   7.233   1.164  1.0407  0.2699 -1.9322
   11CHTO   O57 4352   5.636   7.796   1.268 -0.4716  0.5002 -0.3385
   11CHTO   C85 4353   5.684   7.881   1.163  0.7253  0.3514 -0.6455
   11CHTO  H157 4354   5.645   7.983   1.184  0.2492  0.3209 -1.3581
   11CHTO   C83 4355   5.618   7.856   1.028 -0.3170  1.0276 -0.2379
   11CHTO  H155 4356   5.511   7.842   1.037 -0.4720 -0.5158 -3.7970
   11CHTO   O56 4357   5.662   7.728   0.981 -0.4311  0.8946 -0.4607
   11CHTO  H135 4358   5.631   7.659   1.037  0.7437 -0.8448 -1.9037
   11CHTO   C81 4359   5.657   7.958   0.921  0.0841 -0.1819  0.6204
   11CHTO  H153 4360   5.632   8.057   0.959  0.9514  0.0490  0.5920
   11CHTO   N14 4361   5.580   7.951   0.795 -0.6745 -0.0122  0.2757
   11CHTO  H141 4362   5.580   8.046   0.746  0.0849  0.4945  1.2437
   11CHTO  H142 4363   5.480   7.919   0.818 -1.8234  0.5465 -3.5530
   11CHTO   C79 4364   5.807   7.951   0.906 -0.2349 -0.6797 -0.3596
   11CHTO  H151 4365   5.842   8.032   0.842 -1.0305  0.0283  0.0797
   11CHTO   O52 4366   5.883   7.971   1.030  0.5479 -0.6204  0.0695
   11CHTO   C86 4367   5.843   7.880   1.141  0.1617  0.0523  0.2295
   11CHTO  H158 4368   5.882   7.781   1.113 -1.5807 -0.2876 -1.0574
   11CHTO   C90 4369   5.913   7.923   1.278  1.1047  0.0371  0.6854
   11CHTO   O60 4370   6.054   7.911   1.260 -0.6949 -0.0219 -0.2177
   11CHTO  H138 4371   6.089   7.892   1.345 -0.1754 -1.5197 -0.7507
   11CHTO   O50 4372   5.852   7.831   0.841 -0.2902  0.3677 -0.4213
   11CHTO   C73 4373   5.948   7.787   0.741 -0.6478 -0.9185 -0.5415
   11CHTO  H145 4374   6.029   7.860   0.726  1.4343 -2.8732  0.6980
   11CHTO   C74 4375   5.873   7.779   0.608 -0.7564 -0.4708  0.6658
   11CHTO  H146 4376   5.826   7.878   0.598  1.3325  0.4838  0.0146
   11CHTO   O54 4377   5.968   7.753   0.501 -0.5429  0.0553 -0.1472
   11CHTO  H133 4378   6.003   7.667   0.510  0.8388  0.7357  1.1096
   11CHTO   C75 4379   5.765   7.667   0.624  0.5086 -0.0041 -0.2660
   11CHTO  H147 4380   5.698   7.695   0.708  1.4257 -0.5658  0.6631
   11CHTO   N13 4381   5.675   7.639   0.513 -0.2695 -0.0896 -0.2377
   11CHTO  H139 4382   5.606   7.561   0.541 -0.0289 -0.0531  0.4837
   11CHTO  H140 4383   5.723   7.602   0.424  0.8780  0.1828  0.2464
   11CHTO   C76 4384   5.835   7.530   0.676  0.1251  0.8814 -0.5554
   11CHTO  H148 4385   5.900   7.502   0.593 -2.0168  0.1480 -2.0527
   11CHTO   O49 4386   5.914   7.549   0.800 -0.4588  0.3560  0.7739
   11CHTO   C77 4387   6.009   7.657   0.779 -0.2578  0.1169  0.5489
   11CHTO  H149 4388   6.085   7.636   0.704 -0.3178 -0.5728  0.6808
   11CHTO   C88 4389   6.089   7.664   0.909 -0.5210 -0.2514  0.0907
   11CHTO   O58 4390   6.210   7.734   0.906  0.5426 -0.0523 -0.3796
   11CHTO  H136 4391   6.232   7.773   0.988 -0.2406  0.6467 -0.5006
   11CHTO   O51 4392   5.714   7.405   0.709 -0.1942 -0.5312 -0.0473
   11CHTO   C78 4393   5.761   7.268   0.714  0.1620  0.7878  0.0731
   11CHTO  H150 4394   5.864   7.273   0.754  0.1726  0.2195  0.1268
   11CHTO   C80 4395   5.765   7.194   0.575  0.1208 -0.2569 -0.0617
   11CHTO  H152 4396   5.661   7.178   0.541  0.3963  0.3963 -1.2187
   11CHTO   O55 4397   5.823   7.273   0.468 -0.4687  0.2567 -0.4368
   11CHTO  H134 4398   5.771   7.260   0.390 -0.4425  1.3550 -0.6544
   11CHTO   C84 4399   5.837   7.051   0.587 -0.7854 -0.0198  0.0301
   11CHTO  H156 4400   5.935   7.070   0.632 -1.1252  1.5504  0.1561
   11CHTO   N15 4401   5.842   6.975   0.459 -0.2728 -0.2988  0.4505
   11CHTO  H143 4402   5.880   6.877   0.481 -1.7446 -1.3185 -1.4961
   11CHTO  H144 4403   5.901   7.015   0.379 -1.0737 -0.1509 -0.0674
   11CHTO   C87 4404   5.762   6.968   0.695  0.2031 -0.2108 -0.0802
   11CHTO  H159 4405   5.672   6.935   0.643 -0.8679  1.2542  0.8290
   11CHTO   O53 4406   5.721   7.047   0.836  0.4682 -0.4350 -0.3263
   11CHTO   C82 4407   5.681   7.182   0.816  0.4279 -0.0636 -0.2203
   11CHTO  H154 4408   5.575   7.192   0.793 -0.5649 -0.1140  3.9971
   11CHTO   C89 4409   5.703   7.234   0.958 -0.2347  0.5780  0.5072
   11CHTO   O59 4410   5.619   7.344   0.988  0.7744  0.2505 -0.5339
   11CHTO  H137 4411   5.643   7.422   0.940  0.4550  0.7327  0.0803
   11CHTO   O45 4412   5.868   6.818   0.744 -0.0126 -0.1979  0.6371
   11CHTO   C67 4413   6.005   6.826   0.790 -0.5549 -0.9667 -0.1081
   11CHTO  H124 4414   6.058   6.892   0.722 -0.6989 -1.2935 -0.5396
   11CHTO   C65 4415   6.004   6.885   0.940 -0.2917  1.1991  0.1708
   11CHTO  H122 4416   5.909   6.853   0.982 -1.0392  2.9671 -0.1147
   11CHTO   O44 4417   5.985   7.027   0.930  0.0607 -0.2524  0.0588
   11CHTO  H102 4418   5.939   7.058   1.006 -1.6065 -0.0416 -1.0060
   11CHTO   C63 4419   6.111   6.823   1.032 -0.1415 -0.3113 -0.7829
   11CHTO  H120 4420   6.086   6.720   1.056  1.8773 -0.2307  2.0057
   11CHTO   N11 4421   6.135   6.883   1.167  0.2206 -0.1334  0.1180
   11CHTO  H108 4422   6.232   6.893   1.211 -1.2756  1.9781  3.1632
   11CHTO  H109 4423   6.053   6.945   1.197 -0.1298 -0.3483 -0.3852
   11CHTO   C61 4424   6.247   6.810   0.937  0.3911  0.1207  0.1233
   11CHTO  H118 4425   6.325   6.763   0.999  0.7397  0.1414 -0.2948
   11CHTO   O40 4426   6.217   6.712   0.827 -0.1600 -0.3854  0.1729
   11CHTO   C68 4427   6.077   6.695   0.787 -0.5865 -0.1895 -0.0478
   11CHTO  H125 4428   6.043   6.613   0.853  0.8918 -2.5397 -2.0943
   11CHTO   C72 4429   6.069   6.638   0.649 -0.4698  0.0607 -0.0385
   11CHTO   O48 4430   6.146   6.518   0.638 -0.1566 -0.3628 -0.4770
   11CHTO  H105 4431   6.152   6.499   0.547  0.0704  2.6982 -1.1508
   11CHTO   O38 4432   6.300   6.926   0.878  0.3630  0.2221 -0.3181
   11CHTO   C55 4433   6.435   6.917   0.838  0.3357 -0.2458 -0.1897
   11CHTO  H112 4434   6.468   6.812   0.838  0.9495 -0.1339  3.5435
   11CHTO   C56 4435   6.520   7.002   0.939  0.2462 -0.4596 -0.4619
   11CHTO  H113 4436   6.469   7.098   0.954  3.0338  1.2756 -1.8673
   11CHTO   O42 4437   6.508   6.945   1.074  0.1580  0.0118 -0.7696
   11CHTO  H100 4438   6.557   6.865   1.081 -1.0464 -0.7053 -0.5287
   11CHTO   C57 4439   6.669   7.030   0.903 -0.2765  0.5437 -0.4548
   11CHTO  H114 4440   6.725   6.945   0.941 -2.2177  0.3881  2.2028
   11CHTO   N10 4441   6.739   7.138   0.978  0.2013 -0.5981  0.3233
   11CHTO  H106 4442   6.839   7.105   1.000  0.4356  0.1724  0.3993
   11CHTO  H107 4443   6.684   7.143   1.071 -0.7871 -1.1035 -0.2169
   11CHTO   C58 4444   6.694   7.047   0.753 -0.3124  0.3438 -0.1578
   11CHTO  H115 4445   6.662   7.150   0.724  1.1935  1.9758  3.6866
   11CHTO   O37 4446   6.608   6.958   0.677 -0.3206 -0.1519 -0.3119
   11CHTO   C59 4447   6.473   6.979   0.700  0.3882 -0.1968 -0.0782
   11CHTO  H116 4448   6.445   7.085   0.700  0.2113 -0.2380  0.4414
   11CHTO   C70 4449   6.409   6.915   0.581 -0.1026 -0.3379  0.3080
   11CHTO   O46 4450   6.293   6.979   0.525 -0.0789  0.2213  0.3077
   11CHTO  H103 4451   6.290   6.966   0.432  1.3996 -2.8556  0.6329
   11CHTO   O39 4452   6.849   7.025   0.725 -0.3660  0.3124 -0.4477
   11CHTO   C60 4453   6.881   7.060   0.588  0.1906 -0.1105 -0.4334
   11CHTO  H117 4454   6.789   7.055   0.531 -0.2106  2.4658 -0.0933
   11CHTO   C62 4455   6.938   7.210   0.579  0.0756 -0.4196 -0.2243
   11CHTO  H119 4456   6.852   7.276   0.600  0.5725  0.5423 -1.1692
   11CHTO   O43 4457   7.041   7.234   0.679 -0.2322  0.2636 -0.2968
   11CHTO  H101 4458   7.062   7.325   0.679  2.0170 -0.1777 -2.5567
   11CHTO   C66 4459   6.997   7.241   0.432 -0.0088 -0.2620  1.0669
   11CHTO  H123 4460   6.922   7.223   0.355  0.8121 -1.2793  0.5067
   11CHTO   N12 4461   7.028   7.384   0.416  0.3186 -0.4655 -0.2008
   11CHTO  H110 4462   6.959   7.426   0.344 -0.5412  3.0086  2.5076
   11CHTO  H111 4463   7.007   7.431   0.511  2.4622  1.6030 -0.7043
   11CHTO   C69 4464   7.104   7.140   0.405 -0.0015 -0.2194 -0.2618
   11CHTO  H126 4465   7.174   7.151   0.490 -0.9249 -0.8634  0.5912
   11CHTO   O41 4466   7.015   6.992   0.398 -0.0054  0.1277 -0.2872
   11CHTO   C64 4467   6.979   6.957   0.520  0.2995  0.7151 -0.1659
   11CHTO  H121 4468   7.069   6.950   0.585 -0.6215  0.0615  1.0776
   11CHTO   C71 4469   6.909   6.816   0.522  0.0968  0.3129  0.1071
   11CHTO   O47 4470   6.963   6.732   0.417 -0.5321  0.1129 -0.3024
   11CHTO  H104 4471   7.004   6.787   0.353  0.4770 -0.6724 -0.3361
   11CHTO   O34 4472   7.171   7.153   0.273 -0.8313  0.0182  0.0671
   11CHTO   C49 4473   7.271   7.081   0.163  0.3613  0.6801 -0.4667
   11CHTO   H91 4474   7.366   7.070   0.216  0.7929 -0.1637 -1.4102
   11CHTO   C47 4475   7.279   7.167   0.038 -0.3933 -0.8193 -0.0245
   11CHTO   H89 4476   7.353   7.112  -0.024 -1.8904 -1.4457 -1.2719
   11CHTO   O33 4477   7.333   7.299   0.068  0.0904  0.9462  0.0610
   11CHTO   H70 4478   7.305   7.330   0.152  0.0245  1.7672 -0.2682
   11CHTO   C45 4479   7.132   7.166  -0.033  0.7004 -0.0917 -0.2195
   11CHTO   H87 4480   7.069   7.243   0.014  2.8069  0.4406  1.8504
   11CHTO    N8 4481   7.154   7.200  -0.175 -0.1263  0.3199 -0.0420
   11CHTO   H75 4482   7.224   7.135  -0.226 -0.4362  0.0208 -0.0871
   11CHTO   H76 4483   7.059   7.180  -0.221  0.2814 -0.2697 -0.6370
   11CHTO   C43 4484   7.052   7.027  -0.003 -0.5804 -0.5153  0.1838
   11CHTO   H85 4485   7.002   7.058   0.088 -2.9419  2.2353 -1.9327
   11CHTO   O29 4486   7.143   6.919   0.007  0.4380 -0.5790 -0.3273
   11CHTO   C50 4487   7.221   6.931   0.127  0.2051 -0.5420 -0.3933
   11CHTO   H92 4488   7.163   6.901   0.215  1.4969 -0.5589  0.4694
   11CHTO   C54 4489   7.335   6.828   0.125  0.9789 -0.8379  0.7021
   11CHTO   O36 4490   7.281   6.686   0.109 -0.6351 -0.3195 -0.0666
   11CHTO   H72 4491   7.218   6.672   0.042 -0.4443 -0.1283 -0.2863
   11CHTO   O27 4492   6.943   6.989  -0.092 -0.2143  0.4283 -0.1364
   11CHTO   C37 4493   6.827   6.918  -0.129 -0.2496 -0.7020 -0.4150
   11CHTO   H79 4494   6.850   6.810  -0.129  0.9890 -0.4535  0.3228
   11CHTO   C38 4495   6.713   6.943  -0.026 -0.5969  0.5124  0.0231
   11CHTO   H80 4496   6.699   7.051  -0.016  0.6906  0.7331 -0.4866
   11CHTO   O31 4497   6.737   6.881   0.104  1.0582 -0.1360 -0.1165
   11CHTO   H68 4498   6.804   6.931   0.146  0.7920 -0.6967  1.0216
   11CHTO   C39 4499   6.569   6.885  -0.071  0.1518 -0.4783 -0.0988
   11CHTO   H81 4500   6.565   6.778  -0.050  0.2803 -0.5769 -0.5807
   11CHTO    N7 4501   6.449   6.941  -0.001  0.4046 -0.3235  0.0698
   11CHTO   H73 4502   6.465   6.947   0.106 -0.8428 -0.6255  0.2744
   11CHTO   H74 4503   6.418   7.035  -0.045  2.8099  1.5868  2.2939
   11CHTO   C40 4504   6.548   6.901  -0.223  0.2802  0.6416  0.4292
   11CHTO   H82 4505   6.512   6.999  -0.255 -2.2131 -1.0159 -2.0245
   11CHTO   O26 4506   6.669   6.866  -0.292  0.3630 -0.3377 -0.4585
   11CHTO   C41 4507   6.780   6.958  -0.273 -0.7437 -0.6566 -0.1411
   11CHTO   H83 4508   6.753   7.065  -0.281 -3.4536 -1.3335 -0.3995
   11CHTO   C52 4509   6.885   6.916  -0.382  0.2988  0.7200 -0.4808
   11CHTO   O35 4510   6.991   6.990  -0.383 -0.0425 -0.2560 -0.3338
   11CHTO   H71 4511   7.030   7.002  -0.468  0.4437  0.5476 -0.0018
   11CHTO   O28 4512   6.442   6.826  -0.286 -0.2805  0.5782 -0.1560
   11CHTO   C42 4513   6.407   6.833  -0.425 -0.7302  0.1124 -0.0649
   11CHTO   H84 4514   6.485   6.892  -0.474 -0.5628  0.4233  0.5759
   11CHTO   C44 4515   6.276   6.911  -0.452  0.0624  0.3538  0.4649
   11CHTO   H86 4516   6.194   6.856  -0.406 -0.0041 -0.8323 -1.0599
   11CHTO   O32 4517   6.291   7.036  -0.386  0.1143 -0.4142 -0.4029
   11CHTO   H69 4518   6.204   7.066  -0.369  0.0413 -0.4180 -0.7505
   11CHTO   C48 4519   6.239   6.924  -0.602 -0.4428  0.4734 -0.1696
   11CHTO   H90 4520   6.309   6.996  -0.645 -0.5762  1.3083  0.9941
   11CHTO    N9 4521   6.102   6.987  -0.620  0.4279 -0.4709  0.5031
   11CHTO   H77 4522   6.102   7.077  -0.560  0.7109 -0.0251 -0.1731
   11CHTO   H78 4523   6.098   7.007  -0.726 -0.7299  0.4369  0.7026
   11CHTO   C51 4524   6.247   6.783  -0.675 -0.5097 -0.7243 -0.1974
   11CHTO   H93 4525   6.166   6.712  -0.655 -1.0933  0.0920  0.4073
   11CHTO   O30 4526   6.380   6.726  -0.651  0.4910 -0.7238  0.2804
   11CHTO   C46 4527   6.407   6.693  -0.499  0.2640 -0.4039  0.2350
   11CHTO   H88 4528   6.321   6.632  -0.469 -0.3890 -0.2733 -1.3143
   11CHTO   C53 4529   6.541   6.618  -0.487 -0.6477 -0.3119 -0.6870
   11CHTO   O72 4530   6.593   6.588  -0.359 -1.0035  0.2063 -0.3242
   11CHTO  H199 4531   6.523   6.557  -0.305 -2.5179  0.3806 -2.1018
   11CHTO   O22 4532   6.243   6.800  -0.817  0.3549  0.0241  0.0488
   11CHTO   C31 4533   6.126   6.768  -0.894 -0.2751  0.0478  0.1556
   11CHTO   H59 4534   6.036   6.778  -0.829 -1.3694 -0.1276 -1.3032
   11CHTO   C29 4535   6.105   6.876  -1.004  0.0777  0.0502 -0.3729
   11CHTO   H57 4536   6.196   6.875  -1.066 -1.3091  2.0763 -2.5532
   11CHTO   O21 4537   6.096   7.010  -0.953 -0.6294 -0.0364  0.0116
   11CHTO   H37 4538   6.178   7.054  -0.941 -1.6511  1.9646 -0.0999
   11CHTO   C27 4539   5.981   6.840  -1.094 -0.3102  0.7207  0.1143
   11CHTO   H55 4540   5.891   6.861  -1.034  0.3119 -0.4011  1.4650
   11CHTO    N5 4541   5.975   6.928  -1.212  0.1112 -0.4985  0.2338
   11CHTO   H43 4542   5.881   6.981  -1.210  0.3024 -0.1649  0.4020
   11CHTO   H44 4543   5.974   6.872  -1.304 -1.5949  0.0954 -0.1286
   11CHTO   C25 4544   5.967   6.686  -1.125 -0.3987 -0.2591 -0.5629
   11CHTO   H53 4545   6.050   6.663  -1.193  1.2065 -0.4888  1.4110
   11CHTO   O17 4546   5.995   6.610  -1.008 -0.2990 -0.1713 -0.0328
   11CHTO   C32 4547   6.125   6.623  -0.952  0.9032 -0.4796 -0.4208
   11CHTO   H60 4548   6.200   6.609  -1.030  2.2976 -1.3519  1.0368
   11CHTO   C36 4549   6.143   6.512  -0.848 -0.0417  0.1382  0.5113
   11CHTO   O25 4550   6.163   6.387  -0.910  0.3994  0.4442  0.1600
   11CHTO   H40 4551   6.252   6.362  -0.900  0.6628  0.8547 -1.0813
   11CHTO   O15 4552   5.816   6.649  -1.168  0.5709 -0.0894  0.2846
   11CHTO   C19 4553   5.770   6.517  -1.201 -0.8293 -0.5983  0.0869
   11CHTO   H47 4554   5.855   6.448  -1.197 -1.0588 -1.0590 -2.3735
   11CHTO   C20 4555   5.663   6.478  -1.106 -0.5525  0.3084  0.3488
   11CHTO   H48 4556   5.573   6.539  -1.120  1.0906  2.9163  0.8253
   11CHTO   O19 4557   5.701   6.504  -0.965 -0.5050 -0.0819 -0.0484
   11CHTO   H35 4558   5.652   6.576  -0.931 -1.5913 -1.0512  0.4613
   11CHTO   C21 4559   5.623   6.328  -1.127 -0.0087 -0.0990  0.3012
   11CHTO   H49 4560   5.708   6.268  -1.091 -1.3741 -0.4712  3.0146
   11CHTO    N4 4561   5.514   6.289  -1.033  0.1956  0.0073 -0.1127
   11CHTO   H41 4562   5.521   6.323  -0.931 -1.1903 -2.0930  0.7196
   11CHTO   H42 4563   5.413   6.312  -1.064 -0.0117  0.0923  0.6214
   11CHTO   C22 4564   5.582   6.304  -1.273 -0.6624  0.2607 -0.1953
   11CHTO   H50 4565   5.484   6.346  -1.291  0.1123  1.9636 -0.5539
   11CHTO   O14 4566   5.681   6.357  -1.364 -0.0150 -0.2060 -0.2685
   11CHTO   C23 4567   5.722   6.496  -1.342 -0.0627  0.5380  0.0077
   11CHTO   H51 4568   5.638   6.563  -1.367 -0.3609 -0.2023 -1.0190
   11CHTO   C34 4569   5.833   6.538  -1.439 -0.3181  0.1598 -0.1253
   11CHTO   O23 4570   5.802   6.515  -1.578 -0.2978  0.0687 -0.4574
   11CHTO   H38 4571   5.776   6.426  -1.585  0.8660 -0.0936 -3.2158
   11CHTO   O16 4572   5.589   6.164  -1.300 -0.3011 -0.1023  0.0613
   11CHTO   C24 4573   5.523   6.115  -1.434 -0.0508  0.5788 -0.1942
   11CHTO   H52 4574   5.494   6.196  -1.500  2.1444  0.5180 -1.3042
   11CHTO   C26 4575   5.390   6.042  -1.398 -0.8050  0.0871 -0.2631
   11CHTO   H54 4576   5.412   5.958  -1.328 -0.2523  0.6744  0.2740
   11CHTO   O20 4577   5.303   6.136  -1.329  0.6777  0.0383  0.4123
   11CHTO   H36 4578   5.317   6.223  -1.361 -1.7650  0.1785 -0.3817
   11CHTO   C30 4579   5.329   5.988  -1.526 -0.0018  0.1674  0.2883
   11CHTO   H58 4580   5.301   6.064  -1.601 -3.3056 -0.3412  0.9520
   11CHTO    N6 4581   5.203   5.919  -1.500  0.4696 -0.0478  0.8043
   11CHTO   H45 4582   5.225   5.841  -1.429  0.4563 -1.1796 -0.4309
   11CHTO   H46 4583   5.124   5.986  -1.469  0.2024 -0.7134  1.5823
   11CHTO   C33 4584   5.435   5.901  -1.598  0.0779 -0.1113  0.2211
   11CHTO   H61 4585   5.463   5.823  -1.526 -1.6013  0.5807  1.6768
   11CHTO   O18 4586   5.550   5.982  -1.628 -0.5885  0.1959  0.6422
   11CHTO   C28 4587   5.622   6.022  -1.513  0.0690 -0.0708 -0.0315
   11CHTO   H56 4588   5.647   5.940  -1.446  2.7128  1.1309  0.5170
   11CHTO   C35 4589   5.747   6.100  -1.552 -0.1090  0.1040 -0.4426
   11CHTO   O24 4590   5.836   6.113  -1.445 -0.3174  0.5352 -0.3145
   11CHTO   H39 4591   5.892   6.038  -1.433  0.2256  1.1342  0.9807
   11CHTO    O9 4592   5.385   5.832  -1.713  0.3190 -0.0816 -0.1306
   11CHTO   C13 4593   5.322   5.927  -1.840 -0.2567 -0.1228 -0.3474
   11CHTO   H26 4594   5.257   6.006  -1.796 -0.5261  0.3936 -1.6422
   11CHTO   C11 4595   5.242   5.838  -1.935  0.0456 -0.0587  0.7229
   11CHTO   H24 4596   5.151   5.811  -1.879 -2.0884  1.6381 -1.8290
   11CHTO    O8 4597   5.326   5.729  -1.979 -0.1697 -0.4742  0.0596
   11CHTO    H3 4598   5.289   5.677  -2.048 -0.3633  1.7641 -1.6058
   11CHTO    C9 4599   5.186   5.924  -2.055 -0.7003  0.5154 -0.6372
   11CHTO   H22 4600   5.140   6.011  -2.005  1.5897  0.0969  2.3516
   11CHTO    N2 4601   5.082   5.855  -2.128  0.6445 -0.4707  0.1568
   11CHTO   H10 4602   5.064   5.913  -2.217 -2.0648  2.5248  2.5466
   11CHTO   H11 4603   4.993   5.837  -2.070 -1.1498  0.3120 -2.2926
   11CHTO    C7 4604   5.309   5.984  -2.135 -0.1914  0.2231  0.1251
   11CHTO   H20 4605   5.265   6.056  -2.206  0.4183 -0.4564 -0.9659
   11CHTO    O4 4606   5.397   6.053  -2.047 -0.3605 -0.7688 -0.0120
   11CHTO   C14 4607   5.435   6.007  -1.916  0.1693  0.1828 -0.8834
   11CHTO   H27 4608   5.468   6.089  -1.849  1.8013 -1.1990  0.0415
   11CHTO   C18 4609   5.562   5.932  -1.945  0.4738 -0.1374  0.1510
   11CHTO   O13 4610   5.662   6.017  -1.998  0.6950  0.2201 -0.1560
   11CHTO    H7 4611   5.740   5.966  -1.994  0.1767 -0.7317 -1.6534
   11CHTO    O2 4612   5.393   5.859  -2.219 -0.1725 -0.1604 -0.0642
   11CHTO    C1 4613   5.399   5.876  -2.363  0.3531  0.7640 -0.0469
   11CHTO   H14 4614   5.319   5.944  -2.399  0.3337 -0.3362 -2.1602
   11CHTO    C2 4615   5.370   5.741  -2.438 -0.1711 -0.5934  0.4582
   11CHTO   H15 4616   5.439   5.670  -2.389  0.3183 -0.7635 -0.4793
   11CHTO    O6 4617   5.233   5.707  -2.417 -0.4030 -0.0477 -0.3333
   11CHTO    H1 4618   5.173   5.768  -2.455 -0.0047  1.3615  1.2713
   11CHTO    C3 4619   5.401   5.742  -2.594 -0.0820 -0.2043 -0.0902
   11CHTO   H16 4620   5.318   5.791  -2.646 -1.2533 -1.3768  0.6577
   11CHTO    N1 4621   5.392   5.599  -2.657 -0.0648 -0.2909  0.1704
   11CHTO    H8 4622   5.411   5.600  -2.763  0.3456 -0.3055  0.2424
   11CHTO    H9 4623   5.296   5.554  -2.635 -0.3152  0.1163 -0.0754
   11CHTO    C4 4624   5.530   5.826  -2.621  0.0970 -0.1414  0.2087
   11CHTO   H17 4625   5.618   5.763  -2.610 -0.6655 -1.3590 -0.5348
   11CHTO    O1 4626   5.544   5.940  -2.538 -0.4158 -0.0500 -0.2785
   11CHTO    C5 4627   5.532   5.943  -2.400  0.0848 -0.6243  0.1453
   11CHTO   H18 4628   5.610   5.886  -2.350 -0.3868  0.4010  2.1220
   11CHTO   C16 4629   5.532   6.092  -2.359 -0.0148  0.3138 -0.3404
   11CHTO   O11 4630   5.668   6.119  -2.325 -0.0359  0.4121 -0.1282
   11CHTO    H5 4631   5.671   6.209  -2.297 -1.6339  0.4431 -0.0067
   11CHTO    O3 4632   5.528   5.878  -2.756 -0.1434 -0.4952 -0.1844
   11CHTO    C6 4633   5.657   5.917  -2.816 -1.0057 -0.0594 -0.0119
   11CHTO   H19 4634   5.736   5.922  -2.741  0.4471  0.2511 -1.5185
   11CHTO    C8 4635   5.688   5.816  -2.931  0.1260 -0.4429  0.0941
   11CHTO   H21 4636   5.600   5.817  -2.995  0.8154  0.7304 -0.8678
   11CHTO    O7 4637   5.698   5.684  -2.878  0.1565 -0.5771  0.6591
   11CHTO    H2 4638   5.630   5.624  -2.902 -0.1092  0.0821 -0.2402
   11CHTO   C12 4639   5.812   5.856  -3.029 -0.3700 -0.4128  0.1819
   11CHTO   H25 4640   5.901   5.858  -2.963  1.1988 -2.8127 -1.7862
   11CHTO    N3 4641   5.830   5.747  -3.135 -0.0715  0.1582  0.3645
   11CHTO   H12 4642   5.801   5.647  -3.108  0.0636 -0.4503 -1.6746
   11CHTO   H13 4643   5.821   5.779  -3.237  2.3971 -0.9271 -0.2376
   11CHTO   C15 4644   5.794   6.004  -3.078  0.2618  0.5099 -0.8376
   11CHTO   H28 4645   5.712   6.028  -3.146  1.2407  1.2908 -1.7712
   11CHTO   O10 4646   5.933   6.057  -3.136  0.0550  0.2200  0.0712
   11CHTO    H4 4647   5.929   6.046  -3.229 -3.5566 -0.9232  0.2878
   11CHTO    O5 4648   5.778   6.077  -2.956  0.0803  0.3814  0.6940
   11CHTO   C10 4649   5.651   6.056  -2.881 -0.0134 -0.1002  0.2486
   11CHTO   H23 4650   5.572   6.055  -2.956  0.5168  1.3775 -0.3494
   11CHTO   C17 4651   5.629   6.169  -2.782 -0.0298  0.1474 -0.0251
   11CHTO   O12 4652   5.661   6.293  -2.846  0.3974  0.3328 -0.2610
   11CHTO    H6 4653   5.600   6.334  -2.904  1.0213 -0.1803 -1.2860
   12CHTO  H203 4654   5.445   2.700   7.711 -1.2417 -0.9991  1.3269
   12CHTO   O82 4655   5.505   2.716   7.781  0.2476  0.1240 -0.1334
   12CHTO  C123 4656   5.515   2.597   7.862 -0.2124  0.2470 -0.3985
   12CHTO  H227 4657   5.423   2.592   7.922  1.0763  1.5774  1.7895
   12CHTO   O77 4658   5.524   2.487   7.774 -0.3173  0.1897 -0.0009
   12CHTO  C118 4659   5.520   2.362   7.842  0.4279  1.0576  0.0597
   12CHTO  H222 4660   5.427   2.357   7.901  0.4871 -2.1100  0.0051
   12CHTO  C125 4661   5.526   2.241   7.735 -0.2003  0.6327  0.1895
   12CHTO   O84 4662   5.664   2.208   7.692  0.7088 -0.1682  0.4114
   12CHTO  H205 4663   5.662   2.120   7.660 -0.7567  0.0729 -0.2040
   12CHTO  C114 4664   5.638   2.349   7.941  0.6992  0.6217 -0.0730
   12CHTO  H218 4665   5.729   2.331   7.884  0.1665 -1.3367 -0.3583
   12CHTO  C116 4666   5.635   2.461   8.042  0.3420 -0.5239 -0.2261
   12CHTO  H220 4667   5.546   2.453   8.108 -0.7597 -1.4815 -1.7883
   12CHTO   O79 4668   5.760   2.442   8.118  0.1656 -0.3077  0.1673
   12CHTO  H201 4669   5.730   2.405   8.199  0.7828 -1.1185  0.0309
   12CHTO  C120 4670   5.631   2.602   7.968  0.1604 -0.5119 -0.4736
   12CHTO  H224 4671   5.734   2.614   7.928 -0.1067 -0.6794 -1.2330
   12CHTO   N21 4672   5.618   2.717   8.068 -0.3231  0.2641  0.0678
   12CHTO  H211 4673   5.524   2.724   8.123 -0.6921  1.6295 -0.7221
   12CHTO  H212 4674   5.708   2.721   8.128 -0.8074 -2.0382  1.0307
   12CHTO   O75 4675   5.603   2.223   8.004  0.1729 -0.0954  0.1381
   12CHTO  C112 4676   5.729   2.135   8.042 -0.4965 -0.0493  0.5371
   12CHTO  H216 4677   5.810   2.200   8.079  0.4486 -0.5680 -0.5871
   12CHTO   O73 4678   5.769   2.066   7.921  0.0686  0.1027  0.2187
   12CHTO  C113 4679   5.892   1.988   7.918 -0.3449 -0.0234 -0.0298
   12CHTO  H217 4680   5.982   2.045   7.949 -0.9543 -0.3567  2.4212
   12CHTO  C124 4681   5.911   1.920   7.782 -0.0989  0.0468 -0.2875
   12CHTO   O83 4682   5.954   2.012   7.683  0.1596 -0.1401  0.7630
   12CHTO  H204 4683   5.876   2.031   7.634  0.1049 -1.7000  0.2238
   12CHTO  C109 4684   5.879   1.885   8.040  0.5306  0.3004 -0.1120
   12CHTO  H213 4685   5.814   1.803   8.007 -0.7346  0.3630  2.1419
   12CHTO  C110 4686   5.811   1.930   8.170 -0.2583 -0.4894  0.0790
   12CHTO  H214 4687   5.883   1.963   8.245 -0.0689 -1.0988  0.1711
   12CHTO   O78 4688   5.754   1.819   8.244 -0.2644 -0.3822  0.6579
   12CHTO  H200 4689   5.719   1.843   8.327 -1.3679  1.6852 -0.3812
   12CHTO  C111 4690   5.691   2.032   8.148 -0.2549  0.2258 -0.5566
   12CHTO  H215 4691   5.608   1.969   8.111  0.2592  0.0625 -1.4531
   12CHTO   N19 4692   5.643   2.092   8.274 -0.1444  0.6358 -0.0167
   12CHTO  H207 4693   5.539   2.119   8.269 -0.3860 -0.1061  0.9587
   12CHTO  H208 4694   5.673   2.024   8.352  1.1325  0.8889 -0.2579
   12CHTO   O74 4695   6.010   1.828   8.071  0.2400  0.2279  0.1615
   12CHTO  C115 4696   6.027   1.678   8.006  0.0872 -0.5240 -0.3538
   12CHTO  H219 4697   5.940   1.655   7.945 -0.8129  0.6110  0.4711
   12CHTO   O76 4698   6.147   1.666   7.907  0.5133  0.0224 -0.0753
   12CHTO  C122 4699   6.277   1.671   7.972  1.1339  0.6911 -0.0826
   12CHTO  H226 4700   6.290   1.769   8.019  0.3017 -0.3347  2.3682
   12CHTO  C126 4701   6.386   1.666   7.864  0.4605 -0.0288  0.5736
   12CHTO   O85 4702   6.522   1.674   7.909 -0.1000 -0.1848  0.4051
   12CHTO  H206 4703   6.582   1.704   7.843 -1.0306  2.0598  0.5518
   12CHTO  C121 4704   6.288   1.548   8.076  0.6035 -0.4668 -0.3639
   12CHTO  H225 4705   6.371   1.478   8.054  0.7903 -0.4795  0.3697
   12CHTO   O81 4706   6.343   1.600   8.196 -0.0632 -0.7779 -0.6978
   12CHTO  H202 4707   6.375   1.533   8.254 -1.0423 -2.2098 -1.7620
   12CHTO  C119 4708   6.153   1.462   8.090  0.2146 -0.0216 -0.9152
   12CHTO  H223 4709   6.133   1.404   8.000  0.9480  0.7934 -1.6142
   12CHTO  C117 4710   6.035   1.564   8.125 -0.5100 -0.5676 -0.1336
   12CHTO  H221 4711   6.047   1.621   8.217  0.4347  1.0201 -1.2130
   12CHTO   N20 4712   5.908   1.489   8.146 -0.0746  0.0555 -0.2837
   12CHTO  H209 4713   5.826   1.551   8.179  0.5788  0.0093  1.5005
   12CHTO  H210 4714   5.895   1.448   8.047 -0.4546  1.5356 -0.8526
   12CHTO   O80 4715   6.168   1.347   8.194  0.2679  0.0852  0.0494
   12CHTO  C103 4716   6.214   1.198   8.146  0.2029  0.8876 -0.1190
   12CHTO  H190 4717   6.198   1.186   8.039 -1.2251 -0.4600  0.2287
   12CHTO  C101 4718   6.368   1.175   8.173  0.6989 -0.3283 -0.6883
   12CHTO  H188 4719   6.385   1.199   8.278  2.2108 -0.9685 -0.7724
   12CHTO   O68 4720   6.455   1.265   8.071  0.2567 -0.1775  0.3817
   12CHTO  H168 4721   6.408   1.278   7.991 -1.6195 -0.2105  1.4516
   12CHTO   C99 4722   6.405   1.016   8.168 -0.2089 -0.1560 -0.6616
   12CHTO  H186 4723   6.415   0.983   8.063  0.1878  2.5431 -1.5058
   12CHTO   N17 4724   6.541   0.990   8.217 -0.3717  0.3126 -0.0034
   12CHTO  H174 4725   6.614   1.059   8.178 -0.9640  0.4880 -0.8189
   12CHTO  H175 4726   6.575   0.896   8.177 -3.1801  0.3989 -2.8139
   12CHTO   C97 4727   6.293   0.932   8.234  0.2308 -0.0332 -0.2192
   12CHTO  H184 4728   6.307   0.953   8.341  2.2144  2.5474 -0.9384
   12CHTO   O64 4729   6.163   0.967   8.192  0.2826 -0.5256 -0.3839
   12CHTO  C104 4730   6.118   1.100   8.220 -0.3087  0.0845  0.1419
   12CHTO  H191 4731   6.107   1.127   8.325  1.1225 -2.1834  0.9268
   12CHTO  C108 4732   5.974   1.111   8.161  0.4040 -0.1452 -0.5629
   12CHTO   O71 4733   5.886   1.008   8.208  0.0112  0.2823 -0.5869
   12CHTO  H171 4734   5.829   1.043   8.274  1.6621  2.3702 -0.2137
   12CHTO   O62 4735   6.309   0.792   8.197 -0.1873 -0.1054 -0.4250
   12CHTO   C91 4736   6.296   0.694   8.303 -0.2567  0.8840 -0.0325
   12CHTO  H178 4737   6.345   0.726   8.396  0.7101 -1.3223  0.2516
   12CHTO   C92 4738   6.389   0.574   8.264 -0.2118  1.0803 -0.1672
   12CHTO  H179 4739   6.378   0.551   8.157  0.9669  0.1597 -0.1040
   12CHTO   O66 4740   6.529   0.625   8.269 -0.2104 -0.2706  0.1194
   12CHTO  H166 4741   6.603   0.574   8.297 -1.2387 -2.0935 -0.3940
   12CHTO   C93 4742   6.367   0.439   8.350 -0.3867 -0.2748  0.3597
   12CHTO  H180 4743   6.408   0.456   8.451 -0.7926  1.0022  0.3044
   12CHTO   N16 4744   6.441   0.320   8.302 -0.3996  0.1556  0.4595
   12CHTO  H172 4745   6.404   0.232   8.352 -3.2435  1.2123  0.3276
   12CHTO  H173 4746   6.545   0.346   8.318 -0.0227 -1.3957  0.6265
   12CHTO   C94 4747   6.218   0.409   8.359 -0.1855 -0.4878 -0.2674
   12CHTO  H181 4748   6.175   0.399   8.259  1.5938 -1.8988 -0.9305
   12CHTO   O61 4749   6.145   0.523   8.407  0.2897  0.3749 -0.3203
   12CHTO   C95 4750   6.154   0.641   8.327  0.2033  0.6344  0.3125
   12CHTO  H182 4751   6.107   0.623   8.230  2.4933  0.0747 -0.7263
   12CHTO  C106 4752   6.063   0.748   8.389 -0.2791  0.0300 -0.1045
   12CHTO   O69 4753   5.924   0.710   8.386 -0.2959  0.6868 -0.2983
   12CHTO  H169 4754   5.913   0.629   8.340  0.1625  0.7304 -0.4819
   12CHTO   O63 4755   6.174   0.276   8.451  0.3493 -0.4204  0.4038
   12CHTO   C96 4756   6.180   0.312   8.609  0.7080 -0.2305  0.4853
   12CHTO  H183 4757   6.208   0.417   8.618 -0.4805 -0.0384  2.1357
   12CHTO   C98 4758   6.284   0.230   8.686 -0.0444  0.9730  0.0703
   12CHTO  H185 4759   6.380   0.242   8.633  0.3251  0.1440  0.5432
   12CHTO   O67 4760   6.313   0.281   8.817 -0.4457 -0.0947 -0.1586
   12CHTO  H167 4761   6.380   0.233   8.862  0.1261  0.2420 -0.6540
   12CHTO  C102 4762   6.231   0.071   8.699  0.1396 -0.2952  0.4198
   12CHTO  H189 4763   6.292   0.027   8.778 -0.1777 -0.2258  0.7070
   12CHTO   N18 4764   6.250  -0.014   8.578  0.4651 -0.1056  0.0491
   12CHTO  H176 4765   6.317   0.027   8.503 -0.6533  0.4353 -0.6636
   12CHTO  H177 4766   6.258  -0.120   8.595  2.6482  0.2418  1.4099
   12CHTO  C105 4767   6.081   0.069   8.746 -0.1272  0.5544  0.2800
   12CHTO  H192 4768   6.011   0.037   8.670 -0.4499 -1.4100  1.3735
   12CHTO   O65 4769   6.031   0.197   8.775 -0.2169 -0.0010  0.5430
   12CHTO  C100 4770   6.033   0.290   8.666 -0.3363  0.5366  0.2923
   12CHTO  H187 4771   5.963   0.252   8.591  1.3403 -0.1633 -0.9437
   12CHTO  C107 4772   5.980   0.420   8.729 -0.0067  0.6902 -0.2075
   12CHTO   O70 4773   5.844   0.436   8.690 -0.3502  0.1931  1.1567
   12CHTO  H170 4774   5.834   0.520   8.648 -0.3464 -0.8983 -1.1364
   12CHTO   O57 4775   6.076  -0.005   8.888  0.4057 -0.2399 -0.0997
   12CHTO   C85 4776   5.992  -0.115   8.917  0.0058 -0.0848  0.2112
   12CHTO  H157 4777   5.969  -0.175   8.826 -0.3775  0.1152  0.1748
   12CHTO   C83 4778   5.861  -0.062   8.979  0.4627 -0.2841 -0.2845
   12CHTO  H155 4779   5.807   0.003   8.910 -2.9735 -1.8346  0.8112
   12CHTO   O56 4780   5.884   0.020   9.100 -0.0056  0.4136  0.2097
   12CHTO  H135 4781   5.803   0.064   9.116 -0.3838  0.6891 -2.2349
   12CHTO   C81 4782   5.767  -0.184   9.008  0.3026  0.1764 -0.2575
   12CHTO  H153 4783   5.742  -0.234   8.915  1.2580 -0.4221 -0.1971
   12CHTO   N14 4784   5.633  -0.151   9.058 -0.3222  0.0045 -0.2338
   12CHTO  H141 4785   5.591  -0.073   8.999 -0.4072  0.9211  1.0241
   12CHTO  H142 4786   5.567  -0.235   9.056  0.2168 -0.3997 -2.1365
   12CHTO   C79 4787   5.845  -0.288   9.106  0.2948  0.7567  0.0685
   12CHTO  H151 4788   5.779  -0.374   9.110 -0.3422  1.2001 -0.6640
   12CHTO   O52 4789   5.968  -0.319   9.044 -0.3784  0.1541 -0.3836
   12CHTO   C86 4790   6.053  -0.201   9.025 -0.2513 -0.1314 -0.0888
   12CHTO  H158 4791   6.059  -0.146   9.122 -2.6443  0.1738 -0.0976
   12CHTO   C90 4792   6.198  -0.237   9.000  0.3689  0.7701 -0.0952
   12CHTO   O60 4793   6.247  -0.320   9.106  0.0664  0.0434 -0.1466
   12CHTO  H138 4794   6.313  -0.370   9.062  1.0783  0.7268  0.5645
   12CHTO   O50 4795   5.881  -0.238   9.234 -0.1335  0.3929 -0.6521
   12CHTO   C73 4796   5.822  -0.242   9.365  0.8286  0.1620  0.0630
   12CHTO  H145 4797   5.724  -0.292   9.353  1.7389 -1.2806 -1.5609
   12CHTO   C74 4798   5.799  -0.101   9.428 -0.0290 -0.3275  0.0721
   12CHTO  H146 4799   5.755  -0.038   9.349 -0.0118 -0.9362 -0.4219
   12CHTO   O54 4800   5.703  -0.119   9.532  0.2064 -0.4299  0.1902
   12CHTO  H133 4801   5.734  -0.169   9.606  0.2256 -1.7832 -0.7222
   12CHTO   C75 4802   5.937  -0.040   9.481 -0.2896 -0.2523  0.0810
   12CHTO  H147 4803   6.001  -0.021   9.393 -1.0861 -0.8917 -0.6497
   12CHTO   N13 4804   5.921   0.082   9.559 -0.3255 -0.0770  0.2528
   12CHTO  H139 4805   5.969   0.159   9.499 -1.0239 -0.7301 -1.1878
   12CHTO  H140 4806   5.981   0.082   9.648 -1.0336  1.4411  0.7624
   12CHTO   C76 4807   6.026  -0.147   9.560 -0.8181 -0.1870  0.0797
   12CHTO  H148 4808   5.967  -0.175   9.647 -1.9529  1.9549  0.0188
   12CHTO   O49 4809   6.036  -0.263   9.474  0.1830 -0.2057  0.2338
   12CHTO   C77 4810   5.908  -0.331   9.465  0.0592  0.3828 -0.2110
   12CHTO  H149 4811   5.853  -0.332   9.559 -0.0694  1.0071 -0.2697
   12CHTO   C88 4812   5.918  -0.478   9.418 -0.2933  0.3072  0.6717
   12CHTO   O58 4813   5.790  -0.569   9.451  0.1628  0.4871 -0.1600
   12CHTO  H136 4814   5.773  -0.626   9.378  1.6219 -1.6961  1.1593
   12CHTO   O51 4815   6.168  -0.089   9.602  0.1256 -0.1075  0.4562
   12CHTO   C78 4816   6.272  -0.181   9.640 -0.1322 -0.0127 -1.0864
   12CHTO  H150 4817   6.264  -0.277   9.585  3.0035 -0.0063 -1.6465
   12CHTO   C80 4818   6.271  -0.208   9.796 -0.0403  0.2456 -0.5124
   12CHTO  H152 4819   6.256  -0.111   9.848 -2.6488  0.3285 -1.3010
   12CHTO   O55 4820   6.160  -0.295   9.822  0.1424  0.2912  0.1112
   12CHTO  H134 4821   6.081  -0.276   9.774 -0.4750  0.4437  1.1648
   12CHTO   C84 4822   6.403  -0.286   9.851 -0.2134  0.2878 -0.0137
   12CHTO  H156 4823   6.395  -0.390   9.818 -0.0328  0.1903  0.2577
   12CHTO   N15 4824   6.411  -0.294   9.996 -0.0690 -0.0097 -0.3713
   12CHTO  H143 4825   6.324  -0.328  10.047  0.5071  0.5275  0.9920
   12CHTO  H144 4826   6.494  -0.353  10.029 -0.6428 -0.1793  0.7884
   12CHTO   C87 4827   6.527  -0.214   9.796 -0.0118 -0.0244  0.1499
   12CHTO  H159 4828   6.526  -0.114   9.838  1.1332 -0.6139  1.6195
   12CHTO   O53 4829   6.500  -0.214   9.652 -0.9189 -0.1471  0.4295
   12CHTO   C82 4830   6.404  -0.122   9.600 -0.1955 -0.5368 -0.3378
   12CHTO  H154 4831   6.427  -0.027   9.649  1.4910 -0.8114 -0.5656
   12CHTO   C89 4832   6.433  -0.092   9.449 -0.7351  0.6580 -0.4285
   12CHTO   O59 4833   6.568  -0.047   9.437  0.2589  0.7841 -0.4275
   12CHTO  H137 4834   6.567   0.036   9.394 -2.5610 -0.8484 -3.7608
   12CHTO   O45 4835   6.664  -0.291   9.829 -0.1761 -0.1888  0.2468
   12CHTO   C67 4836   6.699  -0.401   9.746  0.0100  0.3029  1.2468
   12CHTO  H124 4837   6.613  -0.449   9.700 -0.0401  0.6771  0.9534
   12CHTO   C65 4838   6.802  -0.356   9.634 -1.1290 -0.5351  0.2283
   12CHTO  H122 4839   6.759  -0.269   9.585  0.0617 -0.6872 -1.1065
   12CHTO   O44 4840   6.819  -0.462   9.541 -0.0797  0.0680 -0.0273
   12CHTO  H102 4841   6.815  -0.425   9.455 -1.5856 -2.6739 -1.2193
   12CHTO   C63 4842   6.942  -0.306   9.697  0.3792  0.2648  0.6335
   12CHTO  H120 4843   6.926  -0.244   9.785  2.0047 -0.8157  1.7147
   12CHTO   N11 4844   7.039  -0.233   9.606  0.3741  0.2174  0.2556
   12CHTO  H108 4845   7.085  -0.149   9.655 -1.1293  2.2515 -1.6921
   12CHTO  H109 4846   6.997  -0.207   9.511  0.8580 -1.1744 -0.3521
   12CHTO   C61 4847   7.008  -0.430   9.757 -0.0155  0.0667 -0.7509
   12CHTO  H118 4848   7.089  -0.392   9.822 -1.1688  1.4069 -0.0466
   12CHTO   O40 4849   6.910  -0.494   9.850  0.0414  0.1133  0.2782
   12CHTO   C68 4850   6.766  -0.510   9.827  0.2391  0.3884 -0.2893
   12CHTO  H125 4851   6.712  -0.505   9.924 -0.6859  1.2543 -0.8525
   12CHTO   C72 4852   6.742  -0.655   9.769  0.1812  0.6465  0.2460
   12CHTO   O48 4853   6.779  -0.758   9.864  0.0806 -0.0179  0.0509
   12CHTO  H105 4854   6.723  -0.833   9.859  1.5965 -1.1602 -0.4051
   12CHTO   O38 4855   7.054  -0.527   9.658  0.0710 -0.0667 -0.7160
   12CHTO   C55 4856   7.188  -0.573   9.686  0.8266 -0.3164  0.4574
   12CHTO  H112 4857   7.243  -0.514   9.760  1.2111  1.5106 -1.2638
   12CHTO   C56 4858   7.259  -0.571   9.544 -0.1687 -0.3378  0.2318
   12CHTO  H113 4859   7.192  -0.609   9.465  1.2361 -0.1055 -1.0754
   12CHTO   O42 4860   7.278  -0.432   9.505 -0.1498 -0.6267  0.3844
   12CHTO  H100 4861   7.344  -0.429   9.438 -1.6387 -2.3479 -1.2440
   12CHTO   C57 4862   7.395  -0.646   9.556 -0.5281 -0.3392 -0.3018
   12CHTO  H114 4863   7.461  -0.577   9.609 -0.2074 -1.8186  1.2512
   12CHTO   N10 4864   7.467  -0.662   9.428 -0.2871 -0.5995 -0.2666
   12CHTO  H106 4865   7.574  -0.654   9.435 -0.4302  0.7235  0.4819
   12CHTO  H107 4866   7.428  -0.598   9.351 -0.0726  0.3087  0.3665
   12CHTO   C58 4867   7.397  -0.774   9.634 -0.3538  0.3381  0.3442
   12CHTO  H115 4868   7.350  -0.854   9.573 -1.3260 -0.2474  1.8233
   12CHTO   O37 4869   7.327  -0.753   9.762  0.2909  0.4217  0.3119
   12CHTO   C59 4870   7.188  -0.720   9.740 -0.4861  0.0995  0.0324
   12CHTO  H116 4871   7.143  -0.785   9.666  0.4699 -0.1365 -0.3554
   12CHTO   C70 4872   7.120  -0.733   9.871  0.1271 -0.4153 -0.0670
   12CHTO   O46 4873   7.179  -0.659   9.978  0.2659  0.3983 -0.4008
   12CHTO  H103 4874   7.248  -0.710  10.016  1.3003  0.7117 -1.8186
   12CHTO   O39 4875   7.550  -0.809   9.671 -0.3578 -0.1650  0.2535
   12CHTO   C60 4876   7.579  -0.940   9.721 -0.0929 -0.1387  0.0797
   12CHTO  H117 4877   7.493  -0.966   9.782 -0.2050 -0.7963 -0.3508
   12CHTO   C62 4878   7.606  -1.035   9.601  0.5104  0.4221  0.0457
   12CHTO  H119 4879   7.507  -1.036   9.552 -1.2762 -0.1374  3.5441
   12CHTO   O43 4880   7.707  -0.978   9.516 -0.7816 -0.5855 -0.6956
   12CHTO  H101 4881   7.661  -0.919   9.459 -0.9976 -0.5518 -0.4867
   12CHTO   C66 4882   7.645  -1.179   9.656  0.3341  0.4383 -0.7309
   12CHTO  H123 4883   7.566  -1.212   9.723 -0.6285  0.6505 -1.7576
   12CHTO   N12 4884   7.658  -1.290   9.553  0.4606  0.3605 -0.1064
   12CHTO  H110 4885   7.690  -1.385   9.595  1.7770 -0.2412 -2.3673
   12CHTO  H111 4886   7.711  -1.262   9.463 -1.2816  2.2343 -0.5708
   12CHTO   C69 4887   7.775  -1.168   9.741  0.6408  0.4579  0.5723
   12CHTO  H126 4888   7.855  -1.115   9.684  0.8237  0.1255  0.5200
   12CHTO   O41 4889   7.753  -1.079   9.859 -0.7711 -0.4093  0.3077
   12CHTO   C64 4890   7.705  -0.930   9.818  0.2678  0.0652 -0.5318
   12CHTO  H121 4891   7.789  -0.882   9.763  0.3355 -1.2241 -1.5932
   12CHTO   C71 4892   7.670  -0.843   9.938 -0.4153 -0.1228 -0.2639
   12CHTO   O47 4893   7.570  -0.904  10.021 -0.0247 -0.1636  0.5369
   12CHTO  H104 4894   7.595  -0.989  10.050 -1.1559 -0.9935 -0.8602
   12CHTO   O34 4895   7.820  -1.327   9.808  0.4107  0.4292  0.5140
   12CHTO   C49 4896   7.915  -1.382   9.900  0.0308  0.6430  0.2467
   12CHTO   H91 4897   8.011  -1.394   9.849 -0.2132 -3.6177  0.5691
   12CHTO   C47 4898   7.875  -1.527   9.931 -0.0392 -0.2687  0.0518
   12CHTO   H89 4899   7.963  -1.554   9.993 -0.3536 -1.3962  0.0037
   12CHTO   O33 4900   7.878  -1.610   9.816 -0.6075 -0.3319 -0.2345
   12CHTO   H70 4901   7.869  -1.702   9.833  1.2947 -0.3643  0.7712
   12CHTO   C45 4902   7.737  -1.524  10.010  0.3586  0.2324  0.3694
   12CHTO   H87 4903   7.655  -1.549   9.941  1.5704 -0.7202 -0.7573
   12CHTO    N8 4904   7.753  -1.642  10.100 -0.2160 -0.4210  0.1387
   12CHTO   H75 4905   7.841  -1.629  10.162  0.5296 -2.0879 -0.5371
   12CHTO   H76 4906   7.665  -1.641  10.163  1.9587 -0.7920  3.3580
   12CHTO   C43 4907   7.693  -1.383  10.075  0.3109  0.0032  0.3244
   12CHTO   H85 4908   7.651  -1.332   9.989  1.4397  2.1742  1.0215
   12CHTO   O29 4909   7.807  -1.319  10.124  0.1549 -0.3885 -0.1276
   12CHTO   C50 4910   7.922  -1.306  10.032  0.5062 -0.4652 -0.4919
   12CHTO   H92 4911   7.926  -1.199  10.009  0.3167 -0.1748  0.7554
   12CHTO   C54 4912   8.051  -1.335  10.127 -0.0848 -0.1556  0.3151
   12CHTO   O36 4913   8.176  -1.322  10.060 -0.1469  0.3207  0.0834
   12CHTO   H72 4914   8.235  -1.382  10.101 -1.2260 -0.0209  1.1476
   12CHTO   O27 4915   7.589  -1.396  10.167 -0.0432  0.0298 -0.1233
   12CHTO   C37 4916   7.454  -1.360  10.203  0.3179 -0.0748 -0.5347
   12CHTO   H79 4917   7.432  -1.395  10.305 -0.0221  0.9026 -0.2665
   12CHTO   C38 4918   7.429  -1.207  10.202 -0.3667 -0.0124 -0.0755
   12CHTO   H80 4919   7.458  -1.169  10.103  1.8232 -0.1456  0.5040
   12CHTO   O31 4920   7.511  -1.147  10.305 -0.2795  0.4376  0.4636
   12CHTO   H68 4921   7.599  -1.159  10.277 -0.9343  1.0254 -1.9387
   12CHTO   C39 4922   7.281  -1.175  10.223  0.5565  0.8240 -0.1295
   12CHTO   H81 4923   7.259  -1.207  10.325 -1.0482  1.7361 -0.1683
   12CHTO    N7 4924   7.252  -1.023  10.212  0.0634  0.6723  0.0452
   12CHTO   H73 4925   7.312  -0.972  10.286  1.3679 -0.5441 -0.1450
   12CHTO   H74 4926   7.146  -1.003  10.207 -0.1465  0.0768  1.8541
   12CHTO   C40 4927   7.181  -1.260  10.134  0.3569 -0.8008  0.3117
   12CHTO   H82 4928   7.188  -1.212  10.036  0.4362 -1.5317 -0.0433
   12CHTO   O26 4929   7.224  -1.398  10.129  0.0025 -0.2194  0.1764
   12CHTO   C41 4930   7.363  -1.426  10.102 -0.4969  0.3271  0.0437
   12CHTO   H83 4931   7.380  -1.393   9.999  0.4236 -0.1097  0.0523
   12CHTO   C52 4932   7.380  -1.582  10.109 -0.1626 -0.3082  0.0569
   12CHTO   O35 4933   7.315  -1.656   9.978 -0.7282 -0.6345 -0.1120
   12CHTO   H71 4934   7.295  -1.747   9.993  0.2578 -0.5608  1.8390
   12CHTO   O28 4935   7.056  -1.270  10.201 -0.1852  0.0464 -0.1065
   12CHTO   C42 4936   6.938  -1.265  10.114  0.0530 -0.1603  0.1168
   12CHTO   H84 4937   6.869  -1.335  10.162  0.1976 -0.3646  0.0293
   12CHTO   C44 4938   6.949  -1.319   9.967  0.1646 -0.2401  0.3542
   12CHTO   H86 4939   7.013  -1.251   9.911 -0.0437 -0.6376 -0.3724
   12CHTO   O32 4940   6.989  -1.455   9.973 -0.3767  0.1458 -0.2537
   12CHTO   H69 4941   7.077  -1.469   9.943  0.1136  0.3726  1.0300
   12CHTO   C48 4942   6.812  -1.314   9.895  0.0365 -0.0899  0.0837
   12CHTO   H90 4943   6.742  -1.384   9.940  0.0913 -1.7881 -2.3872
   12CHTO    N9 4944   6.827  -1.366   9.749 -0.7108  0.0595  0.2993
   12CHTO   H77 4945   6.904  -1.307   9.701 -1.9469  0.9105 -0.6561
   12CHTO   H78 4946   6.731  -1.356   9.701 -1.0118 -2.4541  0.3356
   12CHTO   C51 4947   6.732  -1.174   9.910 -0.1446  0.1199  0.5465
   12CHTO   H93 4948   6.794  -1.101   9.858 -1.9914  0.9947 -0.4645
   12CHTO   O30 4949   6.718  -1.145  10.050 -0.4258  0.3234 -0.3203
   12CHTO   C46 4950   6.867  -1.124  10.116 -0.2548 -0.2881 -0.5138
   12CHTO   H88 4951   6.926  -1.054  10.057 -0.6995 -0.0285 -0.6486
   12CHTO   C53 4952   6.849  -1.072  10.263 -0.4588 -0.8134 -0.0854
   12CHTO   O72 4953   6.736  -0.976  10.277 -0.2371 -0.3065 -0.2889
   12CHTO  H199 4954   6.755  -0.905  10.219 -0.5106 -0.2040 -0.2520
   12CHTO   O22 4955   6.600  -1.188   9.856  0.0572 -0.2391 -0.0677
   12CHTO   C31 4956   6.497  -1.084   9.830 -0.8664  0.9570 -0.2572
   12CHTO   H59 4957   6.404  -1.138   9.801 -1.2123  1.2515  0.2801
   12CHTO   C29 4958   6.459  -0.995   9.949 -0.3631  0.0666 -0.0285
   12CHTO   H57 4959   6.548  -0.940   9.981  0.1128  0.4790 -1.9942
   12CHTO   O21 4960   6.421  -1.073  10.060  0.8904 -0.3265  0.0597
   12CHTO   H37 4961   6.395  -1.013  10.127 -1.5080  0.3200 -1.3915
   12CHTO   C27 4962   6.351  -0.894   9.903  0.4554  0.0527 -0.0805
   12CHTO   H55 4963   6.253  -0.943   9.888  1.8668 -2.4278 -1.4290
   12CHTO    N5 4964   6.328  -0.786  10.005  0.6162  0.3682 -0.2803
   12CHTO   H43 4965   6.289  -0.823  10.098  1.4587 -1.7388 -0.7162
   12CHTO   H44 4966   6.414  -0.721  10.014  1.1413 -0.4420  0.6531
   12CHTO   C25 4967   6.392  -0.822   9.765 -0.9592  0.4243 -0.4094
   12CHTO   H53 4968   6.466  -0.745   9.789 -0.6367  0.3046 -1.0092
   12CHTO   O17 4969   6.422  -0.926   9.670 -0.3710 -0.6502  0.3417
   12CHTO   C32 4970   6.539  -0.991   9.707 -0.0857  0.3658  0.2794
   12CHTO   H60 4971   6.615  -0.917   9.731 -0.9197  1.0688  0.7937
   12CHTO   C36 4972   6.593  -1.072   9.590  0.0040  0.9787  0.1814
   12CHTO   O25 4973   6.661  -0.990   9.492  0.1926 -0.0983  0.1480
   12CHTO   H40 4974   6.705  -1.043   9.429  0.0872  0.5640 -0.4786
   12CHTO   O15 4975   6.259  -0.745   9.701 -0.4204  0.3822 -0.0539
   12CHTO   C19 4976   6.232  -0.690   9.565 -0.3717 -0.5540 -0.9744
   12CHTO   H47 4977   6.173  -0.598   9.571  0.0511 -0.3742  1.0754
   12CHTO   C20 4978   6.365  -0.641   9.502  0.3209 -0.3634  0.3226
   12CHTO   H48 4979   6.443  -0.719   9.498  1.2596  0.5819  0.0314
   12CHTO   O19 4980   6.410  -0.536   9.590  0.3716 -0.5979  0.3416
   12CHTO   H35 4981   6.493  -0.506   9.559  0.7779 -1.4057  0.6429
   12CHTO   C21 4982   6.344  -0.580   9.359 -0.3956  0.9045 -0.9285
   12CHTO   H49 4983   6.288  -0.488   9.378 -0.4598  0.1682  2.9012
   12CHTO    N4 4984   6.475  -0.547   9.295 -0.4498  0.4396 -0.7573
   12CHTO   H41 4985   6.484  -0.440   9.308 -2.0038  0.4271  0.5857
   12CHTO   H42 4986   6.464  -0.572   9.191 -0.3906 -2.5622 -0.0736
   12CHTO   C22 4987   6.252  -0.679   9.276 -0.4446  0.4063 -0.2056
   12CHTO   H50 4988   6.311  -0.765   9.245  2.1979  0.7336  3.5686
   12CHTO   O14 4989   6.141  -0.727   9.348  0.8026 -0.3476  0.5812
   12CHTO   C23 4990   6.162  -0.790   9.474 -0.3270 -0.5525 -0.1153
   12CHTO   H51 4991   6.228  -0.873   9.444 -0.3691 -0.9992  1.0209
   12CHTO   C34 4992   6.031  -0.842   9.525  0.1527 -0.7830  0.3090
   12CHTO   O23 4993   5.953  -0.920   9.431  0.0177 -0.2299  0.7063
   12CHTO   H38 4994   5.863  -0.896   9.441  0.0109  0.6924 -1.2325
   12CHTO   O16 4995   6.187  -0.628   9.160  0.2371  0.3220  0.1866
   12CHTO   C24 4996   6.197  -0.719   9.035 -0.4264 -0.1938 -0.1352
   12CHTO   H52 4997   6.225  -0.820   9.065 -1.5924  0.1508  2.1897
   12CHTO   C26 4998   6.287  -0.651   8.938 -0.4246  0.5906  1.3343
   12CHTO   H54 4999   6.247  -0.549   8.917  0.2917  0.9403  1.6574
   12CHTO   O20 5000   6.416  -0.611   8.989 -0.2892  0.5799  0.5516
   12CHTO   H36 5001   6.466  -0.688   9.005 -0.9187 -0.2882 -1.5305
   12CHTO   C30 5002   6.293  -0.740   8.811 -0.0419 -0.3939 -0.0952
   12CHTO   H58 5003   6.318  -0.845   8.832  1.4521  0.3923  2.1632
   12CHTO    N6 5004   6.373  -0.680   8.697 -0.2127 -0.7605  0.7008
   12CHTO   H45 5005   6.423  -0.593   8.736 -0.0606 -0.0055 -1.1434
   12CHTO   H46 5006   6.448  -0.757   8.686  1.3769  0.4455  2.7859
   12CHTO   C33 5007   6.147  -0.765   8.752 -0.4416 -0.2153 -0.0148
   12CHTO   H61 5008   6.100  -0.674   8.713 -0.8768 -0.1756  0.5996
   12CHTO   O18 5009   6.058  -0.811   8.858 -0.4422 -0.6953  0.4147
   12CHTO   C28 5010   6.058  -0.729   8.978  0.4309 -0.0637 -0.1585
   12CHTO   H56 5011   6.030  -0.628   8.947  2.9803  0.9645  0.7441
   12CHTO   C35 5012   5.943  -0.777   9.073 -0.0380  0.0173  0.1131
   12CHTO   O24 5013   5.819  -0.712   9.027 -0.4515  0.5543  0.1749
   12CHTO   H39 5014   5.783  -0.765   8.958 -0.9791  0.0240  0.8500
   12CHTO    O9 5015   6.142  -0.857   8.641  0.0056  0.4999  0.8684
   12CHTO   C13 5016   6.192  -1.026   8.671  0.8243 -0.3370 -0.2927
   12CHTO   H26 5017   6.242  -1.028   8.770  0.1345 -0.3512  0.0551
   12CHTO   C11 5018   6.285  -1.081   8.556 -0.4951 -0.4827  0.8284
   12CHTO   H24 5019   6.374  -1.019   8.572 -0.9431  0.4341 -0.1263
   12CHTO    O8 5020   6.238  -1.052   8.424 -0.1828 -0.0806  0.6387
   12CHTO    H3 5021   6.146  -1.067   8.419 -0.0331 -0.5464 -0.9086
   12CHTO    C9 5022   6.310  -1.232   8.575 -0.1507  0.0616 -0.7005
   12CHTO   H22 5023   6.360  -1.240   8.672  1.7673  2.4388 -1.4486
   12CHTO    N2 5024   6.409  -1.283   8.478 -0.3040  0.1917 -0.1824
   12CHTO   H10 5025   6.514  -1.290   8.504 -0.7250 -1.1593  1.2057
   12CHTO   H11 5026   6.396  -1.254   8.375 -0.0086  0.4952 -0.1343
   12CHTO    C7 5027   6.176  -1.312   8.587 -0.9301 -0.6436  0.5343
   12CHTO   H20 5028   6.212  -1.410   8.625  2.3773  0.3898  0.2095
   12CHTO    O4 5029   6.088  -1.254   8.688  0.1260 -0.0052  0.0776
   12CHTO   C14 5030   6.059  -1.112   8.684 -0.7952  0.6344 -0.0859
   12CHTO   H27 5031   6.014  -1.090   8.783 -4.1715  0.3426 -1.4852
   12CHTO   C18 5032   5.949  -1.089   8.575  0.1698 -0.2747 -0.2635
   12CHTO   O13 5033   5.900  -0.959   8.560  0.0300  0.3303  0.0919
   12CHTO    H7 5034   5.827  -0.962   8.501  1.8997 -1.6986 -2.2473
   12CHTO    O2 5035   6.093  -1.324   8.436  0.2673  0.1344  0.9651
   12CHTO    C1 5036   6.054  -1.455   8.399 -0.2183  0.2389 -0.2561
   12CHTO   H14 5037   6.005  -1.504   8.485  0.7512 -1.1904 -0.5026
   12CHTO    C2 5038   6.177  -1.550   8.355 -0.2171 -0.0230 -0.0866
   12CHTO   H15 5039   6.234  -1.483   8.288 -2.7448  1.0817 -1.1986
   12CHTO    O6 5040   6.259  -1.574   8.466 -0.0876  0.2000 -0.2866
   12CHTO    H1 5041   6.221  -1.632   8.529 -0.5105  0.8399  0.0463
   12CHTO    C3 5042   6.128  -1.689   8.281  0.1988 -0.0655 -0.2226
   12CHTO   H16 5043   6.082  -1.757   8.354  0.9851  0.9609  1.2463
   12CHTO    N1 5044   6.253  -1.767   8.228 -0.3942  0.3087  0.3658
   12CHTO    H8 5045   6.225  -1.858   8.176  3.9985 -0.5065 -0.8423
   12CHTO    H9 5046   6.322  -1.786   8.309 -0.2159  1.0068  0.3835
   12CHTO    C4 5047   6.017  -1.657   8.185 -0.2626 -0.0912  0.0685
   12CHTO   H17 5048   6.056  -1.588   8.110 -0.0587  1.4007  1.5071
   12CHTO    O1 5049   5.912  -1.587   8.249 -0.4544  0.2284 -0.1536
   12CHTO    C5 5050   5.946  -1.453   8.278 -0.1309 -0.1927 -0.3363
   12CHTO   H18 5051   5.996  -1.398   8.198 -1.4288 -0.1366 -1.1164
   12CHTO   C16 5052   5.814  -1.380   8.314 -0.0700  0.1478  0.0335
   12CHTO   O11 5053   5.731  -1.341   8.202  0.4855  0.6846 -0.0623
   12CHTO    H5 5054   5.719  -1.414   8.145 -2.4096  0.2268  1.0233
   12CHTO    O3 5055   5.950  -1.776   8.134 -0.7849 -0.5220  0.3798
   12CHTO    C6 5056   5.901  -1.770   8.001  0.4376  0.6241  0.0958
   12CHTO   H19 5057   5.891  -1.669   7.962  1.1573  0.9210  0.6847
   12CHTO    C8 5058   5.987  -1.852   7.892  0.2104 -0.2807 -0.0106
   12CHTO   H21 5059   6.010  -1.951   7.933 -0.0529 -0.3440 -0.0153
   12CHTO    O7 5060   6.116  -1.790   7.879  0.1300 -0.1194 -0.2953
   12CHTO    H2 5061   6.114  -1.701   7.850 -0.9923  0.1092  0.4353
   12CHTO   C12 5062   5.912  -1.865   7.756  0.4947 -0.2202  0.9198
   12CHTO   H25 5063   5.897  -1.764   7.713  0.4637 -0.2840  0.7831
   12CHTO    N3 5064   5.993  -1.951   7.655 -0.3284  0.1139  0.1396
   12CHTO   H12 5065   6.019  -2.043   7.707  1.8256  1.2648  1.1904
   12CHTO   H13 5066   6.087  -1.911   7.621 -0.6813  1.3500  0.6024
   12CHTO   C15 5067   5.772  -1.923   7.787  0.1333  0.1529  0.2247
   12CHTO   H28 5068   5.779  -2.026   7.822  0.7881  0.1183 -0.0038
   12CHTO   O10 5069   5.676  -1.917   7.660 -0.0501 -0.0073  0.5484
   12CHTO    H4 5070   5.594  -1.962   7.672 -0.1916  0.2815  0.6512
   12CHTO    O5 5071   5.696  -1.839   7.871 -0.1917 -0.1654  0.4024
   12CHTO   C10 5072   5.755  -1.835   8.000  0.2235  0.2215 -0.2140
   12CHTO   H23 5073   5.764  -1.933   8.047 -0.3441  0.2944  0.0491
   12CHTO   C17 5074   5.656  -1.755   8.090 -0.6315  0.3497 -0.7108
   12CHTO   O12 5075   5.624  -1.623   8.042  0.0310 -0.2875  0.0830
   12CHTO    H6 5076   5.547  -1.595   8.087 -1.7149 -4.4424 -0.0746
   13CHTO  H203 5077   6.755   4.679   3.883 -0.1622  0.1497 -0.5906
   13CHTO   O82 5078   6.771   4.738   3.812 -0.0127  0.3561 -0.3836
   13CHTO  C123 5079   6.697   4.859   3.845 -0.3092 -0.6723  0.0933
   13CHTO  H227 5080   6.726   4.891   3.946  0.3343 -1.2139  0.0848
   13CHTO   O77 5081   6.743   4.959   3.754  0.2725 -0.6087 -0.2895
   13CHTO  C118 5082   6.694   5.088   3.775  0.4704  1.3796  0.4660
   13CHTO  H222 5083   6.695   5.110   3.883  1.7895  1.4127  0.4456
   13CHTO  C125 5084   6.774   5.189   3.697  0.2782 -0.4680  0.2784
   13CHTO   O84 5085   6.786   5.317   3.762  0.4090  0.0895 -0.0563
   13CHTO  H205 5086   6.817   5.308   3.850  1.1903 -0.4350 -0.3763
   13CHTO  C114 5087   6.540   5.088   3.745  0.5458 -0.3388 -0.3234
   13CHTO  H218 5088   6.521   5.054   3.643 -3.3484 -1.8558  0.8174
   13CHTO  C116 5089   6.475   4.984   3.839  0.0600  0.6555 -0.0648
   13CHTO  H220 5090   6.471   5.024   3.942 -0.4558  0.9809 -0.2114
   13CHTO   O79 5091   6.335   4.978   3.801 -0.0885  0.0843 -0.8288
   13CHTO  H201 5092   6.305   4.902   3.847  0.1482  0.3632 -0.2103
   13CHTO  C120 5093   6.544   4.842   3.828 -0.1023 -0.6999 -0.3818
   13CHTO  H224 5094   6.522   4.795   3.730  0.0739  0.2237 -0.8732
   13CHTO   N21 5095   6.488   4.741   3.923 -1.4165 -0.4979  0.2488
   13CHTO  H211 5096   6.380   4.741   3.928 -1.3680  0.3348  1.3550
   13CHTO  H212 5097   6.527   4.645   3.895  2.5575  0.6406  1.5516
   13CHTO   O75 5098   6.497   5.221   3.757  0.6008  0.2886  0.1709
   13CHTO  C112 5099   6.445   5.301   3.907 -0.2204 -0.2976 -0.4629
   13CHTO  H216 5100   6.534   5.305   3.972 -0.2328  0.0514 -0.4672
   13CHTO   O73 5101   6.330   5.236   3.973 -0.3747 -0.4590  0.3062
   13CHTO  C113 5102   6.280   5.296   4.092 -0.0279 -0.7580  0.3214
   13CHTO  H217 5103   6.364   5.308   4.163 -1.0972  0.7160  1.3660
   13CHTO  C124 5104   6.156   5.213   4.139 -0.0275 -0.0635  0.2817
   13CHTO   O83 5105   6.190   5.078   4.169  0.1578  0.1431  0.1441
   13CHTO  H204 5106   6.126   5.044   4.228 -1.6348 -0.0430 -1.8192
   13CHTO  C109 5107   6.232   5.444   4.052  0.1918  0.8369 -0.6246
   13CHTO  H213 5108   6.156   5.428   3.974  2.0984 -2.0543 -1.9565
   13CHTO  C110 5109   6.347   5.526   3.991 -0.3859 -0.3592 -0.6140
   13CHTO  H214 5110   6.418   5.533   4.073 -1.2997 -0.3485  0.1789
   13CHTO   O78 5111   6.295   5.658   3.952  0.2956  0.6019 -0.1090
   13CHTO  H200 5112   6.338   5.719   4.009  1.3273 -1.4550  1.3953
   13CHTO  C111 5113   6.404   5.447   3.872 -0.2983 -0.2794 -0.1286
   13CHTO  H215 5114   6.325   5.440   3.796 -0.3867  0.8208 -0.1578
   13CHTO   N19 5115   6.519   5.521   3.812  0.2321 -0.0156 -0.2844
   13CHTO  H207 5116   6.487   5.614   3.767 -1.2106 -0.0169  0.6995
   13CHTO  H208 5117   6.576   5.461   3.743  0.0740 -1.4865  0.8522
   13CHTO   O74 5118   6.179   5.516   4.173 -0.2744 -0.0154 -0.5268
   13CHTO  C115 5119   6.031   5.556   4.152 -0.6405 -0.7219  0.8396
   13CHTO  H219 5120   6.006   5.559   4.046 -1.0640  0.6224  0.9771
   13CHTO   O76 5121   5.941   5.459   4.207  0.0231 -0.0297 -0.0423
   13CHTO  C122 5122   5.924   5.469   4.347 -0.3313  0.2204  0.4740
   13CHTO  H226 5123   6.022   5.479   4.393  0.7776 -0.7591 -1.5884
   13CHTO  C126 5124   5.862   5.349   4.414 -0.0777  0.5056 -0.6160
   13CHTO   O85 5125   5.922   5.223   4.370 -0.1357 -0.2689  0.0620
   13CHTO  H206 5126   5.901   5.209   4.280  1.4177 -0.8631 -0.2234
   13CHTO  C121 5127   5.850   5.595   4.384  0.2907 -0.1785 -0.3495
   13CHTO  H225 5128   5.741   5.578   4.397  0.6093 -0.3330  2.4919
   13CHTO   O81 5129   5.918   5.654   4.498  0.0744 -0.3363 -0.4161
   13CHTO  H202 5130   5.869   5.663   4.578 -0.4613  0.4750 -0.8323
   13CHTO  C119 5131   5.864   5.705   4.270 -0.0450  0.0755  0.5628
   13CHTO  H223 5132   5.795   5.681   4.189 -2.2120  2.1019  1.7327
   13CHTO  C117 5133   6.006   5.705   4.201 -0.0900 -0.1355 -0.3812
   13CHTO  H221 5134   6.090   5.719   4.269 -1.7207  1.1236  1.4189
   13CHTO   N20 5135   6.019   5.802   4.089 -0.1335 -0.0916 -0.2220
   13CHTO  H209 5136   6.114   5.853   4.094 -0.1560  0.1113 -1.8603
   13CHTO  H210 5137   5.944   5.879   4.098  0.1877  0.2470 -0.4726
   13CHTO   O80 5138   5.813   5.865   4.309 -0.5608 -0.0041 -0.0082
   13CHTO  C103 5139   5.664   5.900   4.345  1.0318  1.0126  0.0150
   13CHTO  H190 5140   5.633   6.001   4.319 -1.3631 -0.2337 -2.0661
   13CHTO  C101 5141   5.554   5.804   4.280 -0.3360  0.4588 -0.2301
   13CHTO  H188 5142   5.565   5.703   4.317 -0.8422  0.9633  1.3419
   13CHTO   O68 5143   5.571   5.806   4.125  0.3753  0.2591 -0.1275
   13CHTO  H168 5144   5.619   5.880   4.094  0.5652  0.5421  0.8194
   13CHTO   C99 5145   5.408   5.845   4.336  0.5691 -0.3488 -0.4959
   13CHTO  H186 5146   5.386   5.950   4.310  0.4008 -0.0249  0.8984
   13CHTO   N17 5147   5.303   5.754   4.284  0.0678 -0.1152  0.3550
   13CHTO  H174 5148   5.309   5.649   4.309  0.2709  0.1220  1.3342
   13CHTO  H175 5149   5.201   5.787   4.296 -0.3846 -0.6964 -1.6502
   13CHTO   C97 5150   5.414   5.846   4.493 -0.3272  0.3307  0.5373
   13CHTO  H184 5151   5.424   5.742   4.529 -0.8076  0.0216 -0.2184
   13CHTO   O64 5152   5.518   5.933   4.542 -0.3150 -0.2287  0.3475
   13CHTO  C104 5153   5.650   5.888   4.502  0.9933 -0.3651 -0.1643
   13CHTO  H191 5154   5.664   5.785   4.532  1.2166  0.0247  1.0996
   13CHTO  C108 5155   5.752   5.977   4.573 -0.2215 -0.1312  1.0152
   13CHTO   O71 5156   5.748   5.962   4.714  0.0515 -0.3567  0.4572
   13CHTO  H171 5157   5.787   6.038   4.754  1.7065 -1.3373  0.7764
   13CHTO   O62 5158   5.290   5.902   4.539 -0.1322 -0.0299 -0.5259
   13CHTO   C91 5159   5.243   5.864   4.667  0.6028 -0.1961 -1.1080
   13CHTO  H178 5160   5.315   5.788   4.699  0.1384 -0.2364 -0.1521
   13CHTO   C92 5161   5.104   5.788   4.634 -0.1317 -0.3932  0.0743
   13CHTO  H179 5162   5.038   5.845   4.567  0.3242 -1.3028 -1.1672
   13CHTO   O66 5163   5.138   5.675   4.553 -0.0397  0.4488  0.5164
   13CHTO  H166 5164   5.194   5.615   4.600 -2.8874 -1.0869  2.1613
   13CHTO   C93 5165   5.028   5.734   4.760  0.1119  0.2924  0.6481
   13CHTO  H180 5166   5.093   5.665   4.817 -0.0588 -1.4486 -1.2038
   13CHTO   N16 5167   4.904   5.652   4.731  0.1808  0.8382 -0.4668
   13CHTO  H172 5168   4.827   5.697   4.670 -0.6406  0.5015  0.3180
   13CHTO  H173 5169   4.865   5.614   4.824 -0.3939 -2.3983 -1.9397
   13CHTO   C94 5170   5.003   5.860   4.851 -0.5308 -0.8069 -0.2287
   13CHTO  H181 5171   4.942   5.936   4.803  2.1396  0.3636 -1.8648
   13CHTO   O61 5172   5.134   5.918   4.878  0.5353  0.1111 -0.4360
   13CHTO   C95 5173   5.216   5.974   4.777 -0.0619  0.7238 -0.3107
   13CHTO  H182 5174   5.160   6.057   4.734 -0.2327  1.1588  0.7400
   13CHTO  C106 5175   5.350   6.015   4.853 -0.2585  0.3107 -0.9261
   13CHTO   O69 5176   5.314   6.107   4.959 -0.0017 -0.4549  0.4430
   13CHTO  H169 5177   5.353   6.082   5.041 -1.3767  0.3658  1.3858
   13CHTO   O63 5178   4.937   5.807   5.006 -0.1635  0.0045 -0.2736
   13CHTO   C96 5179   4.907   5.921   5.109  0.6539 -0.4937 -0.7704
   13CHTO  H183 5180   4.925   6.016   5.059 -1.4540  0.7358  0.6964
   13CHTO   C98 5181   5.006   5.914   5.231  0.3590  0.7945  0.6110
   13CHTO  H185 5182   5.107   5.904   5.189 -0.1927  0.2392 -0.6417
   13CHTO   O67 5183   4.997   6.032   5.308 -0.2589  0.1698  0.4338
   13CHTO  H167 5184   5.024   6.102   5.251 -1.2350  0.6621  0.5672
   13CHTO  C102 5185   4.971   5.790   5.325 -0.4472  0.9930 -0.5158
   13CHTO  H189 5186   5.034   5.811   5.413  0.5657  0.2047 -1.0512
   13CHTO   N18 5187   5.017   5.657   5.272 -0.4497 -0.1912 -0.0595
   13CHTO  H176 5188   5.124   5.642   5.271 -0.3385  0.6828 -0.7112
   13CHTO  H177 5189   4.988   5.639   5.170 -1.2676 -0.5995  0.2377
   13CHTO  C105 5190   4.815   5.783   5.350 -0.0603 -0.3268  0.5751
   13CHTO  H192 5191   4.772   5.686   5.323  0.1132 -0.2264 -0.0731
   13CHTO   O65 5192   4.740   5.893   5.294 -0.4683  0.3279 -0.4410
   13CHTO  C100 5193   4.755   5.903   5.152 -0.3104  0.2366 -0.2268
   13CHTO  H187 5194   4.708   5.818   5.099  1.2115 -0.8482  0.1345
   13CHTO  C107 5195   4.676   6.026   5.092 -0.7992 -0.0440  0.3460
   13CHTO   O70 5196   4.540   6.021   5.109 -0.6802  0.4574  0.6277
   13CHTO  H170 5197   4.525   6.073   5.186 -0.0308  1.3588  0.1548
   13CHTO   O57 5198   4.810   5.801   5.519  0.3145 -0.2588 -0.4395
   13CHTO   C85 5199   4.784   5.688   5.609 -0.0053 -0.1910 -0.6961
   13CHTO  H157 5200   4.769   5.593   5.554  0.1064 -0.9470  0.5602
   13CHTO   C83 5201   4.640   5.710   5.665  0.1177  0.0251 -1.1115
   13CHTO  H155 5202   4.567   5.707   5.585 -0.4706  1.1187 -0.6373
   13CHTO   O56 5203   4.626   5.844   5.721 -0.4095  0.0744  0.2045
   13CHTO  H135 5204   4.536   5.870   5.716 -0.2421  0.7856  0.7985
   13CHTO   C81 5205   4.606   5.602   5.774  0.2233 -0.0447  0.0389
   13CHTO  H153 5206   4.610   5.502   5.730 -1.4851 -0.5993  1.0692
   13CHTO   N14 5207   4.473   5.609   5.839  0.2758  0.3321  0.2664
   13CHTO  H141 5208   4.410   5.660   5.769 -0.0319 -1.9086 -1.1407
   13CHTO  H142 5209   4.435   5.511   5.859 -1.5598  0.9030 -0.2933
   13CHTO   C79 5210   4.719   5.608   5.888  0.2310  0.2076 -0.3764
   13CHTO  H151 5211   4.703   5.522   5.953  1.9982  0.0840 -0.0692
   13CHTO   O52 5212   4.854   5.584   5.825 -0.2605  0.0063 -0.0210
   13CHTO   C86 5213   4.888   5.672   5.719 -0.4972 -0.6235  0.1379
   13CHTO  H158 5214   4.905   5.764   5.778  0.4293 -1.0725  0.5903
   13CHTO   C90 5215   5.031   5.619   5.669  0.4150  0.2467 -0.3032
   13CHTO   O60 5216   5.136   5.644   5.767 -0.1673 -0.3246  0.0297
   13CHTO  H138 5217   5.153   5.736   5.777  0.2377 -0.4476  0.4656
   13CHTO   O50 5218   4.724   5.728   5.961 -0.0829  0.2492 -0.5137
   13CHTO   C73 5219   4.706   5.830   6.058 -0.4530  0.3577  0.1947
   13CHTO  H145 5220   4.599   5.848   6.077 -0.3289  0.9712  0.3183
   13CHTO   C74 5221   4.762   5.966   6.014  0.7227 -0.4576 -0.4646
   13CHTO  H146 5222   4.723   5.985   5.913 -2.9589  1.5752  1.2526
   13CHTO   O54 5223   4.707   6.062   6.112  0.5864 -0.3919  0.2523
   13CHTO  H133 5224   4.706   6.036   6.203  0.2432 -1.8939 -0.1618
   13CHTO   C75 5225   4.921   5.967   6.013 -0.1618  0.3151  0.5595
   13CHTO  H147 5226   4.957   5.912   5.924  0.4307 -0.6736  1.3851
   13CHTO   N13 5227   4.991   6.092   5.999 -0.2309 -0.5043  0.4103
   13CHTO  H139 5228   5.098   6.084   6.005 -0.1526  1.4010  2.1755
   13CHTO  H140 5229   4.958   6.141   5.909 -1.4002  1.1391  1.7053
   13CHTO   C76 5230   4.982   5.888   6.149  0.1600 -0.4631 -0.4405
   13CHTO  H148 5231   4.970   5.960   6.231  1.8075  1.1349 -1.5554
   13CHTO   O49 5232   4.911   5.762   6.171 -0.2960 -0.0799 -0.2712
   13CHTO   C77 5233   4.774   5.783   6.195  0.4751 -0.1322  0.2327
   13CHTO  H149 5234   4.756   5.857   6.272 -1.4453  0.2010 -0.5074
   13CHTO   C88 5235   4.711   5.648   6.239 -0.2640  0.3181  0.3189
   13CHTO   O58 5236   4.767   5.609   6.371  0.3742  0.1234 -0.3333
   13CHTO  H136 5237   4.715   5.533   6.393  2.7274 -0.5494  3.3766
   13CHTO   O51 5238   5.114   5.843   6.133  0.0727 -0.1347 -0.5199
   13CHTO   C78 5239   5.189   5.825   6.271 -0.5412  0.6048 -0.2214
   13CHTO  H150 5240   5.114   5.819   6.353 -0.3611  3.2751  0.1912
   13CHTO   C80 5241   5.284   5.944   6.309 -0.2968 -0.4074  0.4076
   13CHTO  H152 5242   5.339   5.979   6.219  1.2020  0.0579  1.4915
   13CHTO   O55 5243   5.199   6.056   6.348 -0.4217  0.0767 -0.4820
   13CHTO  H134 5244   5.185   6.108   6.271  0.9802 -1.9012 -2.1574
   13CHTO   C84 5245   5.388   5.906   6.425  0.3214  0.0927  0.4148
   13CHTO  H156 5246   5.335   5.887   6.518 -1.9489 -2.0501 -1.2507
   13CHTO   N15 5247   5.491   6.012   6.462 -0.0703 -0.6450 -0.8055
   13CHTO  H143 5248   5.438   6.104   6.450  1.4519  0.8944  3.2130
   13CHTO  H144 5249   5.523   6.004   6.564 -2.7350  1.2107  0.2342
   13CHTO   C87 5250   5.452   5.773   6.384 -0.3252 -0.6476 -0.1519
   13CHTO  H159 5251   5.506   5.789   6.291 -0.2834 -0.7751 -0.1505
   13CHTO   O53 5252   5.355   5.658   6.374  0.3617 -0.0022  0.2939
   13CHTO   C82 5253   5.267   5.686   6.264 -0.4783  0.0847 -0.1326
   13CHTO  H154 5254   5.323   5.684   6.171 -1.3207 -2.8024 -0.6360
   13CHTO   C89 5255   5.188   5.561   6.266  0.3950 -0.2629  0.7681
   13CHTO   O59 5256   5.105   5.533   6.150 -0.4863 -0.5011  0.6864
   13CHTO  H137 5257   5.017   5.514   6.178 -0.9106 -0.2749 -0.4763
   13CHTO   O45 5258   5.571   5.716   6.499 -0.6538  1.0955  0.1815
   13CHTO   C67 5259   5.704   5.728   6.456 -0.1167  0.3560  0.4497
   13CHTO  H124 5260   5.698   5.762   6.353  2.8649 -1.9450 -0.5556
   13CHTO   C65 5261   5.798   5.835   6.536  0.1907  0.6230 -0.6070
   13CHTO  H122 5262   5.739   5.851   6.626 -2.0225 -1.0251 -1.7325
   13CHTO   O44 5263   5.805   5.954   6.451 -0.0580  0.0834 -0.0121
   13CHTO  H102 5264   5.838   6.033   6.489  1.9703  0.1675 -1.7926
   13CHTO   C63 5265   5.934   5.776   6.578 -0.0108 -0.4563  0.0523
   13CHTO  H120 5266   5.913   5.702   6.655  2.4010 -2.8236 -1.4542
   13CHTO   N11 5267   6.023   5.878   6.644  0.5042 -0.2645 -0.1334
   13CHTO  H108 5268   5.979   5.916   6.734 -0.2484  0.2177 -0.7052
   13CHTO  H109 5269   6.113   5.831   6.677  0.9480 -0.7074 -1.9304
   13CHTO   C61 5270   6.005   5.709   6.452 -0.1440 -0.3689  0.4841
   13CHTO  H118 5271   6.088   5.653   6.498 -0.6482  0.0107  1.8905
   13CHTO   O40 5272   5.916   5.613   6.396  0.0747  0.0116 -0.5304
   13CHTO   C68 5273   5.783   5.599   6.454 -0.1867  0.1402 -0.9094
   13CHTO  H125 5274   5.801   5.552   6.553 -1.5427  1.7173  0.1173
   13CHTO   C72 5275   5.704   5.493   6.372  0.2755 -0.0368  0.6068
   13CHTO   O48 5276   5.755   5.358   6.391 -0.3552 -0.1558 -0.3340
   13CHTO  H105 5277   5.846   5.349   6.367 -1.3122 -2.2934 -3.5186
   13CHTO   O38 5278   6.048   5.797   6.347 -0.5618 -0.1856  0.2098
   13CHTO   C55 5279   6.124   5.744   6.233 -0.1695 -0.1549 -0.9230
   13CHTO  H112 5280   6.108   5.635   6.227 -0.9946 -0.0637 -0.4523
   13CHTO   C56 5281   6.276   5.784   6.252  0.3075 -0.0742  0.4658
   13CHTO  H113 5282   6.269   5.891   6.273 -2.2022 -0.1958  0.3828
   13CHTO   O42 5283   6.327   5.721   6.371 -0.2709 -0.4746  0.4181
   13CHTO  H100 5284   6.420   5.729   6.378  0.2021 -3.9071 -0.9629
   13CHTO   C57 5285   6.360   5.755   6.124  0.1611 -0.0296 -0.0517
   13CHTO  H114 5286   6.368   5.647   6.114  1.3310 -0.3900  3.8678
   13CHTO   N10 5287   6.504   5.793   6.145  0.4293 -0.3261 -0.1651
   13CHTO  H106 5288   6.558   5.790   6.052  0.3953 -1.7941 -0.1434
   13CHTO  H107 5289   6.546   5.718   6.211 -1.4930  0.3554  1.9144
   13CHTO   C58 5290   6.288   5.809   5.999  0.7228  0.6674 -0.0399
   13CHTO  H115 5291   6.292   5.919   6.006 -1.8813  0.7577  0.6339
   13CHTO   O37 5292   6.149   5.763   5.993  0.5381  0.2198  0.3866
   13CHTO   C59 5293   6.067   5.807   6.105 -0.1045 -0.0138 -0.2051
   13CHTO  H116 5294   6.057   5.915   6.113 -2.4238 -0.2665  0.8677
   13CHTO   C70 5295   5.923   5.757   6.071 -0.1390 -0.2261 -0.2366
   13CHTO   O46 5296   5.850   5.832   5.976 -0.0124 -0.2371 -0.1894
   13CHTO  H103 5297   5.846   5.921   6.006  1.9205 -0.3841  0.5284
   13CHTO   O39 5298   6.352   5.765   5.862  0.2963 -0.0962  0.3608
   13CHTO   C60 5299   6.416   5.876   5.794 -0.0322 -0.1150  0.3629
   13CHTO  H117 5300   6.438   5.958   5.862 -0.4561  1.5756 -1.4883
   13CHTO   C62 5301   6.552   5.831   5.724 -0.0025 -0.0775 -0.0455
   13CHTO  H119 5302   6.613   5.790   5.807 -1.7149  1.7811  2.1923
   13CHTO   O43 5303   6.535   5.735   5.618  0.1116 -0.4568 -0.3153
   13CHTO  H101 5304   6.516   5.650   5.654  2.0286  0.1978  2.4447
   13CHTO   C66 5305   6.623   5.971   5.671  0.5489  0.3255 -0.4202
   13CHTO  H123 5306   6.647   6.034   5.756  0.1811 -0.6485  0.4062
   13CHTO   N12 5307   6.756   5.937   5.620 -0.0395  0.0908 -0.1910
   13CHTO  H110 5308   6.772   5.953   5.515 -1.9944 -1.8609 -0.8461
   13CHTO  H111 5309   6.833   5.993   5.670  1.3074 -2.0910  0.2409
   13CHTO   C69 5310   6.529   6.056   5.578  0.2848 -0.3138  0.6030
   13CHTO  H126 5311   6.524   6.028   5.471 -2.4121 -0.3636  0.7117
   13CHTO   O41 5312   6.383   6.071   5.638  0.6222 -0.4240  0.4530
   13CHTO   C64 5313   6.332   5.939   5.682  0.9092  0.1011  0.3572
   13CHTO  H121 5314   6.329   5.865   5.598  1.4225  0.3262  0.1417
   13CHTO   C71 5315   6.177   5.954   5.705 -0.2862 -0.5662  0.1252
   13CHTO   O47 5316   6.155   6.063   5.798  0.3542 -0.1474 -0.1198
   13CHTO  H104 5317   6.217   6.126   5.768  2.2292 -1.8042  0.1363
   13CHTO   O34 5318   6.578   6.192   5.575 -0.1478  0.6260 -0.1662
   13CHTO   C49 5319   6.573   6.339   5.511 -0.0518 -0.3553  0.1909
   13CHTO   H91 5320   6.591   6.343   5.404 -0.5618  0.0536  0.1202
   13CHTO   C47 5321   6.688   6.409   5.585 -0.3994 -0.7429  0.3624
   13CHTO   H89 5322   6.705   6.503   5.529 -1.4576  0.4599  2.0107
   13CHTO   O33 5323   6.806   6.334   5.572 -0.5507 -0.3383  0.5573
   13CHTO   H70 5324   6.825   6.286   5.651 -0.8084 -1.0163  0.2134
   13CHTO   C45 5325   6.651   6.458   5.735  0.0866  0.0313 -0.3276
   13CHTO   H87 5326   6.703   6.389   5.803  0.7433  2.5867  1.8346
   13CHTO    N8 5327   6.715   6.590   5.773  0.9152  0.3315 -0.8318
   13CHTO   H75 5328   6.817   6.593   5.736  2.0617  0.4041  2.1725
   13CHTO   H76 5329   6.656   6.678   5.753  1.3653  0.4375 -1.7129
   13CHTO   C43 5330   6.497   6.435   5.768  0.1448  0.0699 -0.1571
   13CHTO   H85 5331   6.485   6.326   5.771  2.3030 -0.2704 -1.9760
   13CHTO   O29 5332   6.421   6.495   5.656 -0.6285  0.0877 -0.3321
   13CHTO   C50 5333   6.435   6.415   5.536 -0.3862 -0.1557 -0.7108
   13CHTO   H92 5334   6.363   6.333   5.528  2.2207 -2.4652 -1.1061
   13CHTO   C54 5335   6.402   6.505   5.420 -1.1629 -0.9351 -0.0052
   13CHTO   O36 5336   6.489   6.611   5.392 -0.4181  0.3216 -0.6406
   13CHTO   H72 5337   6.560   6.589   5.335 -1.6788 -0.0565 -2.0855
   13CHTO   O27 5338   6.469   6.486   5.903 -0.2527  0.2202  0.3455
   13CHTO   C37 5339   6.401   6.431   6.012 -0.2607  0.1033 -0.1858
   13CHTO   H79 5340   6.295   6.414   5.985 -0.9369  2.2158  1.0427
   13CHTO   C38 5341   6.460   6.304   6.062 -0.1962  0.4536  0.4127
   13CHTO   H80 5342   6.570   6.310   6.065 -0.0263 -0.5053 -2.2983
   13CHTO   O31 5343   6.424   6.201   5.970 -0.6843  0.2083  0.4362
   13CHTO   H68 5344   6.458   6.114   5.978  0.9970  0.6571 -1.3472
   13CHTO   C39 5345   6.401   6.268   6.206  0.4010  0.4536 -0.3318
   13CHTO   H81 5346   6.297   6.242   6.187  0.5588 -0.4271 -0.0410
   13CHTO    N7 5347   6.457   6.148   6.265  0.0487  0.2338 -0.3832
   13CHTO   H73 5348   6.564   6.160   6.254  0.6891 -1.7176  2.9018
   13CHTO   H74 5349   6.439   6.138   6.371 -3.5888 -0.0549 -0.9550
   13CHTO   C40 5350   6.400   6.388   6.308 -0.0752  0.3000  0.1950
   13CHTO   H82 5351   6.505   6.406   6.332 -0.4829  1.5966  1.0832
   13CHTO   O26 5352   6.344   6.502   6.251  0.1525 -0.0422 -0.5145
   13CHTO   C41 5353   6.408   6.535   6.123  0.0482  0.2301  0.0819
   13CHTO   H83 5354   6.514   6.562   6.132  0.9667 -2.8700 -0.7570
   13CHTO   C52 5355   6.344   6.667   6.066  0.3148  0.2538  0.0723
   13CHTO   O35 5356   6.227   6.654   6.046  0.2467 -0.4218 -0.6921
   13CHTO   H71 5357   6.186   6.695   6.120  2.1356  0.3812 -0.0677
   13CHTO   O28 5358   6.337   6.351   6.433 -0.0178  0.0072  0.0584
   13CHTO   C42 5359   6.288   6.448   6.526  0.6127  0.7388  0.3455
   13CHTO   H84 5360   6.220   6.505   6.463  1.4679 -1.6330 -2.8597
   13CHTO   C44 5361   6.396   6.552   6.584  0.1693 -0.4997  0.6157
   13CHTO   H86 5362   6.483   6.498   6.623  0.6244  0.1954  0.5675
   13CHTO   O32 5363   6.453   6.636   6.479 -0.1508 -0.1289 -0.6126
   13CHTO   H69 5364   6.518   6.591   6.428  1.5504  1.1734  0.3351
   13CHTO   C48 5365   6.329   6.640   6.698  0.1009 -0.6347 -0.2642
   13CHTO   H90 5366   6.267   6.709   6.640 -1.6081  0.1216  2.3556
   13CHTO    N9 5367   6.431   6.718   6.769  0.0677  0.4608 -0.0953
   13CHTO   H77 5368   6.430   6.691   6.874 -1.6896 -1.1397 -0.5025
   13CHTO   H78 5369   6.399   6.821   6.767 -0.9621  0.1073 -2.7035
   13CHTO   C51 5370   6.238   6.550   6.793 -0.0249 -0.7213  0.0310
   13CHTO   H93 5371   6.308   6.499   6.859  2.1808  2.6534  0.4267
   13CHTO   O30 5372   6.145   6.471   6.717 -0.2222  0.2993 -0.1837
   13CHTO   C46 5373   6.203   6.373   6.638  0.1971  0.2263  0.2274
   13CHTO   H88 5374   6.270   6.321   6.706  1.5273  1.2656 -0.2776
   13CHTO   C53 5375   6.083   6.288   6.577  0.2314 -0.4701 -0.1970
   13CHTO   O72 5376   6.124   6.171   6.501 -0.2240  0.8374 -0.1187
   13CHTO  H199 5377   6.187   6.200   6.438  0.9555 -0.8035  0.2615
   13CHTO   O22 5378   6.160   6.638   6.877  0.2876 -0.4116  0.0536
   13CHTO   C31 5379   6.095   6.606   7.009 -0.4007 -0.6942  0.5946
   13CHTO   H59 5380   5.989   6.634   6.997  0.1153  0.7727 -0.6280
   13CHTO   C29 5381   6.091   6.459   7.062  0.6148  0.8055  0.1296
   13CHTO   H57 5382   6.194   6.421   7.055  0.2957 -0.2448  1.1373
   13CHTO   O21 5383   6.014   6.387   6.966  0.3697 -0.1678  0.4273
   13CHTO   H37 5384   6.049   6.369   6.881 -1.0120 -1.5771  0.1359
   13CHTO   C27 5385   6.032   6.437   7.206 -0.1451  0.3733  0.0900
   13CHTO   H55 5386   5.923   6.453   7.199 -0.0650 -0.0393 -2.3791
   13CHTO    N5 5387   6.057   6.311   7.275  0.3907  0.3193  0.5557
   13CHTO   H43 5388   5.966   6.253   7.279 -0.3022  1.4639  1.9167
   13CHTO   H44 5389   6.143   6.253   7.246 -0.1073 -0.5941  0.8746
   13CHTO   C25 5390   6.081   6.549   7.307 -0.0577  0.8405 -0.4117
   13CHTO   H53 5391   6.183   6.531   7.344 -0.0252  0.3971 -0.7134
   13CHTO   O17 5392   6.072   6.675   7.243  0.2470 -0.2300  0.1739
   13CHTO   C32 5393   6.147   6.703   7.124  0.5777  0.1043  0.1021
   13CHTO   H60 5394   6.250   6.682   7.150 -0.2258 -2.5417  1.3042
   13CHTO   C36 5395   6.133   6.852   7.097  0.3552 -0.1890  0.4355
   13CHTO   O25 5396   6.226   6.892   6.995 -0.4273  0.1173  0.1895
   13CHTO   H40 5397   6.209   6.977   6.959  0.0083  1.2120  2.4940
   13CHTO   O15 5398   6.007   6.546   7.439 -0.6773  0.5182  0.2401
   13CHTO   C19 5399   5.939   6.641   7.521  0.6272 -0.4330  0.1037
   13CHTO   H47 5400   5.926   6.585   7.615  0.3049 -2.0899 -0.9161
   13CHTO   C20 5401   6.019   6.770   7.550 -0.3802  0.0820 -0.4190
   13CHTO   H48 5402   6.056   6.815   7.457  0.3311  0.5644  0.0917
   13CHTO   O19 5403   6.134   6.728   7.631 -0.0230  0.9252 -0.2032
   13CHTO   H35 5404   6.106   6.710   7.719 -0.7177 -0.9067 -0.7854
   13CHTO   C21 5405   5.936   6.884   7.626 -0.0423 -0.3121 -0.4150
   13CHTO   H49 5406   5.923   6.855   7.730 -0.0224 -2.6912 -1.0344
   13CHTO    N4 5407   6.010   7.018   7.621 -0.1522  0.8621  0.4172
   13CHTO   H41 5408   5.986   7.080   7.706 -0.5416  0.8106  0.3449
   13CHTO   H42 5409   5.963   7.059   7.532 -1.4856 -0.2776  0.5880
   13CHTO   C22 5410   5.792   6.892   7.557  0.3057  0.2252  0.7258
   13CHTO   H50 5411   5.810   6.928   7.456 -1.6132  0.5927  0.4919
   13CHTO   O14 5412   5.735   6.764   7.553  0.3529  0.2333  0.1623
   13CHTO   C23 5413   5.796   6.667   7.469  0.1919  0.0459 -0.5079
   13CHTO   H51 5414   5.797   6.703   7.364  2.4295  0.4301 -0.3888
   13CHTO   C34 5415   5.723   6.532   7.468 -0.1307  0.2295  0.0901
   13CHTO   O23 5416   5.725   6.455   7.585 -0.6623 -0.6595  0.2423
   13CHTO   H38 5417   5.702   6.367   7.562  0.7212 -0.9723  0.0074
   13CHTO   O16 5418   5.702   6.978   7.631  0.0798  0.2559 -0.1494
   13CHTO   C24 5419   5.577   7.039   7.538 -0.6344  0.2167 -0.0304
   13CHTO   H52 5420   5.563   6.979   7.449  0.7381  1.2438 -0.9679
   13CHTO   C26 5421   5.604   7.186   7.497 -0.0554 -0.4184  0.2823
   13CHTO   H54 5422   5.620   7.251   7.586  1.8847 -0.1709 -0.2264
   13CHTO   O20 5423   5.716   7.194   7.410  0.1394  0.2866 -0.5148
   13CHTO   H36 5424   5.744   7.284   7.413 -1.0718  0.6501  0.0953
   13CHTO   C30 5425   5.471   7.250   7.437 -0.2810 -0.9640 -0.7135
   13CHTO   H58 5426   5.452   7.202   7.339 -1.3812  0.1006 -1.0400
   13CHTO    N6 5427   5.478   7.396   7.413  0.5316 -0.6375 -0.0443
   13CHTO   H45 5428   5.386   7.450   7.401  0.4495 -0.7590  0.0405
   13CHTO   H46 5429   5.551   7.427   7.339  1.9307  0.3072  1.6745
   13CHTO   C33 5430   5.342   7.215   7.523  0.3023 -0.9348  0.2660
   13CHTO   H61 5431   5.350   7.265   7.621  1.3920  1.3206 -0.9317
   13CHTO   O18 5432   5.330   7.074   7.547 -0.1390  0.3283  0.1762
   13CHTO   C28 5433   5.447   7.029   7.620 -0.0873 -0.2495  0.1957
   13CHTO   H56 5434   5.458   7.095   7.706  0.4221 -1.3935  1.0267
   13CHTO   C35 5435   5.410   6.889   7.669 -0.0872 -0.0200  0.3661
   13CHTO   O24 5436   5.342   6.902   7.793  0.5709  0.3625  0.5280
   13CHTO   H39 5437   5.388   6.847   7.854 -0.0605 -0.1090  0.5742
   13CHTO    O9 5438   5.224   7.268   7.459 -0.5381  0.4818  0.2807
   13CHTO   C13 5439   5.096   7.291   7.571  0.8124  0.3156 -0.0448
   13CHTO   H26 5440   5.141   7.325   7.667 -0.0008  1.7165 -0.1507
   13CHTO   C11 5441   5.029   7.151   7.594 -0.9525  0.6192 -0.7626
   13CHTO   H24 5442   5.107   7.086   7.637 -0.1041  1.6728 -0.6607
   13CHTO    O8 5443   5.014   7.092   7.466 -0.8000 -0.0245 -0.4819
   13CHTO    H3 5444   4.929   7.115   7.433 -0.3979  3.2952  0.5443
   13CHTO    C9 5445   4.896   7.165   7.674  0.6012 -0.5541 -0.6124
   13CHTO   H22 5446   4.923   7.206   7.772 -1.4582 -1.8459  0.5503
   13CHTO    N2 5447   4.834   7.034   7.724 -0.0237  0.3321  0.1010
   13CHTO   H10 5448   4.826   6.971   7.636 -3.0522  1.1984 -0.3062
   13CHTO   H11 5449   4.734   7.051   7.762 -0.8332 -1.4225 -1.1524
   13CHTO    C7 5450   4.791   7.261   7.604 -0.4296  0.5475 -0.0487
   13CHTO   H20 5451   4.773   7.340   7.680  1.1248  0.7034  0.1712
   13CHTO    O4 5452   4.858   7.322   7.491 -0.1267  0.1417  0.2718
   13CHTO   C14 5453   4.984   7.392   7.521 -0.0292  0.2032  0.1470
   13CHTO   H27 5454   4.965   7.470   7.598  0.0279 -0.0943  0.4631
   13CHTO   C18 5455   5.032   7.467   7.391 -0.1222 -0.6175 -0.5108
   13CHTO   O13 5456   5.154   7.542   7.398  0.0727 -0.1795 -0.1872
   13CHTO    H7 5457   5.177   7.572   7.312 -0.2366 -1.4172 -0.7158
   13CHTO    O2 5458   4.663   7.204   7.550 -0.1015 -0.3235 -0.9206
   13CHTO    C1 5459   4.547   7.290   7.532 -0.2892  0.6550 -0.3601
   13CHTO   H14 5460   4.581   7.389   7.495 -1.2902  1.1005 -0.1103
   13CHTO    C2 5461   4.435   7.313   7.649 -0.4242 -0.4805  0.1297
   13CHTO   H15 5462   4.420   7.217   7.701 -0.3168 -0.9311 -0.6755
   13CHTO    O6 5463   4.494   7.398   7.744 -0.5716 -0.1108  0.0727
   13CHTO    H1 5464   4.495   7.358   7.829  2.5157 -1.2588 -0.4122
   13CHTO    C3 5465   4.303   7.383   7.596 -0.0468 -0.2482  0.2454
   13CHTO   H16 5466   4.319   7.486   7.562 -0.3138 -0.8756 -1.9048
   13CHTO    N1 5467   4.185   7.380   7.703 -0.0689  0.4272  0.0856
   13CHTO    H8 5468   4.099   7.394   7.641  1.1122  1.9047 -1.2562
   13CHTO    H9 5469   4.205   7.460   7.773  2.6525 -0.9080  0.9154
   13CHTO    C4 5470   4.263   7.304   7.471  0.5035 -0.5783  0.2485
   13CHTO   H17 5471   4.235   7.201   7.497 -0.1224 -0.4220  0.2023
   13CHTO    O1 5472   4.361   7.308   7.368  0.0696 -0.2283  0.6340
   13CHTO    C5 5473   4.480   7.237   7.404 -0.0300  0.5335  0.9270
   13CHTO   H18 5474   4.450   7.133   7.418 -1.5597  0.8359  0.0889
   13CHTO   C16 5475   4.577   7.245   7.285  0.0363 -0.0486  0.7520
   13CHTO   O11 5476   4.513   7.192   7.168 -0.1488 -0.2295  0.0518
   13CHTO    H5 5477   4.420   7.187   7.165 -0.1439  0.3309 -1.7193
   13CHTO    O3 5478   4.148   7.371   7.410 -0.1078  0.3872 -0.0977
   13CHTO    C6 5479   4.057   7.285   7.327  0.3130 -0.0350 -0.4860
   13CHTO   H19 5480   4.106   7.189   7.308 -0.9631 -0.5097 -1.4424
   13CHTO    C8 5481   3.926   7.257   7.408  0.2004 -0.2551  0.0879
   13CHTO   H21 5482   3.893   7.355   7.444 -1.7512 -0.6905 -0.4362
   13CHTO    O7 5483   3.969   7.179   7.520 -0.2207 -0.0443 -0.6083
   13CHTO    H2 5484   3.927   7.095   7.524 -1.4562  0.5734 -0.2990
   13CHTO   C12 5485   3.817   7.185   7.321 -0.7511  0.3022 -0.4283
   13CHTO   H25 5486   3.859   7.089   7.283 -0.1430  0.5547 -0.4065
   13CHTO    N3 5487   3.694   7.149   7.401 -0.1233  0.0782 -0.3857
   13CHTO   H12 5488   3.652   7.227   7.462  1.9372  0.2852  0.8056
   13CHTO   H13 5489   3.707   7.060   7.461  0.4417 -0.5329 -1.3858
   13CHTO   C15 5490   3.798   7.273   7.191  0.5629  0.5684 -0.0547
   13CHTO   H28 5491   3.767   7.375   7.215 -0.1777 -0.0119  1.4943
   13CHTO   O10 5492   3.712   7.206   7.083  0.4931 -0.4911  0.0273
   13CHTO    H4 5493   3.725   7.113   7.087 -0.4911 -0.5793  1.5650
   13CHTO    O5 5494   3.922   7.266   7.126  0.4351 -0.0866  0.0813
   13CHTO   C10 5495   4.021   7.346   7.192 -0.4479 -0.0687 -0.6219
   13CHTO   H23 5496   3.983   7.445   7.218 -2.0627 -0.5871 -0.9586
   13CHTO   C17 5497   4.146   7.353   7.108 -0.0591  0.3155 -0.3634
   13CHTO   O12 5498   4.135   7.429   6.985 -0.6050 -0.5984 -0.1347
   13CHTO    H6 5499   4.160   7.372   6.915 -1.8880 -0.8012 -0.4420
   14CHTO  H203 5500   5.269   6.205   5.820  0.1317  0.3818 -0.7926
   14CHTO   O82 5501   5.238   6.147   5.752  0.1716  0.2618 -0.7089
   14CHTO  C123 5502   5.349   6.063   5.707  0.1279 -0.3869 -0.5395
   14CHTO  H227 5503   5.435   6.127   5.682 -0.3085  0.0453 -0.9283
   14CHTO   O77 5504   5.373   5.995   5.836 -0.0992 -0.2481  0.1724
   14CHTO  C118 5505   5.478   5.893   5.833 -0.1769  0.1326 -0.1368
   14CHTO  H222 5506   5.572   5.945   5.809  0.0514 -0.2843 -0.1482
   14CHTO  C125 5507   5.491   5.835   5.976  1.0521  0.2773 -0.0714
   14CHTO   O84 5508   5.562   5.921   6.059 -0.1862 -0.9052 -0.6685
   14CHTO  H205 5509   5.521   6.005   6.065  1.8394  0.0106  0.9355
   14CHTO  C114 5510   5.450   5.786   5.725 -0.2765  0.8946 -0.0460
   14CHTO  H218 5511   5.358   5.736   5.754 -0.0335  1.4276  1.7160
   14CHTO  C116 5512   5.421   5.843   5.585  0.5474  0.4390  0.7285
   14CHTO  H220 5513   5.511   5.885   5.534  0.0944  0.8308  0.2519
   14CHTO   O79 5514   5.376   5.727   5.507 -1.3705 -0.2620  0.2748
   14CHTO  H201 5515   5.283   5.734   5.490 -1.4125 -0.5417  0.3903
   14CHTO  C120 5516   5.308   5.961   5.600  0.8102  0.0752  0.1771
   14CHTO  H224 5517   5.207   5.920   5.622  0.6684  1.3405  1.9560
   14CHTO   N21 5518   5.290   6.021   5.467  0.1014  0.0027 -1.1263
   14CHTO  H211 5519   5.239   6.115   5.478 -0.6233 -0.4674 -0.3937
   14CHTO  H212 5520   5.385   6.034   5.418  0.3962 -1.1800 -0.8942
   14CHTO   O75 5521   5.564   5.695   5.732 -0.1386 -0.5439  0.1017
   14CHTO  C112 5522   5.545   5.519   5.721 -0.6048  0.5704 -0.4669
   14CHTO  H216 5523   5.638   5.468   5.691 -1.0906 -1.1657  0.9406
   14CHTO   O73 5524   5.440   5.495   5.626  0.2523  0.0425 -0.2838
   14CHTO  C113 5525   5.396   5.364   5.599 -0.2938 -0.4906  0.0073
   14CHTO  H217 5526   5.486   5.311   5.559  1.4049  2.8325 -0.7108
   14CHTO  C124 5527   5.296   5.362   5.484 -0.4954 -0.1524 -0.0452
   14CHTO   O83 5528   5.366   5.392   5.361 -0.7809 -0.2353  0.0207
   14CHTO  H204 5529   5.352   5.483   5.345 -1.6312 -0.8414 -3.0167
   14CHTO  C109 5530   5.346   5.300   5.734 -0.2943 -0.5020  0.0785
   14CHTO  H213 5531   5.262   5.361   5.770 -0.7804 -0.8083 -0.5183
   14CHTO  C110 5532   5.463   5.313   5.839 -0.2657  0.8841 -0.7170
   14CHTO  H214 5533   5.542   5.250   5.796  0.1604  0.1087  1.1581
   14CHTO   O78 5534   5.419   5.251   5.958  0.4617 -0.1879 -0.1004
   14CHTO  H200 5535   5.492   5.246   6.017 -0.3339  1.0982  1.0302
   14CHTO  C111 5536   5.506   5.462   5.858  0.0143 -0.6576  0.2842
   14CHTO  H215 5537   5.417   5.516   5.893 -0.4987  0.1543 -2.1587
   14CHTO   N19 5538   5.618   5.489   5.955  0.4874 -0.0590  0.1344
   14CHTO  H207 5539   5.625   5.592   5.985  2.4492  0.5312 -2.2223
   14CHTO  H208 5540   5.596   5.431   6.044 -2.2243  0.2152 -0.3043
   14CHTO   O74 5541   5.303   5.161   5.732 -0.2945  0.0808  0.1298
   14CHTO  C115 5542   5.145   5.131   5.700 -0.5486  0.7175 -0.6546
   14CHTO  H219 5543   5.097   5.209   5.641 -2.4097  0.6509  0.7011
   14CHTO   O76 5544   5.125   4.993   5.633 -0.0313  0.0802 -0.1861
   14CHTO  C122 5545   4.990   4.952   5.611 -0.4972  0.0916 -0.1635
   14CHTO  H226 5546   5.010   4.851   5.573  0.5104 -0.4479  1.7183
   14CHTO  C126 5547   4.938   5.029   5.490 -0.0457  0.4901 -0.6989
   14CHTO   O85 5548   4.990   4.996   5.364  0.5966 -0.1566 -0.2614
   14CHTO  H206 5549   5.075   5.033   5.349  0.3540 -0.1616 -1.7057
   14CHTO  C121 5550   4.899   4.953   5.743 -1.1244 -0.0781  0.0464
   14CHTO  H225 5551   4.791   4.949   5.715 -0.8648 -0.0831 -0.9652
   14CHTO   O81 5552   4.928   4.840   5.828  0.3235 -0.2942  0.5187
   14CHTO  H202 5553   5.003   4.855   5.883  0.8586  0.2175 -0.3425
   14CHTO  C119 5554   4.923   5.091   5.817 -0.2743 -0.7636  0.5464
   14CHTO  H223 5555   4.878   5.163   5.748 -0.3294 -0.4415  0.9191
   14CHTO  C117 5556   5.066   5.123   5.839 -0.6493 -0.4295 -0.0503
   14CHTO  H221 5557   5.131   5.051   5.889 -0.5731 -0.1417  0.2700
   14CHTO   N20 5558   5.079   5.239   5.920  0.4510 -0.0173  0.2325
   14CHTO  H209 5559   5.112   5.214   6.020 -0.5720  1.0606  0.8430
   14CHTO  H210 5560   5.131   5.323   5.878  0.3060  0.8563  1.7621
   14CHTO   O80 5561   4.822   5.104   5.954  0.2342  0.0112 -0.7484
   14CHTO  C103 5562   4.707   5.191   5.957  0.4145 -0.3672  0.2747
   14CHTO  H190 5563   4.726   5.288   5.912 -2.0700  0.6437  1.3233
   14CHTO  C101 5564   4.586   5.131   5.875 -0.8918  0.3756 -0.3913
   14CHTO  H188 5565   4.569   5.029   5.909  1.1892 -0.5597 -2.0158
   14CHTO   O68 5566   4.638   5.126   5.719 -0.1347  0.3779 -0.4387
   14CHTO  H168 5567   4.703   5.059   5.709 -0.2015 -0.3877  3.7476
   14CHTO   C99 5568   4.455   5.223   5.895 -0.2099 -0.1101 -0.5914
   14CHTO  H186 5569   4.473   5.320   5.844 -0.0796  0.0004 -0.3394
   14CHTO   N17 5570   4.329   5.166   5.832 -0.2602  0.4107  0.3345
   14CHTO  H174 5571   4.337   5.154   5.726  1.1951  2.4169  0.1867
   14CHTO  H175 5572   4.280   5.085   5.884 -0.4974  0.8314  0.7842
   14CHTO   C97 5573   4.437   5.250   6.042  0.3101  0.1726  0.0403
   14CHTO  H184 5574   4.391   5.159   6.083 -1.3719  1.0600  0.1912
   14CHTO   O64 5575   4.552   5.299   6.114  0.2501 -0.5103 -0.4160
   14CHTO  C104 5576   4.672   5.215   6.113  0.1322 -0.1315 -0.4899
   14CHTO  H191 5577   4.661   5.116   6.157  3.2987 -0.3930 -0.1498
   14CHTO  C108 5578   4.786   5.277   6.191 -0.4456  0.3099  0.5270
   14CHTO   O71 5579   4.740   5.325   6.319  0.0902  0.1487 -0.2283
   14CHTO  H171 5580   4.817   5.360   6.360  1.1640 -1.8090 -0.4975
   14CHTO   O62 5581   4.340   5.352   6.075 -0.4534 -0.3731  0.4867
   14CHTO   C91 5582   4.300   5.377   6.212  0.4795 -0.3137  0.0383
   14CHTO  H178 5583   4.330   5.296   6.277  1.8028 -0.0484 -0.2263
   14CHTO   C92 5584   4.140   5.371   6.205  0.2001  0.0138  0.2369
   14CHTO  H179 5585   4.119   5.277   6.151  0.2276  1.6953 -2.8052
   14CHTO   O66 5586   4.083   5.358   6.337 -0.0807 -0.3648 -0.4775
   14CHTO  H166 5587   3.991   5.340   6.347 -0.1627  0.1058 -0.3662
   14CHTO   C93 5588   4.063   5.491   6.136 -0.2449 -0.6506  0.5861
   14CHTO  H180 5589   3.968   5.509   6.189 -0.5728 -1.8245  0.4285
   14CHTO   N16 5590   4.016   5.465   5.995 -0.4813 -0.2954  0.7808
   14CHTO  H172 5591   3.935   5.534   5.976  1.4979  0.9594 -3.8401
   14CHTO  H173 5592   4.094   5.490   5.924 -0.9527 -0.0468  0.3463
   14CHTO   C94 5593   4.157   5.619   6.144 -0.5221  0.1627 -0.4217
   14CHTO  H181 5594   4.231   5.619   6.065 -0.2322 -0.7852 -0.1458
   14CHTO   O61 5595   4.223   5.623   6.273  0.2775 -0.0892 -0.2625
   14CHTO   C95 5596   4.331   5.523   6.275 -0.3602 -0.1162 -0.9189
   14CHTO  H182 5597   4.411   5.564   6.212  1.5791 -2.0109  0.2519
   14CHTO  C106 5598   4.397   5.522   6.417 -0.6190  0.3850  0.1245
   14CHTO   O69 5599   4.511   5.433   6.418 -0.3569  0.3478  0.0116
   14CHTO  H169 5600   4.492   5.355   6.467 -0.7265 -0.8120 -1.8913
   14CHTO   O63 5601   4.050   5.756   6.133  0.1949  0.8302  0.5391
   14CHTO   C96 5602   4.085   5.877   6.024 -0.1831  0.1284  0.0777
   14CHTO  H183 5603   4.024   5.963   6.052  0.1841  0.9455 -1.6121
   14CHTO   C98 5604   4.068   5.824   5.878 -0.5155  0.0917  0.3233
   14CHTO  H185 5605   4.114   5.727   5.852  0.1646  1.3879 -3.6543
   14CHTO   O67 5606   3.923   5.806   5.857 -0.0439 -0.1399  0.5390
   14CHTO  H167 5607   3.888   5.752   5.926 -0.8670 -1.5364 -0.9358
   14CHTO  C102 5608   4.123   5.937   5.777 -0.0101  0.3138 -0.1798
   14CHTO  H189 5609   4.055   6.023   5.787  0.8197  0.8755  0.6808
   14CHTO   N18 5610   4.111   5.902   5.633 -0.0685 -0.7227 -0.7893
   14CHTO  H176 5611   4.067   5.980   5.573  1.4059 -0.5354 -1.6519
   14CHTO  H177 5612   4.204   5.863   5.593 -1.5911 -2.3623 -2.8348
   14CHTO  C105 5613   4.264   5.987   5.822 -0.2378 -0.6632 -0.4193
   14CHTO  H192 5614   4.337   5.908   5.807 -1.0100 -1.2161 -1.3242
   14CHTO   O65 5615   4.276   6.031   5.961  0.3327 -0.0099 -0.2487
   14CHTO  C100 5616   4.232   5.926   6.054 -0.0865 -0.1151 -0.0900
   14CHTO  H187 5617   4.288   5.833   6.042 -1.1391 -1.2070  3.0710
   14CHTO  C107 5618   4.237   5.975   6.197  0.2304 -0.3251 -0.2241
   14CHTO   O70 5619   4.361   6.029   6.250  0.3304 -0.0998  0.4124
   14CHTO  H170 5620   4.427   5.996   6.191 -1.1161 -1.4448 -0.5158
   14CHTO   O57 5621   4.295   6.112   5.731  0.0654  0.0959  0.5752
   14CHTO   C85 5622   4.392   6.096   5.624  0.1958  0.1558  0.6993
   14CHTO  H157 5623   4.406   5.991   5.591  0.3681  0.2155  0.5820
   14CHTO   C83 5624   4.532   6.136   5.675 -0.2285 -0.6406  0.4321
   14CHTO  H155 5625   4.556   6.063   5.753 -0.3108 -1.2046 -0.0607
   14CHTO   O56 5626   4.521   6.265   5.739 -0.2197  0.9478 -0.2489
   14CHTO  H135 5627   4.584   6.278   5.807  0.0272 -0.3918 -0.2098
   14CHTO   C81 5628   4.639   6.123   5.566  0.7157  0.0600  0.5762
   14CHTO  H153 5629   4.634   6.021   5.529 -1.6084 -0.2005  1.4937
   14CHTO   N14 5630   4.779   6.135   5.617 -0.2187 -0.1907 -0.1190
   14CHTO  H141 5631   4.798   6.062   5.693  0.7381 -1.4461 -1.5185
   14CHTO  H142 5632   4.854   6.122   5.542 -0.1692 -0.4642 -0.0211
   14CHTO   C79 5633   4.606   6.227   5.451  0.1366  0.3102  0.5154
   14CHTO  H151 5634   4.674   6.208   5.368  0.2744 -0.7718  0.8739
   14CHTO   O52 5635   4.475   6.184   5.400  0.1065 -0.2349 -0.6129
   14CHTO   C86 5636   4.367   6.186   5.493 -0.1922 -0.5062  0.5242
   14CHTO  H158 5637   4.361   6.294   5.519  0.5987 -0.6028  1.1581
   14CHTO   C90 5638   4.232   6.158   5.411  0.0200 -0.1768  0.7387
   14CHTO   O60 5639   4.220   6.239   5.294  0.1593 -0.2172 -0.2181
   14CHTO  H138 5640   4.272   6.213   5.221  0.0812  0.9002 -0.6765
   14CHTO   O50 5641   4.615   6.363   5.478 -0.4185 -0.4599  0.3370
   14CHTO   C73 5642   4.589   6.501   5.458  0.2762  0.2065  0.2710
   14CHTO  H145 5643   4.564   6.549   5.554  1.0243 -0.2570  0.7064
   14CHTO   C74 5644   4.475   6.537   5.357  0.0257  0.0105 -0.0638
   14CHTO  H146 5645   4.386   6.487   5.397 -0.4556 -1.0277 -2.3391
   14CHTO   O54 5646   4.456   6.681   5.355  0.0620 -0.3236 -0.4150
   14CHTO  H133 5647   4.519   6.728   5.305  0.2330 -3.2811 -3.1681
   14CHTO   C75 5648   4.506   6.480   5.211  0.3601  0.0476 -0.3687
   14CHTO  H147 5649   4.500   6.371   5.212  2.2837 -0.0742  0.9030
   14CHTO   N13 5650   4.400   6.510   5.113  0.3688  0.2087  0.2101
   14CHTO  H139 5651   4.428   6.581   5.037  1.5701  0.5233  0.9343
   14CHTO  H140 5652   4.346   6.425   5.075 -0.0236  1.9633 -3.3563
   14CHTO   C76 5653   4.650   6.526   5.164 -0.3351  0.7133  0.3811
   14CHTO  H148 5654   4.642   6.625   5.120 -3.7247 -0.2760 -1.3624
   14CHTO   O49 5655   4.750   6.512   5.276  0.5533 -0.1709  0.1662
   14CHTO   C77 5656   4.723   6.571   5.401  0.1212  0.0549 -0.5830
   14CHTO  H149 5657   4.707   6.678   5.392  1.8174  0.3743  0.0746
   14CHTO   C88 5658   4.852   6.553   5.492  0.0677  0.0242 -0.3521
   14CHTO   O58 5659   4.956   6.637   5.434 -0.1573  0.0522  0.1554
   14CHTO  H136 5660   5.029   6.579   5.423 -0.6565 -0.4728 -0.4118
   14CHTO   O51 5661   4.689   6.408   5.061 -0.5123  0.4137  0.0440
   14CHTO   C78 5662   4.828   6.457   4.963  0.5312  0.2369  0.2181
   14CHTO  H150 5663   4.876   6.544   5.013  0.3434  0.7946 -0.5646
   14CHTO   C80 5664   4.788   6.495   4.813 -0.4047 -0.3969  0.1751
   14CHTO  H152 5665   4.732   6.413   4.763 -0.1462 -0.4567 -0.0203
   14CHTO   O55 5666   4.690   6.596   4.823 -0.1446 -0.4701  0.4049
   14CHTO  H134 5667   4.666   6.627   4.738 -0.5947  2.2080  1.4485
   14CHTO   C84 5668   4.914   6.530   4.731 -0.2798  0.1100 -0.1498
   14CHTO  H156 5669   4.951   6.621   4.779 -3.7817  0.2712  2.4226
   14CHTO   N15 5670   4.872   6.564   4.584  0.2557 -0.3436  0.1763
   14CHTO  H143 5671   4.948   6.589   4.513  1.5751 -1.9161  0.9825
   14CHTO  H144 5672   4.814   6.484   4.543 -1.6346  1.1336 -0.0748
   14CHTO   C87 5673   5.022   6.418   4.740  0.2940 -0.5113  0.0376
   14CHTO  H159 5674   4.972   6.330   4.701  0.6764 -0.1935 -1.1839
   14CHTO   O53 5675   5.055   6.381   4.893  0.2645 -0.1363 -0.0767
   14CHTO   C82 5676   4.935   6.336   4.958  0.3380  0.2063  1.3497
   14CHTO  H154 5677   4.893   6.246   4.914  0.2375 -0.1589  2.1853
   14CHTO   C89 5678   4.973   6.299   5.105 -0.4301  0.1109 -0.3444
   14CHTO   O59 5679   5.083   6.211   5.097 -0.1329 -0.1878 -0.4180
   14CHTO  H137 5680   5.043   6.130   5.072  0.3214  0.1635 -2.4089
   14CHTO   O45 5681   5.147   6.462   4.660  0.2798 -0.3457  0.2247
   14CHTO   C67 5682   5.223   6.357   4.604 -0.3783  0.1049 -0.0553
   14CHTO  H124 5683   5.233   6.278   4.678  0.8913  2.0910  1.9469
   14CHTO   C65 5684   5.143   6.301   4.475 -0.4102  0.7794 -0.3390
   14CHTO  H122 5685   5.042   6.273   4.506 -0.1880 -0.3463 -0.6198
   14CHTO   O44 5686   5.203   6.175   4.433 -0.0752 -0.0841  0.4359
   14CHTO  H102 5687   5.244   6.140   4.510  0.4699 -0.0226  0.1738
   14CHTO   C63 5688   5.144   6.403   4.360 -0.2886  0.5054  0.0240
   14CHTO  H120 5689   5.105   6.499   4.396 -0.7174 -0.2044  1.4982
   14CHTO   N11 5690   5.049   6.375   4.251  0.2424  0.0485  0.1803
   14CHTO  H108 5691   4.951   6.419   4.257  0.0016 -0.6723  1.8402
   14CHTO  H109 5692   5.043   6.270   4.234  1.0739  0.0060  0.1470
   14CHTO   C61 5693   5.291   6.432   4.327 -0.0490 -0.4510 -0.1181
   14CHTO  H118 5694   5.283   6.517   4.257  0.7734 -0.9373 -0.8219
   14CHTO   O40 5695   5.364   6.481   4.436 -0.1165 -0.2428  0.2383
   14CHTO   C68 5696   5.369   6.406   4.564  0.4121 -1.4639 -0.1762
   14CHTO  H125 5697   5.392   6.480   4.644  1.4909 -1.3755 -0.5640
   14CHTO   C72 5698   5.479   6.294   4.577 -0.1234 -0.0602  0.9908
   14CHTO   O48 5699   5.606   6.365   4.550  0.5003  0.0380  0.3953
   14CHTO  H105 5700   5.603   6.451   4.588  0.5855 -1.3740  3.8365
   14CHTO   O38 5701   5.364   6.325   4.272  0.3972  0.1730  0.0876
   14CHTO   C55 5702   5.385   6.307   4.130 -0.0095 -0.1378 -0.8548
   14CHTO  H112 5703   5.330   6.381   4.071 -2.4728 -0.5290  0.8763
   14CHTO   C56 5704   5.346   6.156   4.092 -0.4054  0.4034 -0.3308
   14CHTO  H113 5705   5.417   6.092   4.147 -2.0524 -0.9315  0.3139
   14CHTO   O42 5706   5.218   6.130   4.137 -0.0993  0.5946 -0.4774
   14CHTO  H100 5707   5.215   6.061   4.200 -1.1193 -0.6351 -1.8616
   14CHTO   C57 5708   5.367   6.130   3.939  0.4905  0.0359  0.4901
   14CHTO  H114 5709   5.292   6.196   3.893 -1.0927 -1.5282  0.7641
   14CHTO   N10 5710   5.318   5.999   3.893  0.3841  0.3576  0.1322
   14CHTO  H106 5711   5.317   5.914   3.959 -1.0391 -0.2518 -0.6389
   14CHTO  H107 5712   5.236   5.996   3.822 -1.4428 -1.0727  2.2490
   14CHTO   C58 5713   5.509   6.162   3.897 -0.1751  0.2479  0.1191
   14CHTO  H115 5714   5.577   6.094   3.953 -0.4904  0.2442  0.4970
   14CHTO   O37 5715   5.536   6.295   3.936  0.4794 -0.1899  0.4797
   14CHTO   C59 5716   5.533   6.327   4.078  0.0418  0.6152  0.1465
   14CHTO  H116 5717   5.598   6.253   4.125  0.3541  0.2078 -0.9153
   14CHTO   C70 5718   5.584   6.466   4.098  0.0865 -0.0960 -0.3115
   14CHTO   O46 5719   5.707   6.495   4.034 -0.3094  0.2351  0.5099
   14CHTO  H103 5720   5.686   6.503   3.943  2.1633 -0.7642 -0.1831
   14CHTO   O39 5721   5.534   6.151   3.723 -0.1924  0.2964  0.1001
   14CHTO   C60 5722   5.669   6.145   3.669 -0.9260 -0.0614  0.5210
   14CHTO  H117 5723   5.654   6.118   3.565  1.8927 -1.3449  0.4145
   14CHTO   C62 5724   5.738   6.288   3.649  0.4126 -0.8285  0.3335
   14CHTO  H119 5725   5.668   6.353   3.592  0.6585  0.5180  1.5547
   14CHTO   O43 5726   5.754   6.341   3.781  0.2921 -0.0685 -0.3264
   14CHTO  H101 5727   5.750   6.435   3.777 -0.9264 -0.0800  0.5690
   14CHTO   C66 5728   5.873   6.269   3.569 -0.5536  0.0696 -0.0207
   14CHTO  H123 5729   5.852   6.218   3.476 -1.7617 -2.3153  1.5155
   14CHTO   N12 5730   5.925   6.409   3.540  1.1306  0.1482  0.2441
   14CHTO  H110 5731   6.023   6.408   3.494  1.3748  1.4107  0.7292
   14CHTO  H111 5732   5.858   6.457   3.470 -0.0247 -1.8681 -0.0841
   14CHTO   C69 5733   5.974   6.181   3.641  0.0860 -0.2800 -0.0435
   14CHTO  H126 5734   5.995   6.224   3.741 -0.2922 -0.1039 -0.0382
   14CHTO   O41 5735   5.901   6.039   3.673 -0.5979  0.0222 -0.5818
   14CHTO   C64 5736   5.763   6.041   3.731 -0.3406 -0.7866 -0.2373
   14CHTO  H121 5737   5.766   6.050   3.841 -0.7956 -1.5810 -0.1591
   14CHTO   C71 5738   5.701   5.900   3.705  0.5433 -0.2712 -0.1208
   14CHTO   O47 5739   5.758   5.786   3.773 -0.3542  0.4105 -0.0161
   14CHTO  H104 5740   5.809   5.729   3.718 -0.9284 -1.8055  1.6532
   14CHTO   O34 5741   6.102   6.162   3.560  0.5775  0.3484  0.7289
   14CHTO   C49 5742   6.207   6.069   3.511  0.8676  0.0023 -0.2923
   14CHTO   H91 5743   6.270   6.072   3.600  0.1391 -0.6927  0.2557
   14CHTO   C47 5744   6.271   6.126   3.381 -0.6037 -0.3033  0.7642
   14CHTO   H89 5745   6.363   6.064   3.372 -0.6906 -0.5707  1.6480
   14CHTO   O33 5746   6.310   6.264   3.402 -0.1781 -0.3695  0.1011
   14CHTO   H70 5747   6.377   6.262   3.467 -0.1028 -0.5459  0.0190
   14CHTO   C45 5748   6.168   6.115   3.256  0.2162  0.0188  0.6265
   14CHTO   H87 5749   6.128   6.214   3.232 -2.0803 -1.1690 -0.5780
   14CHTO    N8 5750   6.239   6.066   3.136 -0.0219 -0.1000 -0.0254
   14CHTO   H75 5751   6.164   6.046   3.060 -2.0724 -0.6578  2.1100
   14CHTO   H76 5752   6.302   6.144   3.097  0.4265  0.1176  1.1487
   14CHTO   C43 5753   6.035   6.037   3.288 -0.5025 -0.0031 -1.2550
   14CHTO   H85 5754   5.974   6.096   3.357  0.0250  0.9445 -1.5887
   14CHTO   O29 5755   6.074   5.919   3.355 -0.3352  0.1017 -0.2597
   14CHTO   C50 5756   6.143   5.930   3.483 -0.2097 -0.4079 -0.1806
   14CHTO   H92 5757   6.073   5.904   3.564  0.9363 -0.6630  0.7287
   14CHTO   C54 5758   6.244   5.816   3.492 -0.2461 -0.2200 -0.7472
   14CHTO   O36 5759   6.309   5.801   3.626  0.5289 -0.2214  0.0141
   14CHTO   H72 5760   6.362   5.879   3.631  0.6219 -0.3371  0.8596
   14CHTO   O27 5761   5.953   6.017   3.175 -0.0828 -0.3589  0.1389
   14CHTO   C37 5762   5.819   6.042   3.152  1.3576 -0.2414  0.0767
   14CHTO   H79 5763   5.791   6.012   3.049  2.5220  2.4960 -1.0820
   14CHTO   C38 5764   5.729   5.957   3.250  0.6192 -0.3568  0.1373
   14CHTO   H80 5765   5.770   5.971   3.351  1.0503  0.6155 -0.1716
   14CHTO   O31 5766   5.743   5.819   3.206 -0.0720 -1.2243  0.2469
   14CHTO   H68 5767   5.828   5.786   3.226  0.7257  1.1920  0.9877
   14CHTO   C39 5768   5.575   6.005   3.252  0.0125  0.3349  0.0744
   14CHTO   H81 5769   5.533   5.981   3.154  0.8918 -1.3560  0.0818
   14CHTO    N7 5770   5.484   5.932   3.347  0.2762 -0.0248 -0.1598
   14CHTO   H73 5771   5.516   5.943   3.450  2.5484  0.9004 -0.9509
   14CHTO   H74 5772   5.464   5.830   3.318  1.7491 -0.2071 -0.5476
   14CHTO   C40 5773   5.567   6.161   3.266  0.6086  0.2771  0.4849
   14CHTO   H82 5774   5.614   6.187   3.361 -0.3664 -0.6161  1.2182
   14CHTO   O26 5775   5.643   6.209   3.149  0.7417 -0.4802 -0.1970
   14CHTO   C41 5776   5.786   6.193   3.162  0.4659 -0.5199  0.1777
   14CHTO   H83 5777   5.825   6.237   3.255  0.8197 -2.5499  1.0201
   14CHTO   C52 5778   5.850   6.276   3.046 -0.7499  0.6892 -0.0642
   14CHTO   O35 5779   5.867   6.430   3.066 -0.1242 -0.1536  0.2859
   14CHTO   H71 5780   5.869   6.446   3.158 -0.1650  0.0097  0.2572
   14CHTO   O28 5781   5.440   6.230   3.251  0.4991 -0.4150  0.2178
   14CHTO   C42 5782   5.426   6.363   3.311 -0.8205  0.1811  0.1840
   14CHTO   H84 5783   5.335   6.402   3.265 -0.3326  0.3600 -0.6409
   14CHTO   C44 5784   5.538   6.479   3.291 -0.2189 -0.0984 -0.3160
   14CHTO   H86 5785   5.631   6.446   3.337  0.7932 -1.0345 -2.8955
   14CHTO   O32 5786   5.562   6.494   3.149 -0.2197 -0.9245 -0.5467
   14CHTO   H69 5787   5.617   6.425   3.119  3.5609  2.4290 -1.6503
   14CHTO   C48 5788   5.498   6.607   3.363  0.1415  0.1937  0.1615
   14CHTO   H90 5789   5.413   6.647   3.308 -0.8930 -0.5365  1.1996
   14CHTO    N9 5790   5.601   6.717   3.346 -0.4013 -0.4878 -0.0825
   14CHTO   H77 5791   5.672   6.727   3.427  1.3282 -2.2841 -1.3103
   14CHTO   H78 5792   5.646   6.728   3.248  1.5587  0.2560  0.8598
   14CHTO   C51 5793   5.459   6.576   3.510 -0.1241 -0.2055  0.0916
   14CHTO   H93 5794   5.554   6.549   3.555 -0.2209 -0.0895  0.3658
   14CHTO   O30 5795   5.365   6.466   3.514  0.1085  0.3807 -0.0398
   14CHTO   C46 5796   5.399   6.352   3.463  0.3084 -0.0437  0.7848
   14CHTO   H88 5797   5.487   6.323   3.520  1.8642  3.3585  0.2645
   14CHTO   C53 5798   5.287   6.250   3.489  0.5971 -0.2496 -0.1149
   14CHTO   O72 5799   5.271   6.210   3.627 -0.4239 -0.1286  0.1260
   14CHTO  H199 5800   5.301   6.121   3.633 -0.2417 -0.0296  0.7255
   14CHTO   O22 5801   5.416   6.679   3.595 -0.0298  0.2538  0.0744
   14CHTO   C31 5802   5.453   6.695   3.737  0.2154 -0.1229 -0.1866
   14CHTO   H59 5803   5.494   6.596   3.765  1.9337  0.3583 -0.8923
   14CHTO   C29 5804   5.571   6.791   3.758  0.4700  0.1852 -0.6314
   14CHTO   H57 5805   5.538   6.888   3.718  0.9761 -0.1943 -2.0022
   14CHTO   O21 5806   5.685   6.744   3.682  0.0511  0.1556 -0.3119
   14CHTO   H37 5807   5.750   6.811   3.673 -0.7911  1.0287 -0.0604
   14CHTO   C27 5808   5.619   6.814   3.911  0.1220  0.5787 -0.3293
   14CHTO   H55 5809   5.668   6.722   3.945  0.4218  0.5859 -0.7500
   14CHTO    N5 5810   5.709   6.925   3.924  0.0304 -0.4675  0.1373
   14CHTO   H43 5811   5.697   7.012   3.861 -0.5354 -0.8640 -0.3079
   14CHTO   H44 5812   5.720   6.959   4.026 -0.4960 -1.8382  0.6521
   14CHTO   C25 5813   5.484   6.828   3.993  0.1882  0.3438  0.2929
   14CHTO   H53 5814   5.430   6.920   3.967  0.8458  0.6035 -0.1454
   14CHTO   O17 5815   5.397   6.714   3.967  0.1982  0.1901 -0.1269
   14CHTO   C32 5816   5.336   6.730   3.835 -0.7523 -0.4723  0.4058
   14CHTO   H60 5817   5.295   6.828   3.816  1.0807  0.3791  0.6871
   14CHTO   C36 5818   5.224   6.628   3.814 -0.6193 -0.3128 -0.0147
   14CHTO   O25 5819   5.260   6.484   3.835 -0.3772  0.6311  0.0821
   14CHTO   H40 5820   5.294   6.439   3.760  2.8246  0.8720  1.3144
   14CHTO   O15 5821   5.527   6.814   4.147  0.0834  0.1296 -0.3385
   14CHTO   C19 5822   5.536   6.783   4.289  0.3208  0.0488  0.3931
   14CHTO   H47 5823   5.520   6.675   4.301  2.3186 -0.4943 -1.4382
   14CHTO   C20 5824   5.670   6.807   4.364  0.3525 -0.0345 -0.1431
   14CHTO   H48 5825   5.708   6.909   4.349  1.0203 -0.6181 -2.6811
   14CHTO   O19 5826   5.773   6.723   4.310 -0.8693  0.3835  0.0226
   14CHTO   H35 5827   5.792   6.645   4.359  1.2052  0.3469 -0.7660
   14CHTO   C21 5828   5.662   6.773   4.519  0.6138  0.5857  0.2910
   14CHTO   H49 5829   5.643   6.666   4.529 -1.1170  0.9672  1.3363
   14CHTO    N4 5830   5.791   6.793   4.589  0.2290  0.2479 -0.1097
   14CHTO   H41 5831   5.871   6.738   4.543  0.2074 -0.9463  1.2355
   14CHTO   H42 5832   5.771   6.754   4.688 -1.1873 -1.2174 -0.9482
   14CHTO   C22 5833   5.536   6.846   4.583  0.1456  0.1958 -0.1085
   14CHTO   H50 5834   5.544   6.954   4.586 -1.1596  0.3755 -2.0132
   14CHTO   O14 5835   5.411   6.818   4.508  0.2795  0.6961 -0.4674
   14CHTO   C23 5836   5.418   6.850   4.362  0.0833 -0.0195  0.1293
   14CHTO   H51 5837   5.423   6.960   4.357 -1.5925  0.1873  2.0612
   14CHTO   C34 5838   5.276   6.817   4.312 -0.5357  0.5896 -0.5419
   14CHTO   O23 5839   5.179   6.884   4.392 -0.2108 -0.0713 -0.0733
   14CHTO   H38 5840   5.133   6.836   4.458  0.3555  1.7205  1.7173
   14CHTO   O16 5841   5.501   6.793   4.708 -0.3796 -0.4386  0.4219
   14CHTO   C24 5842   5.449   6.895   4.811 -0.7889 -0.0049  0.4157
   14CHTO   H52 5843   5.386   6.972   4.765 -1.4326 -0.9767 -0.3459
   14CHTO   C26 5844   5.563   6.963   4.892 -0.6106 -0.2904  0.1432
   14CHTO   H54 5845   5.613   6.880   4.945  2.8704  0.9863 -0.9991
   14CHTO   O20 5846   5.654   7.024   4.808 -0.1778  0.0939 -0.1511
   14CHTO   H36 5847   5.696   6.963   4.750 -0.3215 -0.9948  0.8754
   14CHTO   C30 5848   5.509   7.066   5.002 -0.4300  0.8091  0.3326
   14CHTO   H58 5849   5.457   7.155   4.962 -3.0531 -0.0917  1.6511
   14CHTO    N6 5850   5.622   7.121   5.086 -0.5038 -0.0183 -0.0089
   14CHTO   H45 5851   5.636   7.066   5.178  1.5402 -1.9638 -1.4209
   14CHTO   H46 5852   5.598   7.224   5.109  1.6151  0.5718 -0.3238
   14CHTO   C33 5853   5.401   6.985   5.086  0.1777 -0.3754 -0.4441
   14CHTO   H61 5854   5.459   6.909   5.140 -1.2559 -1.3090 -0.2190
   14CHTO   O18 5855   5.304   6.917   5.004  0.0746 -0.2218  0.2813
   14CHTO   C28 5856   5.361   6.819   4.910  0.3277  0.5363  0.6186
   14CHTO   H56 5857   5.424   6.746   4.961 -1.2230 -0.5823  0.9662
   14CHTO   C35 5858   5.242   6.751   4.848  0.2096 -0.0910  0.6931
   14CHTO   O24 5859   5.169   6.669   4.937  0.1836  0.6231  0.1071
   14CHTO   H39 5860   5.076   6.680   4.933  0.2060  0.3417 -1.5194
   14CHTO    O9 5861   5.336   7.060   5.193  0.3058 -0.5312  0.2102
   14CHTO   C13 5862   5.223   6.968   5.269  1.1091 -0.5305 -0.2654
   14CHTO   H26 5863   5.222   6.861   5.238 -3.5391 -1.4180  2.4452
   14CHTO   C11 5864   5.080   7.036   5.244  0.0260  0.7943 -0.2399
   14CHTO   H24 5865   5.061   7.029   5.136  0.6100  1.4048 -0.3896
   14CHTO    O8 5866   5.079   7.177   5.271 -0.3082 -0.2130 -0.2916
   14CHTO    H3 5867   5.000   7.213   5.234 -0.0613 -0.0570 -0.6638
   14CHTO    C9 5868   4.977   6.958   5.335 -0.3944  0.0216  0.6308
   14CHTO   H22 5869   4.974   6.855   5.297 -0.1083  0.4010 -0.4332
   14CHTO    N2 5870   4.836   6.998   5.308  0.1692  0.4059  0.9013
   14CHTO   H10 5871   4.808   7.100   5.329 -0.0511  0.1877  1.6895
   14CHTO   H11 5872   4.764   6.945   5.369 -1.4939  1.8013  0.1825
   14CHTO    C7 5873   5.023   6.971   5.484 -0.8187  0.4475 -0.0839
   14CHTO   H20 5874   4.950   6.906   5.537  0.8225 -0.7477  0.7496
   14CHTO    O4 5875   5.149   6.911   5.505  0.0559  0.3739  0.3440
   14CHTO   C14 5876   5.259   6.962   5.424 -0.2736  0.3441  0.0842
   14CHTO   H27 5877   5.339   6.885   5.428  0.5260  0.9803 -2.6206
   14CHTO   C18 5878   5.325   7.084   5.473  0.1304  0.3232  0.1854
   14CHTO   O13 5879   5.367   7.085   5.607  0.3527  0.6029  0.0958
   14CHTO    H7 5880   5.298   7.128   5.654  0.2432 -1.0867  1.5487
   14CHTO    O2 5881   5.028   7.128   5.561 -0.4460 -0.1893 -0.0127
   14CHTO    C1 5882   4.937   7.151   5.665 -0.2091  0.3700 -0.6563
   14CHTO   H14 5883   4.885   7.058   5.695 -0.7821  0.5468 -1.0940
   14CHTO    C2 5884   4.835   7.259   5.625 -0.2692  0.7099 -0.1518
   14CHTO   H15 5885   4.906   7.343   5.614  3.8345 -2.4988  0.4490
   14CHTO    O6 5886   4.777   7.224   5.496 -0.4787  0.2516 -0.7228
   14CHTO    H1 5887   4.781   7.296   5.436  2.7204 -0.3605 -1.3505
   14CHTO    C3 5888   4.727   7.273   5.754 -0.7720 -0.5808 -0.0007
   14CHTO   H16 5889   4.672   7.178   5.769 -1.5465 -0.4047 -1.5847
   14CHTO    N1 5890   4.617   7.377   5.724 -0.6025  0.8792 -0.6395
   14CHTO    H8 5891   4.629   7.428   5.629 -0.0707  0.0369 -1.0294
   14CHTO    H9 5892   4.623   7.447   5.806  2.8923  0.6704 -0.6222
   14CHTO    C4 5893   4.795   7.301   5.883  0.4206 -0.9631  0.1352
   14CHTO   H17 5894   4.835   7.402   5.883  1.3924 -1.3283  2.2961
   14CHTO    O1 5895   4.904   7.213   5.903  0.0067  0.1180 -0.1288
   14CHTO    C5 5896   5.002   7.199   5.802  0.5236 -0.1306  0.3569
   14CHTO   H18 5897   5.046   7.297   5.783 -1.0145  0.7103  0.9889
   14CHTO   C16 5898   5.111   7.091   5.842  0.1085 -0.0713  0.1883
   14CHTO   O11 5899   5.195   7.133   5.955 -0.4971 -0.6199  0.3776
   14CHTO    H5 5900   5.256   7.066   5.977  1.9413  1.2046 -0.5914
   14CHTO    O3 5901   4.713   7.273   6.000  0.0253 -0.3928 -0.0323
   14CHTO    C6 5902   4.742   7.342   6.122  0.4166  0.2321 -0.8298
   14CHTO   H19 5903   4.841   7.389   6.123 -0.4528  2.1319  0.6263
   14CHTO    C8 5904   4.638   7.452   6.154 -0.2266  1.0712 -0.5540
   14CHTO   H21 5905   4.538   7.408   6.157 -0.3448  1.2427 -1.7186
   14CHTO    O7 5906   4.635   7.535   6.035  0.0824  0.0902  0.8966
   14CHTO    H2 5907   4.573   7.504   5.971  1.2334  1.3104 -0.8581
   14CHTO   C12 5908   4.674   7.528   6.286 -0.4611  0.0028  0.9955
   14CHTO   H25 5909   4.776   7.569   6.269  0.8100 -1.3554  4.7352
   14CHTO    N3 5910   4.577   7.637   6.310 -0.6947 -0.4881 -0.0274
   14CHTO   H12 5911   4.477   7.602   6.331 -0.8934  0.2306  0.2669
   14CHTO   H13 5912   4.572   7.711   6.232 -0.2863  1.3126  1.6161
   14CHTO   C15 5913   4.685   7.419   6.405  0.0553  0.3682  0.5024
   14CHTO   H28 5914   4.595   7.366   6.435 -0.1597 -0.1149 -0.9898
   14CHTO   O10 5915   4.760   7.494   6.523  0.2882 -0.0111  0.2497
   14CHTO    H4 5916   4.698   7.561   6.549  0.0683 -0.1573  0.1024
   14CHTO    O5 5917   4.770   7.314   6.366 -0.2390  0.5092 -0.0024
   14CHTO   C10 5918   4.737   7.246   6.240  0.5741 -0.2118 -0.8136
   14CHTO   H23 5919   4.637   7.203   6.242  1.0742 -1.3535 -0.1967
   14CHTO   C17 5920   4.836   7.134   6.222 -0.5721 -0.1509  0.0037
   14CHTO   O12 5921   4.823   7.047   6.339  0.3376 -0.0606  0.2670
   14CHTO    H6 5922   4.808   6.956   6.320  0.0562  0.2470 -1.0499
   15CHTO  H203 5923   5.521   5.763   4.764 -0.5653 -0.0913  0.1517
   15CHTO   O82 5924   5.570   5.685   4.781 -0.0232  0.1700 -0.1961
   15CHTO  C123 5925   5.488   5.567   4.775  0.0027 -0.1461 -0.4888
   15CHTO  H227 5926   5.383   5.600   4.778  0.9421  2.9395  0.6341
   15CHTO   O77 5927   5.534   5.498   4.661  0.2505  0.0162  0.0794
   15CHTO  C118 5928   5.450   5.392   4.617 -0.6416  0.4352  0.4950
   15CHTO  H222 5929   5.343   5.418   4.626 -0.1057  3.0577 -0.3161
   15CHTO  C125 5930   5.480   5.355   4.464 -0.4086  0.5410 -0.3445
   15CHTO   O84 5931   5.427   5.445   4.370 -0.7302  0.4067  0.0205
   15CHTO  H205 5932   5.475   5.526   4.359  1.7276 -1.1332 -1.0542
   15CHTO  C114 5933   5.490   5.278   4.715  0.8739  0.2129 -0.1875
   15CHTO  H218 5934   5.597   5.261   4.708  0.6651 -1.3901  0.3458
   15CHTO  C116 5935   5.452   5.326   4.855 -0.9779 -0.2394 -1.0512
   15CHTO  H220 5936   5.341   5.330   4.860 -0.9242  0.7361 -0.4107
   15CHTO   O79 5937   5.490   5.222   4.945 -0.5287  0.6399 -0.0152
   15CHTO  H201 5938   5.481   5.243   5.035  0.7117 -2.4970  0.9119
   15CHTO  C120 5939   5.516   5.469   4.896  0.3189  0.3509 -0.1629
   15CHTO  H224 5940   5.627   5.464   4.902  0.2834  1.8679  2.9624
   15CHTO   N21 5941   5.458   5.520   5.022 -0.0816  0.3852 -0.0580
   15CHTO  H211 5942   5.353   5.498   5.013 -0.4817  1.5519  1.6138
   15CHTO  H212 5943   5.470   5.624   5.048 -0.0974  0.6343 -1.0289
   15CHTO   O75 5944   5.426   5.158   4.670 -0.8733  0.7262  0.8371
   15CHTO  C112 5945   5.518   5.020   4.705 -0.2421 -0.1245 -0.2017
   15CHTO  H216 5946   5.587   5.041   4.788 -1.1330 -3.3897  1.4650
   15CHTO   O73 5947   5.587   4.982   4.583 -0.3756  0.1696 -0.0610
   15CHTO  C113 5948   5.675   4.872   4.602 -0.7052  0.6789 -0.0760
   15CHTO  H217 5949   5.767   4.903   4.656  0.4481 -0.0451 -1.5846
   15CHTO  C124 5950   5.724   4.836   4.463  0.2045  0.0721 -0.1836
   15CHTO   O83 5951   5.792   4.950   4.400  0.3476  0.0543 -0.4826
   15CHTO  H204 5952   5.783   4.943   4.307 -1.8143  0.8510 -0.3686
   15CHTO  C109 5953   5.600   4.749   4.649  0.3523 -0.2403 -0.2072
   15CHTO  H213 5954   5.541   4.712   4.564  2.5656 -3.6484 -0.3832
   15CHTO  C110 5955   5.517   4.779   4.779 -0.4263 -0.4280  0.0429
   15CHTO  H214 5956   5.584   4.798   4.864  0.0434 -1.6721 -0.0490
   15CHTO   O78 5957   5.446   4.659   4.805  0.2770  0.8002  0.0010
   15CHTO  H200 5958   5.361   4.662   4.766  0.0220 -0.0522  0.4701
   15CHTO  C111 5959   5.429   4.901   4.754  0.8785  0.4210  0.0597
   15CHTO  H215 5960   5.355   4.871   4.679  1.3799 -0.3536 -0.1257
   15CHTO   N19 5961   5.354   4.946   4.872  0.3455  0.1464  0.0853
   15CHTO  H207 5962   5.323   4.858   4.926 -2.1961 -0.1467 -1.7699
   15CHTO  H208 5963   5.410   5.015   4.933 -1.5428  0.7896  1.1392
   15CHTO   O74 5964   5.689   4.641   4.679 -0.1280  0.5901  0.1916
   15CHTO  C115 5965   5.634   4.489   4.650 -0.0125 -0.0262  0.1435
   15CHTO  H219 5966   5.530   4.477   4.683 -0.0850 -0.1307 -0.1213
   15CHTO   O76 5967   5.636   4.454   4.479  0.7425  0.5158 -0.2613
   15CHTO  C122 5968   5.758   4.394   4.432  0.4980  0.1913  0.4008
   15CHTO  H226 5969   5.835   4.471   4.432  1.8776 -1.1827 -0.4611
   15CHTO  C126 5970   5.741   4.356   4.278  0.1494  0.9344 -0.2334
   15CHTO   O85 5971   5.731   4.467   4.190 -0.3515  0.4124 -0.0908
   15CHTO  H206 5972   5.760   4.548   4.227  2.3287 -0.5142 -0.0894
   15CHTO  C121 5973   5.805   4.271   4.514 -0.8807 -0.0858 -0.5062
   15CHTO  H225 5974   5.790   4.180   4.453  0.5155 -0.9350  0.3697
   15CHTO   O81 5975   5.944   4.284   4.535 -0.3571 -0.1776 -0.3721
   15CHTO  H202 5976   5.976   4.269   4.448 -0.2189  2.6386 -0.8536
   15CHTO  C119 5977   5.733   4.249   4.658 -0.4274 -0.1742 -0.0135
   15CHTO  H223 5978   5.630   4.217   4.642 -0.5353 -1.0291  2.1631
   15CHTO  C117 5979   5.725   4.390   4.731 -0.1740 -0.3179 -0.0823
   15CHTO  H221 5980   5.825   4.433   4.737  0.3420 -1.3085 -1.3746
   15CHTO   N20 5981   5.683   4.367   4.865 -0.1688  0.2156 -0.1580
   15CHTO  H209 5982   5.580   4.393   4.884  0.0960  0.8954  0.3784
   15CHTO  H210 5983   5.703   4.265   4.896  1.7609  0.7534  0.4824
   15CHTO   O80 5984   5.796   4.113   4.727  0.0848  0.4672 -0.0091
   15CHTO  C103 5985   5.698   3.967   4.743 -0.1796 -0.3709 -0.4136
   15CHTO  H190 5986   5.749   3.896   4.807  0.3044  1.3605  1.1622
   15CHTO  C101 5987   5.553   3.987   4.803  0.0603 -0.9070  0.7150
   15CHTO  H188 5988   5.516   4.071   4.743 -0.7658 -2.3351 -0.8482
   15CHTO   O68 5989   5.571   4.046   4.952  0.6276  0.1533 -0.3912
   15CHTO  H168 5990   5.599   4.135   4.947 -1.6664  0.9312  0.2166
   15CHTO   C99 5991   5.472   3.854   4.793 -0.6518 -0.0651  0.8860
   15CHTO  H186 5992   5.538   3.787   4.852  0.1545 -2.1192 -2.2307
   15CHTO   N17 5993   5.328   3.854   4.849  0.3799 -0.3360  1.0803
   15CHTO  H174 5994   5.307   3.750   4.872 -0.7646  0.0479  1.8062
   15CHTO  H175 5995   5.319   3.914   4.938 -1.6666  1.4911 -0.3083
   15CHTO   C97 5996   5.479   3.800   4.647 -0.3535  0.8973 -0.3312
   15CHTO  H184 5997   5.434   3.876   4.582  0.5852  2.2294  0.5543
   15CHTO   O64 5998   5.617   3.772   4.606  0.2543 -0.7079  0.2719
   15CHTO  C104 5999   5.688   3.901   4.602  0.0435 -0.0412 -0.8067
   15CHTO  H191 6000   5.649   3.971   4.529  1.6306  2.8915  1.0339
   15CHTO  C108 6001   5.836   3.883   4.561 -0.1504 -0.3210 -0.6099
   15CHTO   O71 6002   5.911   3.793   4.643  0.6314 -0.2510 -0.3556
   15CHTO  H171 6003   5.987   3.766   4.597  0.2181  0.3221 -1.3830
   15CHTO   O62 6004   5.420   3.672   4.617 -0.2046  0.2109  0.2045
   15CHTO   C91 6005   5.295   3.672   4.542  0.0662  0.4684 -1.3492
   15CHTO  H178 6006   5.244   3.769   4.544  0.6927  0.7693  1.4002
   15CHTO   C92 6007   5.201   3.582   4.621  0.0874 -0.2662  0.5266
   15CHTO  H179 6008   5.217   3.588   4.729 -0.9533  1.6163  0.5842
   15CHTO   O66 6009   5.062   3.627   4.599 -0.1449 -0.5956 -0.0702
   15CHTO  H166 6010   5.024   3.641   4.683  0.1603  0.2977 -0.0747
   15CHTO   C93 6011   5.206   3.432   4.565 -0.1370 -0.3906  0.0539
   15CHTO  H180 6012   5.114   3.388   4.607 -0.6699 -0.7872 -1.5282
   15CHTO   N16 6013   5.318   3.340   4.614  0.1024 -0.9803 -0.4114
   15CHTO  H172 6014   5.263   3.254   4.649  0.1282 -1.7002 -2.0699
   15CHTO  H173 6015   5.355   3.391   4.702 -0.4148  0.0233 -0.7721
   15CHTO   C94 6016   5.184   3.426   4.409  0.0211  0.4678 -0.6925
   15CHTO  H181 6017   5.256   3.360   4.360 -0.4082 -0.0177 -0.6711
   15CHTO   O61 6018   5.199   3.552   4.346 -0.2573 -0.1218 -0.4578
   15CHTO   C95 6019   5.311   3.629   4.386  0.5651  0.3719 -0.2968
   15CHTO  H182 6020   5.405   3.574   4.378  1.6972  2.1944  0.2906
   15CHTO  C106 6021   5.332   3.743   4.284 -0.0717  0.2104  0.0663
   15CHTO   O69 6022   5.457   3.819   4.288  0.0808  0.0274  0.3509
   15CHTO  H169 6023   5.459   3.879   4.215  0.4988  0.4674  0.7253
   15CHTO   O63 6024   5.028   3.376   4.378 -0.2767 -0.1182  0.1666
   15CHTO   C96 6025   4.990   3.327   4.229 -0.1577 -0.0206  0.0338
   15CHTO  H183 6026   5.076   3.337   4.162 -0.9293 -1.2067 -1.1737
   15CHTO   C98 6027   4.877   3.400   4.156 -0.3953 -0.3110 -0.0322
   15CHTO  H185 6028   4.787   3.381   4.216 -1.3324  0.5962 -1.1143
   15CHTO   O67 6029   4.901   3.543   4.170  0.7622 -0.9250  0.6363
   15CHTO  H167 6030   4.834   3.605   4.151 -0.3446 -1.3983  2.8585
   15CHTO  C102 6031   4.855   3.348   4.004 -0.7026  0.3106  0.2825
   15CHTO  H189 6032   4.947   3.373   3.949 -1.1450  0.3287 -0.4526
   15CHTO   N18 6033   4.743   3.419   3.929 -0.0268  0.3464 -0.5154
   15CHTO  H176 6034   4.689   3.344   3.873 -1.3602  0.7112  0.2671
   15CHTO  H177 6035   4.787   3.480   3.851  0.9457  2.4552  1.6031
   15CHTO  C105 6036   4.847   3.192   4.001 -0.5367 -0.8778  0.8438
   15CHTO  H192 6037   4.752   3.170   4.050 -1.3045  1.3124  0.4151
   15CHTO   O65 6038   4.947   3.132   4.084  0.1996 -0.0205  0.7630
   15CHTO  C100 6039   4.946   3.177   4.223  0.3027  0.0973 -0.4084
   15CHTO  H187 6040   4.843   3.155   4.255  0.9624  0.9947  2.4662
   15CHTO  C107 6041   5.033   3.078   4.305 -0.6224 -0.4093 -0.1807
   15CHTO   O70 6042   4.989   2.939   4.303  0.1552 -0.0221 -0.0967
   15CHTO  H170 6043   4.898   2.936   4.328  0.1928  3.0537  0.6673
   15CHTO   O57 6044   4.851   3.132   3.855  0.0418 -0.0258  0.0216
   15CHTO   C85 6045   4.804   2.999   3.848  0.0687  0.1038 -0.4858
   15CHTO  H157 6046   4.799   2.959   3.951  2.1018  0.6108 -0.1803
   15CHTO   C83 6047   4.913   2.915   3.773 -0.1515  0.6562  0.0080
   15CHTO  H155 6048   4.998   2.902   3.840  0.6275 -0.8179 -1.2128
   15CHTO   O56 6049   4.959   2.990   3.657 -0.4080  0.3580 -0.4696
   15CHTO  H135 6050   5.045   2.971   3.625 -0.1579  0.0013  0.3897
   15CHTO   C81 6051   4.862   2.773   3.741  0.2997  0.9422 -0.0619
   15CHTO  H153 6052   4.820   2.731   3.832  0.8343  0.3556 -0.0781
   15CHTO   N14 6053   4.963   2.669   3.700  0.4039 -0.6434  0.2658
   15CHTO  H141 6054   4.985   2.601   3.779 -1.4672 -0.9598  0.5238
   15CHTO  H142 6055   5.053   2.718   3.667 -0.8949  2.4590  1.1210
   15CHTO   C79 6056   4.745   2.789   3.637 -0.4010  0.1070 -0.0044
   15CHTO  H151 6057   4.720   2.687   3.608  1.6617 -0.7995  1.2717
   15CHTO   O52 6058   4.633   2.859   3.696  0.2881 -0.6174  0.3865
   15CHTO   C86 6059   4.659   2.985   3.765  0.1186 -0.4066 -0.2136
   15CHTO  H158 6060   4.664   3.062   3.686  3.4754 -0.3441 -0.0237
   15CHTO   C90 6061   4.536   3.020   3.853  0.2335 -0.1314 -0.8632
   15CHTO   O60 6062   4.545   3.149   3.924 -0.3657  0.0870  0.7459
   15CHTO  H138 6063   4.519   3.219   3.868  1.8984  0.3491 -0.0029
   15CHTO   O50 6064   4.785   2.854   3.512 -0.0647 -0.1343 -0.3189
   15CHTO   C73 6065   4.749   2.858   3.373  0.7732  0.3413  0.0656
   15CHTO  H145 6066   4.655   2.916   3.368  0.8331  0.5641  1.4031
   15CHTO   C74 6067   4.743   2.723   3.302  0.5561  0.0739  1.0696
   15CHTO  H146 6068   4.660   2.662   3.343 -0.1346  0.6133  0.4765
   15CHTO   O54 6069   4.710   2.732   3.163  0.0206 -0.0431 -0.1564
   15CHTO  H133 6070   4.645   2.798   3.145  1.4835  1.2230 -0.9423
   15CHTO   C75 6071   4.881   2.647   3.312 -0.1898  0.7723  0.3384
   15CHTO  H147 6072   4.896   2.630   3.420 -0.6350  2.0363  0.6061
   15CHTO   N13 6073   4.893   2.504   3.256  0.4068 -0.1507 -0.6691
   15CHTO  H139 6074   4.888   2.433   3.338  1.6905 -1.2666 -1.5263
   15CHTO  H140 6075   4.984   2.489   3.199  2.3173  3.9528  1.1008
   15CHTO   C76 6076   5.002   2.743   3.268 -0.0266 -0.1800 -0.2685
   15CHTO  H148 6077   5.003   2.755   3.160  0.3951  1.1976 -0.1115
   15CHTO   O49 6078   4.989   2.869   3.337 -0.7635 -0.9743 -0.3515
   15CHTO   C77 6079   4.862   2.941   3.311 -0.1489  0.2186 -0.0262
   15CHTO  H149 6080   4.848   2.949   3.203  0.4407  0.0340 -0.1198
   15CHTO   C88 6081   4.835   3.084   3.365  0.5911  0.2346 -0.4449
   15CHTO   O58 6082   4.929   3.176   3.332  0.0997  0.0316 -0.2095
   15CHTO  H136 6083   4.885   3.244   3.285  0.7098  1.1528  0.8075
   15CHTO   O51 6084   5.144   2.691   3.320 -0.3750 -0.5363  0.0718
   15CHTO   C78 6085   5.256   2.692   3.222  0.5662 -0.4138 -0.9002
   15CHTO  H150 6086   5.222   2.744   3.130 -0.8344 -1.6555 -1.1043
   15CHTO   C80 6087   5.301   2.550   3.194 -0.8536 -0.3940  0.0990
   15CHTO  H152 6088   5.313   2.491   3.287  0.1248 -1.3691 -0.6343
   15CHTO   O55 6089   5.190   2.481   3.126  0.0070 -0.5138  0.1874
   15CHTO  H134 6090   5.186   2.507   3.036 -0.4147 -1.3368 -0.0315
   15CHTO   C84 6091   5.436   2.542   3.110 -0.3157  0.4298  0.5402
   15CHTO  H156 6092   5.400   2.569   3.010  1.6419 -0.3553 -0.3968
   15CHTO   N15 6093   5.493   2.411   3.094 -0.1980  0.7662 -0.1100
   15CHTO  H143 6094   5.539   2.386   3.188 -1.6840  0.2590  0.5105
   15CHTO  H144 6095   5.411   2.344   3.074 -0.3048  0.6475  0.7023
   15CHTO   C87 6096   5.539   2.648   3.156 -0.6369  0.3994  0.2670
   15CHTO  H159 6097   5.573   2.621   3.256  0.5120 -0.1955 -0.2793
   15CHTO   O53 6098   5.470   2.780   3.176 -0.6440 -0.5678 -0.3160
   15CHTO   C82 6099   5.366   2.777   3.280  0.0088 -0.3276  0.1045
   15CHTO  H154 6100   5.414   2.737   3.369  1.7822 -1.8044 -1.4850
   15CHTO   C89 6101   5.324   2.920   3.312 -0.0174 -0.3849 -0.5177
   15CHTO   O59 6102   5.286   2.927   3.451 -0.3437  0.2632 -0.8082
   15CHTO  H137 6103   5.298   3.011   3.491  0.1121 -0.1766 -0.0160
   15CHTO   O45 6104   5.660   2.655   3.046 -0.1090 -0.5657  0.0820
   15CHTO   C67 6105   5.771   2.733   3.077 -0.0702 -0.3498 -0.9512
   15CHTO  H124 6106   5.747   2.788   3.168  0.8308 -0.3224 -0.7323
   15CHTO   C65 6107   5.892   2.633   3.099 -0.5895  0.8409  0.1070
   15CHTO  H122 6108   5.890   2.556   3.022  1.0502  1.6595 -0.7944
   15CHTO   O44 6109   5.867   2.572   3.224 -0.3213  0.1585 -0.0846
   15CHTO  H102 6110   5.784   2.529   3.220 -1.3386  1.9012  1.4012
   15CHTO   C63 6111   6.035   2.704   3.078  0.6934 -0.2116 -0.8504
   15CHTO  H120 6112   6.068   2.686   2.976  1.3194  1.5856 -0.9709
   15CHTO   N11 6113   6.147   2.638   3.149 -0.1886  0.4498 -0.1534
   15CHTO  H108 6114   6.146   2.531   3.141  0.5630  0.3155  1.3169
   15CHTO  H109 6115   6.245   2.666   3.116 -0.4219  0.6982 -0.6433
   15CHTO   C61 6116   6.026   2.857   3.102 -0.4566 -0.3749  0.1992
   15CHTO  H118 6117   6.121   2.905   3.076 -0.3631 -0.6879 -0.0353
   15CHTO   O40 6118   5.923   2.921   3.020  0.1632 -0.0350 -0.1971
   15CHTO   C68 6119   5.812   2.846   2.972 -0.6148 -0.4573  0.3344
   15CHTO  H125 6120   5.847   2.799   2.877  1.5865  0.6390  0.5826
   15CHTO   C72 6121   5.681   2.928   2.929 -0.0641  0.9069 -0.2622
   15CHTO   O48 6122   5.711   3.046   2.864  0.0907  0.9047  0.7521
   15CHTO  H105 6123   5.642   3.108   2.852 -1.5318 -0.8960  0.6450
   15CHTO   O38 6124   5.999   2.887   3.241 -0.3731 -0.3846  0.4487
   15CHTO   C55 6125   6.010   3.030   3.281 -0.0625  0.6025 -0.3670
   15CHTO  H112 6126   5.975   3.097   3.201  3.8448  3.0583 -0.1750
   15CHTO   C56 6127   6.160   3.064   3.325 -0.2514  0.6387  0.0432
   15CHTO  H113 6128   6.186   2.983   3.396 -1.0450  1.3089  1.1085
   15CHTO   O42 6129   6.253   3.056   3.218  0.2546  0.7465 -0.6857
   15CHTO  H100 6130   6.330   3.018   3.256  0.5115  0.5482 -1.3921
   15CHTO   C57 6131   6.163   3.209   3.398 -0.0120  0.1129  0.0454
   15CHTO  H114 6132   6.166   3.282   3.317  4.3016 -0.4519 -0.4584
   15CHTO   N10 6133   6.296   3.223   3.468 -0.1859 -0.1288 -0.3486
   15CHTO  H106 6134   6.282   3.296   3.546 -0.5964 -0.5478 -0.0289
   15CHTO  H107 6135   6.362   3.268   3.395  2.0608 -2.5071  0.1526
   15CHTO   C58 6136   6.042   3.234   3.491 -0.8252  0.4347  0.4236
   15CHTO  H115 6137   6.052   3.172   3.582 -0.4667  0.2230  0.2402
   15CHTO   O37 6138   5.922   3.203   3.422  0.6820  0.0041  0.2434
   15CHTO   C59 6139   5.900   3.060   3.395 -0.4711 -0.1122  0.4168
   15CHTO  H116 6140   5.914   2.993   3.480 -1.3412 -2.1876 -1.0205
   15CHTO   C70 6141   5.764   3.041   3.336 -0.1260 -1.2515  0.1542
   15CHTO   O46 6142   5.674   3.058   3.441  0.0301  0.2068 -0.1187
   15CHTO  H103 6143   5.617   3.131   3.426 -2.3384 -1.2329  1.4773
   15CHTO   O39 6144   6.032   3.403   3.531  0.1184  0.3228 -0.1384
   15CHTO   C60 6145   6.010   3.434   3.669 -0.3402  0.4515  0.5640
   15CHTO  H117 6146   5.950   3.353   3.709 -1.0569 -0.6546 -2.5926
   15CHTO   C62 6147   6.141   3.455   3.740  0.1081 -0.4951 -0.2682
   15CHTO  H119 6148   6.207   3.371   3.711  1.6408  0.8728 -0.8198
   15CHTO   O43 6149   6.218   3.559   3.671  0.0181  0.3226  0.2557
   15CHTO  H101 6150   6.225   3.637   3.722 -1.0793  1.5319 -1.3671
   15CHTO   C66 6151   6.114   3.476   3.891 -0.3440 -0.3937 -0.9475
   15CHTO  H123 6152   6.056   3.391   3.928 -0.9313  0.4886  0.2230
   15CHTO   N12 6153   6.244   3.481   3.970 -0.2251  0.6611  0.4024
   15CHTO  H110 6154   6.225   3.515   4.071  1.8384  0.9110  0.7191
   15CHTO  H111 6155   6.284   3.381   3.981  1.9449  1.2451 -1.8637
   15CHTO   C69 6156   6.027   3.604   3.917  0.0691 -0.8617  0.0941
   15CHTO  H126 6157   6.093   3.691   3.898 -0.6518 -0.3234  0.0381
   15CHTO   O41 6158   5.892   3.604   3.828 -0.0499 -0.2495 -0.0450
   15CHTO   C64 6159   5.921   3.566   3.663  0.2318 -0.1545  0.4672
   15CHTO  H121 6160   5.973   3.650   3.614 -1.9687  0.9473 -0.0757
   15CHTO   C71 6161   5.792   3.554   3.584  0.4932  0.9050  0.2124
   15CHTO   O47 6162   5.693   3.464   3.636 -0.0192 -0.0077 -0.3845
   15CHTO  H104 6163   5.647   3.512   3.702 -0.1651  2.8673 -2.4774
   15CHTO   O34 6164   5.986   3.624   4.066  0.3036 -0.2469  0.4917
   15CHTO   C49 6165   5.935   3.679   4.177  0.3753  0.3039 -0.2054
   15CHTO   H91 6166   6.011   3.748   4.212 -0.3766  1.0764 -0.0549
   15CHTO   C47 6167   5.888   3.573   4.281 -0.2805  0.0398  0.1474
   15CHTO   H89 6168   5.873   3.642   4.366  1.9076  1.9354 -0.9580
   15CHTO   O33 6169   5.985   3.477   4.310  0.0729 -0.5181 -0.0685
   15CHTO   H70 6170   6.073   3.509   4.309  0.6816 -2.1093 -0.1562
   15CHTO   C45 6171   5.750   3.497   4.240 -0.6115 -0.0910  0.2975
   15CHTO   H87 6172   5.778   3.393   4.219  1.2183 -0.0240  2.1662
   15CHTO    N8 6173   5.665   3.481   4.362  0.6440 -0.4008 -0.3191
   15CHTO   H75 6174   5.580   3.545   4.345  1.0131  0.1554 -0.0474
   15CHTO   H76 6175   5.643   3.376   4.379  0.4851  0.0835  2.7425
   15CHTO   C43 6176   5.682   3.567   4.119 -0.9788  0.7480 -0.0874
   15CHTO   H85 6177   5.734   3.530   4.030 -1.2040 -0.3435  0.2279
   15CHTO   O29 6178   5.683   3.713   4.129  0.2485  0.2291  1.1307
   15CHTO   C50 6179   5.818   3.774   4.139 -0.2229  0.3321  1.0894
   15CHTO   H92 6180   5.840   3.815   4.039  1.2228 -2.0307  0.3998
   15CHTO   C54 6181   5.794   3.891   4.238  0.0001 -0.0375  0.0089
   15CHTO   O36 6182   5.903   3.984   4.240 -0.0187  0.1578 -0.0026
   15CHTO   H72 6183   5.905   4.034   4.319  0.5668 -0.9055  0.6594
   15CHTO   O27 6184   5.545   3.525   4.094 -0.3147  0.1083  0.1838
   15CHTO   C37 6185   5.463   3.464   3.991  0.2798  0.5723  0.3939
   15CHTO   H79 6186   5.525   3.435   3.906  0.6321  0.4094  0.7065
   15CHTO   C38 6187   5.403   3.334   4.042 -0.0818 -0.1888  0.1910
   15CHTO   H80 6188   5.324   3.354   4.117  0.1570 -0.4315  0.5068
   15CHTO   O31 6189   5.493   3.246   4.113 -0.3110  0.4266 -0.0305
   15CHTO   H68 6190   5.532   3.279   4.192  0.6812  1.4773 -0.9394
   15CHTO   C39 6191   5.328   3.264   3.927  0.3580 -0.1879  0.5601
   15CHTO   H81 6192   5.406   3.247   3.852 -0.1874 -0.8198  0.1298
   15CHTO    N7 6193   5.263   3.137   3.965  0.8745  0.1685 -0.1094
   15CHTO   H73 6194   5.170   3.157   4.014  1.1432 -1.6561  1.2004
   15CHTO   H74 6195   5.259   3.073   3.878  1.2372 -0.9651  0.7053
   15CHTO   C40 6196   5.220   3.362   3.869 -0.1175 -1.0281 -0.1020
   15CHTO   H82 6197   5.156   3.365   3.958  0.1021 -2.0297  0.0981
   15CHTO   O26 6198   5.270   3.494   3.833 -0.3760  0.4350  0.2213
   15CHTO   C41 6199   5.345   3.552   3.944 -0.3172 -0.3404  0.0883
   15CHTO   H83 6200   5.276   3.565   4.028  0.3221 -1.8270  0.8777
   15CHTO   C52 6201   5.383   3.687   3.896  0.0779 -0.6828 -0.3188
   15CHTO   O35 6202   5.509   3.687   3.791 -0.2479  0.5335 -0.5869
   15CHTO   H71 6203   5.496   3.634   3.715 -2.1276  0.3933 -0.1817
   15CHTO   O28 6204   5.137   3.305   3.774  0.0250  0.9351  0.2234
   15CHTO   C42 6205   5.160   3.306   3.634 -0.3167  0.6010  0.5205
   15CHTO   H84 6206   5.104   3.217   3.604 -0.4114  0.6668  0.4987
   15CHTO   C44 6207   5.306   3.280   3.584 -0.3821  0.2276  1.1245
   15CHTO   H86 6208   5.371   3.347   3.640 -1.0035  1.9809 -0.2103
   15CHTO   O32 6209   5.343   3.145   3.628 -0.1253 -0.5250 -0.4101
   15CHTO   H69 6210   5.275   3.083   3.607 -0.3357 -1.1017  1.8319
   15CHTO   C48 6211   5.334   3.300   3.427  1.1276 -0.4829 -0.2025
   15CHTO   H90 6212   5.295   3.208   3.382  2.6533 -1.0701 -0.3474
   15CHTO    N9 6213   5.479   3.308   3.413  0.1505 -0.3150  0.0758
   15CHTO   H77 6214   5.508   3.352   3.319 -0.7916  0.4002  0.1164
   15CHTO   H78 6215   5.513   3.376   3.490 -1.6578  1.6648 -0.8414
   15CHTO   C51 6216   5.254   3.424   3.366  0.2487 -0.3539  0.4416
   15CHTO   H93 6217   5.303   3.513   3.405  2.3711 -1.7771  1.0848
   15CHTO   O30 6218   5.117   3.411   3.416 -0.0639  0.2226  0.0293
   15CHTO   C46 6219   5.099   3.427   3.557  0.9927 -0.9225 -0.0791
   15CHTO   H88 6220   5.151   3.518   3.587 -1.8895  0.8228 -0.1554
   15CHTO   C53 6221   4.951   3.448   3.586 -0.7418  0.5677 -0.3308
   15CHTO   O72 6222   4.908   3.583   3.594  0.7806 -0.4478 -0.1212
   15CHTO  H199 6223   4.840   3.611   3.536 -0.0217  0.5470  1.2662
   15CHTO   O22 6224   5.252   3.414   3.222 -0.2455 -0.7451  0.4633
   15CHTO   C31 6225   5.258   3.527   3.136 -0.3289  0.1374 -0.2772
   15CHTO   H59 6226   5.270   3.488   3.032 -2.4802 -1.9099  0.2010
   15CHTO   C29 6227   5.130   3.610   3.140  0.1410  0.8626 -0.7725
   15CHTO   H57 6228   5.115   3.634   3.247  1.0738  0.6243 -0.5832
   15CHTO   O21 6229   5.022   3.525   3.100 -0.1333  0.9072 -0.7843
   15CHTO   H37 6230   4.945   3.531   3.153 -0.6534 -2.0335 -1.0926
   15CHTO   C27 6231   5.144   3.739   3.062  0.1366  0.1515  0.6192
   15CHTO   H55 6232   5.169   3.710   2.959  0.3807 -1.4997  1.1226
   15CHTO    N5 6233   5.022   3.823   3.066  0.2088  0.8092  0.2664
   15CHTO   H43 6234   5.037   3.918   3.114  0.7564  0.7812  0.1595
   15CHTO   H44 6235   4.984   3.837   2.966  0.5067  0.8202  0.1543
   15CHTO   C25 6236   5.274   3.811   3.112 -0.1142  0.4031 -0.5098
   15CHTO   H53 6237   5.265   3.839   3.218  2.9979  1.4559 -0.4677
   15CHTO   O17 6238   5.386   3.729   3.094  0.2438  0.5720  0.1691
   15CHTO   C32 6239   5.389   3.608   3.163 -0.6040  0.2201  0.0202
   15CHTO   H60 6240   5.417   3.612   3.268  0.8285  1.9682 -0.4036
   15CHTO   C36 6241   5.501   3.517   3.109  0.6192  0.2465  0.1365
   15CHTO   O25 6242   5.625   3.589   3.086  0.2780  0.4429 -0.7357
   15CHTO   H40 6243   5.696   3.535   3.116  0.3906  0.1174 -1.5721
   15CHTO   O15 6244   5.288   3.948   3.022  0.3669 -0.4011 -0.5757
   15CHTO   C19 6245   5.343   4.080   3.030 -0.1744 -0.3912  1.0065
   15CHTO   H47 6246   5.359   4.119   2.928 -1.9665  0.6019  1.0772
   15CHTO   C20 6247   5.257   4.174   3.111  0.4454 -0.2516  0.3094
   15CHTO   H48 6248   5.238   4.135   3.212 -1.1283  0.7655  0.4372
   15CHTO   O19 6249   5.133   4.193   3.039  0.0954 -0.0947  0.1249
   15CHTO   H35 6250   5.064   4.225   3.094 -0.7193  0.6172 -1.2819
   15CHTO   C21 6251   5.325   4.311   3.143  0.4497 -0.2313  0.4836
   15CHTO   H49 6252   5.347   4.360   3.048  0.1151  0.5936  0.8188
   15CHTO    N4 6253   5.240   4.395   3.229  0.0898  0.5173 -0.2605
   15CHTO   H41 6254   5.142   4.353   3.244 -0.6602  1.7928 -1.4547
   15CHTO   H42 6255   5.232   4.499   3.200  0.9556 -0.3730 -3.9158
   15CHTO   C22 6256   5.456   4.282   3.211  0.5835 -0.2167 -0.1037
   15CHTO   H50 6257   5.436   4.221   3.299  1.5673 -0.8741 -0.3335
   15CHTO   O14 6258   5.546   4.213   3.126 -0.0566 -0.5453 -0.5242
   15CHTO   C23 6259   5.493   4.083   3.090  0.2702 -0.3727  0.0259
   15CHTO   H51 6260   5.502   4.015   3.176 -2.8827 -2.2279 -1.0189
   15CHTO   C34 6261   5.590   4.030   2.985 -0.5441  0.2949  0.4342
   15CHTO   O23 6262   5.571   3.886   2.972  0.2409 -0.0602  0.3617
   15CHTO   H38 6263   5.504   3.879   2.907  1.3881  1.5395 -1.0206
   15CHTO   O16 6264   5.526   4.403   3.244 -0.0643  0.6121 -0.0537
   15CHTO   C24 6265   5.632   4.376   3.358  0.1723  0.3345  0.1797
   15CHTO   H52 6266   5.656   4.270   3.371  0.2788  0.2099 -1.0362
   15CHTO   C26 6267   5.576   4.425   3.495 -0.2856  0.2581 -0.3515
   15CHTO   H54 6268   5.549   4.532   3.480  0.5725  0.3341 -1.4167
   15CHTO   O20 6269   5.466   4.340   3.530 -0.2656  0.3677  0.1459
   15CHTO   H36 6270   5.411   4.401   3.575  1.2855  0.5945  1.8062
   15CHTO   C30 6271   5.690   4.430   3.601 -0.0565 -0.2216 -0.0488
   15CHTO   H58 6272   5.719   4.324   3.609  1.0708  0.2977  3.3820
   15CHTO    N6 6273   5.649   4.484   3.732  0.0526 -0.3721 -0.2733
   15CHTO   H45 6274   5.591   4.572   3.708  1.1235  0.2323 -0.6909
   15CHTO   H46 6275   5.590   4.411   3.786 -1.1968 -0.3950 -1.6414
   15CHTO   C33 6276   5.828   4.487   3.554  0.1043  0.4137 -0.7300
   15CHTO   H61 6277   5.815   4.594   3.535 -0.5235  0.5239  0.2689
   15CHTO   O18 6278   5.857   4.426   3.427  0.3105 -0.2395  0.2847
   15CHTO   C28 6279   5.764   4.441   3.318  0.2786  0.4224 -0.1996
   15CHTO   H56 6280   5.746   4.544   3.289 -3.2857 -0.4287 -1.3022
   15CHTO   C35 6281   5.832   4.365   3.200  0.0590 -0.5106 -0.1936
   15CHTO   O24 6282   5.874   4.228   3.218  0.1175  0.2890  0.5846
   15CHTO   H39 6283   5.803   4.168   3.233 -0.1480  0.3682 -0.3405
   15CHTO    O9 6284   5.941   4.472   3.641  0.5782  0.0446 -1.0079
   15CHTO   C13 6285   6.079   4.531   3.588  0.2332 -0.5101  0.3685
   15CHTO   H26 6286   6.056   4.624   3.533  0.5965  1.2479  3.0494
   15CHTO   C11 6287   6.152   4.427   3.497 -0.0134  0.6531 -0.5813
   15CHTO   H24 6288   6.092   4.416   3.405 -1.3404 -0.3254  0.3941
   15CHTO    O8 6289   6.152   4.302   3.560  0.3535  0.8355  0.2889
   15CHTO    H3 6290   6.090   4.247   3.516 -0.2246  2.1116 -0.5412
   15CHTO    C9 6291   6.295   4.470   3.453  0.0593  0.0043  0.0887
   15CHTO   H22 6292   6.283   4.561   3.392 -1.2483 -0.8338 -0.9324
   15CHTO    N2 6293   6.365   4.388   3.356 -0.7355 -0.5239 -0.4864
   15CHTO   H10 6294   6.387   4.289   3.392  0.5338 -1.0250 -2.5283
   15CHTO   H11 6295   6.319   4.388   3.258 -2.3930 -2.6267  0.2479
   15CHTO    C7 6296   6.384   4.509   3.582  0.0494  0.2241 -0.0621
   15CHTO   H20 6297   6.463   4.569   3.532 -1.0178  0.8419 -1.0371
   15CHTO    O4 6298   6.315   4.598   3.673  0.8025  0.5674  0.2601
   15CHTO   C14 6299   6.174   4.588   3.704  0.2510 -0.2252 -0.2169
   15CHTO   H27 6300   6.139   4.692   3.722  0.1090  0.0448 -1.9416
   15CHTO   C18 6301   6.173   4.521   3.843 -0.2802 -0.2337 -0.1880
   15CHTO   O13 6302   6.042   4.488   3.884 -0.4594 -0.1339  0.1371
   15CHTO    H7 6303   5.997   4.569   3.896  0.9047  0.5610  0.6545
   15CHTO    O2 6304   6.432   4.375   3.657  0.3809 -0.3289  0.2566
   15CHTO    C1 6305   6.568   4.387   3.695  0.2751 -0.0395  0.4115
   15CHTO   H14 6306   6.594   4.492   3.721 -1.4327  0.7431 -0.9633
   15CHTO    C2 6307   6.671   4.345   3.570 -0.4017  0.0520 -0.3913
   15CHTO   H15 6308   6.628   4.249   3.539 -1.0041 -0.2901  1.4159
   15CHTO    O6 6309   6.675   4.438   3.458  0.0089  0.6223  0.3937
   15CHTO    H1 6310   6.704   4.521   3.490 -1.4138  1.3383 -0.1430
   15CHTO    C3 6311   6.822   4.308   3.622  0.7964  0.2178  0.4639
   15CHTO   H16 6312   6.877   4.401   3.643  0.6740  0.2343  0.7135
   15CHTO    N1 6313   6.910   4.234   3.526 -0.5017  0.7807 -0.9291
   15CHTO    H8 6314   7.004   4.202   3.570 -0.1472  1.8852 -0.8672
   15CHTO    H9 6315   6.933   4.306   3.449  0.5994  2.4559  0.8956
   15CHTO    C4 6316   6.810   4.234   3.757 -0.1131 -0.2333 -0.3530
   15CHTO   H17 6317   6.768   4.136   3.737 -0.7950 -0.2595  1.1338
   15CHTO    O1 6318   6.726   4.302   3.848  0.4600 -0.1730 -0.3711
   15CHTO    C5 6319   6.585   4.299   3.819  0.2714  0.1542  0.2969
   15CHTO   H18 6320   6.556   4.197   3.795  1.3238 -0.1276  0.2281
   15CHTO   C16 6321   6.491   4.347   3.931 -0.4900  0.4586  0.2360
   15CHTO   O11 6322   6.484   4.241   4.028 -0.2659  0.2655  0.0959
   15CHTO    H5 6323   6.493   4.153   3.998  0.5907  0.4791 -0.2845
   15CHTO    O3 6324   6.926   4.224   3.833 -0.0265 -0.0552  0.4198
   15CHTO    C6 6325   6.930   4.133   3.945 -0.5498  0.3959  0.2440
   15CHTO   H19 6326   6.832   4.128   3.993 -0.4854  0.8057  0.4144
   15CHTO    C8 6327   6.997   3.995   3.908  0.3183 -0.4400  0.3820
   15CHTO   H21 6328   7.092   4.010   3.857  0.3640 -0.6355  0.4075
   15CHTO    O7 6329   6.917   3.921   3.814  0.2175 -0.1267 -0.1502
   15CHTO    H2 6330   6.915   3.966   3.732 -0.6901 -0.5803 -0.3803
   15CHTO   C12 6331   7.027   3.902   4.034  0.1942 -0.2449 -0.0024
   15CHTO   H25 6332   6.929   3.868   4.075 -0.0859  2.0198  1.3186
   15CHTO    N3 6333   7.115   3.785   4.002 -0.5806  0.0954 -0.2117
   15CHTO   H12 6334   7.219   3.814   3.993 -0.5453 -0.1058 -0.4749
   15CHTO   H13 6335   7.104   3.701   4.070  0.3581  0.2500  0.1279
   15CHTO   C15 6336   7.088   3.988   4.146  0.2510  1.0559  0.5363
   15CHTO   H28 6337   7.190   4.015   4.117  0.2706  1.3799  0.8917
   15CHTO   O10 6338   7.094   3.914   4.286  0.3955  0.1178 -0.1802
   15CHTO    H4 6339   7.094   3.823   4.264 -0.9458  0.6176 -2.5383
   15CHTO    O5 6340   7.016   4.106   4.174 -0.2673  0.2178  0.4123
   15CHTO   C10 6341   7.024   4.190   4.053 -0.0943 -0.6484 -0.1903
   15CHTO   H23 6342   7.129   4.198   4.024  0.2971 -0.6611  1.1537
   15CHTO   C17 6343   6.976   4.328   4.092 -0.1798 -0.4900 -0.3229
   15CHTO   O12 6344   6.846   4.333   4.160 -0.6068 -1.2904 -0.7895
   15CHTO    H6 6345   6.775   4.291   4.116 -0.0255 -0.8525 -2.1523
   16CHTO  H203 6346   4.983   4.077   3.363  1.1125  1.7994 -0.9978
   16CHTO   O82 6347   5.047   4.009   3.352 -0.6304  0.0109 -0.3471
   16CHTO  C123 6348   5.119   3.991   3.476 -0.1815 -0.0878  0.4292
   16CHTO  H227 6349   5.062   3.923   3.541 -2.7924 -0.7933 -2.4869
   16CHTO   O77 6350   5.238   3.925   3.426 -0.8025 -0.1506  0.3993
   16CHTO  C118 6351   5.325   3.882   3.529 -0.9289  0.0656  0.1139
   16CHTO  H222 6352   5.258   3.823   3.594 -1.9649  1.2066  0.0997
   16CHTO  C125 6353   5.439   3.788   3.470  0.0172 -0.5197  0.1948
   16CHTO   O84 6354   5.511   3.847   3.361 -0.0801  0.4389  0.1676
   16CHTO  H205 6355   5.447   3.888   3.305  0.8988  2.0642  0.1889
   16CHTO  C114 6356   5.378   4.002   3.607  0.8496  0.0744 -0.3773
   16CHTO  H218 6357   5.432   4.065   3.537  0.0904 -1.2727 -2.2257
   16CHTO  C116 6358   5.260   4.075   3.673 -0.2900 -0.0683  0.5161
   16CHTO  H220 6359   5.203   4.010   3.742 -0.4110 -2.8606 -2.1187
   16CHTO   O79 6360   5.316   4.194   3.747 -0.4612 -0.1497  0.4099
   16CHTO  H201 6361   5.248   4.234   3.798 -0.2745  1.1348 -0.3505
   16CHTO  C120 6362   5.160   4.122   3.553 -0.1432  0.5311  0.1140
   16CHTO  H224 6363   5.215   4.190   3.485  0.4668 -1.3498 -1.3165
   16CHTO   N21 6364   5.041   4.187   3.606 -0.1385  0.3279  0.3026
   16CHTO  H211 6365   4.960   4.116   3.614  2.2328 -2.7074 -1.7088
   16CHTO  H212 6366   5.065   4.237   3.699 -1.4525  1.6440 -0.0488
   16CHTO   O75 6367   5.479   3.962   3.703  0.2585 -0.3631  0.2445
   16CHTO  C112 6368   5.620   4.034   3.694  0.2571 -0.1879 -0.0047
   16CHTO  H216 6369   5.607   4.133   3.646 -0.8910 -0.5551 -0.4781
   16CHTO   O73 6370   5.696   3.949   3.617  0.0311  0.3119 -0.3360
   16CHTO  C113 6371   5.825   4.005   3.587  0.9160 -0.3099 -0.3693
   16CHTO  H217 6372   5.813   4.106   3.542  2.2662 -0.4840 -1.1698
   16CHTO  C124 6373   5.883   3.927   3.469 -0.1087  0.1805  0.1613
   16CHTO   O83 6374   5.802   3.908   3.349 -0.1677 -0.1810 -0.1288
   16CHTO  H204 6375   5.843   3.834   3.307 -1.8703 -0.9064 -0.5670
   16CHTO  C109 6376   5.914   4.000   3.714 -0.2809  0.3184  0.3094
   16CHTO  H213 6377   5.917   3.898   3.754  1.0037  1.0024  2.0326
   16CHTO  C110 6378   5.837   4.085   3.819 -0.7094 -0.6037 -0.6682
   16CHTO  H214 6379   5.837   4.185   3.776 -3.7358 -0.4142 -0.3301
   16CHTO   O78 6380   5.903   4.063   3.951  0.1816 -0.1890 -0.0705
   16CHTO  H200 6381   5.982   4.114   3.952 -0.0915  0.2427 -0.6293
   16CHTO  C111 6382   5.687   4.038   3.834 -0.1179  0.1758  0.0319
   16CHTO  H215 6383   5.681   3.937   3.877  2.2370 -0.2780 -0.6133
   16CHTO   N19 6384   5.610   4.130   3.924  0.4042 -0.6251 -0.1007
   16CHTO  H207 6385   5.638   4.114   4.027  0.3940 -0.3283 -0.0540
   16CHTO  H208 6386   5.618   4.234   3.899  2.3544 -0.3824  1.4823
   16CHTO   O74 6387   6.049   4.053   3.705 -0.8114  0.0167  0.3942
   16CHTO  C115 6388   6.165   3.936   3.644 -0.4095  0.9147  0.1729
   16CHTO  H219 6389   6.127   3.835   3.654 -0.9420  1.2403  1.6545
   16CHTO   O76 6390   6.198   3.958   3.489 -0.1971  0.6030 -0.2504
   16CHTO  C122 6391   6.297   3.867   3.439 -0.0745 -0.9950 -0.0205
   16CHTO  H226 6392   6.318   3.903   3.338  2.2100 -2.8028 -0.2385
   16CHTO  C126 6393   6.244   3.724   3.413 -0.4345 -0.4962 -0.2771
   16CHTO   O85 6394   6.138   3.722   3.322  0.4157  0.0723 -0.1648
   16CHTO  H206 6395   6.167   3.744   3.236  2.6729  3.0783  1.2829
   16CHTO  C121 6396   6.435   3.879   3.520 -0.0173 -0.2646 -0.5014
   16CHTO  H225 6397   6.507   3.804   3.483 -1.9375 -1.0529 -2.7691
   16CHTO   O81 6398   6.494   4.010   3.503 -0.0781  0.5412 -0.3258
   16CHTO  H202 6399   6.500   4.034   3.412 -3.3944  0.4624 -0.6468
   16CHTO  C119 6400   6.411   3.852   3.672  0.1873  0.4020 -0.4648
   16CHTO  H223 6401   6.367   3.752   3.677 -1.0111  0.9881  0.9732
   16CHTO  C117 6402   6.294   3.948   3.728 -0.5739 -0.1082  0.0659
   16CHTO  H221 6403   6.328   4.051   3.727  0.1773 -0.3449  0.6786
   16CHTO   N20 6404   6.262   3.923   3.874  0.2610  0.5905 -0.3090
   16CHTO  H209 6405   6.181   3.854   3.893  1.2156 -0.0544  1.4990
   16CHTO  H210 6406   6.215   4.011   3.916 -1.7974  0.3669 -2.0372
   16CHTO   O80 6407   6.550   3.834   3.772 -0.3699 -0.0358  0.8752
   16CHTO  C103 6408   6.568   3.722   3.840 -0.0651 -0.9228 -0.0499
   16CHTO  H190 6409   6.474   3.686   3.882  0.5689  0.2950  2.5041
   16CHTO  C101 6410   6.650   3.610   3.772 -0.4229 -0.1948 -0.5965
   16CHTO  H188 6411   6.743   3.646   3.729 -0.3864 -1.0982 -1.2700
   16CHTO   O68 6412   6.579   3.554   3.663  0.2934  0.3742  0.2863
   16CHTO  H168 6413   6.487   3.542   3.676 -0.1281  0.9805 -1.9121
   16CHTO   C99 6414   6.675   3.489   3.886  0.4012  0.1280  0.7833
   16CHTO  H186 6415   6.571   3.456   3.906  0.0364  1.1949  0.7073
   16CHTO   N17 6416   6.758   3.372   3.847 -0.2024 -0.2474 -0.1823
   16CHTO  H174 6417   6.704   3.284   3.815 -0.4298 -0.5031  0.8872
   16CHTO  H175 6418   6.824   3.399   3.765  1.4087 -0.3259  1.0546
   16CHTO   C97 6419   6.734   3.539   4.019  0.2312  0.0914 -0.1576
   16CHTO  H184 6420   6.843   3.554   4.018  0.4832 -1.1335  3.0725
   16CHTO   O64 6421   6.664   3.659   4.060 -0.1792 -0.3464 -0.4698
   16CHTO  C104 6422   6.657   3.766   3.970 -0.4845  0.3334 -0.2087
   16CHTO  H191 6423   6.760   3.786   3.942  0.0216  1.4652  2.3517
   16CHTO  C108 6424   6.602   3.893   4.046  0.8602  0.5102 -0.0642
   16CHTO   O71 6425   6.702   3.930   4.142  0.1467 -0.2254 -0.3931
   16CHTO  H171 6426   6.716   3.860   4.202  0.5649 -1.6595 -2.1400
   16CHTO   O62 6427   6.702   3.450   4.124  0.1459 -0.6393  0.0412
   16CHTO   C91 6428   6.764   3.435   4.252  0.2168  0.7861 -0.1388
   16CHTO  H178 6429   6.866   3.399   4.238  0.2180  1.0007 -0.6872
   16CHTO   C92 6430   6.694   3.316   4.322 -0.6017  0.3558 -0.5845
   16CHTO  H179 6431   6.680   3.241   4.243 -2.5450 -0.9491  0.9503
   16CHTO   O66 6432   6.774   3.250   4.417 -0.5035 -0.7135  0.6090
   16CHTO  H166 6433   6.844   3.197   4.385 -0.2832 -0.1060  0.0807
   16CHTO   C93 6434   6.562   3.348   4.387  0.2667  0.6714 -0.4957
   16CHTO  H180 6435   6.542   3.266   4.458 -0.2111  1.5824  0.4288
   16CHTO   N16 6436   6.444   3.362   4.296 -0.5306  0.3373  0.1359
   16CHTO  H172 6437   6.351   3.373   4.348  1.1884  0.6985  3.2766
   16CHTO  H173 6438   6.436   3.285   4.220  0.7271 -0.8200  1.1258
   16CHTO   C94 6439   6.576   3.483   4.475  0.4887  0.3961  0.1190
   16CHTO  H181 6440   6.520   3.565   4.430  0.3110 -0.8939 -2.0817
   16CHTO   O61 6441   6.708   3.539   4.473  0.5460  0.2713 -0.3587
   16CHTO   C95 6442   6.778   3.557   4.349  0.1741  0.4003 -0.3648
   16CHTO  H182 6443   6.744   3.647   4.298 -1.2413  0.3250  0.4153
   16CHTO  C106 6444   6.929   3.584   4.378 -0.8293 -0.1334  0.1446
   16CHTO   O69 6445   6.943   3.719   4.411 -0.0797 -0.0522 -0.2830
   16CHTO  H169 6446   7.032   3.747   4.420  0.4504 -1.6104 -0.5005
   16CHTO   O63 6447   6.543   3.459   4.641  0.5988 -0.0834 -0.6401
   16CHTO   C96 6448   6.405   3.397   4.680 -0.1331 -0.1136 -0.5650
   16CHTO  H183 6449   6.409   3.301   4.628  0.0032 -0.5098  0.1655
   16CHTO   C98 6450   6.275   3.468   4.625  1.1695 -0.4071  0.0228
   16CHTO  H185 6451   6.287   3.493   4.519  0.9412  1.5398  0.4261
   16CHTO   O67 6452   6.169   3.373   4.627  0.5773  0.0743 -0.9268
   16CHTO  H167 6453   6.123   3.366   4.709  0.5290  1.0458 -0.8682
   16CHTO  C102 6454   6.229   3.591   4.715  0.0669  0.0003  0.0572
   16CHTO  H189 6455   6.120   3.599   4.706 -0.1607 -0.8737  1.7900
   16CHTO   N18 6456   6.281   3.726   4.675  0.1153  0.1150  0.1675
   16CHTO  H176 6457   6.247   3.754   4.577 -1.4176  0.1972  0.7172
   16CHTO  H177 6458   6.248   3.801   4.745 -0.0621 -1.1145  1.4188
   16CHTO  C105 6459   6.251   3.560   4.870  0.5494  0.5167 -0.0324
   16CHTO  H192 6460   6.348   3.601   4.901  1.0916  0.3318 -1.4335
   16CHTO   O65 6461   6.267   3.418   4.890  0.0080 -0.1421 -0.5009
   16CHTO  C100 6462   6.390   3.361   4.835 -0.6046 -0.3093 -0.8890
   16CHTO  H187 6463   6.478   3.394   4.894 -0.9366  0.8662 -1.0538
   16CHTO  C107 6464   6.397   3.207   4.861  1.1133  0.3618  0.2926
   16CHTO   O70 6465   6.302   3.125   4.794  0.3985  0.1653 -0.3573
   16CHTO  H170 6466   6.338   3.125   4.708 -1.8021 -1.0099 -1.3232
   16CHTO   O57 6467   6.127   3.615   4.959 -0.3886  0.3630  0.0325
   16CHTO   C85 6468   6.088   3.751   4.956  0.0635  0.3682  0.3187
   16CHTO  H157 6469   6.087   3.794   4.854  1.7217  0.6737  0.4150
   16CHTO   C83 6470   6.202   3.839   5.029  0.6222 -0.9725  0.2308
   16CHTO  H155 6471   6.296   3.826   4.975 -0.1470 -2.9168 -0.6903
   16CHTO   O56 6472   6.237   3.792   5.157  0.5670  0.1122  0.1936
   16CHTO  H135 6473   6.163   3.788   5.215  0.7847  0.5528  0.5037
   16CHTO   C81 6474   6.152   3.987   5.021  0.5463 -0.6386  1.6054
   16CHTO  H153 6475   6.127   4.006   4.917 -0.4337 -0.0205  1.9466
   16CHTO   N14 6476   6.246   4.094   5.057  0.0354 -0.6747 -0.1997
   16CHTO  H141 6477   6.339   4.096   5.004  0.5250  0.3041  0.6851
   16CHTO  H142 6478   6.209   4.195   5.053  1.6330  0.0808  2.8860
   16CHTO   C79 6479   6.019   4.005   5.095 -0.3542  0.6177  0.0310
   16CHTO  H151 6480   5.977   4.104   5.078 -1.0405  0.3362  0.0746
   16CHTO   O52 6481   5.918   3.919   5.043 -0.0709  0.1643  0.1367
   16CHTO   C86 6482   5.952   3.782   5.034 -0.6198 -0.2572 -0.1548
   16CHTO  H158 6483   5.955   3.753   5.141 -3.0280 -0.2296 -0.0480
   16CHTO   C90 6484   5.832   3.709   4.972  0.2329 -0.3320  0.6564
   16CHTO   O60 6485   5.725   3.683   5.066 -0.3500  0.0923 -0.4454
   16CHTO  H138 6486   5.718   3.757   5.122  1.3350 -1.2384  1.5849
   16CHTO   O50 6487   6.036   3.989   5.238  0.1169 -0.1444  0.2996
   16CHTO   C73 6488   5.992   3.972   5.380 -0.0440 -0.3805 -0.4363
   16CHTO  H145 6489   6.085   3.948   5.433  0.0410  0.9514  0.0267
   16CHTO   C74 6490   5.879   3.867   5.405 -0.2401  0.0041  0.2787
   16CHTO  H146 6491   5.907   3.772   5.359  0.9967  1.0011 -1.0790
   16CHTO   O54 6492   5.890   3.841   5.544 -0.1233 -0.3690 -0.3779
   16CHTO  H133 6493   5.954   3.784   5.582 -0.0165  0.7182  1.1367
   16CHTO   C75 6494   5.739   3.916   5.355 -0.2072 -0.8994 -0.2119
   16CHTO  H147 6495   5.740   3.923   5.246 -1.8517 -0.4237 -0.1986
   16CHTO   N13 6496   5.633   3.819   5.392 -0.2701  0.7235 -0.0912
   16CHTO  H139 6497   5.662   3.760   5.477 -1.0898  0.1471 -0.2066
   16CHTO  H140 6498   5.613   3.761   5.302  0.7730 -0.8777  0.6779
   16CHTO   C76 6499   5.710   4.066   5.406  0.7120 -0.2203 -1.0189
   16CHTO  H148 6500   5.713   4.064   5.515  0.4049  0.8875 -0.9780
   16CHTO   O49 6501   5.818   4.149   5.361 -0.4784 -0.2495 -0.0612
   16CHTO   C77 6502   5.935   4.112   5.425  0.4220  0.8216  0.3123
   16CHTO  H149 6503   5.923   4.113   5.534 -1.3034 -0.5571  0.1596
   16CHTO   C88 6504   6.037   4.225   5.397  0.0689  0.6771 -0.2219
   16CHTO   O58 6505   6.136   4.228   5.506 -0.0028 -0.5175 -0.2012
   16CHTO  H136 6506   6.154   4.146   5.548  1.1404  0.0300  0.3867
   16CHTO   O51 6507   5.562   4.128   5.366  0.0429  0.1063  0.0128
   16CHTO   C78 6508   5.541   4.291   5.400  0.4834 -0.9864 -0.2236
   16CHTO  H150 6509   5.629   4.353   5.369 -0.1125  1.2015  2.2811
   16CHTO   C80 6510   5.527   4.308   5.553 -0.7234 -0.4311 -0.8276
   16CHTO  H152 6511   5.446   4.243   5.592 -1.0407  1.0807  1.0900
   16CHTO   O55 6512   5.648   4.257   5.617 -0.1069 -0.4003  0.0681
   16CHTO  H134 6513   5.658   4.165   5.601  2.6348 -0.3954  1.4687
   16CHTO   C84 6514   5.500   4.457   5.600  0.1815  0.4877  0.1672
   16CHTO  H156 6515   5.571   4.519   5.546 -1.1593  0.3962 -1.7439
   16CHTO   N15 6516   5.501   4.488   5.743 -0.2533  0.1053 -0.0767
   16CHTO  H143 6517   5.421   4.430   5.784  1.2588 -1.1221  1.1893
   16CHTO  H144 6518   5.590   4.459   5.795 -1.6950 -3.0372  0.8019
   16CHTO   C87 6519   5.371   4.509   5.529 -0.0542 -0.2328 -0.2124
   16CHTO  H159 6520   5.295   4.439   5.563 -0.2239  0.4595  0.8564
   16CHTO   O53 6521   5.393   4.486   5.372 -0.6078  0.6024 -0.4024
   16CHTO   C82 6522   5.418   4.348   5.328  0.1163 -0.2156  0.2284
   16CHTO  H154 6523   5.328   4.290   5.346 -1.4992  1.5477 -1.8477
   16CHTO   C89 6524   5.442   4.354   5.176  0.4202 -0.4889 -0.1902
   16CHTO   O59 6525   5.398   4.237   5.117  0.0147 -0.4052 -0.0228
   16CHTO  H137 6526   5.440   4.230   5.033 -0.8037 -0.3793 -0.4405
   16CHTO   O45 6527   5.347   4.679   5.552 -0.1052 -0.2311 -0.3809
   16CHTO   C67 6528   5.418   4.768   5.466  0.0681  0.5398  0.3614
   16CHTO  H124 6529   5.490   4.707   5.412  2.0349  1.0652  2.2926
   16CHTO   C65 6530   5.319   4.834   5.366  0.3348 -0.4203 -0.3866
   16CHTO  H122 6531   5.223   4.839   5.416 -0.3736 -0.8466 -1.6867
   16CHTO   O44 6532   5.304   4.745   5.255 -0.5992  0.0364  0.2759
   16CHTO  H102 6533   5.212   4.727   5.256 -0.4249 -1.0421 -1.2313
   16CHTO   C63 6534   5.363   4.984   5.325  0.0561  0.1620  0.1497
   16CHTO  H120 6535   5.339   5.052   5.406  0.5313  1.6372 -0.9330
   16CHTO   N11 6536   5.274   5.056   5.221  0.6134  0.0760 -0.2132
   16CHTO  H108 6537   5.199   5.119   5.265  1.6952  0.9016  0.4648
   16CHTO  H109 6538   5.343   5.130   5.186  2.5721 -0.3374  2.6304
   16CHTO   C61 6539   5.515   4.985   5.308 -0.1341  0.5348  0.6012
   16CHTO  H118 6540   5.541   5.091   5.291 -1.9344  0.7870 -0.7634
   16CHTO   O40 6541   5.584   4.943   5.436  0.2695  0.0008 -0.4070
   16CHTO   C68 6542   5.504   4.878   5.537 -0.1527 -0.4335 -0.1205
   16CHTO  H125 6543   5.440   4.949   5.593  0.2013  0.2090 -0.5251
   16CHTO   C72 6544   5.605   4.827   5.640 -0.1518 -0.1046  0.1880
   16CHTO   O48 6545   5.702   4.745   5.575  0.4471  0.6218  0.2194
   16CHTO  H105 6546   5.750   4.698   5.641  1.5835  3.0095  1.1227
   16CHTO   O38 6547   5.567   4.898   5.201  0.6390  0.0941 -0.2403
   16CHTO   C55 6548   5.708   4.901   5.164 -0.2273 -0.0645  0.2884
   16CHTO  H112 6549   5.766   4.925   5.254  0.7120  1.7346 -0.7756
   16CHTO   C56 6550   5.726   5.011   5.058  0.6819  0.0249  0.3193
   16CHTO  H113 6551   5.644   4.989   4.987  2.5507 -1.3817 -1.4582
   16CHTO   O42 6552   5.714   5.140   5.119  0.0173  0.2697  0.3657
   16CHTO  H100 6553   5.657   5.192   5.065 -0.3197  0.9040  1.3280
   16CHTO   C57 6554   5.858   4.994   4.980 -0.3208  0.2010  0.1117
   16CHTO  H114 6555   5.935   5.019   5.053  0.4041  2.2761 -1.3103
   16CHTO   N10 6556   5.875   5.087   4.865  0.3826  0.3213  0.3106
   16CHTO  H106 6557   5.905   5.185   4.899 -0.4198  0.7509 -0.1954
   16CHTO  H107 6558   5.782   5.093   4.810 -0.5674 -1.0505  1.7187
   16CHTO   C58 6559   5.880   4.849   4.935 -0.3113 -0.0951 -0.7613
   16CHTO  H115 6560   5.806   4.827   4.855  0.7008 -0.4277 -1.6038
   16CHTO   O37 6561   5.875   4.761   5.050 -0.1830  0.4833  0.0249
   16CHTO   C59 6562   5.743   4.753   5.113 -0.1681 -0.0704  0.9725
   16CHTO  H116 6563   5.670   4.725   5.038  0.7314 -1.8493  0.7263
   16CHTO   C70 6564   5.752   4.655   5.233 -0.4877 -0.3168  0.1149
   16CHTO   O46 6565   5.852   4.683   5.331  0.0532  0.2247 -0.6874
   16CHTO  H103 6566   5.827   4.766   5.367  2.4819  0.6885  0.0029
   16CHTO   O39 6567   6.034   4.815   4.880 -0.1841  0.3699  0.0483
   16CHTO   C60 6568   6.035   4.714   4.780  0.5649 -0.2450  0.1759
   16CHTO  H117 6569   5.935   4.675   4.763  0.4961  0.8705 -2.1230
   16CHTO   C62 6570   6.068   4.778   4.642  0.5155 -0.3919 -0.5675
   16CHTO  H119 6571   5.987   4.850   4.619 -0.6011 -1.6937 -0.8419
   16CHTO   O43 6572   6.192   4.855   4.655 -0.1846 -0.1634 -0.1699
   16CHTO  H101 6573   6.174   4.944   4.629 -1.1651  0.0880  1.3199
   16CHTO   C66 6574   6.086   4.669   4.519  0.6813  0.0676  0.1625
   16CHTO  H123 6575   5.994   4.614   4.498  1.0391 -0.6737  0.5154
   16CHTO   N12 6576   6.122   4.735   4.390 -0.0986 -0.1066 -0.3923
   16CHTO  H110 6577   6.051   4.813   4.368 -1.8813 -1.8501 -1.0390
   16CHTO  H111 6578   6.226   4.761   4.381 -0.6212  2.7469  1.3234
   16CHTO   C69 6579   6.185   4.560   4.560 -0.9607 -0.3068 -0.1719
   16CHTO  H126 6580   6.283   4.612   4.569 -0.8454 -0.2998 -1.3841
   16CHTO   O41 6581   6.134   4.494   4.711  0.1197 -0.0348 -0.0373
   16CHTO   C64 6582   6.139   4.595   4.817  0.3145 -0.9554 -0.0544
   16CHTO  H121 6583   6.242   4.635   4.827 -1.2436  2.7930  1.8425
   16CHTO   C71 6584   6.084   4.528   4.943  1.2323  0.2004  0.4497
   16CHTO   O47 6585   6.166   4.427   4.997 -0.2017 -0.4160 -0.0574
   16CHTO  H104 6586   6.115   4.348   4.992 -0.2722 -0.4688  1.2807
   16CHTO   O34 6587   6.207   4.457   4.438 -0.2317 -0.0507  0.6057
   16CHTO   C49 6588   6.357   4.387   4.376  0.3074  0.0781 -0.1641
   16CHTO   H91 6589   6.390   4.446   4.290 -0.3131 -0.3142 -0.6733
   16CHTO   C47 6590   6.326   4.243   4.335 -0.7410 -1.0533  0.1832
   16CHTO   H89 6591   6.416   4.194   4.292  0.2022 -1.3881  2.4457
   16CHTO   O33 6592   6.222   4.248   4.237  0.0142  0.1350 -0.0464
   16CHTO   H70 6593   6.203   4.158   4.218 -0.1106  0.7865 -3.2903
   16CHTO   C45 6594   6.286   4.169   4.470 -0.1129 -0.3337 -0.2413
   16CHTO   H87 6595   6.193   4.213   4.509  0.1639  0.4895 -0.5007
   16CHTO    N8 6596   6.251   4.027   4.443  0.0204 -0.2824  0.1101
   16CHTO   H75 6597   6.328   3.976   4.385 -0.0376 -0.0392 -0.1833
   16CHTO   H76 6598   6.242   3.969   4.533  1.6558  1.1874  1.2502
   16CHTO   C43 6599   6.403   4.186   4.586  0.2409 -0.4394  0.5704
   16CHTO   H85 6600   6.363   4.145   4.679  0.9773 -2.0454  0.2047
   16CHTO   O29 6601   6.446   4.317   4.601  0.2177  0.2447 -0.0470
   16CHTO   C50 6602   6.461   4.400   4.488 -0.3656 -0.0228 -0.3605
   16CHTO   H92 6603   6.471   4.504   4.521  1.3397 -0.3824  0.3267
   16CHTO   C54 6604   6.610   4.386   4.437 -0.3009 -0.5227  0.1040
   16CHTO   O36 6605   6.638   4.487   4.338 -0.8700  0.0173 -0.3153
   16CHTO   H72 6606   6.725   4.491   4.304 -0.6334  3.0338  0.5133
   16CHTO   O27 6607   6.509   4.098   4.564  0.0328  0.3094  0.1075
   16CHTO   C37 6608   6.613   4.046   4.648 -0.4929 -0.4615 -0.1863
   16CHTO   H79 6609   6.689   4.124   4.662 -2.0916  2.0888 -4.5740
   16CHTO   C38 6610   6.575   3.986   4.790  0.1631  0.0694  0.4344
   16CHTO   H80 6611   6.483   3.929   4.770  0.7648 -0.3237 -1.4070
   16CHTO   O31 6612   6.545   4.106   4.861  0.2226 -0.8998 -0.1591
   16CHTO   H68 6613   6.459   4.141   4.849  1.1984  1.7118  0.2090
   16CHTO   C39 6614   6.678   3.893   4.861 -0.2131  0.4142 -0.1752
   16CHTO   H81 6615   6.758   3.955   4.902  1.1544 -1.1403 -0.4233
   16CHTO    N7 6616   6.617   3.822   4.984 -0.2300  0.0626  0.1463
   16CHTO   H73 6617   6.656   3.855   5.079 -2.2650  0.0196  1.0134
   16CHTO   H74 6618   6.636   3.717   4.971 -0.4756  0.3152 -2.4644
   16CHTO   C40 6619   6.757   3.804   4.760 -0.1757 -0.0676  0.0258
   16CHTO   H82 6620   6.713   3.705   4.745  1.0943 -0.5692 -0.4734
   16CHTO   O26 6621   6.787   3.867   4.641 -0.1131 -0.8448  0.3415
   16CHTO   C41 6622   6.681   3.924   4.569  0.1790 -0.1088 -0.2368
   16CHTO   H83 6623   6.603   3.849   4.548  0.1935 -0.5010  1.0962
   16CHTO   C52 6624   6.736   3.967   4.437  0.5494  0.1210  0.4137
   16CHTO   O35 6625   6.818   4.077   4.430 -0.2859 -0.0032 -0.0528
   16CHTO   H71 6626   6.772   4.149   4.469 -3.3080 -2.2254  0.6721
   16CHTO   O28 6627   6.887   3.773   4.805  0.5415  0.1138 -0.3631
   16CHTO   C42 6628   6.930   3.649   4.871 -0.3451 -0.3781  0.1554
   16CHTO   H84 6629   7.033   3.652   4.835 -0.9487 -0.1132 -1.6045
   16CHTO   C44 6630   6.870   3.515   4.824  1.0391  0.3041  0.3960
   16CHTO   H86 6631   6.762   3.515   4.845  1.1845  0.7094  1.1932
   16CHTO   O32 6632   6.886   3.521   4.684 -0.0553 -0.0832 -0.0789
   16CHTO   H69 6633   6.804   3.533   4.640  0.1533  0.4541 -0.3256
   16CHTO   C48 6634   6.929   3.392   4.884 -0.3389 -0.8248 -0.6287
   16CHTO   H90 6635   7.034   3.393   4.854 -0.4160  0.6086 -0.8936
   16CHTO    N9 6636   6.859   3.259   4.843  0.1873  0.2233 -0.1825
   16CHTO   H77 6637   6.765   3.277   4.792 -0.9874 -1.6331  1.2498
   16CHTO   H78 6638   6.934   3.203   4.789  0.8016  0.2418  0.6620
   16CHTO   C51 6639   6.920   3.406   5.040 -0.1353 -0.2899 -0.0260
   16CHTO   H93 6640   6.817   3.422   5.069 -0.2217 -0.8540 -0.0294
   16CHTO   O30 6641   7.005   3.521   5.072  0.0869  0.4690  0.0593
   16CHTO   C46 6642   6.936   3.655   5.029  0.4216  0.1540  0.5044
   16CHTO   H88 6643   6.839   3.651   5.078  0.6336 -1.4803  0.8283
   16CHTO   C53 6644   7.027   3.768   5.078 -0.3654  0.0147  0.0579
   16CHTO   O72 6645   7.036   3.773   5.223  0.4177  0.5047  0.0860
   16CHTO  H199 6646   7.079   3.851   5.253  0.1047  0.8610 -0.3889
   16CHTO   O22 6647   6.990   3.300   5.105 -0.5287 -0.2883  0.6169
   16CHTO   C31 6648   6.952   3.252   5.234  0.0899 -0.5848  0.1020
   16CHTO   H59 6649   7.023   3.171   5.261  0.7374  0.6046  2.0654
   16CHTO   C29 6650   6.964   3.365   5.337 -0.3637 -0.2571  0.0191
   16CHTO   H57 6651   6.907   3.453   5.304 -0.1374  0.1398  0.6850
   16CHTO   O21 6652   7.103   3.405   5.341  0.5667 -0.4480 -0.3627
   16CHTO   H37 6653   7.155   3.335   5.376  0.6963 -0.8712 -1.3784
   16CHTO   C27 6654   6.913   3.318   5.480  0.2154  0.5174  0.4672
   16CHTO   H55 6655   6.978   3.234   5.508 -1.5576 -0.5739  1.4414
   16CHTO    N5 6656   6.921   3.427   5.582  0.2671  0.1714  0.0519
   16CHTO   H43 6657   6.949   3.523   5.542  3.6116 -1.3714 -1.4941
   16CHTO   H44 6658   6.996   3.407   5.656  0.0573 -0.1421  0.1778
   16CHTO   C25 6659   6.774   3.243   5.471  0.3005 -0.6475  0.7804
   16CHTO   H53 6660   6.712   3.330   5.445  1.5291  0.1276  0.3962
   16CHTO   O17 6661   6.773   3.142   5.365  0.2578  0.0309  0.4166
   16CHTO   C32 6662   6.810   3.192   5.236 -0.2466  0.4956  0.4844
   16CHTO   H60 6663   6.740   3.267   5.200 -0.8504  0.0141  0.6421
   16CHTO   C36 6664   6.803   3.067   5.139 -0.1892 -0.1535 -0.0210
   16CHTO   O25 6665   6.664   3.026   5.137  0.1563  0.8468 -0.2911
   16CHTO   H40 6666   6.640   2.987   5.219  0.3025 -0.9161 -1.0718
   16CHTO   O15 6667   6.719   3.173   5.606 -0.5354 -0.7074  0.5179
   16CHTO   C19 6668   6.656   3.188   5.733  0.1814 -0.2408  0.2854
   16CHTO   H47 6669   6.728   3.238   5.800  1.9364 -2.3675  0.0414
   16CHTO   C20 6670   6.525   3.278   5.742 -0.2290 -0.0378  0.8190
   16CHTO   H48 6671   6.444   3.239   5.678 -0.7821 -0.6359  1.8597
   16CHTO   O19 6672   6.572   3.402   5.683  0.0394 -0.6588 -0.3123
   16CHTO   H35 6673   6.600   3.374   5.598  3.4774 -1.0688  0.8693
   16CHTO   C21 6674   6.482   3.282   5.894 -0.3895  0.0544 -1.2217
   16CHTO   H49 6675   6.566   3.324   5.948 -0.4251 -0.3544 -0.8432
   16CHTO    N4 6676   6.359   3.365   5.918 -0.1271  0.4514 -0.3470
   16CHTO   H41 6677   6.282   3.343   5.846 -1.0010  1.5342  0.2517
   16CHTO   H42 6678   6.395   3.464   5.896  0.8925  0.2927  0.5875
   16CHTO   C22 6679   6.462   3.138   5.946 -0.2184 -0.5023  0.1878
   16CHTO   H50 6680   6.388   3.087   5.886  0.5347 -2.3821  0.8186
   16CHTO   O14 6681   6.581   3.059   5.932  0.1515  0.0873  0.7123
   16CHTO   C23 6682   6.621   3.048   5.797 -0.0636 -0.1478  0.2108
   16CHTO   H51 6683   6.536   2.997   5.750 -1.5675  0.3029  2.3845
   16CHTO   C34 6684   6.739   2.948   5.796  0.0861  0.1877 -0.2149
   16CHTO   O23 6685   6.861   3.016   5.835  0.2865 -0.1716  0.0442
   16CHTO   H38 6686   6.851   3.027   5.928 -2.8148 -1.8133 -0.0250
   16CHTO   O16 6687   6.426   3.131   6.088 -0.2730  0.2014  0.1096
   16CHTO   C24 6688   6.332   3.006   6.139 -0.0083  0.2047 -0.5656
   16CHTO   H52 6689   6.323   2.927   6.065  3.3047 -0.8086  0.0395
   16CHTO   C26 6690   6.189   3.050   6.171 -0.5071 -0.4875  0.1321
   16CHTO   H54 6691   6.190   3.142   6.233  1.5507  0.9850 -1.9813
   16CHTO   O20 6692   6.143   3.101   6.045  0.0775  0.3075 -0.3717
   16CHTO   H36 6693   6.050   3.109   6.054  0.2703  3.3467 -0.6678
   16CHTO   C30 6694   6.118   2.936   6.249  0.1047  0.2387  0.3236
   16CHTO   H58 6695   6.103   2.856   6.174  1.6982  0.5701 -0.3894
   16CHTO    N6 6696   5.977   2.978   6.273 -1.0419 -0.5723 -0.1213
   16CHTO   H45 6697   5.900   2.911   6.239 -2.3654  0.1968  1.2974
   16CHTO   H46 6698   5.971   2.991   6.380  1.5441 -0.9430  0.1004
   16CHTO   C33 6699   6.203   2.886   6.369  0.3727 -0.4387 -0.0721
   16CHTO   H61 6700   6.212   2.968   6.442 -0.9898 -1.8454  1.7194
   16CHTO   O18 6701   6.333   2.848   6.322 -0.9006 -0.7142 -0.0547
   16CHTO   C28 6702   6.414   2.948   6.257  0.2715  0.4718 -0.2119
   16CHTO   H56 6703   6.443   3.024   6.330  0.9414 -0.5198  0.5704
   16CHTO   C35 6704   6.537   2.875   6.203 -0.2667  0.0030 -0.2067
   16CHTO   O24 6705   6.624   2.843   6.310 -0.0938  0.3220  0.4534
   16CHTO   H39 6706   6.716   2.838   6.289 -0.5334 -1.1928 -1.1915
   16CHTO    O9 6707   6.139   2.781   6.439 -0.0452  0.2742  0.3738
   16CHTO   C13 6708   6.215   2.744   6.575  0.2601 -0.3682 -0.6882
   16CHTO   H26 6709   6.286   2.823   6.610  0.7582 -0.8819 -0.5266
   16CHTO   C11 6710   6.289   2.607   6.550 -0.2532  0.4381 -0.1571
   16CHTO   H24 6711   6.357   2.632   6.468  1.8208 -1.0309  1.0466
   16CHTO    O8 6712   6.202   2.506   6.513  0.1751  0.2579 -0.1338
   16CHTO    H3 6713   6.143   2.481   6.582 -0.8917 -0.1092 -1.1602
   16CHTO    C9 6714   6.376   2.586   6.677  0.5996 -0.2484 -0.4539
   16CHTO   H22 6715   6.450   2.668   6.670  1.1071 -0.7443 -0.9215
   16CHTO    N2 6716   6.459   2.466   6.662 -0.5294 -0.0462  0.5290
   16CHTO   H10 6717   6.453   2.402   6.749 -2.6283 -0.5194  0.0730
   16CHTO   H11 6718   6.562   2.489   6.640 -0.1327  0.0227  2.4105
   16CHTO    C7 6719   6.296   2.600   6.818  0.0207  0.3733  0.0954
   16CHTO   H20 6720   6.338   2.691   6.865  0.4659  0.1779  0.0846
   16CHTO    O4 6721   6.156   2.626   6.794 -0.0018 -0.2037 -0.4365
   16CHTO   C14 6722   6.119   2.722   6.696  0.0724  0.2712 -0.1147
   16CHTO   H27 6723   6.113   2.812   6.760 -1.2004  0.2720 -0.2251
   16CHTO   C18 6724   5.971   2.689   6.644 -0.3147  0.4493  0.2815
   16CHTO   O13 6725   5.878   2.725   6.746 -0.2825 -0.3005 -0.2896
   16CHTO    H7 6726   5.801   2.769   6.714  0.2397  1.9948  1.4478
   16CHTO    O2 6727   6.305   2.471   6.923 -0.4688 -0.0204 -0.1610
   16CHTO    C1 6728   6.331   2.497   7.060  0.2687 -0.2791  0.3825
   16CHTO   H14 6729   6.317   2.606   7.072  0.4834 -0.1823 -0.2206
   16CHTO    C2 6730   6.483   2.466   7.097  0.1509 -0.1957 -0.4458
   16CHTO   H15 6731   6.496   2.360   7.069 -1.3764 -0.5009 -0.0719
   16CHTO    O6 6732   6.563   2.555   7.023 -0.5931  0.1405  0.4288
   16CHTO    H1 6733   6.650   2.541   7.053 -0.2906 -1.8135 -1.2530
   16CHTO    C3 6734   6.501   2.477   7.260 -0.1611 -0.1375 -0.4193
   16CHTO   H16 6735   6.474   2.581   7.286  1.5091 -0.1559  1.5010
   16CHTO    N1 6736   6.640   2.451   7.307  0.6438 -0.2447  0.3175
   16CHTO    H8 6737   6.696   2.543   7.304  0.9913 -0.4122  1.3705
   16CHTO    H9 6738   6.690   2.387   7.235  2.6185 -0.0802  1.5258
   16CHTO    C4 6739   6.397   2.382   7.333 -1.0807  0.6832 -0.5517
   16CHTO   H17 6740   6.428   2.282   7.304  3.9968  1.0534  3.0882
   16CHTO    O1 6741   6.262   2.422   7.295 -0.0145  0.4795  0.1131
   16CHTO    C5 6742   6.226   2.421   7.154  0.0028  0.2472  0.1389
   16CHTO   H18 6743   6.218   2.317   7.121  2.0361 -0.0148  0.3559
   16CHTO   C16 6744   6.082   2.484   7.145  0.4417  0.9057  0.4953
   16CHTO   O11 6745   6.012   2.450   7.021 -0.0139 -0.2990  0.1141
   16CHTO    H5 6746   6.070   2.453   6.947  0.8431 -1.8005  0.7057
   16CHTO    O3 6747   6.397   2.388   7.477 -0.2574 -0.3938 -0.0267
   16CHTO    C6 6748   6.372   2.269   7.558  0.1498  0.9905  0.2535
   16CHTO   H19 6749   6.322   2.185   7.508  1.1981 -0.8668  2.2473
   16CHTO    C8 6750   6.496   2.202   7.613  0.1499  0.0892 -0.0059
   16CHTO   H21 6751   6.554   2.277   7.667  1.4832 -1.6823  1.0722
   16CHTO    O7 6752   6.571   2.158   7.493 -0.2556 -0.1436  0.0755
   16CHTO    H2 6753   6.649   2.114   7.521  1.9144  1.7105 -2.7670
   16CHTO   C12 6754   6.470   2.079   7.710 -0.4006  0.6554  0.1325
   16CHTO   H25 6755   6.428   1.991   7.658  1.3024 -1.0892  1.6540
   16CHTO    N3 6756   6.600   2.031   7.765 -0.3833 -0.2520  0.2804
   16CHTO   H12 6757   6.580   1.940   7.819  1.1464 -0.8051 -0.0565
   16CHTO   H13 6758   6.641   2.093   7.843 -0.2116 -0.1049  0.0765
   16CHTO   C15 6759   6.366   2.124   7.819  0.5009  0.1349  0.7238
   16CHTO   H28 6760   6.409   2.191   7.893  0.6820 -0.4481  1.1513
   16CHTO   O10 6761   6.297   1.995   7.898  0.2937 -0.1267 -0.0463
   16CHTO    H4 6762   6.204   2.001   7.889  0.4447  1.1723 -0.8715
   16CHTO    O5 6763   6.252   2.186   7.757  0.1346 -0.4443 -0.3680
   16CHTO   C10 6764   6.282   2.301   7.683 -0.9786 -0.2015  0.0070
   16CHTO   H23 6765   6.327   2.358   7.763 -0.9989  0.4156 -0.4201
   16CHTO   C17 6766   6.154   2.375   7.640  0.2562 -0.4496  0.5271
   16CHTO   O12 6767   6.079   2.422   7.744  0.4861 -0.2017 -0.9118
   16CHTO    H6 6768   6.002   2.461   7.707  2.3238  3.2103 -1.4146
   17CHTO  H203 6769   6.166   5.583   7.615  1.6181 -0.1755 -0.8518
   17CHTO   O82 6770   6.137   5.663   7.576 -0.0287 -0.4215 -0.1572
   17CHTO  C123 6771   6.131   5.768   7.673  0.9547  0.0793  0.0001
   17CHTO  H227 6772   6.229   5.807   7.702  0.4347  0.2985  1.5644
   17CHTO   O77 6773   6.053   5.877   7.614  0.1067  0.2107  0.2355
   17CHTO  C118 6774   6.031   5.985   7.700 -0.0704  0.5729 -1.3433
   17CHTO  H222 6775   6.132   6.021   7.725  0.2190 -1.4641  0.5579
   17CHTO  C125 6776   5.962   6.092   7.616  0.6178 -0.0286 -0.3538
   17CHTO   O84 6777   5.848   6.035   7.552  0.0328 -0.6629 -0.3697
   17CHTO  H205 6778   5.868   6.017   7.462 -0.3139 -1.1328 -0.3521
   17CHTO  C114 6779   5.953   5.951   7.826  0.5554 -0.5208  0.1036
   17CHTO  H218 6780   5.858   5.912   7.789  1.2870 -3.3073  1.0798
   17CHTO  C116 6781   6.029   5.832   7.902  0.3388 -0.5861 -0.4188
   17CHTO  H220 6782   6.122   5.873   7.945 -0.9554 -0.3195  2.2334
   17CHTO   O79 6783   5.947   5.797   8.014  0.0344 -0.0115  0.5321
   17CHTO  H201 6784   5.897   5.871   8.046 -1.4918 -1.3558  1.3300
   17CHTO  C120 6785   6.060   5.717   7.805  0.9788 -0.0425 -0.1583
   17CHTO  H224 6786   5.965   5.672   7.770  1.0622  0.5749 -1.1919
   17CHTO   N21 6787   6.135   5.609   7.870 -0.2135 -0.1387 -0.5692
   17CHTO  H211 6788   6.238   5.636   7.884 -0.9098  1.5825  1.4756
   17CHTO  H212 6789   6.132   5.517   7.813 -1.9478  0.4342 -1.4484
   17CHTO   O75 6790   5.919   6.074   7.899 -0.4931  0.3191 -0.1176
   17CHTO  C112 6791   6.014   6.138   7.984  0.3207 -1.1444  0.2262
   17CHTO  H216 6792   6.097   6.162   7.915  0.5401 -0.6073  0.6798
   17CHTO   O73 6793   6.048   6.048   8.086 -0.7219  0.1231 -0.0450
   17CHTO  C113 6794   6.133   6.092   8.192 -0.3803 -0.3290 -0.0447
   17CHTO  H217 6795   6.236   6.115   8.158 -0.5000 -0.4317 -0.4871
   17CHTO  C124 6796   6.147   5.970   8.293  0.2660 -0.2983  0.4726
   17CHTO   O83 6797   6.234   6.007   8.398 -0.2513 -0.1824 -0.0198
   17CHTO  H204 6798   6.190   5.977   8.475 -1.0545 -1.5089 -0.9790
   17CHTO  C109 6799   6.089   6.223   8.258 -0.1149 -0.5474 -0.2908
   17CHTO  H213 6800   5.997   6.202   8.316  0.2849  1.1056  0.9824
   17CHTO  C110 6801   6.065   6.328   8.144  0.3218  0.2078  0.4365
   17CHTO  H214 6802   6.154   6.347   8.085  0.2613 -1.7570 -0.3245
   17CHTO   O78 6803   6.016   6.446   8.201  0.2333 -0.1785  0.3970
   17CHTO  H200 6804   6.003   6.503   8.127  0.2597 -0.8202 -0.1043
   17CHTO  C111 6805   5.961   6.272   8.044 -0.6499  0.4692 -0.6029
   17CHTO  H215 6806   5.871   6.250   8.104 -0.9655  2.7984 -0.1901
   17CHTO   N19 6807   5.916   6.364   7.940 -0.0926 -0.2571 -0.2994
   17CHTO  H207 6808   5.939   6.324   7.843 -0.0719 -0.3817 -0.2431
   17CHTO  H208 6809   5.810   6.384   7.951  0.2512  1.3652  0.3002
   17CHTO   O74 6810   6.190   6.266   8.356 -0.1674 -0.0517  0.2332
   17CHTO  C115 6811   6.140   6.351   8.487  0.1991 -0.2878  0.1362
   17CHTO  H219 6812   6.040   6.392   8.474  0.6556  0.5996 -0.6078
   17CHTO   O76 6813   6.135   6.257   8.615 -0.1164  0.1357 -0.4264
   17CHTO  C122 6814   6.267   6.218   8.653 -0.3888  0.6460  0.1557
   17CHTO  H226 6815   6.295   6.147   8.575 -3.1138  1.1544 -1.3712
   17CHTO  C126 6816   6.276   6.137   8.790  0.4990 -0.1805 -0.1271
   17CHTO   O85 6817   6.217   6.194   8.913  0.5688  0.0704  0.2503
   17CHTO  H206 6818   6.226   6.133   8.983 -0.0970  0.0818  0.3503
   17CHTO  C121 6819   6.374   6.336   8.665  0.0842 -0.2760 -0.3323
   17CHTO  H225 6820   6.424   6.333   8.764  0.0081  1.7439 -0.2240
   17CHTO   O81 6821   6.471   6.304   8.565 -0.1633  0.2663  0.1217
   17CHTO  H202 6822   6.550   6.350   8.585 -1.0519  1.8245  0.0739
   17CHTO  C119 6823   6.308   6.480   8.643 -0.2990  0.3301 -0.4702
   17CHTO  H223 6824   6.231   6.496   8.718  1.9752  0.5369  1.8732
   17CHTO  C117 6825   6.236   6.477   8.501 -0.6912  0.1544 -0.2054
   17CHTO  H221 6826   6.303   6.477   8.415 -0.8326  0.1504 -0.3171
   17CHTO   N20 6827   6.158   6.606   8.486 -0.4485 -0.1415  0.3050
   17CHTO  H209 6828   6.052   6.591   8.476 -0.6104  1.3978 -0.5454
   17CHTO  H210 6829   6.200   6.678   8.416 -1.1835  2.7183  2.7173
   17CHTO   O80 6830   6.397   6.605   8.664  0.1025 -0.2013 -0.2967
   17CHTO  C103 6831   6.402   6.669   8.811  0.6096  0.4151  0.0588
   17CHTO  H190 6832   6.296   6.669   8.838  0.2551  0.9141 -1.2523
   17CHTO  C101 6833   6.484   6.598   8.922 -0.1712 -0.2183 -0.7616
   17CHTO  H188 6834   6.585   6.572   8.890  1.1263 -0.4259  3.2153
   17CHTO   O68 6835   6.401   6.454   8.946  0.0932 -0.3553 -0.0201
   17CHTO  H168 6836   6.316   6.471   8.981 -0.4930 -2.2298 -0.4719
   17CHTO   C99 6837   6.515   6.693   9.053  0.2670  0.5907  0.0004
   17CHTO  H186 6838   6.420   6.694   9.109  0.2394 -0.0224 -0.0337
   17CHTO   N17 6839   6.621   6.655   9.153 -0.2470  0.2845 -0.5204
   17CHTO  H174 6840   6.608   6.553   9.186  0.0993  0.6656  0.8104
   17CHTO  H175 6841   6.719   6.659   9.109 -1.2681  1.4161 -2.7859
   17CHTO   C97 6842   6.541   6.839   9.009  0.6524 -0.4618 -0.0200
   17CHTO  H184 6843   6.641   6.852   8.966 -0.4769  0.7916 -2.4035
   17CHTO   O64 6844   6.441   6.878   8.914 -0.6545 -0.3849  0.0493
   17CHTO  C104 6845   6.437   6.809   8.786 -0.2706  0.5534 -0.3047
   17CHTO  H191 6846   6.536   6.819   8.741  0.8957  2.5339  2.4970
   17CHTO  C108 6847   6.331   6.879   8.696  0.6274  0.1296  0.2238
   17CHTO   O71 6848   6.389   7.004   8.650 -0.2644 -0.3794 -0.1591
   17CHTO  H171 6849   6.432   7.052   8.718 -0.3405 -0.1321 -0.2835
   17CHTO   O62 6850   6.521   6.931   9.116  0.2461 -0.3851  0.4681
   17CHTO   C91 6851   6.537   7.074   9.086 -0.2101  0.3705  0.1628
   17CHTO  H178 6852   6.563   7.076   8.980 -3.6637 -2.1761 -0.8220
   17CHTO   C92 6853   6.664   7.126   9.154 -0.2227  0.2050  0.6359
   17CHTO  H179 6854   6.749   7.059   9.133  0.6393  1.5087 -0.1211
   17CHTO   O66 6855   6.694   7.249   9.086  0.4123 -0.2394  0.5369
   17CHTO  H166 6856   6.654   7.321   9.130 -0.2383 -1.0275  1.2739
   17CHTO   C93 6857   6.656   7.156   9.304  1.1202 -0.0144 -0.0873
   17CHTO  H180 6858   6.732   7.233   9.325  0.4858  0.9719 -1.2999
   17CHTO   N16 6859   6.704   7.053   9.399  0.2841 -0.2373  0.2806
   17CHTO  H172 6860   6.811   7.044   9.389  0.0972 -0.8854 -1.2811
   17CHTO  H173 6861   6.673   7.082   9.498  1.0688  0.7677  0.2359
   17CHTO   C94 6862   6.513   7.221   9.342 -0.6862  0.1417  0.2837
   17CHTO  H181 6863   6.445   7.148   9.387  0.4824  0.3923  2.5257
   17CHTO   O61 6864   6.449   7.270   9.217 -0.2557  0.0082  0.4753
   17CHTO   C95 6865   6.413   7.163   9.130 -0.4873 -0.0363  0.5598
   17CHTO  H182 6866   6.339   7.102   9.181 -0.2276 -1.6945 -1.0109
   17CHTO  C106 6867   6.323   7.220   9.007  0.3544  0.3276 -0.8395
   17CHTO   O69 6868   6.276   7.116   8.922  0.4152  0.6753 -0.1885
   17CHTO  H169 6869   6.242   7.042   8.969  2.3538 -0.0319  0.1298
   17CHTO   O63 6870   6.526   7.362   9.433  0.1536  0.4771 -0.0672
   17CHTO   C96 6871   6.369   7.403   9.487 -0.6539  0.0925 -0.5420
   17CHTO  H183 6872   6.307   7.314   9.481 -0.1788 -0.2662 -0.1465
   17CHTO   C98 6873   6.294   7.520   9.411 -0.3202 -0.2558  0.6875
   17CHTO  H185 6874   6.364   7.605   9.405  0.1043 -0.6412  0.0777
   17CHTO   O67 6875   6.268   7.481   9.273  0.2163 -0.0763 -0.1143
   17CHTO  H167 6876   6.346   7.478   9.220  0.5657 -3.2840  0.4789
   17CHTO  C102 6877   6.157   7.573   9.492  0.2887  0.0371 -0.0106
   17CHTO  H189 6878   6.078   7.501   9.465  1.5967 -2.1390  1.7822
   17CHTO   N18 6879   6.105   7.700   9.451 -0.4092  0.2877  0.0771
   17CHTO  H176 6880   6.101   7.770   9.533  2.1482  3.0308 -2.0164
   17CHTO  H177 6881   6.006   7.677   9.416 -0.1966 -0.6950  0.1213
   17CHTO  C105 6882   6.168   7.559   9.647 -0.0814  0.1925  0.4407
   17CHTO  H192 6883   6.216   7.651   9.682  0.8932  0.0736 -0.5624
   17CHTO   O65 6884   6.233   7.441   9.686 -0.2994  0.2458  0.5839
   17CHTO  C100 6885   6.373   7.430   9.640 -0.8551 -0.4022  0.4056
   17CHTO  H187 6886   6.426   7.525   9.657 -0.1815 -0.6658 -0.2060
   17CHTO  C107 6887   6.459   7.313   9.712 -0.0506  0.4436 -0.4435
   17CHTO   O70 6888   6.484   7.349   9.845 -0.2858 -0.2032  0.1621
   17CHTO  H170 6889   6.403   7.333   9.890 -0.2528 -0.5086  0.1195
   17CHTO   O57 6890   6.016   7.554   9.698 -0.2822 -0.5674 -0.4560
   17CHTO   C85 6891   5.945   7.640   9.792 -0.1941 -0.3091  0.7536
   17CHTO  H157 6892   5.991   7.738   9.767  1.5456 -0.5152  2.9305
   17CHTO   C83 6893   5.962   7.617   9.946 -0.0468  0.6270 -0.2274
   17CHTO  H155 6894   6.068   7.637   9.966  0.3168 -0.0740 -1.4264
   17CHTO   O56 6895   5.932   7.485   9.994  0.1492  1.1449 -0.4590
   17CHTO  H135 6896   5.979   7.423   9.942  0.5040  1.4008 -0.4413
   17CHTO   C81 6897   5.885   7.731  10.019 -0.2966 -0.3330 -0.0115
   17CHTO  H153 6898   5.918   7.827   9.980 -0.5666  0.2531  1.1652
   17CHTO   N14 6899   5.912   7.745  10.164  0.2226 -0.3253 -0.0875
   17CHTO  H141 6900   5.968   7.835  10.180  1.3827 -0.8403 -1.1261
   17CHTO  H142 6901   5.975   7.663  10.194  0.8961  0.0273 -0.5222
   17CHTO   C79 6902   5.733   7.729   9.989  0.1810 -0.3789 -0.2363
   17CHTO  H151 6903   5.689   7.821  10.026  2.4747  0.6727 -0.0326
   17CHTO   O52 6904   5.711   7.733   9.850  0.0380 -0.1177  0.5713
   17CHTO   C86 6905   5.788   7.637   9.766 -0.7828  0.7759 -0.1227
   17CHTO  H158 6906   5.746   7.536   9.782  0.6352  0.0486 -0.8453
   17CHTO   C90 6907   5.749   7.678   9.616 -0.1299  0.2328 -0.0855
   17CHTO   O60 6908   5.626   7.620   9.576  0.0040  0.0205 -0.4659
   17CHTO  H138 6909   5.632   7.536   9.536  0.0013 -0.9068  1.4068
   17CHTO   O50 6910   5.665   7.615  10.044 -0.0897  0.1709  0.1459
   17CHTO   C73 6911   5.545   7.579  10.115 -0.8875 -0.5361  0.1577
   17CHTO  H145 6912   5.515   7.666  10.175  0.1125 -0.0266 -0.0777
   17CHTO   C74 6913   5.591   7.466  10.215 -0.6297  0.2769 -0.4397
   17CHTO  H146 6914   5.672   7.503  10.280  0.7727 -0.8836 -1.4921
   17CHTO   O54 6915   5.486   7.434  10.303  0.0015  0.0098 -0.3344
   17CHTO  H133 6916   5.516   7.357  10.347  0.0618 -0.0383 -0.4581
   17CHTO   C75 6917   5.639   7.347  10.123  0.1838  0.3029  0.7028
   17CHTO  H147 6918   5.730   7.376  10.068 -0.5329 -2.1830 -1.9226
   17CHTO   N13 6919   5.678   7.228  10.201  0.2345 -0.1732  0.1544
   17CHTO  H139 6920   5.712   7.147  10.138  0.2376  1.4122 -1.9742
   17CHTO  H140 6921   5.598   7.184  10.258 -0.8146  0.5206 -0.7621
   17CHTO   C76 6922   5.525   7.311  10.012 -0.1885 -0.4532  0.3492
   17CHTO  H148 6923   5.445   7.266  10.071  0.5906 -1.5706  0.5657
   17CHTO   O49 6924   5.485   7.430   9.931  0.6434  0.2360  0.0986
   17CHTO   C77 6925   5.437   7.532  10.014  0.1027 -0.6594  0.1112
   17CHTO  H149 6926   5.348   7.501  10.068 -0.6605 -0.2603 -0.8860
   17CHTO   C88 6927   5.391   7.641   9.920  0.2006  0.2288 -0.0117
   17CHTO   O58 6928   5.322   7.752   9.984  0.1577  0.4817 -0.0785
   17CHTO  H136 6929   5.315   7.831   9.934 -1.6801  1.0773  1.0771
   17CHTO   O51 6930   5.587   7.201   9.917  0.5033  0.2651  0.3984
   17CHTO   C78 6931   5.474   7.161   9.789 -0.6908 -0.5183  0.1082
   17CHTO  H150 6932   5.407   7.246   9.763  1.5155  2.0567  2.5469
   17CHTO   C80 6933   5.385   7.040   9.826  0.0893 -0.2648 -0.0170
   17CHTO  H152 6934   5.450   6.961   9.870  2.7580  2.8563  1.9461
   17CHTO   O55 6935   5.303   7.089   9.933  0.6064 -0.0830 -0.4721
   17CHTO  H134 6936   5.343   7.153   9.989  1.2159 -1.5532  0.8069
   17CHTO   C84 6937   5.304   6.984   9.708  0.1679  0.6470 -0.2077
   17CHTO  H156 6938   5.223   7.054   9.685 -0.4533  0.3782  1.0835
   17CHTO   N15 6939   5.232   6.855   9.747  0.3660 -0.0717  0.6585
   17CHTO  H143 6940   5.142   6.836   9.691  1.9345  0.2654 -2.0901
   17CHTO  H144 6941   5.212   6.852   9.852  0.0731  2.3185  0.6849
   17CHTO   C87 6942   5.398   6.961   9.591 -0.5172 -0.4127 -0.5438
   17CHTO  H159 6943   5.467   6.884   9.625 -0.4157  0.2757  0.8590
   17CHTO   O53 6944   5.468   7.090   9.562 -0.5179  0.4508  0.2925
   17CHTO   C82 6945   5.561   7.133   9.661 -0.3722  0.0149  0.4854
   17CHTO  H154 6946   5.646   7.068   9.680 -1.1223 -1.0144  0.3431
   17CHTO   C89 6947   5.615   7.264   9.610 -0.5554  0.8204  0.0167
   17CHTO   O59 6948   5.678   7.248   9.485  0.0238 -0.1045  0.8461
   17CHTO  H137 6949   5.614   7.222   9.422  1.6432 -0.3729 -0.7098
   17CHTO   O45 6950   5.312   6.929   9.452 -0.6295 -0.4580 -0.5387
   17CHTO   C67 6951   5.406   6.851   9.367  0.2385  0.2138  0.1806
   17CHTO  H124 6952   5.470   6.788   9.429 -0.4039  0.3941  1.0175
   17CHTO   C65 6953   5.313   6.763   9.282  0.2888  0.0134  0.2780
   17CHTO  H122 6954   5.232   6.734   9.349 -0.7453 -2.7052 -2.0552
   17CHTO   O44 6955   5.383   6.640   9.248 -0.4142  0.2549  0.4215
   17CHTO  H102 6956   5.450   6.669   9.189 -1.3776  1.2017 -0.2290
   17CHTO   C63 6957   5.236   6.843   9.171  0.3290 -0.1649 -0.4287
   17CHTO  H120 6958   5.181   6.927   9.214 -1.0015 -0.4725 -1.5126
   17CHTO   N11 6959   5.123   6.771   9.102  0.0649  0.0634 -0.0091
   17CHTO  H108 6960   5.060   6.715   9.167  0.4986  0.6019  0.8935
   17CHTO  H109 6961   5.053   6.834   9.052  0.8767  1.3379  0.4322
   17CHTO   C61 6962   5.339   6.906   9.074 -0.0958 -0.0823 -0.3741
   17CHTO  H118 6963   5.281   6.976   9.012  1.6208  2.2313  0.5817
   17CHTO   O40 6964   5.438   6.986   9.146 -0.4675  0.6463  0.0754
   17CHTO   C68 6965   5.498   6.942   9.271 -0.1158 -0.5601 -0.2985
   17CHTO  H125 6966   5.521   7.030   9.334 -1.9117 -0.8981  0.8748
   17CHTO   C72 6967   5.631   6.870   9.233 -0.6785  0.7683  0.1501
   17CHTO   O48 6968   5.726   6.972   9.201 -0.1081 -0.2764  0.1546
   17CHTO  H105 6969   5.696   7.029   9.134  0.2550 -0.6577 -0.3339
   17CHTO   O38 6970   5.415   6.806   8.995  0.1788  0.3740 -0.1145
   17CHTO   C55 6971   5.432   6.806   8.851 -0.7183 -0.8897  0.5196
   17CHTO  H112 6972   5.515   6.736   8.833  0.4684  0.3207  1.1897
   17CHTO   C56 6973   5.461   6.951   8.790  0.0977  0.3117 -0.2924
   17CHTO  H113 6974   5.382   7.022   8.818  0.7764  0.5160  1.1414
   17CHTO   O42 6975   5.577   6.994   8.857 -0.3311 -0.5638  0.2717
   17CHTO  H100 6976   5.603   7.080   8.829  0.0193 -0.4735  0.8467
   17CHTO   C57 6977   5.480   6.934   8.638  0.6085  0.2844  0.3021
   17CHTO  H114 6978   5.560   6.865   8.610 -1.5514 -1.7294 -1.1334
   17CHTO   N10 6979   5.514   7.059   8.568  0.0628 -0.8025  0.3952
   17CHTO  H106 6980   5.422   7.105   8.537 -0.5091 -1.1584  1.5192
   17CHTO  H107 6981   5.565   7.038   8.475 -0.2710  2.3889 -0.5532
   17CHTO   C58 6982   5.350   6.869   8.580  0.1074  0.5395 -0.6227
   17CHTO  H115 6983   5.268   6.938   8.611  1.6168  1.0813  2.3961
   17CHTO   O37 6984   5.322   6.736   8.639  0.0536  0.2045 -0.0271
   17CHTO   C59 6985   5.313   6.733   8.785  0.5338 -0.1271  0.9431
   17CHTO  H116 6986   5.223   6.784   8.819  0.4734  1.1742 -1.1068
   17CHTO   C70 6987   5.303   6.590   8.826 -0.2088 -0.3191  0.0905
   17CHTO   O46 6988   5.175   6.529   8.796 -0.2833  0.4665  0.3963
   17CHTO  H103 6989   5.161   6.456   8.854 -1.1567  0.9629  0.8229
   17CHTO   O39 6990   5.343   6.866   8.409 -0.0488  0.1074 -1.0826
   17CHTO   C60 6991   5.240   6.942   8.354 -0.0266  0.4161  0.4700
   17CHTO  H117 6992   5.171   6.990   8.424  0.5412  0.2821  1.1261
   17CHTO   C62 6993   5.293   7.050   8.256  0.3357  0.0478  0.3257
   17CHTO  H119 6994   5.363   7.107   8.321 -0.0248  2.0783 -1.0241
   17CHTO   O43 6995   5.360   6.980   8.148  0.0602 -0.4423  0.2515
   17CHTO  H101 6996   5.298   6.938   8.091 -0.1093 -1.0172  0.8591
   17CHTO   C66 6997   5.180   7.135   8.191 -0.3758 -0.0018 -0.2462
   17CHTO  H123 6998   5.111   7.162   8.270 -1.3863 -0.2274 -1.0396
   17CHTO   N12 6999   5.223   7.261   8.120 -0.8003  0.3293 -0.1436
   17CHTO  H110 7000   5.139   7.326   8.097 -0.8271  0.4185  0.1967
   17CHTO  H111 7001   5.287   7.242   8.036  1.1441 -2.2346  1.8369
   17CHTO   C69 7002   5.088   7.043   8.105 -0.6060  0.3731 -0.2419
   17CHTO  H126 7003   5.139   7.016   8.010  1.4802  2.6860  0.1734
   17CHTO   O41 7004   5.052   6.905   8.188 -0.2225 -0.8906  0.0555
   17CHTO   C64 7005   5.153   6.843   8.275 -0.1680 -0.1012  0.3357
   17CHTO  H121 7006   5.216   6.786   8.204 -0.3313 -1.1163  0.9922
   17CHTO   C71 7007   5.078   6.748   8.369 -0.1922  0.1716 -0.3331
   17CHTO   O47 7008   5.014   6.645   8.296  0.0035 -0.7261  0.2858
   17CHTO  H104 7009   4.940   6.679   8.250 -0.8939 -1.5269  1.1062
   17CHTO   O34 7010   4.976   7.112   8.069  0.3337 -0.2467 -0.2213
   17CHTO   C49 7011   4.844   7.182   8.143 -0.5167 -0.4288  0.1827
   17CHTO   H91 7012   4.867   7.286   8.167 -1.6702 -0.4187  1.2815
   17CHTO   C47 7013   4.798   7.106   8.270 -0.0173 -0.2646  0.7866
   17CHTO   H89 7014   4.720   7.169   8.319 -1.3965 -0.7490 -0.7449
   17CHTO   O33 7015   4.902   7.097   8.362 -0.3425  0.9425  0.0271
   17CHTO   H70 7016   4.939   7.183   8.361  0.3683  0.6428 -2.7727
   17CHTO   C45 7017   4.738   6.960   8.234  0.1295  0.0378 -0.4628
   17CHTO   H87 7018   4.816   6.885   8.253  0.0872 -0.0260 -0.5433
   17CHTO    N8 7019   4.630   6.929   8.331  0.4228 -0.2212  0.1604
   17CHTO   H75 7020   4.553   7.004   8.322 -0.7671 -1.1862  1.8999
   17CHTO   H76 7021   4.600   6.826   8.328  0.7096 -0.3544  1.5089
   17CHTO   C43 7022   4.708   6.941   8.085 -0.3341 -0.1054  0.2707
   17CHTO   H85 7023   4.807   6.921   8.045 -0.5865 -2.0273  0.5487
   17CHTO   O29 7024   4.646   7.054   8.033 -0.0548  0.2353 -0.1294
   17CHTO   C50 7025   4.715   7.178   8.046 -0.4510  0.1343 -0.0307
   17CHTO   H92 7026   4.741   7.216   7.946 -1.3422  1.2188  0.1324
   17CHTO   C54 7027   4.622   7.293   8.090  0.2010 -0.4235  0.0866
   17CHTO   O36 7028   4.506   7.320   8.013  0.4224  0.7365  0.3968
   17CHTO   H72 7029   4.516   7.408   7.983  0.4043  0.3911 -0.6588
   17CHTO   O27 7030   4.637   6.822   8.054  0.1565  0.1894  0.1622
   17CHTO   C37 7031   4.674   6.683   8.063 -0.0015  0.3841  0.2420
   17CHTO   H79 7032   4.737   6.670   8.151 -0.9350 -0.2102  0.8231
   17CHTO   C38 7033   4.544   6.597   8.073  0.2686  0.5130 -0.1581
   17CHTO   H80 7034   4.489   6.601   7.978  0.2374  1.0826 -0.1129
   17CHTO   O31 7035   4.462   6.651   8.180 -0.2757 -0.5636  0.8150
   17CHTO   H68 7036   4.519   6.679   8.250 -1.1068 -0.2703  1.3942
   17CHTO   C39 7037   4.582   6.448   8.092 -0.3812  0.0049  0.0670
   17CHTO   H81 7038   4.620   6.443   8.195 -1.7076  1.3130  0.6332
   17CHTO    N7 7039   4.466   6.354   8.099  0.0840 -0.2836  0.1403
   17CHTO   H73 7040   4.495   6.251   8.083  0.8447  0.2126 -1.8508
   17CHTO   H74 7041   4.411   6.353   8.192  1.7804  1.6955  1.2111
   17CHTO   C40 7042   4.686   6.403   7.976  0.3317  0.2758 -0.1783
   17CHTO   H82 7043   4.640   6.376   7.881 -2.6876  1.3168  0.9518
   17CHTO   O26 7044   4.796   6.500   7.955 -0.7633  0.6250 -0.5757
   17CHTO   C41 7045   4.752   6.638   7.935 -0.4467  0.3337 -0.3740
   17CHTO   H83 7046   4.691   6.639   7.843 -2.2823 -3.5281  0.6619
   17CHTO   C52 7047   4.884   6.714   7.911  0.3266  0.3134 -0.5253
   17CHTO   O35 7048   4.968   6.657   7.789 -0.0373 -0.9635 -0.2623
   17CHTO   H71 7049   5.045   6.709   7.780 -0.6355 -0.4566 -2.7316
   17CHTO   O28 7050   4.751   6.274   8.000  0.1643 -0.0544 -0.1402
   17CHTO   C42 7051   4.878   6.250   8.069 -0.4766  0.7493  0.4434
   17CHTO   H84 7052   4.889   6.142   8.063  2.0242  1.0684 -2.0053
   17CHTO   C44 7053   4.878   6.286   8.221 -0.2883 -0.4207 -0.2407
   17CHTO   H86 7054   4.855   6.391   8.234 -1.4014 -0.8898  1.6885
   17CHTO   O32 7055   4.777   6.204   8.287  0.2956  0.4201  0.4831
   17CHTO   H69 7056   4.750   6.239   8.370  0.9219 -2.7498  2.0940
   17CHTO   C48 7057   5.017   6.259   8.286  0.5536  0.0717 -0.1431
   17CHTO   H90 7058   5.034   6.151   8.283 -1.2961 -0.2246 -0.9630
   17CHTO    N9 7059   5.020   6.305   8.432  0.4381  0.2977 -0.0420
   17CHTO   H77 7060   5.089   6.247   8.492  0.2530  0.7502  0.6132
   17CHTO   H78 7061   5.042   6.411   8.440 -2.7193  0.8876  1.6183
   17CHTO   C51 7062   5.135   6.325   8.201  0.1270 -0.0582 -0.0406
   17CHTO   H93 7063   5.113   6.432   8.198  2.7998  0.5187 -0.2153
   17CHTO   O30 7064   5.139   6.272   8.071  0.7307 -0.5414  0.7423
   17CHTO   C46 7065   5.009   6.305   7.993 -0.2295  0.2363  0.3742
   17CHTO   H88 7066   4.999   6.413   7.992 -2.7198  0.0469 -2.8047
   17CHTO   C53 7067   5.032   6.243   7.849  0.6367  1.0106 -0.2606
   17CHTO   O72 7068   5.127   6.313   7.773  0.5885  0.3959 -0.2863
   17CHTO  H199 7069   5.089   6.357   7.699  1.4918  1.5642 -0.0712
   17CHTO   O22 7070   5.270   6.299   8.246  0.8820 -0.3461  0.7696
   17CHTO   C31 7071   5.374   6.393   8.205  0.3355  0.4530  0.8954
   17CHTO   H59 7072   5.467   6.338   8.229 -0.0504 -2.0474 -2.8891
   17CHTO   C29 7073   5.379   6.431   8.058 -0.3073  0.6423 -0.2497
   17CHTO   H57 7074   5.284   6.468   8.015 -0.8095 -1.0312 -0.6251
   17CHTO   O21 7075   5.405   6.316   7.978  0.3915 -0.1518  0.5300
   17CHTO   H37 7076   5.350   6.244   8.001  1.0199  0.4014  4.0784
   17CHTO   C27 7077   5.496   6.534   8.021 -0.1191 -0.3308  0.0655
   17CHTO   H55 7078   5.589   6.477   8.019  1.4665  2.1726 -0.1784
   17CHTO    N5 7079   5.486   6.595   7.881 -0.2148  0.0010 -0.3668
   17CHTO   H43 7080   5.580   6.647   7.871 -0.2763  0.3283  0.6460
   17CHTO   H44 7081   5.403   6.663   7.864  0.2549 -0.0501 -3.0009
   17CHTO   C25 7082   5.514   6.645   8.121 -0.6642  0.1559  0.4197
   17CHTO   H53 7083   5.444   6.726   8.098 -1.1497 -0.2105  0.6154
   17CHTO   O17 7084   5.504   6.604   8.263  0.3447 -0.4072  0.5967
   17CHTO   C32 7085   5.381   6.527   8.285 -0.4052 -0.0212 -0.3935
   17CHTO   H60 7086   5.299   6.592   8.255 -0.2644  0.4149  0.1464
   17CHTO   C36 7087   5.363   6.505   8.442 -0.4049  0.3702 -0.4994
   17CHTO   O25 7088   5.475   6.444   8.513 -0.2694  0.1583 -0.4423
   17CHTO   H40 7089   5.486   6.485   8.596  1.7298 -2.1956  0.5194
   17CHTO   O15 7090   5.658   6.726   8.107  0.5604 -0.5303 -0.1618
   17CHTO   C19 7091   5.708   6.862   8.125  0.1172  0.9755 -0.8257
   17CHTO   H47 7092   5.816   6.851   8.108  0.5713  1.7875  1.4355
   17CHTO   C20 7093   5.665   6.967   8.022 -0.0088  0.3257 -0.7926
   17CHTO   H48 7094   5.557   6.985   8.029 -0.2058 -1.1812  0.3368
   17CHTO   O19 7095   5.690   6.910   7.895 -0.4435 -0.3155  0.3061
   17CHTO   H35 7096   5.637   6.836   7.869 -0.4634 -0.4968  0.8473
   17CHTO   C21 7097   5.744   7.100   8.038 -0.3472  0.3728 -0.1245
   17CHTO   H49 7098   5.850   7.085   8.018  0.2841  1.5490  2.1207
   17CHTO    N4 7099   5.702   7.211   7.946 -0.6256 -0.3329 -0.3667
   17CHTO   H41 7100   5.774   7.292   7.949 -0.7465 -0.2051 -0.8043
   17CHTO   H42 7101   5.694   7.170   7.846 -0.2213 -0.8424 -0.1898
   17CHTO   C22 7102   5.728   7.146   8.188  0.1720  0.3142  0.4177
   17CHTO   H50 7103   5.626   7.179   8.207  0.4892  2.3082 -1.0485
   17CHTO   O14 7104   5.773   7.033   8.276  0.4390  0.2726  0.3320
   17CHTO   C23 7105   5.692   6.916   8.263  0.2390  0.3083  0.2910
   17CHTO   H51 7106   5.587   6.935   8.288 -0.0825 -1.0871  0.0423
   17CHTO   C34 7107   5.740   6.816   8.373 -0.4242  0.1434  0.3576
   17CHTO   O23 7108   5.872   6.769   8.368  0.3014  0.9489 -0.0714
   17CHTO   H38 7109   5.880   6.701   8.304  3.1166 -0.3090  1.5262
   17CHTO   O16 7110   5.818   7.250   8.225  0.0881  0.1554  0.4462
   17CHTO   C24 7111   5.812   7.302   8.378 -0.8518 -0.0721 -0.1513
   17CHTO   H52 7112   5.745   7.239   8.436  0.0559 -1.0471 -0.1427
   17CHTO   C26 7113   5.755   7.449   8.387  0.1428  0.1952  0.3246
   17CHTO   H54 7114   5.817   7.520   8.328  0.4730  0.0575  0.5010
   17CHTO   O20 7115   5.624   7.449   8.325  0.0742 -0.0694  0.2569
   17CHTO   H36 7116   5.634   7.424   8.235 -1.1366 -2.1616  0.6839
   17CHTO   C30 7117   5.752   7.498   8.533  0.4283  0.1953 -0.3575
   17CHTO   H58 7118   5.686   7.429   8.587  1.4661 -1.1578 -0.7950
   17CHTO    N6 7119   5.714   7.642   8.544  0.0543  0.0767  0.4026
   17CHTO   H45 7120   5.675   7.674   8.639 -0.9411  1.1334 -0.3549
   17CHTO   H46 7121   5.640   7.667   8.469  1.7697  1.4944 -0.8588
   17CHTO   C33 7122   5.887   7.473   8.604  0.3560  0.4036  0.2781
   17CHTO   H61 7123   5.961   7.543   8.562 -1.9131  1.8364 -1.4559
   17CHTO   O18 7124   5.934   7.344   8.580 -0.3016  1.0663  0.0406
   17CHTO   C28 7125   5.952   7.292   8.450 -0.1040 -0.3989 -0.2301
   17CHTO   H56 7126   6.028   7.349   8.396  1.2651 -0.5250  1.5319
   17CHTO   C35 7127   6.003   7.143   8.459 -0.3265 -0.3791 -0.0685
   17CHTO   O24 7128   5.926   7.049   8.535 -0.1725  0.3758  0.5063
   17CHTO   H39 7129   5.922   6.968   8.487 -0.1798 -0.4051  1.7986
   17CHTO    O9 7130   5.873   7.506   8.739  0.2567 -0.3067 -0.8896
   17CHTO   C13 7131   5.998   7.469   8.829  0.5802 -0.6669 -0.5297
   17CHTO   H26 7132   6.074   7.439   8.753 -0.0226  0.1400 -1.4678
   17CHTO   C11 7133   5.959   7.345   8.931  0.3932 -0.9617 -0.4051
   17CHTO   H24 7134   6.029   7.262   8.917  1.2168 -0.2683 -0.4487
   17CHTO    O8 7135   5.836   7.284   8.887  0.2938 -0.7975  0.1230
   17CHTO    H3 7136   5.847   7.212   8.828  1.1795 -1.7400  1.4074
   17CHTO    C9 7137   5.964   7.389   9.082 -0.2530 -0.0430 -0.7677
   17CHTO   H22 7138   6.073   7.393   9.098 -0.3296  0.5563 -0.3937
   17CHTO    N2 7139   5.924   7.280   9.178 -0.3558  0.0746 -0.1550
   17CHTO   H10 7140   5.943   7.293   9.284 -1.6611 -0.3945  0.1480
   17CHTO   H11 7141   5.949   7.180   9.147  3.2820  0.6016  0.8913
   17CHTO    C7 7142   5.909   7.530   9.099  0.2468  0.0305 -0.2412
   17CHTO   H20 7143   5.912   7.552   9.207 -1.5061  0.7891 -0.3327
   17CHTO    O4 7144   5.990   7.631   9.028 -0.1397 -0.3199 -0.5804
   17CHTO   C14 7145   6.056   7.599   8.905 -0.2376 -0.3285  0.2424
   17CHTO   H27 7146   6.161   7.578   8.935 -0.1152 -1.4478 -0.9289
   17CHTO   C18 7147   6.064   7.726   8.820 -0.3013  0.1143 -0.6138
   17CHTO   O13 7148   5.934   7.788   8.790 -0.2048 -0.2611 -0.1766
   17CHTO    H7 7149   5.902   7.773   8.704 -0.9450  1.5433 -0.2410
   17CHTO    O2 7150   5.761   7.548   9.047  0.2581 -0.0127  0.3879
   17CHTO    C1 7151   5.657   7.535   9.146  0.0074  0.0075  0.4459
   17CHTO   H14 7152   5.696   7.540   9.250  2.4330 -0.6707 -0.4035
   17CHTO    C2 7153   5.562   7.408   9.119  0.0440  0.4286  0.2394
   17CHTO   H15 7154   5.526   7.409   9.015  0.8905  0.5870 -0.0567
   17CHTO    O6 7155   5.612   7.282   9.145  0.4061  0.3224 -0.1759
   17CHTO    H1 7156   5.633   7.243   9.062  0.8459  1.0024 -0.3877
   17CHTO    C3 7157   5.429   7.424   9.216  0.2218 -0.5832  0.2500
   17CHTO   H16 7158   5.461   7.416   9.321  1.1333  1.4862  0.1536
   17CHTO    N1 7159   5.320   7.323   9.189  0.2542  0.0774 -0.1267
   17CHTO    H8 7160   5.296   7.309   9.085  1.1288  0.5258 -0.3960
   17CHTO    H9 7161   5.223   7.349   9.230  0.0200 -0.5228 -0.3021
   17CHTO    C4 7162   5.380   7.571   9.204 -0.7583 -0.1768  0.1493
   17CHTO   H17 7163   5.342   7.591   9.103  1.0193  1.3782 -0.2494
   17CHTO    O1 7164   5.478   7.668   9.237 -0.2578 -0.1327  0.5120
   17CHTO    C5 7165   5.586   7.672   9.141  0.4153 -0.2803 -0.4658
   17CHTO   H18 7166   5.553   7.688   9.038  2.3137  1.6587 -0.8036
   17CHTO   C16 7167   5.671   7.791   9.185  0.0944  0.1681  0.1505
   17CHTO   O11 7168   5.602   7.912   9.168  0.5044  0.3018  0.6710
   17CHTO    H5 7169   5.654   7.984   9.198  1.8731  0.2109 -1.4413
   17CHTO    O3 7170   5.279   7.599   9.302 -0.0417  0.4689 -0.4663
   17CHTO    C6 7171   5.197   7.721   9.309 -0.1215  0.3274  0.0566
   17CHTO   H19 7172   5.258   7.808   9.286 -1.5150  0.8277 -1.8642
   17CHTO    C8 7173   5.081   7.717   9.210  0.7284  0.6734  0.6052
   17CHTO   H21 7174   5.029   7.622   9.220  2.1016 -0.1597 -0.1717
   17CHTO    O7 7175   5.136   7.734   9.077 -0.3882  0.3888  0.0569
   17CHTO    H2 7176   5.066   7.718   9.016 -0.5552 -1.3465  0.6766
   17CHTO   C12 7177   4.979   7.839   9.240 -0.2903 -0.0483 -0.3211
   17CHTO   H25 7178   5.030   7.933   9.212 -1.1154  1.1203  1.9307
   17CHTO    N3 7179   4.863   7.824   9.151 -0.2306 -0.3073 -0.3001
   17CHTO   H12 7180   4.840   7.925   9.121 -2.3394 -0.7882 -0.4137
   17CHTO   H13 7181   4.781   7.772   9.199 -0.2326  0.4885  0.5868
   17CHTO   C15 7182   4.944   7.840   9.390  0.3167  0.0684  0.1813
   17CHTO   H28 7183   4.883   7.755   9.417 -0.5174  0.2560 -1.0976
   17CHTO   O10 7184   4.874   7.967   9.435 -0.2016 -0.0215  0.0649
   17CHTO    H4 7185   4.851   7.958   9.525  0.9187  1.5613  0.5291
   17CHTO    O5 7186   5.061   7.853   9.466 -0.2992  0.6209 -0.0851
   17CHTO   C10 7187   5.137   7.736   9.453 -0.0834  0.6261 -0.1141
   17CHTO   H23 7188   5.069   7.655   9.477  1.5707 -1.6452 -2.7771
   17CHTO   C17 7189   5.242   7.749   9.565  0.2602 -0.4074 -0.3769
   17CHTO   O12 7190   5.340   7.651   9.552  0.5342 -0.2622  0.0643
   17CHTO    H6 7191   5.398   7.679   9.484  0.6049  0.5767  0.4587
   18CHTO  H203 7192   5.774   8.387   0.463 -0.2278  1.1989 -0.2457
   18CHTO   O82 7193   5.848   8.391   0.522 -0.3174  0.0361 -0.0435
   18CHTO  C123 7194   5.897   8.258   0.569  0.1906 -0.1090  0.0086
   18CHTO  H227 7195   5.808   8.205   0.606 -0.2959  1.8170  1.7328
   18CHTO   O77 7196   5.964   8.222   0.444  0.0822  0.2654 -0.2026
   18CHTO  C118 7197   6.031   8.095   0.457 -0.1062 -0.2615  0.1063
   18CHTO  H222 7198   5.964   8.012   0.484  0.6107 -0.4684  1.2494
   18CHTO  C125 7199   6.100   8.063   0.316  0.0912  0.2260  0.1734
   18CHTO   O84 7200   6.001   8.020   0.221 -1.2894  0.2229 -0.0976
   18CHTO  H205 7201   6.004   7.926   0.213  1.2613  0.4115 -2.0312
   18CHTO  C114 7202   6.143   8.116   0.563  0.3230 -0.3269  0.4784
   18CHTO  H218 7203   6.206   8.201   0.534  0.9667 -0.9918 -0.1016
   18CHTO  C116 7204   6.096   8.157   0.705 -0.3947 -0.1479 -0.3339
   18CHTO  H220 7205   6.048   8.069   0.754  1.6685 -0.1877  1.7281
   18CHTO   O79 7206   6.214   8.179   0.792 -0.7574 -0.2041  0.6729
   18CHTO  H201 7207   6.293   8.210   0.754 -0.8648  0.8849  1.3164
   18CHTO  C120 7208   6.004   8.280   0.681  0.5806  0.6456  0.2982
   18CHTO  H224 7209   6.070   8.365   0.653  0.6950  0.4350 -0.0862
   18CHTO   N21 7210   5.948   8.318   0.815 -0.2671 -0.4124  0.5600
   18CHTO  H211 7211   5.943   8.426   0.827 -0.7042 -0.2710 -0.8672
   18CHTO  H212 7212   5.850   8.273   0.825 -0.3558 -0.3424 -0.0173
   18CHTO   O75 7213   6.221   7.995   0.557  0.3427 -0.1103  1.2021
   18CHTO  C112 7214   6.382   7.998   0.562  0.5777  0.1417 -0.2752
   18CHTO  H216 7215   6.419   8.005   0.665  0.0048  1.1565 -0.1312
   18CHTO   O73 7216   6.420   8.109   0.482  0.0097 -0.0993 -0.4012
   18CHTO  C113 7217   6.563   8.129   0.469 -0.1111  0.7192  0.0393
   18CHTO  H217 7218   6.619   8.147   0.563  0.9280  0.5063 -0.5270
   18CHTO  C124 7219   6.593   8.258   0.386  0.2926 -0.3816 -0.2997
   18CHTO   O83 7220   6.526   8.371   0.448 -0.7598  0.0516  0.3629
   18CHTO  H204 7221   6.526   8.369   0.542  0.1790 -0.2910  0.3629
   18CHTO  C109 7222   6.633   8.001   0.400  0.2935 -1.0240 -0.0319
   18CHTO  H213 7223   6.598   7.998   0.295  0.0738  0.4734 -0.0060
   18CHTO  C110 7224   6.590   7.872   0.476  0.0949 -0.0210  0.8411
   18CHTO  H214 7225   6.647   7.869   0.569 -0.0119 -2.3154  0.8435
   18CHTO   O78 7226   6.632   7.761   0.401  0.1098  0.0985  1.4078
   18CHTO  H200 7227   6.652   7.691   0.460  1.3457 -1.3051 -0.6251
   18CHTO  C111 7228   6.435   7.872   0.501  0.1006 -0.4307 -0.0482
   18CHTO  H215 7229   6.394   7.852   0.401 -0.3149 -0.0448  0.0446
   18CHTO   N19 7230   6.396   7.763   0.591 -0.6728  0.3519 -0.0043
   18CHTO  H207 7231   6.372   7.798   0.691 -3.6896  0.3970 -0.6979
   18CHTO  H208 7232   6.305   7.717   0.554 -0.2336 -1.0124  0.6102
   18CHTO   O74 7233   6.779   8.016   0.405 -0.3048  0.1218 -0.1145
   18CHTO  C115 7234   6.870   7.965   0.296 -0.4985  0.2613  0.0307
   18CHTO  H219 7235   6.841   7.865   0.264  0.5995  0.4159 -1.5628
   18CHTO   O76 7236   6.858   8.056   0.150 -0.0943  0.2048 -0.5798
   18CHTO  C122 7237   6.952   8.163   0.146 -0.1475 -0.4963  0.3904
   18CHTO  H226 7238   6.908   8.236   0.213  1.1268 -0.8088  1.5888
   18CHTO  C126 7239   6.934   8.221   0.002  0.0790 -0.9591  0.0246
   18CHTO   O85 7240   6.806   8.263  -0.051 -0.4106  0.1994 -0.1890
   18CHTO  H206 7241   6.811   8.283  -0.142 -0.8879  0.6672 -0.1120
   18CHTO  C121 7242   7.109   8.122   0.177 -0.1329 -0.8854 -0.2931
   18CHTO  H225 7243   7.170   8.134   0.086 -1.9478  0.5614 -1.3531
   18CHTO   O81 7244   7.160   8.220   0.263 -0.0491 -0.4724  0.1964
   18CHTO  H202 7245   7.208   8.184   0.335 -0.6949 -0.9088  0.4132
   18CHTO  C119 7246   7.120   7.976   0.228  0.0123 -0.3471 -0.0654
   18CHTO  H223 7247   7.079   7.909   0.153 -1.4278  0.7454 -0.2804
   18CHTO  C117 7248   7.019   7.964   0.353 -0.1439 -0.3075  0.2153
   18CHTO  H221 7249   7.027   8.048   0.423 -0.0849 -1.2260  1.3180
   18CHTO   N20 7250   7.047   7.857   0.438 -0.2054  0.3227  0.5005
   18CHTO  H209 7251   6.954   7.810   0.466 -0.9368  1.0288 -0.7103
   18CHTO  H210 7252   7.089   7.893   0.531  0.8667 -0.9782  0.5237
   18CHTO   O80 7253   7.271   7.918   0.255 -0.1365  0.7168  0.1777
   18CHTO  C103 7254   7.349   7.833   0.133 -0.0332 -0.0267  0.2300
   18CHTO  H190 7255   7.444   7.795   0.171 -0.7755 -1.4912  0.6555
   18CHTO  C101 7256   7.272   7.715   0.066  0.0396  0.1230 -0.1497
   18CHTO  H188 7257   7.176   7.755   0.034 -0.6047  0.5311  2.1958
   18CHTO   O68 7258   7.256   7.588   0.180  0.3589 -0.3693 -0.3421
   18CHTO  H168 7259   7.338   7.572   0.222  0.4658 -0.9595 -0.7691
   18CHTO   C99 7260   7.340   7.664  -0.062  0.5469 -0.4638  0.1055
   18CHTO  H186 7261   7.442   7.633  -0.031 -0.2326 -1.8557  1.3156
   18CHTO   N17 7262   7.277   7.545  -0.128 -0.2990 -0.0956 -0.1705
   18CHTO  H174 7263   7.233   7.489  -0.047  0.6288  1.7524  1.6425
   18CHTO  H175 7264   7.361   7.495  -0.173  0.0823  0.0282  0.4006
   18CHTO   C97 7265   7.353   7.782  -0.158 -0.0214 -0.1995 -0.0993
   18CHTO  H184 7266   7.257   7.830  -0.182 -1.0226 -1.7958  0.6601
   18CHTO   O64 7267   7.443   7.878  -0.093  0.0711  0.5258  0.6152
   18CHTO  C104 7268   7.384   7.941   0.028 -0.6012 -0.2698  0.0310
   18CHTO  H191 7269   7.290   7.990   0.004 -0.7996 -0.9835 -0.6583
   18CHTO  C108 7270   7.475   8.053   0.088  0.3717  0.2433 -0.4890
   18CHTO   O71 7271   7.598   8.006   0.144  0.2504  0.4854  0.2939
   18CHTO  H171 7272   7.653   8.075   0.174  1.7079 -0.5349  0.0529
   18CHTO   O62 7273   7.418   7.752  -0.284 -0.0739 -0.6046  0.0808
   18CHTO   C91 7274   7.332   7.774  -0.400  0.5401 -0.7353 -0.3039
   18CHTO  H178 7275   7.228   7.758  -0.370  0.8314 -0.8463  0.6533
   18CHTO   C92 7276   7.361   7.669  -0.511  0.0648  0.3170 -0.3642
   18CHTO  H179 7277   7.465   7.677  -0.547 -0.0180 -0.9643 -0.9137
   18CHTO   O66 7278   7.339   7.537  -0.454  0.0508  0.4331  0.1745
   18CHTO  H166 7279   7.390   7.534  -0.375  0.6334 -1.7580 -0.2392
   18CHTO   C93 7280   7.266   7.685  -0.631  0.2228 -0.7149  0.8436
   18CHTO  H180 7281   7.168   7.649  -0.597 -0.0649 -1.1749 -0.4280
   18CHTO   N16 7282   7.309   7.603  -0.748 -0.2267 -0.0234 -0.1899
   18CHTO  H172 7283   7.236   7.611  -0.828 -1.4937 -0.4438  0.8994
   18CHTO  H173 7284   7.407   7.642  -0.769  1.4013 -2.4903  2.5197
   18CHTO   C94 7285   7.250   7.835  -0.674  0.6375  0.3026 -0.0467
   18CHTO  H181 7286   7.331   7.871  -0.737  0.1072 -0.1051 -0.9662
   18CHTO   O61 7287   7.251   7.928  -0.563  0.2104 -0.0368 -0.5069
   18CHTO   C95 7288   7.341   7.914  -0.462 -0.3868 -0.6197 -0.1428
   18CHTO  H182 7289   7.437   7.915  -0.514 -0.2083  0.1611  0.1968
   18CHTO  C106 7290   7.323   8.039  -0.373  0.4517  0.3178 -0.4480
   18CHTO   O69 7291   7.197   8.057  -0.317 -0.1482  0.5715 -0.2629
   18CHTO  H169 7292   7.148   8.090  -0.390  0.5812  0.9733 -0.5819
   18CHTO   O63 7293   7.100   7.835  -0.745  0.3056 -0.0781 -0.5665
   18CHTO   C96 7294   7.071   7.956  -0.845 -0.2112  0.1707  0.0733
   18CHTO  H183 7295   6.986   7.929  -0.908  0.0496 -2.4926  0.7910
   18CHTO   C98 7296   7.192   8.002  -0.937 -0.0100  0.0372  0.1116
   18CHTO  H185 7297   7.277   8.023  -0.870 -1.3828  0.9889  1.5602
   18CHTO   O67 7298   7.233   7.891  -1.017  0.1685  0.2530  0.1306
   18CHTO  H167 7299   7.265   7.812  -0.978  0.4602  0.3924  0.1768
   18CHTO  C102 7300   7.153   8.129  -1.028 -0.9935  0.0688 -0.4643
   18CHTO  H189 7301   7.079   8.087  -1.098 -0.6271 -1.9358  0.3104
   18CHTO   N18 7302   7.250   8.192  -1.117 -1.2008 -0.0401 -0.5867
   18CHTO  H176 7303   7.230   8.293  -1.149  0.7008  0.6494  0.3008
   18CHTO  H177 7304   7.335   8.192  -1.050  1.1510 -0.5231 -3.4649
   18CHTO  C105 7305   7.071   8.238  -0.945  0.5619  0.2217 -0.1339
   18CHTO  H192 7306   7.141   8.294  -0.884  1.0963 -0.6088  0.0326
   18CHTO   O65 7307   6.974   8.189  -0.848  0.3080 -0.4041 -0.6309
   18CHTO  C100 7308   7.023   8.081  -0.762  0.4482 -0.4154  0.3380
   18CHTO  H187 7309   7.105   8.123  -0.703 -0.1344  1.1908  0.0268
   18CHTO  C107 7310   6.914   8.046  -0.666  0.5170 -0.3564 -0.0620
   18CHTO   O70 7311   6.882   8.173  -0.594 -0.2701 -0.0656 -0.4840
   18CHTO  H170 7312   6.956   8.229  -0.582 -0.9672  0.4733  1.3218
   18CHTO   O57 7313   7.000   8.329  -1.050 -0.1950  0.1220  0.1414
   18CHTO   C85 7314   7.023   8.474  -1.036  0.3922  0.4363  0.1391
   18CHTO  H157 7315   7.126   8.485  -0.995  1.6978 -1.6177 -2.4024
   18CHTO   C83 7316   6.925   8.519  -0.923 -0.2251 -0.5086 -0.0557
   18CHTO  H155 7317   6.952   8.464  -0.833 -0.6121 -1.1149 -0.3089
   18CHTO   O56 7318   6.785   8.490  -0.951 -0.1304  0.5697 -0.6026
   18CHTO  H135 7319   6.728   8.544  -0.900 -1.6838 -0.8323 -0.7933
   18CHTO   C81 7320   6.950   8.672  -0.901  0.8306  0.0065 -0.2868
   18CHTO  H153 7321   7.051   8.681  -0.861  0.5024 -1.6798  0.9905
   18CHTO   N14 7322   6.862   8.716  -0.787 -0.5549  0.4416 -0.2377
   18CHTO  H141 7323   6.888   8.813  -0.749 -1.1159  0.9999 -1.2794
   18CHTO  H142 7324   6.869   8.646  -0.707  0.1474 -0.2362 -0.8777
   18CHTO   C79 7325   6.942   8.756  -1.041  0.1164  0.0498 -0.1225
   18CHTO  H151 7326   6.980   8.856  -1.020  0.7841 -0.0861 -0.6731
   18CHTO   O52 7327   7.022   8.702  -1.148 -0.2935  0.3583  0.1217
   18CHTO   C86 7328   7.002   8.560  -1.167  0.2620  0.0711  0.2108
   18CHTO  H158 7329   6.898   8.543  -1.202  0.4169  2.3185 -1.5169
   18CHTO   C90 7330   7.092   8.514  -1.285  0.0371  0.3489  0.1095
   18CHTO   O60 7331   7.039   8.564  -1.403 -0.3935  0.4162  0.3905
   18CHTO  H138 7332   6.960   8.524  -1.432 -0.2643  2.0457 -2.4375
   18CHTO   O50 7333   6.806   8.768  -1.092 -0.1099 -0.2341 -0.0058
   18CHTO   C73 7334   6.732   8.851  -1.187  0.1493 -0.4564  0.3622
   18CHTO  H145 7335   6.789   8.868  -1.279  0.9218 -1.5445  0.6363
   18CHTO   C74 7336   6.700   8.992  -1.132 -0.1586  0.1504 -0.1403
   18CHTO  H146 7337   6.794   9.045  -1.112  0.0631  0.0644 -0.9601
   18CHTO   O54 7338   6.635   9.066  -1.237 -0.5143  0.8027 -0.3052
   18CHTO  H133 7339   6.609   9.152  -1.211  0.2536  0.9236  0.1003
   18CHTO   C75 7340   6.614   8.977  -1.005 -0.2754 -0.4703 -0.0534
   18CHTO  H147 7341   6.679   8.928  -0.931  0.9778  0.7203 -0.3366
   18CHTO   N13 7342   6.581   9.102  -0.938 -1.0118 -0.0150  0.3436
   18CHTO  H139 7343   6.511   9.089  -0.856 -2.8328  1.2189 -0.9744
   18CHTO  H140 7344   6.672   9.149  -0.902 -1.9878  1.8104  0.5076
   18CHTO   C76 7345   6.492   8.889  -1.035  0.1286 -0.5085  1.0189
   18CHTO  H148 7346   6.429   8.957  -1.093  0.1048  0.2940  1.9799
   18CHTO   O49 7347   6.523   8.763  -1.105 -0.4952 -0.1572  0.6320
   18CHTO   C77 7348   6.594   8.780  -1.227 -0.2242  0.0355 -0.3904
   18CHTO  H149 7349   6.548   8.842  -1.304 -1.0192  3.3418  2.6599
   18CHTO   C88 7350   6.621   8.645  -1.291 -0.2934  0.6559  0.5792
   18CHTO   O58 7351   6.710   8.651  -1.404  0.1362  0.7715 -0.1050
   18CHTO  H136 7352   6.793   8.690  -1.381  1.1408 -0.8740 -0.8869
   18CHTO   O51 7353   6.425   8.848  -0.895 -0.3794  0.1555 -0.5604
   18CHTO   C78 7354   6.277   8.763  -0.911 -0.5393 -0.6595  0.0621
   18CHTO  H150 7355   6.284   8.683  -0.988 -0.5933 -0.3283 -0.2902
   18CHTO   C80 7356   6.154   8.854  -0.941 -0.5096  0.7753  0.1211
   18CHTO  H152 7357   6.150   8.931  -0.862 -1.5308  1.8234 -0.9454
   18CHTO   O55 7358   6.171   8.912  -1.071 -0.0584 -0.2261  0.2747
   18CHTO  H134 7359   6.242   8.973  -1.075  0.4798 -0.9357 -1.9613
   18CHTO   C84 7360   6.015   8.766  -0.931 -0.4493  0.0625  0.0331
   18CHTO  H156 7361   6.023   8.694  -1.012 -1.1339  0.8160 -0.7168
   18CHTO   N15 7362   5.878   8.845  -0.948  0.2948 -0.6029 -0.1974
   18CHTO  H143 7363   5.895   8.947  -0.974 -1.4310 -0.8196 -2.2836
   18CHTO  H144 7364   5.828   8.835  -0.854 -1.3582 -1.5391 -1.1624
   18CHTO   C87 7365   6.011   8.704  -0.785 -0.5754 -0.3253  0.3566
   18CHTO  H159 7366   6.015   8.786  -0.713  0.1761 -0.6103  0.6469
   18CHTO   O53 7367   6.137   8.615  -0.773 -0.3093 -0.2785 -0.1276
   18CHTO   C82 7368   6.259   8.693  -0.774  0.2876  0.0183 -0.7100
   18CHTO  H154 7369   6.252   8.758  -0.687 -0.7037 -0.2288 -0.5970
   18CHTO   C89 7370   6.376   8.596  -0.746  0.1789  0.1765  0.3366
   18CHTO   O59 7371   6.396   8.490  -0.844  0.0839  0.2544 -0.1149
   18CHTO  H137 7372   6.314   8.455  -0.873  1.0496 -0.5535 -1.9365
   18CHTO   O45 7373   5.883   8.610  -0.744 -0.1396 -0.2388  0.1139
   18CHTO   C67 7374   5.861   8.601  -0.608 -0.6878 -0.2005  0.5988
   18CHTO  H124 7375   5.947   8.641  -0.554 -0.0959 -1.4408  0.5974
   18CHTO   C65 7376   5.730   8.686  -0.582  0.2661 -0.5913  1.0541
   18CHTO  H122 7377   5.657   8.656  -0.657 -1.3145  1.0534  1.8932
   18CHTO   O44 7378   5.778   8.814  -0.615  0.0575 -0.3751  0.7561
   18CHTO  H102 7379   5.710   8.864  -0.656  0.1031 -1.5477 -0.7946
   18CHTO   C63 7380   5.657   8.663  -0.450  0.0497 -0.5150 -0.0473
   18CHTO  H120 7381   5.589   8.578  -0.465  0.4552 -0.9927  0.8314
   18CHTO   N11 7382   5.565   8.773  -0.403  0.4390 -0.0585 -0.2563
   18CHTO  H108 7383   5.500   8.793  -0.485 -0.9509 -1.1734  0.5291
   18CHTO  H109 7384   5.627   8.859  -0.400 -1.4884  1.3470  0.1609
   18CHTO   C61 7385   5.751   8.608  -0.347 -0.1402 -0.3103 -0.6077
   18CHTO  H118 7386   5.691   8.583  -0.258 -2.0902  1.3069 -1.4456
   18CHTO   O40 7387   5.817   8.477  -0.404 -0.1026 -0.1554 -0.3579
   18CHTO   C68 7388   5.837   8.461  -0.548 -0.5108  0.0789 -0.9088
   18CHTO  H125 7389   5.748   8.418  -0.599  0.6089 -1.3497 -1.7054
   18CHTO   C72 7390   5.951   8.363  -0.580 -0.5091 -0.6322 -0.6133
   18CHTO   O48 7391   5.972   8.319  -0.715 -0.4133  0.1692 -0.0487
   18CHTO  H105 7392   6.060   8.291  -0.727 -1.0430 -1.5654 -0.7602
   18CHTO   O38 7393   5.854   8.710  -0.319 -0.3085 -0.4321 -0.1727
   18CHTO   C55 7394   5.936   8.693  -0.207  0.0189  0.1630 -0.1298
   18CHTO  H112 7395   5.935   8.587  -0.177 -1.0756  0.8064  2.2189
   18CHTO   C56 7396   5.897   8.779  -0.090 -0.1099 -0.4637  0.5143
   18CHTO  H113 7397   5.904   8.878  -0.136  1.9550 -1.0442 -0.4777
   18CHTO   O42 7398   5.756   8.758  -0.046 -0.2298  0.0083  0.5445
   18CHTO  H100 7399   5.702   8.834  -0.053  0.3482  0.8030  3.6942
   18CHTO   C57 7400   6.004   8.752   0.026  0.1561 -0.6815 -0.4851
   18CHTO  H114 7401   5.991   8.648   0.055 -1.5157 -0.2601  0.3262
   18CHTO   N10 7402   5.985   8.842   0.150 -0.9514  0.9547 -0.2251
   18CHTO  H106 7403   5.879   8.865   0.149 -1.4075 -1.0517 -1.8391
   18CHTO  H107 7404   6.011   8.782   0.236 -1.1645 -0.0095 -0.8208
   18CHTO   C58 7405   6.148   8.774  -0.022 -0.6394 -0.1973 -0.2307
   18CHTO  H115 7406   6.161   8.881  -0.047  0.1266  0.6170  3.4024
   18CHTO   O37 7407   6.174   8.703  -0.143  0.1209 -0.3825  0.1115
   18CHTO   C59 7408   6.088   8.728  -0.252 -0.0746  0.5766 -0.1962
   18CHTO  H116 7409   6.090   8.833  -0.280 -3.9739  1.3953  2.2401
   18CHTO   C70 7410   6.135   8.649  -0.372  0.2372  0.8941  0.3215
   18CHTO   O46 7411   6.253   8.702  -0.430 -0.3355  0.8174  0.4306
   18CHTO  H103 7412   6.329   8.664  -0.391  1.2088  1.9001 -1.3882
   18CHTO   O39 7413   6.253   8.716   0.094  0.5797 -0.4349 -0.3475
   18CHTO   C60 7414   6.283   8.576   0.074 -0.2062 -0.0701  0.6781
   18CHTO  H117 7415   6.208   8.525   0.014  0.5666 -1.6230  1.0116
   18CHTO   C62 7416   6.416   8.554  -0.015  0.1246  0.3010 -0.1207
   18CHTO  H119 7417   6.399   8.609  -0.110  0.0455  2.1156  0.9162
   18CHTO   O43 7418   6.541   8.599   0.049  0.3813 -0.3000 -0.0495
   18CHTO  H101 7419   6.557   8.540   0.120 -0.2136  0.7869  1.0039
   18CHTO   C66 7420   6.432   8.398  -0.061 -0.7914  0.9900  0.3216
   18CHTO  H123 7421   6.344   8.368  -0.118  0.0949  1.3592 -1.2700
   18CHTO   N12 7422   6.543   8.383  -0.166  0.2742  0.5427  0.2560
   18CHTO  H110 7423   6.512   8.313  -0.241  1.3861  1.4289 -1.0615
   18CHTO  H111 7424   6.626   8.335  -0.116 -0.5372 -0.5200  0.6076
   18CHTO   C69 7425   6.442   8.314   0.067 -0.7520  1.2047  0.5962
   18CHTO  H126 7426   6.534   8.339   0.125  0.3939  1.7142 -1.3850
   18CHTO   O41 7427   6.311   8.343   0.158 -0.3824 -0.0432  0.3978
   18CHTO   C64 7428   6.299   8.500   0.202 -0.0778  0.1950 -0.3422
   18CHTO  H121 7429   6.394   8.525   0.254 -0.9142  1.1568  0.7518
   18CHTO   C71 7430   6.168   8.507   0.295  0.1496 -0.3802 -0.4357
   18CHTO   O47 7431   6.183   8.433   0.409  0.4385 -0.5380  0.5247
   18CHTO  H104 7432   6.154   8.347   0.383  0.4552 -0.3409 -0.1592
   18CHTO   O34 7433   6.439   8.147   0.032 -0.0974  0.5070  0.5255
   18CHTO   C49 7434   6.446   8.018  -0.014 -0.6326  0.4278 -0.2799
   18CHTO   H91 7435   6.547   7.989   0.013 -0.2173  2.2206  0.1399
   18CHTO   C47 7436   6.437   8.003  -0.168 -0.5107 -0.2817  0.0343
   18CHTO   H89 7437   6.455   7.896  -0.192  0.7771  0.5674 -3.1065
   18CHTO   O33 7438   6.532   8.085  -0.240 -0.2005 -0.1358 -0.3243
   18CHTO   H70 7439   6.618   8.047  -0.236  0.4954  1.3244 -0.9595
   18CHTO   C45 7440   6.287   8.050  -0.207  0.4166  0.2304 -0.5998
   18CHTO   H87 7441   6.296   8.148  -0.255 -1.0213  1.1314  0.9464
   18CHTO    N8 7442   6.240   7.955  -0.312  0.2027  0.5778 -0.1314
   18CHTO   H75 7443   6.148   7.905  -0.286  0.0615  0.3784 -1.0015
   18CHTO   H76 7444   6.266   7.993  -0.409 -1.1402 -1.7586 -1.4530
   18CHTO   C43 7445   6.188   8.062  -0.083  0.2442 -0.0082 -0.3662
   18CHTO   H85 7446   6.217   8.158  -0.041  0.6507 -0.9995  1.7229
   18CHTO   O29 7447   6.206   7.952   0.009 -0.1354  0.6348  0.3914
   18CHTO   C50 7448   6.339   7.928   0.049  0.1385  0.6273 -0.6111
   18CHTO   H92 7449   6.343   7.956   0.156  0.3552 -0.5811 -0.2917
   18CHTO   C54 7450   6.378   7.777   0.052 -0.6165 -0.2118  0.1423
   18CHTO   O36 7451   6.299   7.687   0.125 -0.1146 -0.3493 -0.2944
   18CHTO   H72 7452   6.324   7.607   0.083  1.2080  0.5453 -1.2360
   18CHTO   O27 7453   6.051   8.083  -0.113  0.0558 -0.0790 -0.2440
   18CHTO   C37 7454   5.919   8.132  -0.070 -0.0419 -0.7888  0.3115
   18CHTO   H79 7455   5.879   8.059   0.002 -0.8685 -1.1504 -0.4964
   18CHTO   C38 7456   5.920   8.271  -0.006  0.2098 -0.0585  0.1103
   18CHTO   H80 7457   5.949   8.343  -0.084 -0.4655  1.3417  1.1340
   18CHTO   O31 7458   6.021   8.288   0.101 -0.0698 -0.0136 -0.4277
   18CHTO   H68 7459   6.003   8.247   0.183 -0.6035 -3.5856 -2.2561
   18CHTO   C39 7460   5.779   8.300   0.052  0.2231  0.0911 -0.7873
   18CHTO   H81 7461   5.764   8.226   0.131 -3.2586  0.1190 -1.3341
   18CHTO    N7 7462   5.766   8.429   0.130 -0.3543 -0.6849  0.2894
   18CHTO   H73 7463   5.824   8.430   0.222 -0.7909  0.4913  0.5670
   18CHTO   H74 7464   5.660   8.443   0.149 -0.1627 -0.7812  1.4990
   18CHTO   C40 7465   5.668   8.287  -0.055  0.5737 -0.4816 -0.2028
   18CHTO   H82 7466   5.677   8.374  -0.120 -0.3839  0.5044  0.9685
   18CHTO   O26 7467   5.684   8.163  -0.127  0.1869  0.5324  0.1154
   18CHTO   C41 7468   5.816   8.146  -0.188  0.1790 -0.7968  0.7966
   18CHTO   H83 7469   5.836   8.243  -0.236 -0.3214 -0.8299  0.5260
   18CHTO   C52 7470   5.811   8.025  -0.286 -0.9524  0.1880 -0.7300
   18CHTO   O35 7471   5.931   8.045  -0.384 -0.9354  0.1281  0.0871
   18CHTO   H71 7472   5.907   8.008  -0.467  0.2582  2.0191 -1.1306
   18CHTO   O28 7473   5.538   8.278   0.002  0.0907 -0.0420 -0.4835
   18CHTO   C42 7474   5.414   8.284  -0.068  0.6649  0.4027 -0.5329
   18CHTO   H84 7475   5.340   8.281   0.012 -0.4449  2.0374 -1.4684
   18CHTO   C44 7476   5.396   8.165  -0.157 -0.4503  0.3312  0.2720
   18CHTO   H86 7477   5.471   8.171  -0.236 -0.1267  0.5730  0.6004
   18CHTO   O32 7478   5.405   8.048  -0.071 -0.3128  0.2042  0.0773
   18CHTO   H69 7479   5.434   7.971  -0.115  2.3021  1.1103  0.1616
   18CHTO   C48 7480   5.261   8.174  -0.253  0.0651 -0.2814  0.6055
   18CHTO   H90 7481   5.179   8.148  -0.187 -1.9836  0.2143 -1.6866
   18CHTO    N9 7482   5.259   8.051  -0.338 -0.2082 -0.6454 -0.1118
   18CHTO   H77 7483   5.355   8.001  -0.341  0.3477  0.4278 -0.4786
   18CHTO   H78 7484   5.224   8.074  -0.438  0.3146 -3.0131 -0.8764
   18CHTO   C51 7485   5.265   8.316  -0.320  0.3207 -0.1459 -0.1861
   18CHTO   H93 7486   5.360   8.314  -0.373  0.4208  1.6916 -0.0749
   18CHTO   O30 7487   5.265   8.412  -0.215  0.3830  0.0853 -0.1899
   18CHTO   C46 7488   5.393   8.418  -0.138  0.6867 -0.5943  0.2642
   18CHTO   H88 7489   5.478   8.440  -0.202  1.0659 -3.4326 -0.2923
   18CHTO   C53 7490   5.375   8.526  -0.036 -0.1878  0.0303  0.1140
   18CHTO   O72 7491   5.423   8.652  -0.087 -0.3823 -0.1338 -0.2501
   18CHTO  H199 7492   5.517   8.655  -0.090 -0.4217  1.9934 -0.4316
   18CHTO   O22 7493   5.143   8.354  -0.399 -0.4838  0.1288 -0.2131
   18CHTO   C31 7494   5.166   8.421  -0.532 -0.2629  0.1317  0.2812
   18CHTO   H59 7495   5.067   8.450  -0.573  0.5716  1.9457 -0.5181
   18CHTO   C29 7496   5.250   8.552  -0.533  0.2375 -0.4451  0.0363
   18CHTO   H57 7497   5.342   8.512  -0.488 -1.2953 -2.9873  1.0313
   18CHTO   O21 7498   5.189   8.639  -0.436  0.8443 -0.2028  0.2214
   18CHTO   H37 7499   5.257   8.695  -0.404 -0.0594  1.2462 -0.3819
   18CHTO   C27 7500   5.274   8.600  -0.680  0.9589 -0.2604  0.1322
   18CHTO   H55 7501   5.173   8.607  -0.724  0.7872 -0.0310  0.5534
   18CHTO    N5 7502   5.331   8.739  -0.690 -0.0033 -0.0994  0.1947
   18CHTO   H43 7503   5.332   8.779  -0.590 -1.3953 -1.5900  0.8333
   18CHTO   H44 7504   5.276   8.799  -0.761  0.5896  0.7341  0.4269
   18CHTO   C25 7505   5.362   8.493  -0.756  0.5787  0.0016 -0.0552
   18CHTO   H53 7506   5.449   8.477  -0.689  0.5195  0.0563  0.0343
   18CHTO   O17 7507   5.275   8.373  -0.763  0.0952 -0.2383  0.0418
   18CHTO   C32 7508   5.233   8.319  -0.635  0.0379  0.0162  0.2965
   18CHTO   H60 7509   5.315   8.268  -0.583  0.5612 -0.3461 -0.8630
   18CHTO   C36 7510   5.135   8.199  -0.664  0.5935  0.1860 -0.0886
   18CHTO   O25 7511   5.189   8.101  -0.757  0.1306  0.9084 -0.2635
   18CHTO   H40 7512   5.169   8.127  -0.845  1.8702  1.9502 -0.3734
   18CHTO   O15 7513   5.425   8.536  -0.891  0.3081 -0.1382 -0.2593
   18CHTO   C19 7514   5.522   8.473  -0.979  0.0210 -0.0221 -0.4944
   18CHTO   H47 7515   5.464   8.406  -1.044  1.7856 -0.8195 -1.3090
   18CHTO   C20 7516   5.583   8.569  -1.088  0.0265  0.1269 -0.9536
   18CHTO   H48 7517   5.644   8.648  -1.043  0.8744 -2.0199  1.8215
   18CHTO   O19 7518   5.475   8.641  -1.148  0.5488  0.0873  0.1290
   18CHTO   H35 7519   5.413   8.579  -1.182  0.7773 -0.0037 -0.1161
   18CHTO   C21 7520   5.670   8.489  -1.194 -0.8007  0.1170 -0.5571
   18CHTO   H49 7521   5.603   8.420  -1.246  1.3160 -3.5618  1.3779
   18CHTO    N4 7522   5.724   8.576  -1.304 -0.3751  0.5669 -0.5969
   18CHTO   H41 7523   5.828   8.591  -1.280 -0.6249 -1.0484  1.6174
   18CHTO   H42 7524   5.673   8.671  -1.305 -0.3558  0.6233  1.2306
   18CHTO   C22 7525   5.776   8.404  -1.113  0.6337 -0.5104  0.1762
   18CHTO   H50 7526   5.838   8.482  -1.068 -0.0473 -0.7705  1.5943
   18CHTO   O14 7527   5.713   8.327  -1.014  0.8877  0.2803  0.1331
   18CHTO   C23 7528   5.632   8.383  -0.910 -0.3527 -0.3361 -0.7609
   18CHTO   H51 7529   5.702   8.443  -0.849  1.0689  0.0998 -2.7775
   18CHTO   C34 7530   5.584   8.274  -0.817 -0.6390 -0.1336  0.3703
   18CHTO   O23 7531   5.699   8.215  -0.751 -0.0102 -0.4995 -0.3935
   18CHTO   H38 7532   5.672   8.145  -0.694 -2.9389  0.5752 -0.3478
   18CHTO   O16 7533   5.850   8.318  -1.196 -0.1972 -0.2448  0.0535
   18CHTO   C24 7534   5.994   8.274  -1.119 -0.6147  0.4561  0.1782
   18CHTO   H52 7535   5.992   8.300  -1.013  0.3702  1.7779 -0.1103
   18CHTO   C26 7536   6.114   8.342  -1.191 -0.0324  0.3932  0.4148
   18CHTO   H54 7537   6.116   8.302  -1.294  1.7872 -0.8054  0.9014
   18CHTO   O20 7538   6.088   8.485  -1.187  0.0428  0.0650 -0.3495
   18CHTO   H36 7539   6.080   8.529  -1.269  0.6839  1.6451  0.4139
   18CHTO   C30 7540   6.251   8.303  -1.125 -0.4856  0.9201 -0.0138
   18CHTO   H58 7541   6.260   8.350  -1.026 -1.1256  2.1376 -0.5212
   18CHTO    N6 7542   6.374   8.352  -1.198  0.3698 -0.0820  0.5722
   18CHTO   H45 7543   6.438   8.273  -1.235  1.7088  1.6665 -0.9778
   18CHTO   H46 7544   6.434   8.419  -1.138  1.3909  0.0035 -0.5129
   18CHTO   C33 7545   6.262   8.149  -1.110 -0.0533  0.2435 -0.7408
   18CHTO   H61 7546   6.282   8.101  -1.207 -0.3263  0.0479 -0.7017
   18CHTO   O18 7547   6.137   8.096  -1.055  0.1592 -0.5662 -0.6007
   18CHTO   C28 7548   6.019   8.123  -1.128 -0.8505 -0.0870 -0.5598
   18CHTO   H56 7549   6.033   8.090  -1.231  1.0146  1.1119 -0.7200
   18CHTO   C35 7550   5.908   8.041  -1.072 -0.1205  0.1283 -0.0586
   18CHTO   O24 7551   5.884   8.075  -0.940 -0.0068 -0.0342  0.3469
   18CHTO   H39 7552   5.803   8.122  -0.936 -0.1137 -0.1500 -0.4936
   18CHTO    O9 7553   6.371   8.116  -1.021 -0.3082 -0.1377 -0.6913
   18CHTO   C13 7554   6.477   8.004  -1.093  0.2461  0.1559 -0.4154
   18CHTO   H26 7555   6.488   8.019  -1.202  0.1293 -2.3182 -0.8019
   18CHTO   C11 7556   6.407   7.866  -1.061  0.6069 -0.8278 -0.1369
   18CHTO   H24 7557   6.328   7.854  -1.137  0.3266  1.8400 -0.3155
   18CHTO    O8 7558   6.345   7.867  -0.930  0.1321  0.2842  0.5497
   18CHTO    H3 7559   6.299   7.786  -0.922  1.0404 -0.5560 -2.2664
   18CHTO    C9 7560   6.515   7.754  -1.084  0.5241  0.5117 -0.3979
   18CHTO   H22 7561   6.561   7.774  -1.182 -1.3815  0.7666 -1.2600
   18CHTO    N2 7562   6.456   7.621  -1.104  0.1205 -0.1300  0.3580
   18CHTO   H10 7563   6.349   7.620  -1.085  0.3426  1.3374  1.7709
   18CHTO   H11 7564   6.471   7.583  -1.204  2.3857 -2.4366  1.5247
   18CHTO    C7 7565   6.632   7.768  -0.977 -0.2563 -0.4625  0.7097
   18CHTO   H20 7566   6.723   7.730  -1.027  0.0650  0.4414  0.5886
   18CHTO    O4 7567   6.646   7.905  -0.937  0.0621 -0.2948 -0.4506
   18CHTO   C14 7568   6.627   8.010  -1.033 -0.3163 -0.2990  0.0127
   18CHTO   H27 7569   6.697   8.000  -1.119  2.0799  0.9880  1.7383
   18CHTO   C18 7570   6.665   8.152  -0.966 -0.0657 -0.2924  0.4162
   18CHTO   O13 7571   6.675   8.247  -1.072  1.1963  0.0822  0.7181
   18CHTO    H7 7572   6.728   8.218  -1.145 -0.3274 -0.4703 -0.1886
   18CHTO    O2 7573   6.602   7.692  -0.840  0.4405  0.5071  0.0315
   18CHTO    C1 7574   6.709   7.693  -0.740  0.5813  0.1589 -1.1813
   18CHTO   H14 7575   6.774   7.783  -0.750 -1.6144  1.6895 -2.0074
   18CHTO    C2 7576   6.804   7.567  -0.754 -0.0881 -0.0686  0.0981
   18CHTO   H15 7577   6.733   7.483  -0.761 -1.1771  0.6916  1.6200
   18CHTO    O6 7578   6.881   7.562  -0.881  0.0844 -0.1699  0.0155
   18CHTO    H1 7579   6.956   7.508  -0.864 -0.9646 -0.9889  2.2232
   18CHTO    C3 7580   6.894   7.545  -0.626 -0.2934  0.1249  0.2524
   18CHTO   H16 7581   6.976   7.618  -0.623 -1.5808  1.7567 -2.2648
   18CHTO    N1 7582   6.971   7.415  -0.633  0.1374  0.2928  0.5251
   18CHTO    H8 7583   6.928   7.340  -0.698  1.6370 -1.2878  1.3216
   18CHTO    H9 7584   6.979   7.376  -0.532 -0.7837 -0.1582  0.4356
   18CHTO    C4 7585   6.816   7.560  -0.493  0.0980 -0.7327  0.5807
   18CHTO   H17 7586   6.746   7.477  -0.481 -0.6894 -0.2824 -0.7503
   18CHTO    O1 7587   6.758   7.690  -0.491 -0.4453  0.7767  0.6909
   18CHTO    C5 7588   6.656   7.708  -0.593  0.7134 -0.2011 -0.2951
   18CHTO   H18 7589   6.581   7.630  -0.583  0.9143 -0.2914  0.5880
   18CHTO   C16 7590   6.593   7.837  -0.551 -0.0327  0.5275  0.3450
   18CHTO   O11 7591   6.448   7.847  -0.567 -0.1296 -0.5670 -0.0442
   18CHTO    H5 7592   6.420   7.859  -0.655 -0.6419  1.9101  0.4127
   18CHTO    O3 7593   6.901   7.568  -0.373  0.2650 -0.5579  0.5373
   18CHTO    C6 7594   6.842   7.584  -0.243  0.2901 -0.4657  0.2715
   18CHTO   H19 7595   6.737   7.612  -0.248  0.8602  2.1699  2.0449
   18CHTO    C8 7596   6.852   7.450  -0.156  0.0212  0.2797  0.0210
   18CHTO   H21 7597   6.955   7.415  -0.153 -0.4373 -1.0665  0.3396
   18CHTO    O7 7598   6.773   7.354  -0.215 -0.2630 -0.3438 -0.1566
   18CHTO    H2 7599   6.768   7.276  -0.163 -3.3147  0.6094  1.1197
   18CHTO   C12 7600   6.791   7.479  -0.009 -0.5648  0.4122 -0.5390
   18CHTO   H25 7601   6.683   7.500  -0.015 -0.6075  0.8451  1.5333
   18CHTO    N3 7602   6.805   7.361   0.075  0.3252  0.0794  0.2401
   18CHTO   H12 7603   6.708   7.315   0.089 -0.5445  1.6661 -0.5271
   18CHTO   H13 7604   6.859   7.385   0.166  1.1377  0.0032 -0.2203
   18CHTO   C15 7605   6.861   7.608   0.047  0.6494 -0.0557 -0.6078
   18CHTO   H28 7606   6.968   7.592   0.058  0.6214 -0.2858 -0.6662
   18CHTO   O10 7607   6.802   7.646   0.178  0.1928 -0.3615  0.2419
   18CHTO    H4 7608   6.837   7.587   0.242 -0.1865 -2.5315 -1.4943
   18CHTO    O5 7609   6.838   7.716  -0.038 -0.3564 -0.7595  0.0730
   18CHTO   C10 7610   6.913   7.706  -0.165 -0.2874  0.0471  0.3774
   18CHTO   H23 7611   7.015   7.678  -0.138  0.0302  0.5062 -0.3175
   18CHTO   C17 7612   6.902   7.842  -0.232  0.5272 -0.3476 -0.4063
   18CHTO   O12 7613   6.980   7.853  -0.352 -0.1071 -0.0708 -0.2792
   18CHTO    H6 7614   6.940   7.813  -0.426 -2.8868  1.6242  0.2516
   19CHTO  H203 7615   6.027   8.986   1.079  0.0100  1.6483  0.9472
   19CHTO   O82 7616   5.934   8.998   1.082 -0.2281  0.1936  0.1773
   19CHTO  C123 7617   5.862   9.002   0.958 -0.0988 -0.3819  0.3043
   19CHTO  H227 7618   5.914   9.077   0.897  4.0287 -2.6091  0.9154
   19CHTO   O77 7619   5.876   8.870   0.900  0.3923  0.0166 -0.4510
   19CHTO  C118 7620   5.818   8.851   0.771 -0.0738 -0.3096 -0.1393
   19CHTO  H222 7621   5.867   8.929   0.711 -0.1879  0.5541  0.8685
   19CHTO  C125 7622   5.868   8.708   0.715  0.1933 -0.0121 -0.4977
   19CHTO   O84 7623   5.986   8.728   0.633  0.6550  0.0569  0.8208
   19CHTO  H205 7624   6.005   8.653   0.580  1.5869  0.4857  0.5393
   19CHTO  C114 7625   5.670   8.872   0.775  0.7552 -0.0367  0.1805
   19CHTO  H218 7626   5.626   8.789   0.830 -1.1295 -0.6461 -2.1519
   19CHTO  C116 7627   5.636   9.013   0.838 -0.3191  0.3420  0.1040
   19CHTO  H220 7628   5.677   9.093   0.772  1.9500 -0.0248  1.0205
   19CHTO   O79 7629   5.495   9.024   0.838  0.5252  0.4277 -0.0286
   19CHTO  H201 7630   5.478   9.116   0.843 -0.2854  0.2866 -0.1240
   19CHTO  C120 7631   5.706   9.027   0.975 -0.0875  0.1442 -0.7369
   19CHTO  H224 7632   5.659   8.953   1.043 -0.2317 -0.3861 -1.4124
   19CHTO   N21 7633   5.673   9.159   1.039  0.1718 -0.3238  0.2485
   19CHTO  H211 7634   5.725   9.233   0.980  1.3212 -0.9312  0.4798
   19CHTO  H212 7635   5.567   9.177   1.036  0.3472  0.3693 -2.5482
   19CHTO   O75 7636   5.630   8.863   0.638  0.2601  0.4655  0.2463
   19CHTO  C112 7637   5.532   8.743   0.604 -0.1068 -0.1247  0.3088
   19CHTO  H216 7638   5.430   8.764   0.640 -0.4298  0.0304 -0.7000
   19CHTO   O73 7639   5.588   8.630   0.664  0.0758 -0.2321 -0.1536
   19CHTO  C113 7640   5.493   8.522   0.657 -0.7744  0.0384 -0.4457
   19CHTO  H217 7641   5.393   8.551   0.695 -0.4616 -0.4111  0.7422
   19CHTO  C124 7642   5.554   8.417   0.750 -0.2599  0.1014 -0.3325
   19CHTO   O83 7643   5.514   8.445   0.885  0.1649  0.2129  0.1767
   19CHTO  H204 7644   5.517   8.538   0.893 -2.7671  0.1841  2.1770
   19CHTO  C109 7645   5.481   8.470   0.509  0.0249 -0.0483 -0.4461
   19CHTO  H213 7646   5.575   8.421   0.481 -0.2708 -1.1040  0.3729
   19CHTO  C110 7647   5.450   8.585   0.415  0.5423 -0.3628 -0.1648
   19CHTO  H214 7648   5.343   8.609   0.423  0.8101  0.5523  0.8351
   19CHTO   O78 7649   5.470   8.535   0.286  0.2857 -0.2122  0.1992
   19CHTO  H200 7650   5.556   8.496   0.286  0.3216 -0.1304  0.5773
   19CHTO  C111 7651   5.538   8.703   0.453  0.2808  1.1204  0.3815
   19CHTO  H215 7652   5.640   8.679   0.421  0.3275  1.2481  0.4305
   19CHTO   N19 7653   5.496   8.822   0.370 -1.2359 -0.1969 -0.6054
   19CHTO  H207 7654   5.535   8.819   0.269 -1.5556 -2.0222 -0.6895
   19CHTO  H208 7655   5.388   8.814   0.368 -1.1293 -1.9779 -0.1971
   19CHTO   O74 7656   5.371   8.369   0.499  0.5849  0.0577 -0.4680
   19CHTO  C115 7657   5.403   8.247   0.405 -0.0108  0.5782  1.0119
   19CHTO  H219 7658   5.441   8.282   0.309 -1.5384  0.0331  0.1867
   19CHTO   O76 7659   5.512   8.161   0.455 -0.1997  0.8820  0.4408
   19CHTO  C122 7660   5.523   8.024   0.408 -0.6367 -0.0113  0.4388
   19CHTO  H226 7661   5.582   7.974   0.485 -1.2304 -0.2372  0.7444
   19CHTO  C126 7662   5.616   8.022   0.279 -0.0560  0.1456 -0.2710
   19CHTO   O85 7663   5.655   7.883   0.261  0.1339 -0.7046  0.2095
   19CHTO  H206 7664   5.588   7.826   0.293 -0.9768  1.0612  1.0588
   19CHTO  C121 7665   5.385   7.952   0.383 -0.0391 -0.8423 -0.2627
   19CHTO  H225 7666   5.406   7.868   0.314  0.9569  0.8186 -2.0286
   19CHTO   O81 7667   5.332   7.902   0.504  0.9173  0.0277 -0.1583
   19CHTO  H202 7668   5.395   7.856   0.555  0.7721  0.6182  0.5713
   19CHTO  C119 7669   5.278   8.034   0.317  0.0103 -0.5547  0.2377
   19CHTO  H223 7670   5.313   8.053   0.215  1.5140 -1.7138  0.5278
   19CHTO  C117 7671   5.263   8.172   0.385  0.1013 -0.4415 -0.7352
   19CHTO  H221 7672   5.215   8.181   0.482  0.1524  1.0919 -0.8367
   19CHTO   N20 7673   5.174   8.261   0.292  0.0357  0.2482  0.0639
   19CHTO  H209 7674   5.167   8.365   0.320 -0.1055  0.2233  0.1236
   19CHTO  H210 7675   5.222   8.255   0.196  0.0664  0.3010  0.0754
   19CHTO   O80 7676   5.138   7.956   0.284 -0.6151  0.2619 -0.4535
   19CHTO  C103 7677   5.133   7.808   0.197  0.0969 -0.3082 -0.2366
   19CHTO  H190 7678   5.214   7.801   0.125  0.1701  1.8977 -0.4093
   19CHTO  C101 7679   5.142   7.674   0.286 -0.3183  0.6207  0.1474
   19CHTO  H188 7680   5.080   7.677   0.375 -0.4975  2.0925 -0.0145
   19CHTO   O68 7681   5.282   7.658   0.343 -0.9244  0.1997 -0.6193
   19CHTO  H168 7682   5.312   7.736   0.386  0.7778 -0.8497  0.1194
   19CHTO   C99 7683   5.096   7.541   0.194 -0.5530  0.4664 -0.1566
   19CHTO  H186 7684   5.183   7.524   0.128 -0.2513 -2.2741  0.9009
   19CHTO   N17 7685   5.079   7.418   0.272  0.6506  0.5487  0.2222
   19CHTO  H174 7686   5.028   7.444   0.364  1.0781 -1.1035  0.9433
   19CHTO  H175 7687   5.177   7.376   0.292 -0.0185 -1.4624 -0.6149
   19CHTO   C97 7688   4.984   7.572   0.095 -0.3998 -0.2090 -0.7614
   19CHTO  H184 7689   4.892   7.579   0.155 -0.0291  0.0714 -0.2287
   19CHTO   O64 7690   5.021   7.695   0.029 -0.6031  0.2815 -0.5363
   19CHTO  C104 7691   5.000   7.807   0.119  0.2330 -0.5876 -0.1732
   19CHTO  H191 7692   4.917   7.796   0.188  1.3879  2.1225  1.7234
   19CHTO  C108 7693   4.986   7.946   0.049 -0.0702  0.0232  0.5852
   19CHTO   O71 7694   5.110   7.978  -0.012  0.4216 -0.5229 -0.2617
   19CHTO  H171 7695   5.123   7.924  -0.088  1.2069  1.5201 -1.6386
   19CHTO   O62 7696   4.974   7.474  -0.005  0.5690  0.5125  0.3638
   19CHTO   C91 7697   4.875   7.480  -0.116 -0.0085 -1.1766 -0.2684
   19CHTO  H178 7698   4.803   7.557  -0.088  1.3017  0.1665 -0.5293
   19CHTO   C92 7699   4.790   7.351  -0.115  0.4308 -0.0026  0.7162
   19CHTO  H179 7700   4.760   7.332  -0.011 -0.9219  2.4470  0.8380
   19CHTO   O66 7701   4.663   7.379  -0.186  0.2943  0.6061 -0.1594
   19CHTO  H166 7702   4.620   7.458  -0.161 -0.1889 -0.0316  1.0672
   19CHTO   C93 7703   4.860   7.225  -0.179  0.2447 -0.1554 -0.7179
   19CHTO  H180 7704   4.781   7.148  -0.188  0.2299 -0.2955  0.5230
   19CHTO   N16 7705   4.963   7.168  -0.089 -0.1619  0.1588  0.2476
   19CHTO  H172 7706   4.961   7.060  -0.091 -0.0006  0.1608 -0.0463
   19CHTO  H173 7707   5.064   7.196  -0.117  0.4551 -0.7143  1.5745
   19CHTO   C94 7708   4.916   7.269  -0.321 -0.3094 -0.1282 -0.8041
   19CHTO  H181 7709   5.023   7.252  -0.329 -0.7434 -2.2066 -2.6791
   19CHTO   O61 7710   4.899   7.409  -0.353  0.1168 -0.4404  0.1814
   19CHTO   C95 7711   4.942   7.505  -0.260  0.6183  0.2509 -0.4900
   19CHTO  H182 7712   5.050   7.495  -0.244  0.4926 -0.9266 -0.3349
   19CHTO  C106 7713   4.923   7.649  -0.310 -0.2976  0.2717 -0.4622
   19CHTO   O69 7714   5.016   7.733  -0.244  0.2759  0.0812  0.8395
   19CHTO  H169 7715   5.001   7.745  -0.153 -2.3220  0.8276  0.3547
   19CHTO   O63 7716   4.839   7.181  -0.434  0.0892 -0.1478 -0.1040
   19CHTO   C96 7717   4.946   7.130  -0.550 -0.4017  0.2573  0.1251
   19CHTO  H183 7718   5.016   7.057  -0.509  1.4569  1.1218 -1.4345
   19CHTO   C98 7719   5.029   7.232  -0.631 -0.6415 -0.5011 -0.0385
   19CHTO  H185 7720   5.076   7.302  -0.562 -2.9650  1.8947 -0.7946
   19CHTO   O67 7721   5.129   7.154  -0.703  0.0297 -0.6268  0.0666
   19CHTO  H167 7722   5.179   7.204  -0.765 -1.0418  0.2137 -0.1395
   19CHTO  C102 7723   4.943   7.317  -0.741  0.2380 -0.2371 -0.3630
   19CHTO  H189 7724   5.021   7.368  -0.800 -0.0786 -1.4688 -1.8667
   19CHTO   N18 7725   4.857   7.424  -0.690  0.1878 -0.0770  0.0417
   19CHTO  H176 7726   4.833   7.418  -0.585  1.2226  2.9514  0.4957
   19CHTO  H177 7727   4.771   7.443  -0.753  1.3570 -1.7034 -2.0894
   19CHTO  C105 7728   4.876   7.213  -0.838  0.2504 -0.1274 -0.3355
   19CHTO  H192 7729   4.771   7.237  -0.854  0.9575  2.1179 -1.8963
   19CHTO   O65 7730   4.880   7.080  -0.792  0.1144  0.2156 -0.2907
   19CHTO  C100 7731   4.857   7.049  -0.652  0.4841  0.2610 -0.0971
   19CHTO  H187 7732   4.749   7.058  -0.639  0.5866 -0.7837  1.7952
   19CHTO  C107 7733   4.859   6.894  -0.634 -0.4046 -0.1134  0.5600
   19CHTO   O70 7734   4.888   6.837  -0.508 -0.1501 -0.2026 -0.6672
   19CHTO  H170 7735   4.854   6.891  -0.440  2.8157 -0.1499  0.8277
   19CHTO   O57 7736   4.966   7.226  -0.974  0.3865  0.0139 -0.5713
   19CHTO   C85 7737   4.907   7.214  -1.103  0.2481 -0.3801  0.0572
   19CHTO  H157 7738   4.807   7.171  -1.081  0.2803 -0.0996  0.7833
   19CHTO   C83 7739   4.987   7.110  -1.195 -0.1371 -0.6993  0.3335
   19CHTO  H155 7740   4.984   7.010  -1.150  1.0454 -1.2142 -0.6949
   19CHTO   O56 7741   5.128   7.146  -1.210 -0.3180  0.2992  0.0379
   19CHTO  H135 7742   5.185   7.083  -1.250 -1.2215 -0.5395  0.0841
   19CHTO   C81 7743   4.905   7.098  -1.324 -0.3106 -0.1464  0.9718
   19CHTO  H153 7744   4.801   7.080  -1.298 -0.2711  0.6413  1.7011
   19CHTO   N14 7745   4.932   6.981  -1.405 -0.0098 -0.1171 -0.0754
   19CHTO  H141 7746   5.011   6.925  -1.361 -0.4690 -0.4889  0.2849
   19CHTO  H142 7747   4.968   7.020  -1.498 -0.7870 -1.3632 -0.9207
   19CHTO   C79 7748   4.914   7.245  -1.403 -0.1182 -0.2684  0.2511
   19CHTO  H151 7749   4.858   7.234  -1.495  0.0291  0.5816  0.0646
   19CHTO   O52 7750   4.850   7.353  -1.325 -0.3019  0.4267 -0.0784
   19CHTO   C86 7751   4.888   7.354  -1.184 -0.6689  0.4736  0.0387
   19CHTO  H158 7752   4.987   7.405  -1.183  0.6809 -2.0335 -1.0270
   19CHTO   C90 7753   4.801   7.460  -1.111  0.2135  1.0807  0.1464
   19CHTO   O60 7754   4.814   7.595  -1.160 -0.0795 -0.2853 -0.6522
   19CHTO  H138 7755   4.870   7.607  -1.234  0.1746 -0.8818 -0.5581
   19CHTO   O50 7756   5.044   7.281  -1.451  0.1421  0.0994 -0.6511
   19CHTO   C73 7757   5.140   7.323  -1.549 -0.2280  0.1611 -1.2623
   19CHTO  H145 7758   5.140   7.241  -1.623  0.2615 -1.5273  0.5545
   19CHTO   C74 7759   5.278   7.343  -1.489  0.1700  0.1304  0.1493
   19CHTO  H146 7760   5.303   7.245  -1.448 -0.4682 -0.3831 -0.6736
   19CHTO   O54 7761   5.358   7.370  -1.607  0.1496  0.1259  0.3487
   19CHTO  H133 7762   5.448   7.386  -1.583  0.3099  0.5861 -0.5704
   19CHTO   C75 7763   5.277   7.453  -1.379  0.1843  0.1320  0.0031
   19CHTO  H147 7764   5.213   7.424  -1.293 -0.5982 -1.2796 -1.0351
   19CHTO   N13 7765   5.409   7.471  -1.319 -0.0574  0.1159 -0.6605
   19CHTO  H139 7766   5.427   7.389  -1.250  0.2162  1.1098  0.4629
   19CHTO  H140 7767   5.490   7.459  -1.389 -0.6802 -2.3082 -1.0099
   19CHTO   C76 7768   5.220   7.589  -1.436  0.4279 -0.0215  0.0297
   19CHTO  H148 7769   5.300   7.636  -1.495 -0.2157  1.5464  0.3754
   19CHTO   O49 7770   5.093   7.572  -1.519 -0.4926  1.0941  0.0451
   19CHTO   C77 7771   5.097   7.460  -1.614 -0.3984  0.4629  0.1826
   19CHTO  H149 7772   5.166   7.487  -1.694 -0.9789 -1.2424 -0.9012
   19CHTO   C88 7773   4.964   7.451  -1.694 -0.0285  1.1122  0.7131
   19CHTO   O58 7774   4.832   7.476  -1.598  0.2401 -0.8336 -0.4661
   19CHTO  H136 7775   4.815   7.569  -1.593 -0.5557 -0.9760 -0.4400
   19CHTO   O51 7776   5.171   7.689  -1.314  0.2542  0.4581  0.4198
   19CHTO   C78 7777   5.194   7.844  -1.328  0.1856  0.3639  0.6120
   19CHTO  H150 7778   5.189   7.868  -1.436 -0.0230  1.5747  0.8854
   19CHTO   C80 7779   5.333   7.877  -1.270  0.5775 -0.2539  0.2437
   19CHTO  H152 7780   5.331   7.836  -1.167  0.4603 -2.1291 -0.4966
   19CHTO   O55 7781   5.433   7.808  -1.347 -0.3064  0.0173 -0.0963
   19CHTO  H134 7782   5.432   7.715  -1.340  0.4309 -0.0006 -0.1692
   19CHTO   C84 7783   5.364   8.035  -1.268  0.3588 -0.4134  0.4454
   19CHTO  H156 7784   5.375   8.065  -1.372 -1.2363 -1.4106 -0.0259
   19CHTO   N15 7785   5.491   8.065  -1.200  0.0184 -0.4898 -0.9527
   19CHTO  H143 7786   5.565   7.994  -1.233  1.0608  0.6475 -1.0887
   19CHTO  H144 7787   5.484   8.065  -1.093  0.9122  1.5283 -0.8703
   19CHTO   C87 7788   5.241   8.108  -1.208  0.1232 -0.3795  0.2678
   19CHTO  H159 7789   5.242   8.084  -1.101 -0.4816  1.9041  0.8308
   19CHTO   O53 7790   5.106   8.065  -1.270  0.1341  0.3355  0.4437
   19CHTO   C82 7791   5.079   7.923  -1.263 -0.5302 -0.0161  0.3349
   19CHTO  H154 7792   5.075   7.883  -1.162 -0.1403 -0.3678  0.2114
   19CHTO   C89 7793   4.942   7.900  -1.332 -0.2333  0.1127  0.3292
   19CHTO   O59 7794   4.840   7.920  -1.238 -0.8433  0.5131  0.2799
   19CHTO  H137 7795   4.759   7.922  -1.284  0.1036  2.1293 -1.3800
   19CHTO   O45 7796   5.252   8.284  -1.233  0.2441 -0.0906 -0.4270
   19CHTO   C67 7797   5.125   8.355  -1.215  0.1040 -0.2540 -0.2609
   19CHTO  H124 7798   5.046   8.297  -1.263  0.5885 -0.0899 -1.2664
   19CHTO   C65 7799   5.098   8.367  -1.062 -0.4956 -0.6427  0.0003
   19CHTO  H122 7800   5.193   8.389  -1.013 -0.6089 -0.0499 -0.0439
   19CHTO   O44 7801   5.061   8.234  -1.022  0.4662  0.1276  0.2774
   19CHTO  H102 7802   5.067   8.227  -0.928  0.3084  0.0422  0.2815
   19CHTO   C63 7803   5.012   8.496  -1.030  0.6529 -0.2434  0.0593
   19CHTO  H120 7804   5.074   8.585  -1.038 -0.3963  0.4460 -0.5534
   19CHTO   N11 7805   4.957   8.497  -0.887 -0.2760 -1.2339  0.1516
   19CHTO  H108 7806   4.933   8.599  -0.862  0.8155 -0.9592  0.1436
   19CHTO  H109 7807   4.871   8.434  -0.882 -0.3429 -1.3229 -1.8667
   19CHTO   C61 7808   4.902   8.524  -1.142  0.1665  0.1374  0.3464
   19CHTO  H118 7809   4.838   8.611  -1.119  1.3918  1.6679 -1.7942
   19CHTO   O40 7810   4.984   8.562  -1.264  0.8098  0.1114  0.9524
   19CHTO   C68 7811   5.117   8.501  -1.282  0.3560  0.5501 -0.4871
   19CHTO  H125 7812   5.200   8.563  -1.242  1.4770 -1.3195  0.1708
   19CHTO   C72 7813   5.146   8.507  -1.431  0.8790 -0.0188 -0.1356
   19CHTO   O48 7814   5.052   8.454  -1.529 -0.1238  0.4450 -0.3828
   19CHTO  H105 7815   4.963   8.461  -1.499  0.0756  2.9569 -0.2760
   19CHTO   O38 7816   4.823   8.407  -1.162  0.7606 -0.0612  0.2503
   19CHTO   C55 7817   4.699   8.422  -1.237  0.0306 -0.0809 -0.4296
   19CHTO  H112 7818   4.705   8.498  -1.316  0.8730 -0.5695 -0.8382
   19CHTO   C56 7819   4.579   8.450  -1.137 -0.5679  0.3745 -0.3702
   19CHTO  H113 7820   4.599   8.390  -1.047 -0.4228 -0.4737 -0.9598
   19CHTO   O42 7821   4.591   8.590  -1.102 -0.6692 -0.2001  0.0136
   19CHTO  H100 7822   4.644   8.598  -1.025  0.7868 -0.6298 -0.9227
   19CHTO   C57 7823   4.436   8.421  -1.199  0.9548  0.2046  0.4571
   19CHTO  H114 7824   4.404   8.510  -1.254 -0.8138 -0.9143 -0.3649
   19CHTO   N10 7825   4.338   8.391  -1.091 -0.2953  0.4133  0.0882
   19CHTO  H106 7826   4.262   8.320  -1.121 -0.6344 -0.2993  2.4930
   19CHTO  H107 7827   4.286   8.483  -1.068 -0.2705  1.0271 -2.1842
   19CHTO   C58 7828   4.433   8.309  -1.301 -0.1216 -0.1932 -0.5462
   19CHTO  H115 7829   4.440   8.211  -1.248 -1.2300 -0.1530 -0.3030
   19CHTO   O37 7830   4.543   8.311  -1.391 -0.2813  0.4111  0.1351
   19CHTO   C59 7831   4.669   8.293  -1.327 -0.0428 -0.1737 -0.2819
   19CHTO  H116 7832   4.678   8.204  -1.265 -0.3036 -1.0355 -1.4655
   19CHTO   C70 7833   4.760   8.277  -1.445 -0.1344 -0.0182  0.4467
   19CHTO   O46 7834   4.888   8.227  -1.418 -1.1483  0.1477  0.2678
   19CHTO  H103 7835   4.880   8.154  -1.360  1.5754 -0.0022  0.5201
   19CHTO   O39 7836   4.293   8.317  -1.384  0.5708  0.1278  0.5121
   19CHTO   C60 7837   4.273   8.242  -1.510  0.2909 -0.6601  0.0637
   19CHTO  H117 7838   4.359   8.255  -1.575 -1.0059  1.1041 -1.3202
   19CHTO   C62 7839   4.241   8.088  -1.476  0.1632  0.2463 -0.1896
   19CHTO  H119 7840   4.331   8.062  -1.416 -0.9195  1.0210  1.8078
   19CHTO   O43 7841   4.122   8.079  -1.393 -0.0586 -0.2437  1.3258
   19CHTO  H101 7842   4.049   8.107  -1.445  0.3304 -0.8417  0.4437
   19CHTO   C66 7843   4.229   8.010  -1.613  0.4869 -0.1513  0.2303
   19CHTO  H123 7844   4.322   8.022  -1.670  1.0116 -2.0272  0.6537
   19CHTO   N12 7845   4.211   7.861  -1.600 -0.1843  0.2861 -0.7325
   19CHTO  H110 7846   4.202   7.814  -1.697  0.0633  0.6813 -0.9506
   19CHTO  H111 7847   4.121   7.849  -1.541  0.8429 -2.3346  0.3228
   19CHTO   C69 7848   4.115   8.080  -1.697 -0.1051  0.4026 -0.6904
   19CHTO  H126 7849   4.021   8.064  -1.641  1.3134 -0.9189  1.4086
   19CHTO   O41 7850   4.139   8.229  -1.718  0.0091  0.0475  0.3338
   19CHTO   C64 7851   4.156   8.302  -1.591 -0.6204 -0.2788 -0.3331
   19CHTO  H121 7852   4.063   8.293  -1.530 -1.1704  1.2840 -0.9222
   19CHTO   C71 7853   4.163   8.450  -1.625 -0.0532  0.2143 -0.7093
   19CHTO   O47 7854   4.203   8.532  -1.518  0.0162 -0.2450 -0.0623
   19CHTO  H104 7855   4.276   8.490  -1.478  0.7970  2.9535  2.1291
   19CHTO   O34 7856   4.103   8.012  -1.832 -0.3498 -0.0319 -0.1718
   19CHTO   C49 7857   4.029   7.980  -1.955 -0.2653  0.5247 -0.3256
   19CHTO   H91 7858   3.927   8.017  -1.945  0.0152  0.9233  1.1908
   19CHTO   C47 7859   4.028   7.825  -1.958  0.2720 -0.3364  0.3073
   19CHTO   H89 7860   3.972   7.803  -2.051 -0.4153 -0.5025  0.7621
   19CHTO   O33 7861   3.952   7.764  -1.848 -0.1100  0.6125 -0.3124
   19CHTO   H70 7862   3.999   7.776  -1.768 -1.4849 -0.9941  0.7627
   19CHTO   C45 7863   4.175   7.753  -1.976 -0.1225  0.4213  0.5571
   19CHTO   H87 7864   4.215   7.732  -1.876 -0.4495 -1.4890  0.3039
   19CHTO    N8 7865   4.160   7.623  -2.046 -0.3955  0.7469  0.0417
   19CHTO   H75 7866   4.117   7.634  -2.144 -0.2926  0.3825 -0.0429
   19CHTO   H76 7867   4.095   7.560  -1.989  1.2008 -1.5140 -0.5690
   19CHTO   C43 7868   4.276   7.864  -2.030  0.3822  1.0307 -0.6016
   19CHTO   H85 7869   4.306   7.916  -1.939 -1.4686  0.0907  0.5815
   19CHTO   O29 7870   4.218   7.960  -2.124  0.4044 -0.4784 -0.4624
   19CHTO   C50 7871   4.114   8.040  -2.069 -0.6247 -0.3789  0.2191
   19CHTO   H92 7872   4.158   8.136  -2.040  2.7397 -1.0019 -2.4662
   19CHTO   C54 7873   4.014   8.077  -2.185  0.0543 -0.2708 -0.2863
   19CHTO   O36 7874   4.085   8.154  -2.286 -0.1447  0.1938 -0.4761
   19CHTO   H72 7875   4.139   8.097  -2.337 -0.4488 -0.1245 -0.4507
   19CHTO   O27 7876   4.390   7.802  -2.085 -0.0389  0.7346  0.2120
   19CHTO   C37 7877   4.531   7.833  -2.090 -0.3096 -0.1137 -0.2032
   19CHTO   H79 7878   4.588   7.763  -2.154  1.6483  0.4528  0.8819
   19CHTO   C38 7879   4.553   7.978  -2.138 -0.2510 -0.3541  0.6322
   19CHTO   H80 7880   4.493   8.048  -2.078  0.3969  0.4659  0.3443
   19CHTO   O31 7881   4.528   8.000  -2.280  1.1161  0.6678 -0.4825
   19CHTO   H68 7882   4.444   7.965  -2.303  1.0132  0.3522  0.3809
   19CHTO   C39 7883   4.704   8.030  -2.111  0.1766  0.0145 -0.3266
   19CHTO   H81 7884   4.766   7.971  -2.178 -0.2258  1.0486 -1.6228
   19CHTO    N7 7885   4.723   8.181  -2.140  0.4832  0.2483 -0.0014
   19CHTO   H73 7886   4.644   8.210  -2.209  1.3645  1.3586 -0.5621
   19CHTO   H74 7887   4.710   8.238  -2.049 -1.9411 -0.3753  0.0887
   19CHTO   C40 7888   4.760   7.994  -1.968 -0.1347 -0.2388 -0.8316
   19CHTO   H82 7889   4.724   8.061  -1.891  1.0397 -2.4496  1.7230
   19CHTO   O26 7890   4.732   7.859  -1.936  0.4924 -0.4848  0.4149
   19CHTO   C41 7891   4.594   7.823  -1.946 -0.2716 -0.0731 -0.1805
   19CHTO   H83 7892   4.539   7.900  -1.890  1.0000  0.0340  0.9477
   19CHTO   C52 7893   4.568   7.682  -1.888  0.2660  0.0971  0.1418
   19CHTO   O35 7894   4.624   7.664  -1.758 -0.6917 -0.0613  0.2718
   19CHTO   H71 7895   4.593   7.582  -1.725  0.8043 -1.2420 -1.2120
   19CHTO   O28 7896   4.904   8.000  -1.972 -0.2989 -0.0501 -0.5170
   19CHTO   C42 7897   4.986   8.041  -1.862 -0.0654 -0.5086 -0.0683
   19CHTO   H84 7898   4.921   8.037  -1.774  1.7299  1.1359  1.3736
   19CHTO   C44 7899   5.047   8.188  -1.865  0.7436 -0.2110 -0.1763
   19CHTO   H86 7900   5.103   8.199  -1.958  0.6309 -0.1093 -0.2323
   19CHTO   O32 7901   4.932   8.282  -1.864  0.2249 -0.5231  0.4509
   19CHTO   H69 7902   4.867   8.284  -1.797  1.7525  1.9991  1.9506
   19CHTO   C48 7903   5.164   8.227  -1.764 -0.0552 -0.1390  0.0140
   19CHTO   H90 7904   5.131   8.251  -1.663 -2.7786 -1.6366 -0.4796
   19CHTO    N9 7905   5.234   8.355  -1.805 -0.7271  0.0681 -0.2869
   19CHTO   H77 7906   5.190   8.438  -1.753 -0.6157 -0.0585  0.0103
   19CHTO   H78 7907   5.341   8.341  -1.802 -0.6180  0.3434 -2.3224
   19CHTO   C51 7908   5.261   8.097  -1.758 -0.5425  0.2372 -0.1040
   19CHTO   H93 7909   5.315   8.091  -1.853 -0.2863  0.9069 -0.0049
   19CHTO   O30 7910   5.189   7.977  -1.726 -0.5472 -0.1297  0.0010
   19CHTO   C46 7911   5.099   7.936  -1.832  0.3712  0.2583 -0.7038
   19CHTO   H88 7912   5.159   7.924  -1.923  1.5612  1.0111 -0.0310
   19CHTO   C53 7913   5.037   7.796  -1.801 -0.2970 -0.1247  0.1968
   19CHTO   O72 7914   4.970   7.795  -1.676 -0.0031  0.2831  0.2678
   19CHTO  H199 7915   4.984   7.718  -1.623  2.5410 -0.4573 -1.3895
   19CHTO   O22 7916   5.357   8.105  -1.653  0.4207 -0.1168  0.1118
   19CHTO   C31 7917   5.499   8.088  -1.677 -0.7968  0.2437  0.8433
   19CHTO   H59 7918   5.520   8.115  -1.782  1.0485 -0.6382  0.9604
   19CHTO   C29 7919   5.586   8.181  -1.583  0.9132  0.2808  0.2124
   19CHTO   H57 7920   5.567   8.147  -1.480  1.8346 -0.5642  0.1094
   19CHTO   O21 7921   5.527   8.310  -1.585 -0.2956 -0.2391 -0.1851
   19CHTO   H37 7922   5.557   8.360  -1.512 -1.2223  1.7200 -1.0944
   19CHTO   C27 7923   5.733   8.180  -1.609  0.8373  0.1508  0.5060
   19CHTO   H55 7924   5.755   8.214  -1.712 -0.7672  1.7622  0.6689
   19CHTO    N5 7925   5.824   8.258  -1.513 -0.1692 -0.1294 -0.1344
   19CHTO   H43 7926   5.807   8.245  -1.408  0.1561  1.0583  0.0720
   19CHTO   H44 7927   5.837   8.363  -1.534 -1.3883 -0.1837 -1.2220
   19CHTO   C25 7928   5.774   8.023  -1.594  0.2764 -0.1722  0.1584
   19CHTO   H53 7929   5.764   7.991  -1.489 -0.6480 -1.1322 -0.2055
   19CHTO   O17 7930   5.693   7.936  -1.672 -0.1628  0.5188 -0.7862
   19CHTO   C32 7931   5.551   7.944  -1.651  0.3326  0.1892 -0.1528
   19CHTO   H60 7932   5.532   7.915  -1.547 -0.1926 -1.2567 -0.6383
   19CHTO   C36 7933   5.493   7.839  -1.750 -0.0717 -0.4074 -0.1594
   19CHTO   O25 7934   5.488   7.888  -1.886  0.2988  0.7114 -0.9166
   19CHTO   H40 7935   5.427   7.958  -1.882 -2.7614 -1.9349  2.3370
   19CHTO   O15 7936   5.896   8.002  -1.650 -0.1407  0.0301 -0.5606
   19CHTO   C19 7937   6.022   7.947  -1.682  0.6973  0.5059 -0.5712
   19CHTO   H47 7938   6.078   8.023  -1.737 -1.1998  1.4026 -1.2647
   19CHTO   C20 7939   6.112   7.917  -1.555  0.3860  0.2647 -0.7455
   19CHTO   H48 7940   6.072   7.835  -1.494  1.9812  0.4799  0.5998
   19CHTO   O19 7941   6.127   8.039  -1.473  0.1282 -0.2429  0.2313
   19CHTO   H35 7942   6.157   8.028  -1.385  0.9137  2.8129  0.4240
   19CHTO   C21 7943   6.259   7.861  -1.603  0.1971 -0.0838 -0.1824
   19CHTO   H49 7944   6.314   7.943  -1.650  1.3164 -1.7047 -1.7822
   19CHTO    N4 7945   6.341   7.814  -1.487  0.2222  0.4641 -0.3745
   19CHTO   H41 7946   6.406   7.894  -1.455 -1.3011  1.7498 -0.4382
   19CHTO   H42 7947   6.403   7.732  -1.520  0.5032  0.5788 -0.1382
   19CHTO   C22 7948   6.231   7.744  -1.700 -0.0700  0.9817  0.2684
   19CHTO   H50 7949   6.179   7.662  -1.649  0.1603  1.1298  0.7487
   19CHTO   O14 7950   6.149   7.788  -1.808  0.4026 -0.2975 -0.0527
   19CHTO   C23 7951   6.016   7.824  -1.764  0.1912 -0.1203 -0.9124
   19CHTO   H51 7952   5.968   7.741  -1.710 -0.5110  1.3177  0.7556
   19CHTO   C34 7953   5.941   7.847  -1.891  0.1982  0.6364  0.2528
   19CHTO   O23 7954   5.964   7.746  -1.989 -0.0278  0.4789  0.6172
   19CHTO   H38 7955   5.904   7.756  -2.060  1.1162  2.5652 -0.1074
   19CHTO   O16 7956   6.353   7.687  -1.753  0.0920 -0.1817  0.5853
   19CHTO   C24 7957   6.375   7.558  -1.826  0.4851  0.2221  0.3503
   19CHTO   H52 7958   6.454   7.564  -1.901 -0.1040 -2.2157 -0.5085
   19CHTO   C26 7959   6.248   7.519  -1.908 -0.0811 -0.0153  0.4922
   19CHTO   H54 7960   6.157   7.519  -1.845 -0.6468  1.4691 -0.3072
   19CHTO   O20 7961   6.228   7.616  -2.013  0.3120  0.3152 -0.6692
   19CHTO   H36 7962   6.264   7.701  -1.995  0.1080  0.0163  1.2526
   19CHTO   C30 7963   6.258   7.377  -1.974  0.5608 -0.5561  0.1427
   19CHTO   H58 7964   6.333   7.382  -2.053  1.3933  0.8957  0.9931
   19CHTO    N6 7965   6.129   7.325  -2.035 -0.2334  1.0965  0.1748
   19CHTO   H45 7966   6.043   7.335  -1.971 -0.5603 -3.1018  0.4813
   19CHTO   H46 7967   6.146   7.220  -2.053 -0.8148  0.8334  1.1292
   19CHTO   C33 7968   6.307   7.275  -1.863  0.0408 -0.5451 -0.1385
   19CHTO   H61 7969   6.231   7.267  -1.784 -0.0930  0.6628 -0.1267
   19CHTO   O18 7970   6.429   7.326  -1.802 -0.1623  0.4973  0.7578
   19CHTO   C28 7971   6.413   7.449  -1.729 -0.8798 -0.1011 -0.6134
   19CHTO   H56 7972   6.335   7.435  -1.653  0.1232 -0.1058  0.4343
   19CHTO   C35 7973   6.545   7.481  -1.654 -0.6123  0.6443 -0.6185
   19CHTO   O24 7974   6.549   7.432  -1.520 -0.2461 -0.1284  0.6825
   19CHTO   H39 7975   6.508   7.496  -1.464 -0.1294 -0.6104  1.3222
   19CHTO    O9 7976   6.317   7.142  -1.917 -0.0780  0.1794  0.0234
   19CHTO   C13 7977   6.334   7.023  -1.808 -0.5359 -1.2418 -0.4308
   19CHTO   H26 7978   6.297   7.053  -1.707  0.2758  1.6508 -0.9402
   19CHTO   C11 7979   6.487   6.997  -1.806  0.6379  0.0366 -1.0600
   19CHTO   H24 7980   6.537   7.078  -1.751 -0.6272  0.4997 -0.5908
   19CHTO    O8 7981   6.533   7.005  -1.941 -0.2807  0.1359  0.3646
   19CHTO    H3 7982   6.527   7.090  -1.979  0.6318  1.2732  2.6911
   19CHTO    C9 7983   6.516   6.859  -1.743 -0.2072  0.7598  0.3787
   19CHTO   H22 7984   6.475   6.864  -1.641  0.2719  1.3623  0.5456
   19CHTO    N2 7985   6.656   6.843  -1.708 -0.3889 -0.0486 -0.3724
   19CHTO   H10 7986   6.687   6.752  -1.658 -1.8453  0.6318  1.8730
   19CHTO   H11 7987   6.684   6.929  -1.648  0.2349 -0.7230  0.3121
   19CHTO    C7 7988   6.447   6.743  -1.816  1.1205 -0.2946 -0.1738
   19CHTO   H20 7989   6.411   6.681  -1.732 -1.6984  0.1225 -1.0378
   19CHTO    O4 7990   6.339   6.790  -1.899 -0.1678  0.6987  0.0303
   19CHTO   C14 7991   6.249   6.888  -1.846 -0.5639 -0.3694 -0.7633
   19CHTO   H27 7992   6.211   6.849  -1.749  0.1739 -1.0822 -0.7567
   19CHTO   C18 7993   6.130   6.915  -1.939 -0.3738 -0.0617  0.1032
   19CHTO   O13 7994   6.054   6.796  -1.974  0.2528 -0.3502 -0.1119
   19CHTO    H7 7995   6.022   6.769  -1.890  0.1253  2.6759  0.8730
   19CHTO    O2 7996   6.542   6.648  -1.903 -0.5618  0.2245  0.2257
   19CHTO    C1 7997   6.481   6.544  -1.976 -0.4771 -0.9471 -0.2521
   19CHTO   H14 7998   6.371   6.535  -1.978 -0.7836  1.9402  1.2598
   19CHTO    C2 7999   6.543   6.407  -1.926  0.2079  0.6760 -0.2990
   19CHTO   H15 8000   6.652   6.416  -1.934  0.3383  1.7874  2.2491
   19CHTO    O6 8001   6.495   6.393  -1.792  0.0867 -0.1666 -0.0255
   19CHTO    H1 8002   6.412   6.350  -1.781 -1.2927  2.1743 -0.9392
   19CHTO    C3 8003   6.493   6.278  -2.015  0.0800  0.4640 -0.4320
   19CHTO   H16 8004   6.386   6.265  -1.993  0.3247 -0.0857  0.4434
   19CHTO    N1 8005   6.561   6.148  -1.968 -1.0138  0.3603  0.0075
   19CHTO    H8 8006   6.576   6.080  -2.050 -0.1552  0.0482  0.4215
   19CHTO    H9 8007   6.505   6.099  -1.889  1.1007  2.6749  3.0694
   19CHTO    C4 8008   6.505   6.313  -2.164  0.0279 -0.1017 -0.4618
   19CHTO   H17 8009   6.611   6.311  -2.191  0.1504  1.8635 -0.2165
   19CHTO    O1 8010   6.450   6.441  -2.192  0.1303 -0.2496  0.0801
   19CHTO    C5 8011   6.515   6.549  -2.125  0.5284  0.2916 -0.2055
   19CHTO   H18 8012   6.621   6.526  -2.134  0.6341  1.8939 -3.6109
   19CHTO   C16 8013   6.482   6.675  -2.207  0.4434 -0.1656 -0.8766
   19CHTO   O11 8014   6.553   6.786  -2.152  0.3704  0.3525  0.3837
   19CHTO    H5 8015   6.502   6.864  -2.157 -0.5929 -0.2957 -0.1397
   19CHTO    O3 8016   6.424   6.235  -2.255  0.1832 -0.0842 -0.1073
   19CHTO    C6 8017   6.489   6.202  -2.386 -0.4639  0.5987  0.6071
   19CHTO   H19 8018   6.563   6.274  -2.423 -0.6309  0.0456 -0.8412
   19CHTO    C8 8019   6.563   6.062  -2.359  0.0918 -0.0932  0.0731
   19CHTO   H21 8020   6.501   5.999  -2.295  0.1605  1.4625  1.7180
   19CHTO    O7 8021   6.686   6.098  -2.290 -0.3536  0.1199  0.0340
   19CHTO    H2 8022   6.670   6.129  -2.203 -1.0092 -0.6504  0.1949
   19CHTO   C12 8023   6.592   5.986  -2.494 -0.2420  0.3821  0.2835
   19CHTO   H25 8024   6.667   6.045  -2.551 -0.8050  0.4550 -0.3883
   19CHTO    N3 8025   6.658   5.849  -2.474 -0.2224 -0.5535 -0.1776
   19CHTO   H12 8026   6.684   5.805  -2.569  0.2481 -0.3628 -0.1367
   19CHTO   H13 8027   6.597   5.779  -2.419 -1.1046  0.2160 -0.1766
   19CHTO   C15 8028   6.465   5.990  -2.579  0.7903 -0.4719 -0.1087
   19CHTO   H28 8029   6.381   5.928  -2.544  0.6744 -0.0506  0.3614
   19CHTO   O10 8030   6.487   5.940  -2.723 -0.3424 -0.0080 -0.0601
   19CHTO    H4 8031   6.413   5.886  -2.743 -0.8513  0.8444 -0.5060
   19CHTO    O5 8032   6.422   6.130  -2.606 -0.0273 -0.1239  0.4065
   19CHTO   C10 8033   6.378   6.199  -2.488 -0.4078 -0.0128  0.5827
   19CHTO   H23 8034   6.293   6.142  -2.450 -0.6884  0.7199  1.0826
   19CHTO   C17 8035   6.347   6.335  -2.550 -0.5487 -0.0525  0.2898
   19CHTO   O12 8036   6.360   6.450  -2.464 -0.0769 -0.4318  0.6565
   19CHTO    H6 8037   6.330   6.526  -2.509  3.6630  0.9604  0.3045
   20CHTO  H203 8038   6.370   1.642   8.655 -1.8977  0.9226  1.3688
   20CHTO   O82 8039   6.393   1.718   8.605 -0.0519 -0.6060 -0.2016
   20CHTO  C123 8040   6.291   1.816   8.639 -0.1830  0.0342  0.3475
   20CHTO  H227 8041   6.239   1.789   8.733 -2.0168  0.1053 -0.6092
   20CHTO   O77 8042   6.359   1.945   8.660  0.4111 -0.4560 -0.4520
   20CHTO  C118 8043   6.275   2.052   8.709 -0.3810  1.0521 -0.1456
   20CHTO  H222 8044   6.211   2.016   8.791 -1.4940  0.8792 -1.0710
   20CHTO  C125 8045   6.373   2.154   8.761 -0.4816 -0.3655  0.2568
   20CHTO   O84 8046   6.435   2.102   8.879 -0.1702  0.7756 -0.4334
   20CHTO  H205 8047   6.377   2.071   8.946  1.9044  0.2948  1.1967
   20CHTO  C114 8048   6.185   2.091   8.589  0.8054  0.4249  0.3995
   20CHTO  H218 8049   6.243   2.120   8.501 -2.0410 -1.2735 -2.1723
   20CHTO  C116 8050   6.103   1.977   8.544 -0.3168 -0.6256  0.5161
   20CHTO  H220 8051   6.017   1.959   8.611  0.7697 -0.3104  2.0057
   20CHTO   O79 8052   6.044   2.004   8.414 -0.5594  0.9431  0.4032
   20CHTO  H201 8053   6.110   2.042   8.359 -0.2789  0.5241  0.4437
   20CHTO  C120 8054   6.190   1.844   8.522  0.1077 -0.0000 -0.0072
   20CHTO  H224 8055   6.255   1.855   8.433 -0.5397  0.7284 -0.3931
   20CHTO   N21 8056   6.109   1.721   8.494 -0.1582  0.0021 -0.2657
   20CHTO  H211 8057   6.014   1.751   8.453  0.2855  0.7576 -0.7732
   20CHTO  H212 8058   6.156   1.652   8.427  0.9451 -0.6191  1.1047
   20CHTO   O75 8059   6.101   2.200   8.632  0.4211 -0.4182  0.1573
   20CHTO  C112 8060   6.110   2.336   8.539  0.1198  1.0641  0.0086
   20CHTO  H216 8061   6.139   2.302   8.439  0.7231 -0.9200  0.8299
   20CHTO   O73 8062   6.209   2.420   8.600 -0.4320 -0.1305 -0.2715
   20CHTO  C113 8063   6.236   2.536   8.524 -0.1990  0.1036  0.2859
   20CHTO  H217 8064   6.258   2.506   8.419 -1.3134 -2.0725  0.6459
   20CHTO  C124 8065   6.356   2.600   8.589 -0.4633 -0.4802 -0.1257
   20CHTO   O83 8066   6.468   2.512   8.605  0.0461 -0.2007 -0.2758
   20CHTO  H204 8067   6.456   2.453   8.678  2.6754  0.8097  1.0275
   20CHTO  C109 8068   6.112   2.628   8.523 -0.5233  0.1909 -0.0649
   20CHTO  H213 8069   6.085   2.645   8.629 -0.2340 -1.0454  0.2194
   20CHTO  C110 8070   5.993   2.546   8.461  0.4826  0.6435 -0.1477
   20CHTO  H214 8071   5.999   2.536   8.352 -2.9244  0.1642 -0.3584
   20CHTO   O78 8072   5.871   2.624   8.472 -0.0599 -0.0794  0.1228
   20CHTO  H200 8073   5.809   2.576   8.523  0.3212  0.1128  0.7689
   20CHTO  C111 8074   5.972   2.408   8.530 -0.5054 -0.0611  0.2979
   20CHTO  H215 8075   5.940   2.431   8.633 -0.6172 -0.7596  0.4209
   20CHTO   N19 8076   5.870   2.320   8.469 -0.2348  0.1747 -0.3140
   20CHTO  H207 8077   5.894   2.294   8.367  1.8831 -0.6505  0.3642
   20CHTO  H208 8078   5.849   2.229   8.523 -0.1784  0.0006 -0.5866
   20CHTO   O74 8079   6.137   2.753   8.461 -0.3445 -0.1868  0.3970
   20CHTO  C115 8080   6.052   2.879   8.514 -0.7710 -0.1498  0.2952
   20CHTO  H219 8081   5.965   2.849   8.571  1.1831  0.7286  3.8900
   20CHTO   O76 8082   6.135   2.968   8.614 -0.0479 -0.3672 -0.3553
   20CHTO  C122 8083   6.268   3.006   8.570 -0.8977  0.4838 -0.1474
   20CHTO  H226 8084   6.340   2.924   8.565 -0.7994  0.5479  0.2375
   20CHTO  C126 8085   6.321   3.106   8.673 -0.6895  0.2570 -0.6275
   20CHTO   O85 8086   6.451   3.165   8.632  0.9957 -0.1625 -0.3854
   20CHTO  H206 8087   6.522   3.115   8.667 -0.6765 -1.6928  0.9198
   20CHTO  C121 8088   6.265   3.052   8.411  0.0585 -0.5832  0.0450
   20CHTO  H225 8089   6.333   3.139   8.396  0.2773 -0.9679 -1.2772
   20CHTO   O81 8090   6.311   2.946   8.324 -0.1301 -0.1035  0.8322
   20CHTO  H202 8091   6.233   2.911   8.284  0.4452 -0.1621 -0.2503
   20CHTO  C119 8092   6.122   3.090   8.372  0.1001  0.2725  0.1989
   20CHTO  H223 8093   6.090   3.166   8.444  1.5258 -1.1831  2.4402
   20CHTO  C117 8094   6.016   2.968   8.390 -0.0810  0.0794  0.4649
   20CHTO  H221 8095   6.021   2.890   8.314 -0.4750  0.0257  0.4907
   20CHTO   N20 8096   5.877   3.013   8.386 -0.1462 -0.6108 -0.1174
   20CHTO  H209 8097   5.825   3.009   8.481 -0.3222  0.5949 -0.1546
   20CHTO  H210 8098   5.873   3.120   8.373 -1.7399 -0.2293  2.9285
   20CHTO   O80 8099   6.111   3.163   8.235 -0.1866 -0.3405 -0.4628
   20CHTO  C103 8100   6.124   3.326   8.226 -0.1199  0.3007  0.4321
   20CHTO  H190 8101   6.045   3.386   8.270 -0.5224  0.7351 -0.8390
   20CHTO  C101 8102   6.252   3.395   8.283  0.1901  0.2667  0.5064
   20CHTO  H188 8103   6.331   3.325   8.255  0.1119 -0.0454  1.0451
   20CHTO   O68 8104   6.233   3.394   8.429 -0.3376 -0.7311 -0.0082
   20CHTO  H168 8105   6.147   3.423   8.452 -0.8762 -3.7311  1.9918
   20CHTO   C99 8106   6.262   3.548   8.231  0.1572  0.9926  0.4724
   20CHTO  H186 8107   6.175   3.601   8.274  0.2447  2.5302 -1.1718
   20CHTO   N17 8108   6.385   3.622   8.277  0.3282 -0.3117  0.3813
   20CHTO  H174 8109   6.470   3.556   8.264  1.8857  1.0193  3.4250
   20CHTO  H175 8110   6.383   3.665   8.376 -0.4303  1.5511 -0.4238
   20CHTO   C97 8111   6.244   3.541   8.079 -0.0227  0.4408 -0.1143
   20CHTO  H184 8112   6.325   3.486   8.029  1.0225  0.3208  1.6598
   20CHTO   O64 8113   6.111   3.491   8.048  0.1763 -0.1560 -0.0205
   20CHTO  C104 8114   6.110   3.354   8.070  0.4561  0.1106 -0.7432
   20CHTO  H191 8115   6.192   3.305   8.017  0.3318 -1.0387  0.1131
   20CHTO  C108 8116   5.983   3.283   8.025 -0.0694 -0.0338 -0.3435
   20CHTO   O71 8117   5.947   3.320   7.892  0.0590 -0.2372 -0.4775
   20CHTO  H171 8118   5.922   3.410   7.882 -2.3337 -0.8900 -0.6661
   20CHTO   O62 8119   6.239   3.672   8.021  0.5329  0.1377  0.1062
   20CHTO   C91 8120   6.231   3.679   7.876  0.1083 -0.4376 -0.5927
   20CHTO  H178 8121   6.230   3.578   7.836  1.5561 -0.2671 -1.0798
   20CHTO   C92 8122   6.364   3.729   7.816  0.2261 -0.2088  0.1213
   20CHTO  H179 8123   6.384   3.832   7.848  0.1530  0.4393 -1.8571
   20CHTO   O66 8124   6.471   3.650   7.870  0.6007 -0.0614 -0.0345
   20CHTO  H166 8125   6.482   3.683   7.957  0.0167  1.0383 -0.3638
   20CHTO   C93 8126   6.364   3.716   7.658 -0.3099  0.1097 -0.1831
   20CHTO  H180 8127   6.371   3.608   7.639  1.9977  0.2690 -0.3186
   20CHTO   N16 8128   6.482   3.769   7.592 -0.3672 -0.1187  0.3619
   20CHTO  H172 8129   6.518   3.860   7.638 -1.9910  1.3928 -1.2995
   20CHTO  H173 8130   6.459   3.786   7.488  1.0772  0.1531  0.0772
   20CHTO   C94 8131   6.233   3.771   7.596 -1.1230  0.1432  0.7401
   20CHTO  H181 8132   6.223   3.879   7.606  0.5177  0.5149 -1.3011
   20CHTO   O61 8133   6.119   3.728   7.671 -0.2690 -0.0420 -0.4983
   20CHTO   C95 8134   6.115   3.758   7.810 -0.0564  0.1018 -0.1876
   20CHTO  H182 8135   6.127   3.866   7.823  0.6683  0.1018 -0.8776
   20CHTO  C106 8136   5.974   3.724   7.868 -0.2010 -1.1009  0.5113
   20CHTO   O69 8137   5.935   3.813   7.975 -0.3737  0.0193 -0.0755
   20CHTO  H169 8138   5.843   3.831   7.963 -0.2156 -0.2187 -1.8252
   20CHTO   O63 8139   6.216   3.736   7.437 -0.1695 -0.3367  0.4348
   20CHTO   C96 8140   6.231   3.598   7.405  0.9572  0.2950 -0.7562
   20CHTO  H183 8141   6.261   3.536   7.490  0.4964 -0.4681 -1.1517
   20CHTO   C98 8142   6.344   3.566   7.301 -0.3228 -0.4238 -0.1350
   20CHTO  H185 8143   6.435   3.611   7.344 -0.7115  0.7510 -0.4972
   20CHTO   O67 8144   6.373   3.430   7.291  0.4026 -0.1620  0.3147
   20CHTO  H167 8145   6.297   3.375   7.287  0.3650  0.0087 -1.9910
   20CHTO  C102 8146   6.310   3.617   7.155  0.0573  0.1135 -0.1496
   20CHTO  H189 8147   6.375   3.561   7.085  1.9253  2.8970 -0.7118
   20CHTO   N18 8148   6.343   3.756   7.130  0.4589 -0.1348  0.5411
   20CHTO  H176 8149   6.291   3.815   7.204 -0.5354  1.5360 -1.4478
   20CHTO  H177 8150   6.316   3.785   7.029  0.0004 -1.4757  0.2651
   20CHTO  C105 8151   6.158   3.587   7.131  0.3017  0.5407  0.0701
   20CHTO  H192 8152   6.096   3.676   7.144 -2.7108 -1.3726 -0.6726
   20CHTO   O65 8153   6.099   3.483   7.214  0.1339 -0.9200 -0.5889
   20CHTO  C100 8154   6.092   3.525   7.356 -0.1238  0.5761  0.5332
   20CHTO  H187 8155   6.013   3.600   7.364 -0.8835 -0.1409 -0.0964
   20CHTO  C107 8156   6.050   3.405   7.444  0.4195 -0.1839 -0.6127
   20CHTO   O70 8157   5.928   3.342   7.398  0.0419 -0.0947  0.1225
   20CHTO  H170 8158   5.907   3.263   7.445  3.1382 -1.5347 -0.7516
   20CHTO   O57 8159   6.149   3.541   6.968 -0.0458  0.1220 -0.9484
   20CHTO   C85 8160   6.030   3.571   6.894  0.0303  0.3230  0.3318
   20CHTO  H157 8161   6.016   3.677   6.926 -2.1797  0.8357 -2.2176
   20CHTO   C83 8162   5.910   3.489   6.955 -0.1574 -0.0924 -0.0889
   20CHTO  H155 8163   5.905   3.510   7.062 -2.8907  1.4990 -0.4630
   20CHTO   O56 8164   5.935   3.347   6.945 -0.0867  0.2230 -0.3669
   20CHTO  H135 8165   5.856   3.298   6.954 -0.7161  0.9548 -1.7123
   20CHTO   C81 8166   5.783   3.540   6.890  0.6775  0.2741  0.2096
   20CHTO  H153 8167   5.770   3.646   6.915 -0.4634 -0.1533  1.4638
   20CHTO   N14 8168   5.659   3.481   6.956  0.9384 -0.7460 -0.3195
   20CHTO  H141 8169   5.665   3.510   7.058  0.8596  0.3127 -0.6050
   20CHTO  H142 8170   5.664   3.374   6.950 -1.3922 -0.8601 -0.7484
   20CHTO   C79 8171   5.788   3.513   6.735  0.9384 -0.3042  0.0606
   20CHTO  H151 8172   5.702   3.565   6.692  1.0668  0.3187  0.5564
   20CHTO   O52 8173   5.899   3.577   6.670 -0.5503  0.0988  0.2801
   20CHTO   C86 8174   6.029   3.558   6.729 -0.0203  0.4506  0.7101
   20CHTO  H158 8175   6.068   3.459   6.698  0.3094  0.4895  0.9994
   20CHTO   C90 8176   6.127   3.655   6.657 -0.3005  0.1785 -0.6040
   20CHTO   O60 8177   6.250   3.655   6.727  0.2601 -0.4224 -0.4029
   20CHTO  H138 8178   6.241   3.732   6.779 -1.0555 -0.4804 -0.5424
   20CHTO   O50 8179   5.800   3.372   6.703  0.6693 -0.1278 -0.0151
   20CHTO   C73 8180   5.824   3.282   6.590  0.5410 -0.5996 -0.2689
   20CHTO  H145 8181   5.921   3.306   6.545 -0.0144  2.5317  0.0524
   20CHTO   C74 8182   5.712   3.297   6.483 -0.1447 -0.4017 -1.1336
   20CHTO  H146 8183   5.710   3.406   6.467 -1.0031 -0.1675  0.4975
   20CHTO   O54 8184   5.746   3.231   6.358 -0.4279  0.0269  0.1051
   20CHTO  H133 8185   5.721   3.281   6.283  0.6724  1.5752  0.7483
   20CHTO   C75 8186   5.573   3.244   6.545  0.3923  0.0735  0.0088
   20CHTO  H147 8187   5.548   3.306   6.632 -0.4513 -0.6721  0.2986
   20CHTO   N13 8188   5.461   3.240   6.452  0.0815  0.0761  0.1864
   20CHTO  H139 8189   5.459   3.328   6.390 -0.3297 -0.0155  0.0639
   20CHTO  H140 8190   5.370   3.225   6.508  0.3891 -0.4797  0.5427
   20CHTO   C76 8191   5.592   3.102   6.609  0.7244 -0.6412 -0.4309
   20CHTO  H148 8192   5.610   3.037   6.523  1.9487 -0.5963 -0.2229
   20CHTO   O49 8193   5.705   3.098   6.703  0.1432  0.0615  0.5358
   20CHTO   C77 8194   5.824   3.131   6.633 -0.0454 -0.0985 -0.0250
   20CHTO  H149 8195   5.836   3.070   6.544 -0.6828  0.1672 -0.2998
   20CHTO   C88 8196   5.952   3.103   6.716 -0.0470 -0.2730 -0.4601
   20CHTO   O58 8197   6.061   3.086   6.612 -0.5166  0.8233 -0.4827
   20CHTO  H136 8198   6.031   3.053   6.530 -2.2841 -0.3743  0.6061
   20CHTO   O51 8199   5.461   3.041   6.705  0.4300  0.0970 -0.0979
   20CHTO   C78 8200   5.493   2.891   6.776 -0.3093 -0.4247  0.0335
   20CHTO  H150 8201   5.599   2.887   6.810  0.0155  0.2555 -0.8854
   20CHTO   C80 8202   5.471   2.766   6.688 -0.0909  0.2693  0.0496
   20CHTO  H152 8203   5.366   2.766   6.652 -0.7197  2.9888  1.7042
   20CHTO   O55 8204   5.541   2.796   6.570 -0.1809  0.3035  0.2514
   20CHTO  H134 8205   5.531   2.721   6.513  1.0969 -1.0908  1.8046
   20CHTO   C84 8206   5.512   2.629   6.765  0.4354 -1.6390 -0.6207
   20CHTO  H156 8207   5.619   2.637   6.781  0.5592 -1.6523 -1.4244
   20CHTO   N15 8208   5.494   2.508   6.679  0.1797  0.0233  0.3264
   20CHTO  H143 8209   5.392   2.510   6.646  0.5819  2.0853 -0.8610
   20CHTO  H144 8210   5.558   2.513   6.593 -1.0625 -0.6197 -0.6539
   20CHTO   C87 8211   5.426   2.620   6.894 -0.0476 -0.6575  0.7482
   20CHTO  H159 8212   5.322   2.600   6.869 -0.3773  1.1719  0.5760
   20CHTO   O53 8213   5.440   2.761   6.972  0.1754  0.0799  0.5478
   20CHTO   C82 8214   5.402   2.873   6.899 -0.6149  0.6523  0.1297
   20CHTO  H154 8215   5.298   2.865   6.867 -0.7853  1.5786  0.4383
   20CHTO   C89 8216   5.411   3.005   6.983  0.4152  0.2917 -0.5414
   20CHTO   O59 8217   5.295   3.017   7.064  0.1714 -0.2346 -0.0858
   20CHTO  H137 8218   5.227   3.066   7.022 -0.7303 -0.8630  0.6149
   20CHTO   O45 8219   5.480   2.522   6.985  0.0695  0.3422 -0.0768
   20CHTO   C67 8220   5.437   2.519   7.121 -0.6884  0.0593  0.3095
   20CHTO  H124 8221   5.388   2.612   7.148 -2.2430 -0.5190 -0.4764
   20CHTO   C65 8222   5.325   2.411   7.128 -0.1641 -0.2431 -0.1953
   20CHTO  H122 8223   5.345   2.328   7.059 -2.8013 -0.1126 -1.1470
   20CHTO   O44 8224   5.210   2.483   7.073 -0.2872  0.2966 -0.0382
   20CHTO  H102 8225   5.163   2.526   7.142  0.1529 -0.9172  1.0262
   20CHTO   C63 8226   5.306   2.338   7.269  0.2856 -0.0035 -0.2586
   20CHTO  H120 8227   5.384   2.262   7.275 -0.2452 -0.7144 -2.1279
   20CHTO   N11 8228   5.179   2.255   7.289  0.3917 -0.4109 -0.1150
   20CHTO  H108 8229   5.093   2.319   7.284  1.0650  0.6322  1.2841
   20CHTO  H109 8230   5.172   2.176   7.217  0.0416 -1.5823  1.1689
   20CHTO   C61 8231   5.342   2.437   7.385  0.1385 -0.4451  0.0589
   20CHTO  H118 8232   5.347   2.380   7.479 -1.1193 -0.6167  0.0304
   20CHTO   O40 8233   5.474   2.496   7.362 -0.1263 -0.1024  0.3330
   20CHTO   C68 8234   5.545   2.491   7.231 -0.1794 -0.3967 -0.1836
   20CHTO  H125 8235   5.578   2.386   7.216 -0.5201 -0.5542  0.1521
   20CHTO   C72 8236   5.664   2.585   7.210 -0.2986  0.3667 -0.4479
   20CHTO   O48 8237   5.633   2.718   7.190 -0.3293  0.0864  0.3092
   20CHTO  H105 8238   5.710   2.754   7.151 -0.0410  0.2461  1.0269
   20CHTO   O38 8239   5.237   2.539   7.399 -0.2872 -0.5963  0.3995
   20CHTO   C55 8240   5.230   2.602   7.530 -0.2060  0.5312 -0.1359
   20CHTO  H112 8241   5.327   2.603   7.581 -1.0072  0.0087  1.4017
   20CHTO   C56 8242   5.119   2.549   7.625 -0.3523  0.1931  0.1326
   20CHTO  H113 8243   5.019   2.570   7.583  0.0642  0.7297 -0.6081
   20CHTO   O42 8244   5.146   2.407   7.644 -0.0821  0.5060 -0.3092
   20CHTO  H100 8245   5.115   2.356   7.572 -0.3861 -0.4786  0.5225
   20CHTO   C57 8246   5.120   2.621   7.765  0.2893  0.2309  0.5971
   20CHTO  H114 8247   5.217   2.597   7.809  0.7663 -0.0955 -0.6119
   20CHTO   N10 8248   5.020   2.568   7.864 -0.9426  0.3246  0.8270
   20CHTO  H106 8249   4.980   2.469   7.850  0.7244 -0.1812 -0.5687
   20CHTO  H107 8250   5.023   2.596   7.968  0.7153 -0.4047  0.9943
   20CHTO   C58 8251   5.104   2.778   7.746 -0.2619  0.3407  0.4140
   20CHTO  H115 8252   4.999   2.799   7.717  0.0955 -0.2661 -1.3659
   20CHTO   O37 8253   5.199   2.813   7.643 -0.7039 -0.4494  0.4162
   20CHTO   C59 8254   5.209   2.752   7.511  0.2087 -0.3761  0.0849
   20CHTO  H116 8255   5.124   2.783   7.450  1.1515  0.9408 -0.5827
   20CHTO   C70 8256   5.329   2.820   7.433 -0.0669 -0.4235  0.1203
   20CHTO   O46 8257   5.327   2.966   7.430  0.3654 -0.0049 -0.5442
   20CHTO  H103 8258   5.308   3.008   7.512 -0.6295 -1.7067  0.1069
   20CHTO   O39 8259   5.149   2.869   7.883  0.3434  0.3071 -0.0631
   20CHTO   C60 8260   5.204   3.000   7.862  0.4525 -0.5457  0.8206
   20CHTO  H117 8261   5.306   2.985   7.826  0.0069 -2.6898  0.3655
   20CHTO   C62 8262   5.132   3.095   7.765 -0.4846 -0.6062 -0.4353
   20CHTO  H119 8263   5.137   3.052   7.663 -0.1429 -0.8226 -0.3265
   20CHTO   O43 8264   4.996   3.118   7.801  0.4213 -0.4065 -0.0918
   20CHTO  H101 8265   4.962   3.202   7.778  1.7570 -0.4954 -2.5328
   20CHTO   C66 8266   5.215   3.230   7.744  0.0935  0.1332  0.6290
   20CHTO  H123 8267   5.320   3.207   7.725 -0.4953 -1.1662 -1.0827
   20CHTO   N12 8268   5.157   3.314   7.637  0.9392 -0.2829 -0.2293
   20CHTO  H110 8269   5.188   3.284   7.538  2.6851  1.5832 -0.2731
   20CHTO  H111 8270   5.056   3.353   7.643  1.6744  1.5366  0.7070
   20CHTO   C69 8271   5.225   3.302   7.878  0.0036  0.2741 -0.3268
   20CHTO  H126 8272   5.128   3.346   7.911  1.1933  0.9309  2.4298
   20CHTO   O41 8273   5.288   3.210   7.973  0.0129 -0.6949  0.1226
   20CHTO   C64 8274   5.213   3.071   7.995  1.0125  0.1375 -0.5284
   20CHTO  H121 8275   5.108   3.088   8.027  0.5216 -3.4940  0.0646
   20CHTO   C71 8276   5.274   2.984   8.107 -0.0975 -0.5819 -0.1095
   20CHTO   O47 8277   5.268   3.049   8.236  0.0836  0.1255  0.1721
   20CHTO  H104 8278   5.274   3.141   8.222 -0.9072  0.5761  2.5081
   20CHTO   O34 8279   5.323   3.427   7.867 -0.0740 -0.2974 -0.0735
   20CHTO   C49 8280   5.417   3.505   7.927  0.0154 -0.1893 -0.3341
   20CHTO   H91 8281   5.371   3.575   7.998  2.2413  0.0379  0.9342
   20CHTO   C47 8282   5.500   3.576   7.819 -0.2267 -0.2964  0.2476
   20CHTO   H89 8283   5.568   3.646   7.872  1.2810  0.2801 -2.3598
   20CHTO   O33 8284   5.411   3.647   7.736  0.1160  0.3503  0.3088
   20CHTO   H70 8285   5.356   3.701   7.789  0.0721 -0.9511  1.6262
   20CHTO   C45 8286   5.576   3.464   7.730  0.3131 -0.7635 -0.5229
   20CHTO   H87 8287   5.505   3.444   7.648 -1.2908  1.6958  0.2051
   20CHTO    N8 8288   5.699   3.527   7.669 -0.6286 -0.1755  0.6574
   20CHTO   H75 8289   5.679   3.626   7.631  0.7503 -0.3676 -0.6097
   20CHTO   H76 8290   5.729   3.474   7.581  0.9571  1.0418  0.4480
   20CHTO   C43 8291   5.592   3.318   7.801  0.4859 -0.2926  0.0625
   20CHTO   H85 8292   5.499   3.261   7.790  1.4116 -1.6286 -0.9508
   20CHTO   O29 8293   5.619   3.349   7.944  0.0840 -0.4226  0.6722
   20CHTO   C50 8294   5.521   3.429   8.007 -0.1560  0.0531 -0.1380
   20CHTO   H92 8295   5.474   3.359   8.078 -0.3952  0.6908  0.3376
   20CHTO   C54 8296   5.588   3.524   8.110  0.0264  0.3632 -0.3386
   20CHTO   O36 8297   5.696   3.486   8.194  0.1599 -0.2438 -0.1266
   20CHTO   H72 8298   5.692   3.544   8.268 -0.6246 -0.0534 -0.3116
   20CHTO   O27 8299   5.691   3.235   7.746  0.3095  0.0537 -0.3292
   20CHTO   C37 8300   5.687   3.128   7.655 -0.2686  0.5748  0.3855
   20CHTO   H79 8301   5.610   3.063   7.699  2.5544 -1.8238  1.9302
   20CHTO   C38 8302   5.645   3.183   7.509 -0.2976 -0.0650  0.4487
   20CHTO   H80 8303   5.705   3.273   7.489  0.1005 -0.4692 -0.1671
   20CHTO   O31 8304   5.504   3.221   7.506  0.1926  0.1025 -0.3241
   20CHTO   H68 8305   5.477   3.223   7.417 -0.4300 -1.5250 -0.1909
   20CHTO   C39 8306   5.676   3.070   7.397  0.1929  0.1794 -0.2124
   20CHTO   H81 8307   5.597   2.994   7.404  0.9560 -0.8589 -2.4604
   20CHTO    N7 8308   5.677   3.125   7.255 -0.1102  0.1141  0.0181
   20CHTO   H73 8309   5.577   3.167   7.252  0.1678  0.7369 -0.7300
   20CHTO   H74 8310   5.702   3.050   7.182  2.4755  0.3791  0.5867
   20CHTO   C40 8311   5.813   3.001   7.426  0.0359  0.6679  0.1761
   20CHTO   H82 8312   5.903   3.060   7.408  0.2602  1.0595  2.3754
   20CHTO   O26 8313   5.814   2.945   7.556  0.7545  0.0779  0.6427
   20CHTO   C41 8314   5.827   3.055   7.652 -0.7328 -0.1013  0.5245
   20CHTO   H83 8315   5.902   3.129   7.618  1.7897 -2.6087  0.4942
   20CHTO   C52 8316   5.865   2.995   7.783  0.3275 -0.3170 -0.5120
   20CHTO   O35 8317   5.952   2.932   7.786  0.3558 -0.2961 -0.1900
   20CHTO   H71 8318   5.935   2.855   7.837 -0.5520 -0.2600 -0.4387
   20CHTO   O28 8319   5.828   2.885   7.352  0.1022 -0.0129 -0.0138
   20CHTO   C42 8320   5.961   2.825   7.325 -1.0504  0.5501  0.9512
   20CHTO   H84 8321   5.941   2.730   7.276  2.5514 -0.5251  1.4357
   20CHTO   C44 8322   6.064   2.791   7.444 -0.1687  0.1554 -0.4090
   20CHTO   H86 8323   6.076   2.880   7.504 -0.0543  0.0022 -0.2043
   20CHTO   O32 8324   6.000   2.696   7.526 -0.4734  0.7880 -0.2479
   20CHTO   H69 8325   6.061   2.683   7.596 -0.0833  1.5464 -0.4485
   20CHTO   C48 8326   6.207   2.743   7.396  0.5600 -0.0855  0.0142
   20CHTO   H90 8327   6.197   2.644   7.352 -2.4838  0.1327  0.1536
   20CHTO    N9 8328   6.310   2.721   7.504  0.3796  0.5028  0.6834
   20CHTO   H77 8329   6.249   2.690   7.587  0.3720  1.9795  1.2387
   20CHTO   H78 8330   6.375   2.640   7.473 -0.2183 -0.0853  0.9732
   20CHTO   C51 8331   6.263   2.841   7.285 -0.4193  0.3779 -0.5107
   20CHTO   H93 8332   6.266   2.937   7.337 -0.2596 -1.8119  3.7336
   20CHTO   O30 8333   6.163   2.837   7.181  0.4062  0.3901  0.0916
   20CHTO   C46 8334   6.037   2.909   7.219  0.2304 -0.5757 -0.7310
   20CHTO   H88 8335   6.053   3.010   7.258  1.1475 -0.2959 -1.8031
   20CHTO   C53 8336   5.954   2.915   7.090 -0.4890 -0.0196  0.1799
   20CHTO   O72 8337   5.928   2.788   7.035  0.1782  0.4246 -0.2193
   20CHTO  H199 8338   6.011   2.744   7.039  0.2763  0.6906  0.9413
   20CHTO   O22 8339   6.386   2.798   7.221 -0.1117  0.2297 -0.3709
   20CHTO   C31 8340   6.474   2.901   7.167 -0.4972 -0.3248 -0.1430
   20CHTO   H59 8341   6.551   2.850   7.106 -0.2889  0.4608 -0.5401
   20CHTO   C29 8342   6.408   3.006   7.084 -0.2861 -0.3408  0.7622
   20CHTO   H57 8343   6.333   3.056   7.146  1.0251 -0.1881  2.2763
   20CHTO   O21 8344   6.341   2.937   6.977  0.2534  0.0963  0.4394
   20CHTO   H37 8345   6.258   2.974   6.951  1.4198  2.0307 -0.6329
   20CHTO   C27 8346   6.510   3.114   7.021 -0.2254 -0.4976 -0.1795
   20CHTO   H55 8347   6.573   3.059   6.949 -1.8890 -0.5224 -1.6390
   20CHTO    N5 8348   6.431   3.218   6.953  0.4336  0.7406 -0.0043
   20CHTO   H43 8349   6.371   3.180   6.871  3.2835 -0.3820 -1.6387
   20CHTO   H44 8350   6.375   3.278   7.024  1.1534 -1.5844  2.6141
   20CHTO   C25 8351   6.593   3.169   7.140 -0.4649  0.2669 -0.0867
   20CHTO   H53 8352   6.525   3.234   7.198  2.6774  2.6638  1.0281
   20CHTO   O17 8353   6.648   3.074   7.237  0.1730 -0.3865 -0.1845
   20CHTO   C32 8354   6.550   2.976   7.278 -0.6036  0.4530 -0.1931
   20CHTO   H60 8355   6.480   3.025   7.346 -0.7601  0.2838 -0.2308
   20CHTO   C36 8356   6.632   2.872   7.359  0.3027 -0.7952 -0.5882
   20CHTO   O25 8357   6.747   2.812   7.291  0.2566 -0.5145  0.0523
   20CHTO   H40 8358   6.789   2.882   7.244  1.8784 -1.1919  0.4640
   20CHTO   O15 8359   6.708   3.256   7.086 -0.2280 -0.2118 -0.9092
   20CHTO   C19 8360   6.791   3.368   7.119 -0.1908 -0.6100 -0.5483
   20CHTO   H47 8361   6.843   3.375   7.022  0.3398 -1.7327 -0.3595
   20CHTO   C20 8362   6.717   3.498   7.158 -0.8948 -0.3536 -0.0416
   20CHTO   H48 8363   6.656   3.491   7.249 -1.8760  2.0038 -0.4943
   20CHTO   O19 8364   6.619   3.527   7.055  0.1149  0.4940 -0.4269
   20CHTO   H35 8365   6.537   3.554   7.091 -0.8178 -2.9332  0.2326
   20CHTO   C21 8366   6.802   3.629   7.170 -0.0517  0.3307 -0.3511
   20CHTO   H49 8367   6.832   3.665   7.072 -2.0840  0.0832 -1.0759
   20CHTO    N4 8368   6.725   3.744   7.231  0.2405 -0.4313 -0.1537
   20CHTO   H41 8369   6.693   3.747   7.334  1.3795  2.1410  0.1649
   20CHTO   H42 8370   6.638   3.762   7.169 -0.7259 -1.9058  0.7424
   20CHTO   C22 8371   6.925   3.595   7.255 -1.1866 -0.4404 -0.5017
   20CHTO   H50 8372   6.894   3.588   7.359 -0.5401  0.7391 -0.2283
   20CHTO   O14 8373   6.993   3.473   7.214  0.0437 -0.1354 -0.5377
   20CHTO   C23 8374   6.910   3.359   7.220 -0.4194  0.4424 -0.1305
   20CHTO   H51 8375   6.877   3.355   7.325  3.1410  1.4771  1.1258
   20CHTO   C34 8376   6.993   3.235   7.198 -0.5224  0.1574 -1.4096
   20CHTO   O23 8377   6.930   3.106   7.222  0.2466  0.2935  0.4430
   20CHTO   H38 8378   6.977   3.034   7.184  0.0998  0.1431  0.5472
   20CHTO   O16 8379   7.029   3.691   7.239 -0.0229 -0.4528  0.6014
   20CHTO   C24 8380   7.146   3.670   7.336  0.1135 -0.5803  0.0267
   20CHTO   H52 8381   7.141   3.577   7.393  0.8076 -0.7500 -0.1927
   20CHTO   C26 8382   7.162   3.783   7.442  0.4871  0.0918  0.5814
   20CHTO   H54 8383   7.176   3.880   7.390  2.6402  0.8346  2.4741
   20CHTO   O20 8384   7.039   3.782   7.515  0.1090 -0.6477  0.1151
   20CHTO   H36 8385   6.970   3.823   7.466  0.6140  3.1125  2.3600
   20CHTO   C30 8386   7.277   3.765   7.543 -0.0052 -0.7818 -0.5898
   20CHTO   H58 8387   7.251   3.689   7.618 -1.0431 -0.7110 -0.8667
   20CHTO    N6 8388   7.316   3.887   7.615  0.1119 -0.3322  0.5866
   20CHTO   H45 8389   7.288   3.882   7.719  0.2151  1.6748  0.7247
   20CHTO   H46 8390   7.255   3.968   7.576  0.0441 -1.1008 -0.9443
   20CHTO   C33 8391   7.393   3.698   7.466 -0.1316  0.2011  0.0197
   20CHTO   H61 8392   7.493   3.733   7.497  1.2937 -2.3958 -1.4480
   20CHTO   O18 8393   7.390   3.730   7.327  0.4183 -0.4104  0.1451
   20CHTO   C28 8394   7.283   3.669   7.250 -0.0627 -0.5135  0.1429
   20CHTO   H56 8395   7.276   3.731   7.160  2.0987 -0.3187  0.0896
   20CHTO   C35 8396   7.304   3.525   7.194 -0.0172 -0.6412  0.1812
   20CHTO   O24 8397   7.409   3.508   7.099  0.8364  0.2997 -0.0282
   20CHTO   H39 8398   7.495   3.520   7.135  1.4313  1.2844 -1.7337
   20CHTO    O9 8399   7.401   3.557   7.483  0.4811  0.0056 -0.0537
   20CHTO   C13 8400   7.467   3.494   7.615  0.4575  0.7158 -0.4746
   20CHTO   H26 8401   7.501   3.581   7.675 -0.0466  0.8027 -0.3208
   20CHTO   C11 8402   7.590   3.399   7.578  0.3649 -0.2545  0.1527
   20CHTO   H24 8403   7.671   3.464   7.543 -0.4433  1.0938  0.7591
   20CHTO    O8 8404   7.550   3.306   7.473  0.4008 -0.0183  0.4009
   20CHTO    H3 8405   7.456   3.299   7.470  0.5575 -1.5103 -2.1799
   20CHTO    C9 8406   7.639   3.323   7.708  0.7297  0.4961  0.4952
   20CHTO   H22 8407   7.681   3.397   7.777 -0.9685  0.4510  1.6302
   20CHTO    N2 8408   7.753   3.235   7.675 -0.0235  0.1827 -0.6660
   20CHTO   H10 8409   7.724   3.147   7.618 -0.9510 -0.3306  0.5646
   20CHTO   H11 8410   7.809   3.199   7.760 -0.1150  0.1517 -0.6183
   20CHTO    C7 8411   7.523   3.241   7.781 -0.2231 -0.0556  1.0177
   20CHTO   H20 8412   7.568   3.217   7.880  0.2133 -0.7210  0.6614
   20CHTO    O4 8413   7.404   3.323   7.797 -0.5009  0.0904 -0.3116
   20CHTO   C14 8414   7.352   3.412   7.698  0.1061  0.3285  0.1647
   20CHTO   H27 8415   7.309   3.494   7.759 -0.7436  0.7413 -0.9708
   20CHTO   C18 8416   7.235   3.352   7.626  0.1640 -0.1814  0.3856
   20CHTO   O13 8417   7.124   3.312   7.709 -0.0436  0.6431  0.4279
   20CHTO    H7 8418   7.113   3.356   7.791 -0.8679 -1.4968  1.5053
   20CHTO    O2 8419   7.483   3.101   7.705  0.1206  0.1937  0.1805
   20CHTO    C1 8420   7.388   3.005   7.767  0.1349 -0.6535 -0.4233
   20CHTO   H14 8421   7.297   3.064   7.789 -0.5239 -1.3464 -1.2120
   20CHTO    C2 8422   7.440   2.929   7.897 -1.0710  0.7416  0.8909
   20CHTO   H15 8423   7.532   2.884   7.857 -2.1359 -0.3187 -0.4027
   20CHTO    O6 8424   7.468   3.015   8.006 -0.2935  0.0606 -0.3021
   20CHTO    H1 8425   7.429   3.099   7.991  0.5435  0.4177 -0.5264
   20CHTO    C3 8426   7.342   2.805   7.950 -0.2920 -0.1434  0.0811
   20CHTO   H16 8427   7.256   2.845   8.005  1.0069  0.9740  1.3558
   20CHTO    N1 8428   7.410   2.717   8.051  0.7637 -0.1102 -0.0590
   20CHTO    H8 8429   7.516   2.738   8.059  0.6330 -0.0732  1.6410
   20CHTO    H9 8430   7.375   2.617   8.029 -0.7216 -0.2648  2.8030
   20CHTO    C4 8431   7.287   2.723   7.829  0.1253 -0.5477  0.5779
   20CHTO   H17 8432   7.359   2.647   7.799  0.4145  0.0653 -0.2734
   20CHTO    O1 8433   7.251   2.809   7.723  0.1137 -0.0127  1.0984
   20CHTO    C5 8434   7.352   2.896   7.671  0.4969  0.4879  0.4149
   20CHTO   H18 8435   7.450   2.853   7.649 -0.3696 -1.2632 -0.0848
   20CHTO   C16 8436   7.291   2.954   7.540  0.4478 -0.1967 -0.8926
   20CHTO   O11 8437   7.387   3.032   7.466 -0.2971  0.6405  0.7350
   20CHTO    H5 8438   7.333   3.080   7.406  0.7071  0.9190  0.0267
   20CHTO    O3 8439   7.161   2.660   7.862 -0.3722 -0.6960 -0.9454
   20CHTO    C6 8440   7.111   2.563   7.766 -0.0567  0.3146  0.1814
   20CHTO   H19 8441   7.170   2.564   7.674 -1.9527 -1.4636 -1.0844
   20CHTO    C8 8442   7.122   2.417   7.819 -0.0872 -0.1266 -0.1543
   20CHTO   H21 8443   7.077   2.414   7.918 -0.3800 -0.7732 -0.3016
   20CHTO    O7 8444   7.258   2.384   7.838 -0.5296 -0.4620  0.3503
   20CHTO    H2 8445   7.314   2.459   7.840  2.9063 -2.8977 -0.4687
   20CHTO   C12 8446   7.051   2.314   7.724 -0.5380  0.3574  0.2561
   20CHTO   H25 8447   7.118   2.304   7.636 -0.0301 -1.9607  0.8683
   20CHTO    N3 8448   7.048   2.177   7.790  0.4491  0.1669 -0.1214
   20CHTO   H12 8449   7.128   2.168   7.862  1.1095  0.3327 -0.8269
   20CHTO   H13 8450   7.045   2.096   7.719 -2.7213  1.4393 -1.5797
   20CHTO   C15 8451   6.912   2.377   7.682 -0.4389  0.0571 -0.2614
   20CHTO   H28 8452   6.842   2.376   7.766  1.3442 -0.6226  1.2566
   20CHTO   O10 8453   6.849   2.295   7.571  0.7559 -0.5025  0.4809
   20CHTO    H4 8454   6.780   2.351   7.538  2.5335  1.6068  0.2105
   20CHTO    O5 8455   6.916   2.509   7.628  0.2188  0.0323  0.1353
   20CHTO   C10 8456   6.961   2.598   7.731 -0.1093  0.8593  0.3988
   20CHTO   H23 8457   6.903   2.575   7.820 -0.9361  1.8031  0.1200
   20CHTO   C17 8458   6.926   2.742   7.688  0.4783  0.0503 -0.1878
   20CHTO   O12 8459   6.993   2.782   7.564  0.0412  0.1047 -0.0468
   20CHTO    H6 8460   6.949   2.741   7.492  2.7485 -2.7410 -0.1805
   21GLOH   H03 8461   6.807   6.629   7.172 -0.6071 -0.9492  0.4022
   21GLOH    O1 8462   6.766   6.557   7.121 -0.2565 -0.7364 -0.1795
   21GLOH    C1 8463   6.745   6.444   7.203 -0.3182 -0.2028  0.0825
   21GLOH   H02 8464   6.719   6.481   7.302 -0.6342  1.8855 -0.7609
   21GLOH   H08 8465   6.833   6.379   7.207  0.5024  0.9890  2.3368
   21GLOH    C2 8466   6.622   6.361   7.152  0.0852 -0.1260 -0.2634
   21GLOH   H04 8467   6.653   6.309   7.060 -0.0794  1.3328 -1.1487
   21GLOH    O2 8468   6.597   6.249   7.248  0.4803  0.0097  0.0825
   21GLOH   H05 8469   6.670   6.184   7.253  0.7981  0.2016 -1.5960
   21GLOH    C3 8470   6.496   6.455   7.145 -0.6561  0.5604 -0.3613
   21GLOH   H06 8471   6.445   6.457   7.241 -2.6984  0.8404 -1.4302
   21GLOH   H07 8472   6.428   6.404   7.077  0.3669  0.1216 -1.0804
   21GLOH    O3 8473   6.517   6.590   7.096  0.2586  0.0799  0.0880
   21GLOH   H01 8474   6.614   6.601   7.101  0.5855 -2.3191 -0.4997
   22GLOH   H03 8475   0.839   9.764   3.529  0.2993  1.5767 -0.7210
   22GLOH    O1 8476   0.756   9.812   3.515 -0.4148  0.4412 -0.3913
   22GLOH    C1 8477   0.650   9.721   3.549  0.0690  0.0599 -0.4576
   22GLOH   H02 8478   0.685   9.664   3.635  0.5320  1.6441  0.4331
   22GLOH   H08 8479   0.624   9.645   3.476 -0.3462 -0.7279  0.5018
   22GLOH    C2 8480   0.520   9.781   3.599 -0.1682 -0.1034  0.1047
   22GLOH   H04 8481   0.456   9.819   3.519 -0.6812 -2.4570 -0.6521
   22GLOH    O2 8482   0.441   9.676   3.651 -0.1407 -0.5344  1.1397
   22GLOH   H05 8483   0.394   9.708   3.729  0.4043  1.7451  0.5468
   22GLOH    C3 8484   0.544   9.893   3.699 -0.2060 -0.2076  0.1515
   22GLOH   H06 8485   0.451   9.928   3.744  0.0178  0.0416  0.4250
   22GLOH   H07 8486   0.582   9.980   3.644 -1.9851  1.4041  1.4008
   22GLOH    O3 8487   0.642   9.861   3.805  0.7136 -0.5623 -0.3510
   22GLOH   H01 8488   0.609   9.793   3.865  1.1659 -0.6516 -0.2023
   23GLOH   H03 8489   7.322   7.206   3.901  0.1644  1.1988  1.7783
   23GLOH    O1 8490   7.400   7.237   3.852 -0.4215 -0.1610 -0.0830
   23GLOH    C1 8491   7.347   7.311   3.738  1.0400 -0.0373  0.1442
   23GLOH   H02 8492   7.418   7.380   3.692  0.6201  0.8383  0.7844
   23GLOH   H08 8493   7.265   7.368   3.782  1.5390  0.5138  0.3705
   23GLOH    C2 8494   7.271   7.248   3.621 -0.0724 -0.2574  0.3728
   23GLOH   H04 8495   7.339   7.174   3.575 -0.1187 -0.1699  0.1639
   23GLOH    O2 8496   7.157   7.178   3.673  0.2831  0.4962  0.0517
   23GLOH   H05 8497   7.190   7.088   3.688 -1.4884 -0.5819 -2.1196
   23GLOH    C3 8498   7.228   7.348   3.514  0.5865  0.2202 -0.4316
   23GLOH   H06 8499   7.189   7.436   3.565  4.7332  1.4343  0.8887
   23GLOH   H07 8500   7.145   7.310   3.455  0.8005  1.3891 -1.5089
   23GLOH    O3 8501   7.326   7.397   3.424 -0.6428 -0.5329 -0.4757
   23GLOH   H01 8502   7.362   7.329   3.364 -0.5351  2.0214 -3.4170
   24GLOH   H03 8503   9.931   2.289   3.472  1.2681 -0.6818  1.0005
   24GLOH    O1 8504   9.926   2.230   3.395  0.2108 -0.1492  0.6696
   24GLOH    C1 8505   9.926   2.097   3.444 -0.5073 -0.4985 -1.2466
   24GLOH   H02 8506  10.027   2.060   3.460 -1.2425 -1.9488  0.3390
   24GLOH   H08 8507   9.872   2.036   3.372 -0.9650  0.8851 -2.0839
   24GLOH    C2 8508   9.844   2.084   3.575 -0.9941  0.0051 -0.2780
   24GLOH   H04 8509   9.745   2.116   3.539 -0.7456  1.7736  0.5659
   24GLOH    O2 8510   9.847   1.954   3.635  0.0577 -0.2424 -0.1450
   24GLOH   H05 8511   9.916   1.953   3.704 -2.5469  0.3185  2.5605
   24GLOH    C3 8512   9.896   2.184   3.675 -0.0190 -0.3694  0.0020
   24GLOH   H06 8513  10.003   2.171   3.692 -0.5937 -1.1171  3.4566
   24GLOH   H07 8514   9.857   2.161   3.774 -1.2227 -0.3160 -0.4460
   24GLOH    O3 8515   9.855   2.317   3.644  0.4939 -0.2482 -0.0050
   24GLOH   H01 8516   9.760   2.334   3.654  0.2548 -1.9663  0.7739
   25GLOH   H03 8517   4.945   5.086   2.868 -0.8774  0.4040  0.0853
   25GLOH    O1 8518   4.914   4.999   2.838 -0.1656 -0.1148  0.8334
   25GLOH    C1 8519   5.017   4.902   2.878  0.3866  0.9182 -0.3599
   25GLOH   H02 8520   4.990   4.849   2.969  1.2635 -0.7290 -1.0444
   25GLOH   H08 8521   5.118   4.942   2.893  1.2144 -1.7044  1.3631
   25GLOH    C2 8522   5.041   4.782   2.777  0.0399  0.0652 -0.1076
   25GLOH   H04 8523   4.944   4.737   2.751 -0.3177  0.8278 -0.0947
   25GLOH    O2 8524   5.105   4.823   2.659 -0.6679 -0.2552  0.1857
   25GLOH   H05 8525   5.043   4.872   2.601  0.5699  3.1630  1.6277
   25GLOH    C3 8526   5.133   4.680   2.846  0.2934 -0.1181  0.1079
   25GLOH   H06 8527   5.203   4.726   2.915 -3.0227  2.3397  2.0114
   25GLOH   H07 8528   5.197   4.633   2.772 -0.4098 -1.2714  0.2269
   25GLOH    O3 8529   5.054   4.589   2.937 -0.4468  0.5555  0.2845
   25GLOH   H01 8530   5.058   4.623   3.029 -1.3079  2.6165 -0.3987
   26GLOH   H03 8531   8.866   4.395   7.074 -1.4280  0.4264  1.4241
   26GLOH    O1 8532   8.816   4.461   7.021 -0.1806  0.4219  0.2132
   26GLOH    C1 8533   8.707   4.517   7.097 -0.6967 -0.7748 -0.2534
   26GLOH   H02 8534   8.631   4.549   7.026 -1.6740 -1.1006  0.6323
   26GLOH   H08 8535   8.735   4.605   7.154 -2.7152 -1.3757  1.7622
   26GLOH    C2 8536   8.643   4.410   7.187  0.3050  0.1219 -0.3769
   26GLOH   H04 8537   8.719   4.356   7.244  0.1634 -0.5584 -0.8246
   26GLOH    O2 8538   8.565   4.495   7.273  0.1268  0.4655 -0.2404
   26GLOH   H05 8539   8.484   4.454   7.308  0.2964 -0.2006 -0.6400
   26GLOH    C3 8540   8.563   4.311   7.099 -0.3631 -0.2592 -0.5453
   26GLOH   H06 8541   8.464   4.352   7.079 -1.2174 -1.0368  1.8840
   26GLOH   H07 8542   8.539   4.233   7.172 -1.9275  1.3505  0.6970
   26GLOH    O3 8543   8.632   4.254   6.984  0.1344  0.1124 -0.1384
   26GLOH   H01 8544   8.633   4.325   6.917  1.1515 -0.0533 -0.3043
   27GLOH   H03 8545   2.340   2.663   6.149  0.4538  2.2234 -0.8397
   27GLOH    O1 8546   2.423   2.665   6.199 -0.0525 -0.5001  0.2204
   27GLOH    C1 8547   2.446   2.783   6.274  0.4006  0.4959 -0.1504
   27GLOH   H02 8548   2.375   2.781   6.356 -0.4474 -1.0185 -0.8924
   27GLOH   H08 8549   2.416   2.873   6.221 -0.7261  0.6163  0.6824
   27GLOH    C2 8550   2.587   2.786   6.332 -0.0151  0.7653 -0.1471
   27GLOH   H04 8551   2.654   2.768   6.247  0.1946 -1.7141  0.4870
   27GLOH    O2 8552   2.611   2.912   6.403  0.0922  0.0093 -0.0710
   27GLOH   H05 8553   2.698   2.945   6.375  0.0022 -1.1125 -1.7955
   27GLOH    C3 8554   2.608   2.673   6.426 -0.3001 -0.4617 -0.4416
   27GLOH   H06 8555   2.547   2.685   6.516 -2.2445  2.5957 -2.0511
   27GLOH   H07 8556   2.711   2.685   6.459 -0.4876 -1.1918  0.4330
   27GLOH    O3 8557   2.581   2.547   6.358 -0.7849 -0.1014 -0.1352
   27GLOH   H01 8558   2.515   2.566   6.289 -2.1729 -2.1900  0.5735
   28GLOH   H03 8559   6.515   9.707   7.957 -1.3980  1.3815 -0.5961
   28GLOH    O1 8560   6.459   9.683   8.034 -0.0450  0.9788  0.2879
   28GLOH    C1 8561   6.459   9.792   8.123 -0.9214 -0.0354 -0.5395
   28GLOH   H02 8562   6.540   9.789   8.195 -1.7836  1.7983  0.5209
   28GLOH   H08 8563   6.368   9.800   8.182 -0.8644  1.2575 -0.6149
   28GLOH    C2 8564   6.465   9.933   8.045 -0.0186 -0.1426 -0.3587
   28GLOH   H04 8565   6.371   9.957   7.993 -0.0048 -2.1742 -1.3881
   28GLOH    O2 8566   6.480  10.031   8.153 -0.2795 -0.0285 -0.2827
   28GLOH   H05 8567   6.411  10.031   8.222  0.5493 -0.9658  0.5547
   28GLOH    C3 8568   6.577   9.925   7.941 -0.2176  0.4688  0.1126
   28GLOH   H06 8569   6.663   9.893   8.001 -1.0591  1.2233  1.7569
   28GLOH   H07 8570   6.605  10.024   7.904 -1.1956  0.1143 -1.6035
   28GLOH    O3 8571   6.562   9.837   7.827 -0.2971  0.0323 -0.0209
   28GLOH   H01 8572   6.636   9.856   7.766  1.1402  0.1530  1.7174
   29GLOH   H03 8573   4.407   4.091   4.315  0.1770 -1.9543  1.2610
   29GLOH    O1 8574   4.483   4.124   4.365 -0.0533 -0.0023  0.4102
   29GLOH    C1 8575   4.472   4.268   4.370 -0.5944 -0.7922 -0.2768
   29GLOH   H02 8576   4.499   4.306   4.271  3.3747 -3.0626 -0.1993
   29GLOH   H08 8577   4.541   4.311   4.443  2.2224 -0.7081 -2.8623
   29GLOH    C2 8578   4.329   4.314   4.409 -0.0859  0.4706  0.0267
   29GLOH   H04 8579   4.257   4.257   4.348  0.1285 -0.1031  0.3077
   29GLOH    O2 8580   4.304   4.287   4.552  0.2525 -0.1150  0.7961
   29GLOH   H05 8581   4.363   4.212   4.571 -1.6211 -2.1291 -1.1643
   29GLOH    C3 8582   4.301   4.466   4.386 -0.3304  0.6685  0.2543
   29GLOH   H06 8583   4.376   4.507   4.454 -1.7675  3.3161  0.2693
   29GLOH   H07 8584   4.205   4.501   4.423  0.4333  0.6644  2.3419
   29GLOH    O3 8585   4.330   4.526   4.260 -0.1035  0.0744 -0.3181
   29GLOH   H01 8586   4.397   4.596   4.270 -0.6495  0.4702  0.6300
   30GLOH   H03 8587   6.916   9.158   6.435  0.1890  0.4936 -0.3199
   30GLOH    O1 8588   6.968   9.224   6.484  0.0035  0.2774  0.1680
   30GLOH    C1 8589   7.095   9.165   6.515 -0.3766 -0.5211 -0.3834
   30GLOH   H02 8590   7.076   9.065   6.556 -0.6756 -0.0151  0.7485
   30GLOH   H08 8591   7.144   9.222   6.594  0.3797 -1.1639 -0.3826
   30GLOH    C2 8592   7.193   9.160   6.398 -0.0890  0.6162 -0.2289
   30GLOH   H04 8593   7.141   9.097   6.324  0.7892 -0.2452 -0.1242
   30GLOH    O2 8594   7.215   9.296   6.346  0.2065  0.0016 -0.4012
   30GLOH   H05 8595   7.279   9.338   6.406 -0.4122  3.0058 -1.7050
   30GLOH    C3 8596   7.324   9.093   6.440 -0.4101  0.7786 -0.4552
   30GLOH   H06 8597   7.391   9.148   6.507  1.1620  0.0011 -1.3582
   30GLOH   H07 8598   7.391   9.094   6.354  0.0591  0.1297 -0.1026
   30GLOH    O3 8599   7.309   8.956   6.478  0.2506  0.1617  0.1698
   30GLOH   H01 8600   7.386   8.916   6.433 -0.4848 -0.6932 -0.3481
   31GLOH   H03 8601   1.170   7.981   6.542 -0.6398  0.2114  0.3769
   31GLOH    O1 8602   1.079   7.949   6.539 -0.4397 -0.3093 -0.1031
   31GLOH    C1 8603   0.998   8.038   6.463 -0.1354 -0.4660  0.9967
   31GLOH   H02 8604   0.903   7.992   6.432 -0.0344  0.8170 -1.3021
   31GLOH   H08 8605   1.045   8.056   6.366  1.1167 -3.4003  0.9847
   31GLOH    C2 8606   0.959   8.175   6.519  0.0306 -0.2900 -0.0912
   31GLOH   H04 8607   0.893   8.164   6.606 -0.6471  0.1636 -0.5475
   31GLOH    O2 8608   1.083   8.244   6.566 -0.0384  0.4422 -0.3183
   31GLOH   H05 8609   1.155   8.179   6.568 -1.8448 -1.5850 -0.0693
   31GLOH    C3 8610   0.881   8.262   6.423  0.1363 -0.2176  0.2931
   31GLOH   H06 8611   0.941   8.278   6.334 -0.1579  0.3333  0.1903
   31GLOH   H07 8612   0.839   8.350   6.472 -1.1909 -0.4708 -0.3420
   31GLOH    O3 8613   0.764   8.199   6.384 -0.1991  0.1667  0.3621
   31GLOH   H01 8614   0.721   8.163   6.464 -0.9036 -1.1807 -0.5943
   32GLOH   H03 8615   6.740   5.695   0.303 -0.8385 -1.0774 -0.2055
   32GLOH    O1 8616   6.670   5.731   0.360  0.1500  0.3405  0.1314
   32GLOH    C1 8617   6.733   5.839   0.432 -0.3134  0.2076  0.1614
   32GLOH   H02 8618   6.778   5.917   0.371  1.0100  0.3778  1.3254
   32GLOH   H08 8619   6.812   5.800   0.497  0.3302  1.6393  0.2616
   32GLOH    C2 8620   6.633   5.906   0.527 -0.0421 -0.1492 -0.1546
   32GLOH   H04 8621   6.591   5.828   0.592  0.3156  0.6233  1.0398
   32GLOH    O2 8622   6.702   6.005   0.606  0.3010 -0.2510  0.1033
   32GLOH   H05 8623   6.706   5.977   0.699  0.3051 -1.2639 -0.1969
   32GLOH    C3 8624   6.521   5.969   0.447  0.6648  0.0451 -1.0438
   32GLOH   H06 8625   6.570   6.034   0.375  0.3877  2.4068  0.8324
   32GLOH   H07 8626   6.447   6.032   0.497  2.1814  0.4136  0.7626
   32GLOH    O3 8627   6.451   5.866   0.371 -0.0015  0.0283  0.5309
   32GLOH   H01 8628   6.519   5.797   0.359 -0.4606 -0.3217 -0.0791
   33GLOH   H03 8629   4.968   3.288   5.466 -3.2473 -0.5401 -0.8546
   33GLOH    O1 8630   4.938   3.378   5.490  0.1916  0.4743 -0.0479
   33GLOH    C1 8631   4.899   3.379   5.629  0.0852 -0.0886  0.3770
   33GLOH   H02 8632   4.983   3.363   5.696  0.6819 -0.8736 -0.5584
   33GLOH   H08 8633   4.823   3.304   5.650  1.3814 -1.8008 -0.9751
   33GLOH    C2 8634   4.830   3.515   5.647 -0.5027  0.3615  1.2522
   33GLOH   H04 8635   4.734   3.511   5.593  0.7350 -0.3845 -0.9536
   33GLOH    O2 8636   4.800   3.532   5.779  0.2598 -0.2155 -0.3536
   33GLOH   H05 8637   4.772   3.623   5.797  0.3198  0.3032 -2.6780
   33GLOH    C3 8638   4.924   3.632   5.588  0.0872 -0.2757  0.3070
   33GLOH   H06 8639   4.945   3.604   5.485 -0.4633  0.4043  0.0126
   33GLOH   H07 8640   5.018   3.638   5.644  0.0235  0.6161  0.3146
   33GLOH    O3 8641   4.870   3.769   5.581  0.8870  0.4981  0.5733
   33GLOH   H01 8642   4.808   3.780   5.656 -0.1260 -0.4865 -0.1026
   34GLOH   H03 8643   6.690   1.571   0.737 -2.6451 -4.2970  0.6857
   34GLOH    O1 8644   6.750   1.535   0.669 -0.1124 -0.0586  0.4265
   34GLOH    C1 8645   6.882   1.597   0.668 -0.0749  0.5650 -1.2215
   34GLOH   H02 8646   6.913   1.578   0.771 -2.2287  0.9926 -0.4680
   34GLOH   H08 8647   6.867   1.703   0.649  2.3732  1.1804  0.0083
   34GLOH    C2 8648   6.981   1.524   0.570  0.0936  0.8306  0.0867
   34GLOH   H04 8649   6.931   1.521   0.472  0.6990 -2.4783 -0.1761
   34GLOH    O2 8650   7.100   1.603   0.547  0.3694 -0.3382 -0.0447
   34GLOH   H05 8651   7.131   1.642   0.630 -0.4822 -0.9761  0.5869
   34GLOH    C3 8652   7.027   1.387   0.628 -0.4265  0.3301  0.4398
   34GLOH   H06 8653   7.089   1.394   0.717  2.6659 -1.9527 -1.4170
   34GLOH   H07 8654   7.089   1.358   0.543  0.7139  1.5252  0.8516
   34GLOH    O3 8655   6.909   1.306   0.658  0.2459 -0.2237 -0.1498
   34GLOH   H01 8656   6.831   1.363   0.647 -1.3213 -2.5519 -1.6164
   35GLOH   H03 8657   1.706   4.349   1.438 -0.4233  1.1637 -0.0226
   35GLOH    O1 8658   1.718   4.336   1.342 -0.4845  0.5503  0.0521
   35GLOH    C1 8659   1.639   4.221   1.310  0.3343  0.5199 -0.2156
   35GLOH   H02 8660   1.601   4.184   1.405  0.2545  0.4345 -0.2808
   35GLOH   H08 8661   1.698   4.146   1.257 -0.4636  0.1008 -0.5193
   35GLOH    C2 8662   1.525   4.262   1.216  0.2324  0.7957  0.6513
   35GLOH   H04 8663   1.574   4.279   1.119 -0.0895 -0.0433  0.3374
   35GLOH    O2 8664   1.432   4.146   1.203 -0.0134 -0.0381 -0.0940
   35GLOH   H05 8665   1.465   4.062   1.167 -2.0662 -0.2951 -1.4731
   35GLOH    C3 8666   1.458   4.394   1.264  0.0384 -0.0850 -0.2306
   35GLOH   H06 8667   1.364   4.405   1.210  0.8898  1.0773 -1.5115
   35GLOH   H07 8668   1.521   4.477   1.232 -0.1271  0.8533  1.7911
   35GLOH    O3 8669   1.435   4.408   1.405  0.3753 -0.0102 -0.3257
   35GLOH   H01 8670   1.432   4.503   1.426 -0.1572 -0.3294  1.0355
   36GLOH   H03 8671   5.346   9.478   6.736 -2.0234  0.3304  0.2480
   36GLOH    O1 8672   5.350   9.501   6.831  0.5924  0.2320  0.2117
   36GLOH    C1 8673   5.398   9.390   6.912 -0.1292  0.0419 -0.2293
   36GLOH   H02 8674   5.373   9.420   7.013 -0.7087  0.8228 -0.6026
   36GLOH   H08 8675   5.507   9.385   6.909 -0.0685 -0.8761  2.3515
   36GLOH    C2 8676   5.331   9.260   6.863 -0.3777 -0.0446 -0.0485
   36GLOH   H04 8677   5.224   9.262   6.889 -0.2989 -1.6271  0.4678
   36GLOH    O2 8678   5.347   9.225   6.726  0.7048 -0.0634  0.2183
   36GLOH   H05 8679   5.334   9.302   6.669  1.0490 -1.2161 -1.4555
   36GLOH    C3 8680   5.392   9.144   6.942  0.9435  0.8243 -0.8040
   36GLOH   H06 8681   5.497   9.128   6.920  1.0669 -0.7703  0.9163
   36GLOH   H07 8682   5.340   9.054   6.909  0.1995  0.5528  1.0617
   36GLOH    O3 8683   5.364   9.152   7.083  0.2357 -0.0712  0.3067
   36GLOH   H01 8684   5.335   9.064   7.112 -1.6548  0.2884 -0.4061
   37GLOH   H03 8685   5.303   6.124   0.628  2.8675  0.0110  2.3985
   37GLOH    O1 8686   5.334   6.039   0.592  0.3919  0.2787 -0.5375
   37GLOH    C1 8687   5.310   6.033   0.449 -0.0606 -0.2617  0.7874
   37GLOH   H02 8688   5.216   6.082   0.426  0.6455  1.0941  0.7272
   37GLOH   H08 8689   5.293   5.927   0.430  1.7428 -0.7654  1.7655
   37GLOH    C2 8690   5.420   6.087   0.355  0.1007  0.1712 -0.1149
   37GLOH   H04 8691   5.504   6.017   0.369  1.8647  2.1288 -0.5227
   37GLOH    O2 8692   5.381   6.096   0.218  0.4185  0.2689  0.1407
   37GLOH   H05 8693   5.388   6.005   0.186 -0.6108  0.8226 -1.7277
   37GLOH    C3 8694   5.478   6.222   0.397  0.1208  0.2492  0.4056
   37GLOH   H06 8695   5.400   6.297   0.393 -0.1827 -0.0632  0.5179
   37GLOH   H07 8696   5.555   6.249   0.324 -0.4825 -2.4974 -1.3014
   37GLOH    O3 8697   5.547   6.208   0.521 -0.8691 -0.5304  0.5012
   37GLOH   H01 8698   5.509   6.140   0.579  1.7242 -1.4131  1.2011
   38GLOH   H03 8699   0.233   9.173   5.196 -1.1036 -0.0334 -0.7376
   38GLOH    O1 8700   0.192   9.239   5.254  0.5751  0.0774  0.3562
   38GLOH    C1 8701   0.130   9.172   5.361  0.0115  0.5951 -0.6091
   38GLOH   H02 8702   0.080   9.081   5.328 -0.6139  0.1440  1.4750
   38GLOH   H08 8703   0.055   9.237   5.407 -1.2653 -0.6745 -0.9023
   38GLOH    C2 8704   0.221   9.131   5.476  0.1332  0.4548  0.0873
   38GLOH   H04 8705   0.269   9.222   5.515  0.8026  0.6175 -1.1146
   38GLOH    O2 8706   0.152   9.068   5.585  0.0253  0.2142 -0.3401
   38GLOH   H05 8707   0.214   9.068   5.660  0.3117  1.5380 -0.5607
   38GLOH    C3 8708   0.340   9.050   5.413  0.4355  0.6916  0.3346
   38GLOH   H06 8709   0.301   8.983   5.337  1.2477  1.0195 -0.3828
   38GLOH   H07 8710   0.386   8.982   5.485  0.2529  0.6952  0.4551
   38GLOH    O3 8711   0.450   9.120   5.344 -0.2503 -0.1454  0.2163
   38GLOH   H01 8712   0.499   9.165   5.415 -1.2955  2.3141 -0.5599
   39GLOH   H03 8713   8.714   3.461   6.847  2.0572 -0.7627 -0.6394
   39GLOH    O1 8714   8.678   3.378   6.811  0.3318 -0.1957 -0.3194
   39GLOH    C1 8715   8.532   3.383   6.801  0.1408  0.6298  0.3024
   39GLOH   H02 8716   8.494   3.483   6.779 -0.8644  0.2733  0.3728
   39GLOH   H08 8717   8.489   3.365   6.900 -0.6182 -0.6872 -0.2457
   39GLOH    C2 8718   8.479   3.280   6.701 -0.0922  0.9038 -0.0376
   39GLOH   H04 8719   8.515   3.181   6.733  0.0253 -0.3672 -3.8529
   39GLOH    O2 8720   8.337   3.288   6.684  0.1398 -0.4707 -0.2982
   39GLOH   H05 8721   8.295   3.209   6.646 -2.3945  0.5217  0.3819
   39GLOH    C3 8722   8.557   3.306   6.568  0.5067 -0.6034 -0.0705
   39GLOH   H06 8723   8.663   3.317   6.591  0.5028  2.7362 -1.3528
   39GLOH   H07 8724   8.524   3.403   6.529 -0.7897 -0.7291  0.6933
   39GLOH    O3 8725   8.548   3.209   6.464  0.7355  0.1306  0.6280
   39GLOH   H01 8726   8.464   3.160   6.460 -0.1009  1.2828  3.0735
   40GLOH   H03 8727   1.439   6.858   3.041 -3.0519 -2.7889 -0.5559
   40GLOH    O1 8728   1.419   6.891   2.951  0.0578 -0.0225 -0.3333
   40GLOH    C1 8729   1.538   6.934   2.877 -0.9863 -0.8111  0.6254
   40GLOH   H02 8730   1.604   6.856   2.838  0.4614  0.0885  1.2329
   40GLOH   H08 8731   1.597   7.010   2.928  2.3813 -2.6072 -0.4683
   40GLOH    C2 8732   1.489   6.993   2.740 -0.1343  0.1725  0.3944
   40GLOH   H04 8733   1.407   7.065   2.753  0.0269  0.2688  0.9235
   40GLOH    O2 8734   1.588   7.061   2.661  0.1249 -0.2262  0.4353
   40GLOH   H05 8735   1.632   6.997   2.602 -2.0126 -0.8718 -0.5446
   40GLOH    C3 8736   1.424   6.878   2.671 -0.0662  0.2517 -0.0508
   40GLOH   H06 8737   1.489   6.791   2.673  2.7166  2.2178 -1.4329
   40GLOH   H07 8738   1.396   6.889   2.566 -1.4343 -0.6806  0.2021
   40GLOH    O3 8739   1.293   6.848   2.735  0.2017  0.0608  0.3749
   40GLOH   H01 8740   1.309   6.867   2.829 -4.1965 -2.1439  1.6647
   41GLOH   H03 8741   9.602   7.142   5.185 -0.2448 -0.3653 -0.1556
   41GLOH    O1 8742   9.696   7.147   5.158 -0.2098  0.1194  0.0456
   41GLOH    C1 8743   9.717   7.106   5.018  0.1108 -0.4662 -0.1372
   41GLOH   H02 8744   9.762   7.187   4.960  1.7955 -1.3759 -0.1560
   41GLOH   H08 8745   9.623   7.082   4.968  0.9855 -0.8899 -1.6207
   41GLOH    C2 8746   9.813   6.987   5.002  0.8884 -0.2353  0.8968
   41GLOH   H04 8747   9.765   6.904   5.057  2.1610 -0.7774  1.2008
   41GLOH    O2 8748   9.834   6.946   4.867 -0.2560 -0.0711  0.2277
   41GLOH   H05 8749   9.879   7.016   4.816  0.4614  0.0992  1.0813
   41GLOH    C3 8750   9.942   7.013   5.078  0.0256 -0.4930 -0.2183
   41GLOH   H06 8751  10.005   6.925   5.065 -0.1015 -0.5174 -0.6728
   41GLOH   H07 8752   9.917   7.007   5.184 -0.6420  0.1632 -0.3321
   41GLOH    O3 8753  10.013   7.138   5.043  0.2386 -0.6676  0.3137
   41GLOH   H01 8754  10.109   7.129   5.059 -0.1644 -1.3746  2.4123
   42GLOH   H03 8755   4.933   8.802   4.355  1.6504  2.1291  0.0611
   42GLOH    O1 8756   4.991   8.731   4.389 -0.1945  0.2303 -0.6486
   42GLOH    C1 8757   4.948   8.704   4.525  0.0350  0.3549 -0.7910
   42GLOH   H02 8758   4.938   8.798   4.580  0.3681 -0.5439  0.8234
   42GLOH   H08 8759   5.030   8.659   4.581 -1.0297  0.0082  0.5224
   42GLOH    C2 8760   4.818   8.612   4.547 -0.4975  0.0866  0.4291
   42GLOH   H04 8761   4.808   8.604   4.656  1.0895  3.9985  0.9303
   42GLOH    O2 8762   4.701   8.674   4.493  0.1010  0.6490 -0.7899
   42GLOH   H05 8763   4.680   8.754   4.545  1.0088  0.2210  0.2664
   42GLOH    C3 8764   4.844   8.469   4.480  0.3380 -0.4842  0.1819
   42GLOH   H06 8765   4.843   8.491   4.373  0.1063  0.1461  0.3119
   42GLOH   H07 8766   4.764   8.396   4.492 -0.6516  0.8639  1.8530
   42GLOH    O3 8767   4.965   8.407   4.538  0.2977  0.5616  0.0208
   42GLOH   H01 8768   4.945   8.371   4.627  1.6698  0.6104  0.3604
   43GLOH   H03 8769   5.172   9.339   8.470 -0.8380 -0.2391 -0.0356
   43GLOH    O1 8770   5.156   9.422   8.520  0.2376 -0.0422  0.0065
   43GLOH    C1 8771   5.274   9.507   8.494 -0.0872 -0.2329 -0.1622
   43GLOH   H02 8772   5.262   9.573   8.409 -0.3133 -0.7274 -0.5132
   43GLOH   H08 8773   5.358   9.442   8.471  1.7019  2.3800 -1.2991
   43GLOH    C2 8774   5.298   9.596   8.619 -0.6519  0.3875 -0.2509
   43GLOH   H04 8775   5.296   9.531   8.707  0.3593 -1.9385 -1.9203
   43GLOH    O2 8776   5.433   9.656   8.626 -0.1371  1.1189 -0.0331
   43GLOH   H05 8777   5.469   9.670   8.537  3.0875 -1.9548  0.6745
   43GLOH    C3 8778   5.180   9.697   8.640  0.3571  0.0982 -0.2325
   43GLOH   H06 8779   5.172   9.772   8.562 -0.9989  0.2158  0.0060
   43GLOH   H07 8780   5.203   9.758   8.727 -3.6074  1.2178  0.1603
   43GLOH    O3 8781   5.056   9.625   8.651  0.5207  0.5991 -1.1524
   43GLOH   H01 8782   5.059   9.534   8.616 -0.1200 -0.1774  0.7400
   44GLOH   H03 8783   9.957   4.328   0.505  0.7746  1.2763 -2.1519
   44GLOH    O1 8784  10.022   4.259   0.487  0.2386  0.2253 -0.1925
   44GLOH    C1 8785  10.014   4.231   0.346  0.8721  0.3439  0.7903
   44GLOH   H02 8786   9.915   4.255   0.306  1.6287  1.7586 -0.2683
   44GLOH   H08 8787  10.023   4.125   0.320 -1.0157 -0.2183  2.3555
   44GLOH    C2 8788  10.118   4.317   0.275  0.6510  0.0577  0.4346
   44GLOH   H04 8789  10.216   4.295   0.321  1.6490  3.5180  0.0880
   44GLOH    O2 8790  10.130   4.282   0.137  0.1911 -0.4592  0.0804
   44GLOH   H05 8791  10.186   4.202   0.143  2.9385  1.3568 -0.0625
   44GLOH    C3 8792  10.100   4.462   0.290  0.3355 -0.3430  0.1873
   44GLOH   H06 8793  10.171   4.522   0.233 -0.1010  1.3032  1.3307
   44GLOH   H07 8794  10.118   4.499   0.391 -0.5566  1.4730 -0.3030
   44GLOH    O3 8795   9.966   4.500   0.250  0.1668 -0.4075 -0.3605
   44GLOH   H01 8796   9.962   4.486   0.154  0.4075 -5.1921  0.1968
   45GLOH   H03 8797   6.624   5.601   1.888 -1.0386 -0.9060 -2.2425
   45GLOH    O1 8798   6.662   5.511   1.894  0.3906 -0.2146 -0.6525
   45GLOH    C1 8799   6.667   5.463   2.027 -0.1070  0.4244  0.0542
   45GLOH   H02 8800   6.757   5.490   2.082 -0.8720  0.2134  1.4632
   45GLOH   H08 8801   6.667   5.354   2.019  1.1766  0.5286 -1.5078
   45GLOH    C2 8802   6.543   5.503   2.109 -0.1579 -0.2390 -1.0849
   45GLOH   H04 8803   6.458   5.473   2.047 -0.3554 -0.4778 -0.7045
   45GLOH    O2 8804   6.548   5.432   2.242  0.2714  0.7136  0.4912
   45GLOH   H05 8805   6.525   5.338   2.229 -1.1746  1.1828 -0.4621
   45GLOH    C3 8806   6.537   5.649   2.120 -0.0409 -0.2250 -0.3138
   45GLOH   H06 8807   6.620   5.679   2.184 -0.8350 -0.1054  0.6577
   45GLOH   H07 8808   6.442   5.677   2.165  0.9145  1.2659  0.8194
   45GLOH    O3 8809   6.546   5.711   1.991 -0.5340  0.1830  0.0528
   45GLOH   H01 8810   6.493   5.793   1.990 -0.0701  0.4713 -0.9089
   46GLOH   H03 8811   0.459   5.102   7.691 -0.4166  0.6999  0.4735
   46GLOH    O1 8812   0.465   5.152   7.606  0.3923 -0.0096  0.1119
   46GLOH    C1 8813   0.327   5.169   7.564  0.3788  0.9037  0.0332
   46GLOH   H02 8814   0.280   5.256   7.608  0.3192  1.5638 -1.3034
   46GLOH   H08 8815   0.271   5.078   7.587  0.8075  0.8961  1.0911
   46GLOH    C2 8816   0.333   5.210   7.419  0.2085  0.2906 -0.3538
   46GLOH   H04 8817   0.384   5.127   7.369  1.7349  1.2709 -0.4596
   46GLOH    O2 8818   0.204   5.222   7.362 -0.4540  0.2836  0.0104
   46GLOH   H05 8819   0.152   5.140   7.367 -1.0705  0.7550  1.5479
   46GLOH    C3 8820   0.416   5.339   7.397 -0.4712  0.3471 -0.4168
   46GLOH   H06 8821   0.518   5.329   7.435 -0.2791  0.0141 -1.0059
   46GLOH   H07 8822   0.381   5.424   7.456  1.0038  1.0408 -0.5099
   46GLOH    O3 8823   0.421   5.392   7.265  0.4770  0.1855 -0.1913
   46GLOH   H01 8824   0.451   5.320   7.205  1.3298 -0.6083  1.1526
   47GLOH   H03 8825   9.942   6.452   0.422 -0.6136 -1.6900  0.3299
   47GLOH    O1 8826   9.942   6.406   0.337 -0.5264 -0.2122 -0.4890
   47GLOH    C1 8827  10.063   6.419   0.259 -0.4358 -0.0044 -0.8756
   47GLOH   H02 8828  10.131   6.342   0.294  1.0148  0.4398 -2.6094
   47GLOH   H08 8829  10.110   6.518   0.256 -0.4669  0.0525  0.4169
   47GLOH    C2 8830  10.044   6.380   0.104 -0.5697 -0.3148  0.8944
   47GLOH   H04 8831   9.958   6.440   0.072 -0.5700 -0.2339  1.0471
   47GLOH    O2 8832  10.166   6.400   0.027  0.1590  0.9002 -0.0982
   47GLOH   H05 8833  10.189   6.493   0.046 -3.0069  1.9303 -1.0075
   47GLOH    C3 8834  10.004   6.231   0.095  0.6217  0.2232  0.0164
   47GLOH   H06 8835  10.093   6.176   0.123  0.3359  0.0011  0.4936
   47GLOH   H07 8836   9.976   6.194  -0.004  1.4097 -1.9707  0.5898
   47GLOH    O3 8837   9.886   6.203   0.176  0.1395 -0.8111  0.1136
   47GLOH   H01 8838   9.888   6.265   0.251  0.1992 -0.8021  0.1040
   48GLOH   H03 8839   1.637   6.825   0.218 -0.3674  0.8424 -1.1582
   48GLOH    O1 8840   1.699   6.847   0.289 -0.4361 -0.0318 -0.8150
   48GLOH    C1 8841   1.698   6.993   0.292  0.5457  0.5635 -0.4155
   48GLOH   H02 8842   1.654   7.038   0.381  0.5930  0.4771 -0.3488
   48GLOH   H08 8843   1.627   7.025   0.216 -1.4494 -0.9841  0.7637
   48GLOH    C2 8844   1.829   7.062   0.259  0.5276  1.0694  0.5302
   48GLOH   H04 8845   1.856   7.032   0.157  1.7536 -1.0186  1.4432
   48GLOH    O2 8846   1.818   7.205   0.253  0.4774 -0.1616  0.1543
   48GLOH   H05 8847   1.756   7.222   0.181  1.3738 -0.6756 -0.7540
   48GLOH    C3 8848   1.944   7.022   0.350 -0.6231  0.5938 -0.4404
   48GLOH   H06 8849   2.042   7.053   0.314 -0.2054 -1.2178 -0.9185
   48GLOH   H07 8850   1.959   6.914   0.355  2.3291  0.9245 -1.0834
   48GLOH    O3 8851   1.915   7.068   0.483  0.0866 -0.5459 -0.2723
   48GLOH   H01 8852   1.968   7.149   0.490  1.3263 -1.3727  0.0390
   49GLOH   H03 8853   4.698   8.442   1.157 -1.0991 -0.5784 -1.2408
   49GLOH    O1 8854   4.740   8.428   1.070  0.7706  0.4462 -0.5524
   49GLOH    C1 8855   4.637   8.406   0.975 -0.2050  0.3419  0.1647
   49GLOH   H02 8856   4.675   8.344   0.894 -1.8704 -0.9543  0.3432
   49GLOH   H08 8857   4.611   8.500   0.927  2.4430  1.0253 -0.0122
   49GLOH    C2 8858   4.501   8.335   1.004 -0.4662  0.8510 -0.3939
   49GLOH   H04 8859   4.452   8.383   1.090  1.6635  0.6733  0.9822
   49GLOH    O2 8860   4.412   8.349   0.888 -0.0082 -0.6861 -0.3606
   49GLOH   H05 8861   4.455   8.315   0.808  0.8055  0.9871 -0.6662
   49GLOH    C3 8862   4.533   8.181   1.028  0.4781 -0.0000 -0.1213
   49GLOH   H06 8863   4.576   8.136   0.937 -1.1097  0.0767 -0.9187
   49GLOH   H07 8864   4.432   8.142   1.034  0.0021  1.2360 -0.1191
   49GLOH    O3 8865   4.605   8.150   1.152 -0.2583 -0.0423 -0.0649
   49GLOH   H01 8866   4.545   8.168   1.226 -0.5288 -2.1722  0.2820
   50GLOH   H03 8867   3.335   9.348   0.647  0.5802  0.0673 -1.1417
   50GLOH    O1 8868   3.383   9.264   0.654  0.4188  0.0986  0.5488
   50GLOH    C1 8869   3.361   9.179   0.538  1.0139 -0.0495 -0.8011
   50GLOH   H02 8870   3.413   9.084   0.552  0.6375 -0.4749 -2.2330
   50GLOH   H08 8871   3.392   9.230   0.447  0.0189  0.4439 -0.8628
   50GLOH    C2 8872   3.207   9.148   0.511  0.3390  0.6822 -1.0063
   50GLOH   H04 8873   3.165   9.081   0.588 -0.2398 -0.3414 -2.2083
   50GLOH    O2 8874   3.127   9.265   0.509  0.0676 -0.7366  0.3772
   50GLOH   H05 8875   3.054   9.264   0.445 -1.5488 -0.7431  2.1681
   50GLOH    C3 8876   3.198   9.078   0.374 -0.0414 -0.4931 -0.1528
   50GLOH   H06 8877   3.215   9.137   0.283 -0.2648 -1.2184 -0.6673
   50GLOH   H07 8878   3.091   9.057   0.374 -0.4986  1.6675  0.8176
   50GLOH    O3 8879   3.291   8.960   0.375  0.0368  0.3898  0.1025
   50GLOH   H01 8880   3.235   8.881   0.388  0.6979  0.2419  2.2592
   51GLOH   H03 8881   0.785   1.097   3.698  0.6149 -0.4219 -0.7496
   51GLOH    O1 8882   0.715   1.044   3.656 -0.3243  0.0790  0.1691
   51GLOH    C1 8883   0.649   1.140   3.572  0.4802  0.1343  0.2376
   51GLOH   H02 8884   0.710   1.228   3.555 -0.0310  0.3054 -0.6999
   51GLOH   H08 8885   0.563   1.181   3.625  0.8323  2.0266 -0.6170
   51GLOH    C2 8886   0.603   1.077   3.439 -0.0735  0.3758 -0.4007
   51GLOH   H04 8887   0.563   1.157   3.374  0.5389  0.3812 -0.7784
   51GLOH    O2 8888   0.713   1.016   3.363 -0.2401 -0.4243 -0.1885
   51GLOH   H05 8889   0.747   1.076   3.295  1.4848 -1.8129 -0.5850
   51GLOH    C3 8890   0.491   0.980   3.476 -1.2919 -0.0945 -0.1682
   51GLOH   H06 8891   0.526   0.902   3.543  1.0013 -0.3423 -1.6018
   51GLOH   H07 8892   0.464   0.922   3.388 -0.0839 -1.1888  0.1669
   51GLOH    O3 8893   0.383   1.052   3.532  0.6127 -0.3675 -0.2066
   51GLOH   H01 8894   0.321   0.985   3.565  1.6867 -1.1019  0.3275
   52GLOH   H03 8895   6.566   8.643   8.216  1.6791  0.5901 -1.8098
   52GLOH    O1 8896   6.499   8.661   8.148 -0.5394 -0.3734  0.0442
   52GLOH    C1 8897   6.469   8.803   8.134 -0.5768 -0.0274  0.3541
   52GLOH   H02 8898   6.499   8.844   8.037 -3.8625  0.5403 -0.4960
   52GLOH   H08 8899   6.522   8.857   8.212  1.3827 -0.0316 -0.9320
   52GLOH    C2 8900   6.317   8.827   8.149 -0.1350  0.0592  0.1181
   52GLOH   H04 8901   6.299   8.784   8.249  2.7328  0.8738  1.0599
   52GLOH    O2 8902   6.290   8.967   8.148  0.3554  0.1371 -0.0279
   52GLOH   H05 8903   6.362   9.022   8.185  0.3479 -0.4696  0.9096
   52GLOH    C3 8904   6.236   8.743   8.047  0.1330 -0.3199  0.0065
   52GLOH   H06 8905   6.254   8.796   7.953  0.7964 -1.0090 -0.2561
   52GLOH   H07 8906   6.130   8.757   8.067 -0.0916 -1.0832 -0.6322
   52GLOH    O3 8907   6.273   8.600   8.040 -0.0076 -0.3670 -0.2442
   52GLOH   H01 8908   6.362   8.603   8.081  0.6686  1.8196 -1.7678
   53GLOH   H03 8909   5.859   1.279   2.278 -2.4206 -1.0292  1.7657
   53GLOH    O1 8910   5.892   1.347   2.339 -0.2316 -0.0488 -0.4065
   53GLOH    C1 8911   5.999   1.418   2.272 -0.1296 -0.1863  0.5244
   53GLOH   H02 8912   6.100   1.377   2.274 -0.7724 -1.7423  1.3221
   53GLOH   H08 8913   6.011   1.515   2.321  2.1788  0.3035 -0.9300
   53GLOH    C2 8914   5.971   1.452   2.128  0.7208  0.3552  0.0723
   53GLOH   H04 8915   5.868   1.490   2.127 -0.0292 -1.5473  0.8301
   53GLOH    O2 8916   6.069   1.540   2.072 -0.7555  0.7172 -0.5800
   53GLOH   H05 8917   6.162   1.516   2.091 -1.3308  0.2108  1.8105
   53GLOH    C3 8918   5.973   1.328   2.039  0.5208  0.2611  0.4097
   53GLOH   H06 8919   6.078   1.301   2.032  0.2178 -0.7312 -0.3715
   53GLOH   H07 8920   5.939   1.364   1.942  0.5459  1.7621  0.9427
   53GLOH    O3 8921   5.888   1.230   2.097 -0.2355  0.0893 -0.0211
   53GLOH   H01 8922   5.803   1.242   2.050 -0.2270  1.6382  0.3347
   54GLOH   H03 8923   8.806   4.490   0.986 -0.9568  0.2148 -1.4260
   54GLOH    O1 8924   8.864   4.452   0.918  0.4934 -0.3366  0.0907
   54GLOH    C1 8925   8.993   4.518   0.922 -0.3088  0.1932 -0.3350
   54GLOH   H02 8926   9.059   4.484   1.002 -0.5110 -1.2072 -0.7529
   54GLOH   H08 8927   8.977   4.623   0.948  1.3203 -0.3637  3.1545
   54GLOH    C2 8928   9.070   4.506   0.789  0.5682  0.2119 -0.8686
   54GLOH   H04 8929   9.077   4.402   0.755 -0.4437 -0.2440  0.2851
   54GLOH    O2 8930   9.015   4.576   0.678 -0.3801 -0.3737 -0.4060
   54GLOH   H05 8931   8.962   4.643   0.724  2.6040  0.4230  2.1037
   54GLOH    C3 8932   9.217   4.548   0.813 -0.1615  0.4681 -0.1030
   54GLOH   H06 8933   9.223   4.656   0.824 -2.8958  0.3692  3.5554
   54GLOH   H07 8934   9.276   4.520   0.727 -0.4139 -2.8813  0.7226
   54GLOH    O3 8935   9.280   4.489   0.931 -0.2790  0.6915  0.0786
   54GLOH   H01 8936   9.374   4.513   0.937  0.3826 -2.0339  1.3986
   55GLOH   H03 8937   5.174   6.252   3.155 -0.0792  1.1319  1.1257
   55GLOH    O1 8938   5.132   6.183   3.210  0.0183  0.0590 -0.0978
   55GLOH    C1 8939   5.167   6.073   3.122  0.0313 -0.0807  0.0099
   55GLOH   H02 8940   5.254   6.018   3.156  0.0930 -0.1434 -0.2423
   55GLOH   H08 8941   5.188   6.099   3.018  1.3300  0.8140  0.4885
   55GLOH    C2 8942   5.051   5.972   3.120 -0.0357 -0.0676  0.5745
   55GLOH   H04 8943   4.960   6.032   3.104  0.0301 -0.5639 -1.8632
   55GLOH    O2 8944   5.050   5.875   3.014 -0.1756 -0.6618 -0.2636
   55GLOH   H05 8945   5.077   5.920   2.933 -1.5030  0.7700  0.0544
   55GLOH    C3 8946   5.055   5.907   3.258 -0.5337 -0.3127 -0.1238
   55GLOH   H06 8947   5.148   5.850   3.262  0.1055  0.4946 -2.3943
   55GLOH   H07 8948   4.979   5.830   3.264 -1.0307 -0.2887 -4.5330
   55GLOH    O3 8949   5.063   5.998   3.366  0.1208 -0.1677  0.2990
   55GLOH   H01 8950   5.101   6.078   3.324  1.3356 -0.1815  1.3501
   56GLOH   H03 8951   9.711   8.782   3.922  0.1200  0.1682  0.9237
   56GLOH    O1 8952   9.666   8.759   3.839  0.2559  0.6335  0.7198
   56GLOH    C1 8953   9.766   8.697   3.759 -0.1643 -0.0269  0.0804
   56GLOH   H02 8954   9.771   8.591   3.782  0.7629 -0.2617 -1.1085
   56GLOH   H08 8955   9.862   8.741   3.786  0.2322  0.3511 -1.8413
   56GLOH    C2 8956   9.745   8.716   3.604  0.5096 -0.5028  0.1833
   56GLOH   H04 8957   9.755   8.825   3.599  1.0910 -0.5079  1.0211
   56GLOH    O2 8958   9.839   8.664   3.511 -0.4502 -0.2397 -0.3931
   56GLOH   H05 8959   9.846   8.731   3.441  0.2732  1.4880  1.2821
   56GLOH    C3 8960   9.602   8.676   3.554  0.6326 -0.3688  0.0139
   56GLOH   H06 8961   9.597   8.687   3.446  2.4730 -1.8782 -0.2620
   56GLOH   H07 8962   9.536   8.749   3.600 -0.6326 -0.3417 -1.8022
   56GLOH    O3 8963   9.571   8.538   3.597 -0.1886  0.1913  0.0847
   56GLOH   H01 8964   9.648   8.483   3.571  2.0810  3.1480  0.1945
   57GLOH   H03 8965   4.677   4.218   0.527  0.4012  0.6165  2.0710
   57GLOH    O1 8966   4.744   4.255   0.466 -0.5481 -1.0364 -0.0348
   57GLOH    C1 8967   4.679   4.329   0.359  0.1134 -0.4024 -0.1942
   57GLOH   H02 8968   4.757   4.369   0.295  1.1865 -1.8396  0.1854
   57GLOH   H08 8969   4.622   4.414   0.397  1.6523  0.6899 -0.2596
   57GLOH    C2 8970   4.588   4.242   0.271  0.1909  1.0171 -0.0719
   57GLOH   H04 8971   4.542   4.164   0.334 -1.1294 -0.0150 -2.2355
   57GLOH    O2 8972   4.483   4.312   0.200 -0.3010 -0.4778 -0.0350
   57GLOH   H05 8973   4.521   4.377   0.139  0.7148  0.3253  1.4383
   57GLOH    C3 8974   4.674   4.171   0.162 -0.2648  0.2552 -0.3635
   57GLOH   H06 8975   4.743   4.236   0.108 -2.7715  0.5758 -3.3399
   57GLOH   H07 8976   4.608   4.134   0.084  3.5322  0.9929 -4.0936
   57GLOH    O3 8977   4.748   4.070   0.226  0.3083 -0.2368 -0.1631
   57GLOH   H01 8978   4.836   4.059   0.186  0.2675 -2.0078  0.1947
   58GLOH   H03 8979   0.852   5.141   7.468  0.8933  2.8936  0.1902
   58GLOH    O1 8980   0.818   5.142   7.376  0.5083  0.2740  0.2448
   58GLOH    C1 8981   0.923   5.188   7.286  0.5455  0.4331 -0.6109
   58GLOH   H02 8982   0.891   5.183   7.182 -1.5012  2.0719 -0.0928
   58GLOH   H08 8983   1.010   5.122   7.296  0.2857  0.5692  3.5044
   58GLOH    C2 8984   0.973   5.326   7.326  0.3508  0.1066 -0.2384
   58GLOH   H04 8985   0.993   5.327   7.434 -1.8689  0.7487  0.1940
   58GLOH    O2 8986   1.093   5.353   7.250  0.3028 -0.2126 -0.2592
   58GLOH   H05 8987   1.174   5.355   7.304  0.0965 -1.3794  0.1278
   58GLOH    C3 8988   0.857   5.429   7.302  0.2966  0.2608  0.1367
   58GLOH   H06 8989   0.775   5.377   7.352  0.1168 -3.0696 -3.4060
   58GLOH   H07 8990   0.822   5.431   7.199 -0.6230  2.0684  0.4569
   58GLOH    O3 8991   0.886   5.560   7.334  0.1532  0.0435 -0.9737
   58GLOH   H01 8992   0.973   5.580   7.296  2.1287 -3.2544  1.5149
   59GLOH   H03 8993   4.503   0.596   2.914 -0.3565 -1.2064  0.7405
   59GLOH    O1 8994   4.417   0.639   2.933  0.0732 -0.0735  0.1981
   59GLOH    C1 8995   4.330   0.574   2.846 -0.3081  0.2038  0.6573
   59GLOH   H02 8996   4.341   0.466   2.851 -0.2207  0.1826  0.0428
   59GLOH   H08 8997   4.353   0.602   2.743 -1.7783  0.2319  0.3302
   59GLOH    C2 8998   4.182   0.612   2.871 -0.0031 -0.1162  0.2322
   59GLOH   H04 8999   4.178   0.722   2.871  0.5817 -0.0955  0.5346
   59GLOH    O2 9000   4.104   0.561   2.758  0.7756  0.3116  0.7179
   59GLOH   H05 9001   4.063   0.635   2.709  0.3946 -0.4202 -0.0657
   59GLOH    C3 9002   4.123   0.554   3.005 -0.0405  0.5724  0.3375
   59GLOH   H06 9003   4.136   0.446   2.995  3.1251  0.7430  1.7831
   59GLOH   H07 9004   4.018   0.582   3.011  0.1649  1.0420  1.7735
   59GLOH    O3 9005   4.181   0.594   3.133 -0.0595  0.2490  0.3818
   59GLOH   H01 9006   4.258   0.540   3.159  0.4413  0.7959  0.0287
   60GLOH   H03 9007   3.823   1.473   3.268 -0.8949 -0.8634 -2.7427
   60GLOH    O1 9008   3.899   1.515   3.224  0.4406 -0.0810  0.1876
   60GLOH    C1 9009   3.863   1.522   3.084 -0.6783  1.2648  0.3525
   60GLOH   H02 9010   3.754   1.522   3.081 -0.8101 -0.7913  2.7529
   60GLOH   H08 9011   3.907   1.432   3.041 -1.7220  0.0884  1.6894
   60GLOH    C2 9012   3.906   1.648   3.015 -0.2708 -0.0389  0.5212
   60GLOH   H04 9013   4.016   1.645   3.023 -0.4062 -1.9171  2.0914
   60GLOH    O2 9014   3.876   1.655   2.874  0.5152  0.1532 -0.4435
   60GLOH   H05 9015   3.942   1.600   2.829  0.9770  0.1486  0.2355
   60GLOH    C3 9016   3.867   1.782   3.086  0.8482  0.3369  0.3641
   60GLOH   H06 9017   3.758   1.778   3.092  0.6784 -0.2594 -2.1709
   60GLOH   H07 9018   3.891   1.872   3.028  1.2511  2.1969  3.3096
   60GLOH    O3 9019   3.922   1.790   3.219 -0.2305 -0.8977  0.0442
   60GLOH   H01 9020   3.896   1.879   3.248  1.2869 -0.8310  1.2276
   61GLOH   H03 9021   0.278   3.431   4.641 -0.8881  0.8983  1.3869
   61GLOH    O1 9022   0.365   3.467   4.668 -0.0179  0.3729 -0.6218
   61GLOH    C1 9023   0.453   3.357   4.699 -0.1680  0.1319 -0.1722
   61GLOH   H02 9024   0.404   3.287   4.766 -0.8227  0.0978 -0.6904
   61GLOH   H08 9025   0.552   3.389   4.733 -0.3949  1.8828 -1.0739
   61GLOH    C2 9026   0.477   3.283   4.567 -0.2729  0.1596 -0.4436
   61GLOH   H04 9027   0.531   3.346   4.495  0.5993  1.7375  1.5437
   61GLOH    O2 9028   0.560   3.172   4.601  0.2987 -0.1598  0.2428
   61GLOH   H05 9029   0.516   3.112   4.664  1.2859 -1.3058 -0.1298
   61GLOH    C3 9030   0.355   3.225   4.496  0.1768  0.2714  0.3811
   61GLOH   H06 9031   0.332   3.124   4.530  3.1370 -0.3353  0.7455
   61GLOH   H07 9032   0.379   3.228   4.390 -0.4871  1.2535  0.2546
   61GLOH    O3 9033   0.229   3.293   4.525  0.3878  0.3480  0.5316
   61GLOH   H01 9034   0.175   3.297   4.445 -0.8536  1.5143  1.4239
   62GLOH   H03 9035   0.821   1.914   7.258 -0.5221 -1.3608 -0.0963
   62GLOH    O1 9036   0.754   1.911   7.329 -0.4117 -0.2243  0.0733
   62GLOH    C1 9037   0.711   2.046   7.355 -0.1455  0.0408  0.2051
   62GLOH   H02 9038   0.605   2.052   7.331  0.2163 -0.4408 -1.5857
   62GLOH   H08 9039   0.762   2.111   7.284 -1.5117  1.0597  0.1190
   62GLOH    C2 9040   0.735   2.108   7.499  0.2866 -0.6419 -0.1710
   62GLOH   H04 9041   0.844   2.117   7.504  0.4962 -1.3323 -2.6659
   62GLOH    O2 9042   0.667   2.234   7.511 -0.4496 -0.1341 -0.0007
   62GLOH   H05 9043   0.592   2.225   7.572 -0.4916 -0.3681 -0.0876
   62GLOH    C3 9044   0.692   2.016   7.618  0.0145 -0.1655  0.0736
   62GLOH   H06 9045   0.585   2.000   7.611  0.0391 -0.3565  0.1291
   62GLOH   H07 9046   0.705   2.057   7.718  0.0710 -1.5669  0.6456
   62GLOH    O3 9047   0.750   1.887   7.608  0.2894  0.2758 -0.1050
   62GLOH   H01 9048   0.760   1.854   7.517  0.0539 -1.6501  0.5515
   63GLOH   H03 9049   7.783   9.870   0.979 -0.0508  0.0359  1.1419
   63GLOH    O1 9050   7.816   9.827   1.060  0.6805 -0.5979  0.5154
   63GLOH    C1 9051   7.963   9.818   1.060  0.0719 -0.1390 -0.3291
   63GLOH   H02 9052   7.992   9.716   1.036  0.1637  0.2207 -1.7803
   63GLOH   H08 9053   7.995   9.824   1.164 -0.7730 -0.0535 -0.0666
   63GLOH    C2 9054   8.048   9.910   0.976  0.2631  0.4055  0.0985
   63GLOH   H04 9055   8.039  10.004   1.034 -1.3460 -0.1502  0.7764
   63GLOH    O2 9056   8.182   9.866   0.955 -0.5745  0.5645 -0.5192
   63GLOH   H05 9057   8.246   9.924   1.000 -1.0442  0.3125  0.4777
   63GLOH    C3 9058   7.974   9.937   0.842 -0.8556  0.8416  0.3780
   63GLOH   H06 9059   7.945   9.842   0.797  0.5445  1.4124 -1.7603
   63GLOH   H07 9060   8.048   9.989   0.782  3.8144 -1.8728  3.5167
   63GLOH    O3 9061   7.855  10.019   0.856 -0.0629  0.1343 -0.0854
   63GLOH   H01 9062   7.843  10.073   0.776 -1.7542 -0.6014 -0.3420
   64GLOH   H03 9063   4.890   7.670   2.028  2.0948  0.2149  1.2247
   64GLOH    O1 9064   4.835   7.728   2.084  0.2874 -0.0799 -0.2111
   64GLOH    C1 9065   4.705   7.747   2.028  0.4669 -0.2386 -0.1586
   64GLOH   H02 9066   4.656   7.660   1.985  0.0831 -0.2356  0.2642
   64GLOH   H08 9067   4.715   7.818   1.946  1.4806  0.5627  0.6574
   64GLOH    C2 9068   4.603   7.792   2.137 -0.0831 -0.5859 -0.3544
   64GLOH   H04 9069   4.648   7.888   2.166 -1.7673 -0.3485  1.5642
   64GLOH    O2 9070   4.462   7.796   2.101  0.5581  0.3290  0.4693
   64GLOH   H05 9071   4.413   7.843   2.171  1.9114 -0.4776  1.9921
   64GLOH    C3 9072   4.600   7.705   2.271 -0.3543 -0.1908 -0.3377
   64GLOH   H06 9073   4.567   7.604   2.247  1.4400 -0.9959  0.5254
   64GLOH   H07 9074   4.530   7.760   2.335 -0.2826  1.2681 -1.4674
   64GLOH    O3 9075   4.734   7.697   2.323  0.0500  0.2205 -0.1400
   64GLOH   H01 9076   4.785   7.708   2.240  1.3327  0.2142  0.6311
   65GLOH   H03 9077   2.850   7.805   0.117  0.3233 -2.2461 -1.7057
   65GLOH    O1 9078   2.787   7.748   0.166  0.0689 -0.3809  0.2322
   65GLOH    C1 9079   2.659   7.804   0.187  0.4577 -0.2136  0.0102
   65GLOH   H02 9080   2.586   7.743   0.239 -0.5916  1.6919  0.8342
   65GLOH   H08 9081   2.610   7.824   0.092  0.4183  0.1835  0.1126
   65GLOH    C2 9082   2.658   7.929   0.277  0.5933 -0.1801 -0.1170
   65GLOH   H04 9083   2.743   7.992   0.248 -1.3783  1.4736 -2.6392
   65GLOH    O2 9084   2.538   7.999   0.250  0.4953  0.2881  0.5038
   65GLOH   H05 9085   2.490   8.014   0.333 -0.1351 -0.6229  0.3095
   65GLOH    C3 9086   2.671   7.879   0.420 -0.4312 -0.3896  0.0772
   65GLOH   H06 9087   2.595   7.804   0.443 -1.5234  0.3028 -1.1670
   65GLOH   H07 9088   2.651   7.964   0.485 -1.9870 -2.3323  2.1949
   65GLOH    O3 9089   2.803   7.828   0.450 -0.1800 -0.6894 -0.7991
   65GLOH   H01 9090   2.808   7.737   0.413  1.4717 -1.0308  0.2295
   66GLOH   H03 9091   3.007   4.448   6.737 -0.6196 -0.9077  1.7032
   66GLOH    O1 9092   2.919   4.449   6.694  0.2143  0.0249 -0.0547
   66GLOH    C1 9093   2.825   4.424   6.803 -0.3112  0.3070 -1.1200
   66GLOH   H02 9094   2.733   4.479   6.785  0.0997  1.9339  1.5229
   66GLOH   H08 9095   2.867   4.443   6.901  0.7262 -1.6719 -1.1441
   66GLOH    C2 9096   2.786   4.277   6.804 -0.1867  0.1135  0.2988
   66GLOH   H04 9097   2.727   4.252   6.715 -0.5376  1.0613  0.2625
   66GLOH    O2 9098   2.911   4.199   6.796  0.2602 -0.1958  0.5126
   66GLOH   H05 9099   2.982   4.257   6.763 -0.5192  0.7179  0.3976
   66GLOH    C3 9100   2.702   4.241   6.926 -0.2468 -0.0162 -0.2324
   66GLOH   H06 9101   2.769   4.245   7.012  0.0930 -0.4981 -0.4772
   66GLOH   H07 9102   2.670   4.137   6.926 -0.3546  0.0155 -1.3212
   66GLOH    O3 9103   2.592   4.335   6.942 -0.3045 -0.2353 -0.1684
   66GLOH   H01 9104   2.603   4.358   7.036 -1.6117 -2.4609  0.5888
   67GLOH   H03 9105   8.063   4.314   0.151 -0.7001  1.3076  0.8029
   67GLOH    O1 9106   7.981   4.262   0.154  0.1893 -0.1768  0.1789
   67GLOH    C1 9107   7.928   4.281   0.292  0.3156 -0.2692  0.0720
   67GLOH   H02 9108   7.834   4.225   0.295 -0.0862  0.4328  0.7942
   67GLOH   H08 9109   7.915   4.387   0.314 -2.7854  0.0811 -2.9046
   67GLOH    C2 9110   8.012   4.223   0.411  0.0577 -0.3181  0.6160
   67GLOH   H04 9111   8.104   4.282   0.422  0.3062 -0.5558 -0.1995
   67GLOH    O2 9112   7.946   4.233   0.545  0.8579 -0.4556  0.1053
   67GLOH   H05 9113   7.980   4.317   0.579 -1.4436  0.9368 -0.8798
   67GLOH    C3 9114   8.039   4.075   0.382  0.6767 -0.1217 -0.3143
   67GLOH   H06 9115   7.955   4.006   0.383  0.2393  0.3731 -1.2417
   67GLOH   H07 9116   8.103   4.039   0.462  2.2387  2.3349 -0.3935
   67GLOH    O3 9117   8.106   4.067   0.252 -0.3132 -0.6998  0.2485
   67GLOH   H01 9118   8.056   4.124   0.190 -1.6675  0.6321  2.4893
   68GLOH   H03 9119   8.591   3.662   7.358 -0.4776  0.0589  1.1413
   68GLOH    O1 9120   8.512   3.719   7.363 -0.4214  0.2455  0.1037
   68GLOH    C1 9121   8.536   3.851   7.427 -0.0429  0.3941  0.3450
   68GLOH   H02 9122   8.522   3.861   7.534  1.3465  0.8265  0.4953
   68GLOH   H08 9123   8.463   3.917   7.379  0.6012  0.8201 -0.0659
   68GLOH    C2 9124   8.680   3.903   7.390 -0.5891  0.0204 -0.1177
   68GLOH   H04 9125   8.682   4.006   7.429  0.0743 -0.6161  1.5882
   68GLOH    O2 9126   8.783   3.832   7.462 -0.2071  0.6468 -0.3431
   68GLOH   H05 9127   8.788   3.749   7.411  1.8911  0.8891 -0.5735
   68GLOH    C3 9128   8.701   3.915   7.240  0.2624  0.0572 -0.2054
   68GLOH   H06 9129   8.652   4.007   7.209 -0.3889 -0.3218 -0.3029
   68GLOH   H07 9130   8.645   3.842   7.181  0.8641  1.4073 -2.5324
   68GLOH    O3 9131   8.841   3.922   7.196 -0.3863 -0.2082 -0.3242
   68GLOH   H01 9132   8.840   3.980   7.118 -1.4738 -1.9747 -1.6666
   69GLOH   H03 9133   2.316   2.741   6.885 -3.1017  2.6974  0.5695
   69GLOH    O1 9134   2.271   2.666   6.928  0.4950 -0.1508 -0.3496
   69GLOH    C1 9135   2.169   2.698   7.022  0.6972 -0.2432  1.1903
   69GLOH   H02 9136   2.095   2.761   6.972  1.1380 -0.3166  0.4298
   69GLOH   H08 9137   2.209   2.757   7.104 -1.8474 -0.0953  2.3918
   69GLOH    C2 9138   2.104   2.572   7.080  0.9047 -0.3812 -0.1009
   69GLOH   H04 9139   2.096   2.505   6.994 -0.7010 -0.0326 -0.2372
   69GLOH    O2 9140   2.192   2.510   7.176 -0.8536 -0.5531  0.2632
   69GLOH   H05 9141   2.247   2.582   7.211  0.2232 -1.0600 -0.3478
   69GLOH    C3 9142   1.961   2.594   7.123 -0.4450  0.2762 -0.5187
   69GLOH   H06 9143   1.930   2.500   7.170  0.8234  0.1887  0.1703
   69GLOH   H07 9144   1.904   2.599   7.031 -0.9166  1.4997 -0.1649
   69GLOH    O3 9145   1.933   2.705   7.210  0.6948  0.4490  0.3250
   69GLOH   H01 9146   1.876   2.768   7.162  0.6896 -0.5886 -1.0660
   70GLOH   H03 9147   5.609   6.707   0.623  0.3434  2.7192 -1.2591
   70GLOH    O1 9148   5.520   6.724   0.588 -0.5420  0.3428 -0.2786
   70GLOH    C1 9149   5.516   6.706   0.445  0.2879 -0.1331 -0.7895
   70GLOH   H02 9150   5.574   6.778   0.387 -0.1556  1.6996  0.9781
   70GLOH   H08 9151   5.413   6.714   0.410 -0.1458 -0.4743  0.3692
   70GLOH    C2 9152   5.584   6.577   0.401 -0.5699 -0.2592 -0.8880
   70GLOH   H04 9153   5.519   6.499   0.445 -2.0527  1.0984 -0.6192
   70GLOH    O2 9154   5.595   6.577   0.258  0.1098 -0.0417  0.3000
   70GLOH   H05 9155   5.516   6.531   0.226 -1.3550  1.9538  0.9348
   70GLOH    C3 9156   5.722   6.566   0.460 -0.5801  0.9800  0.2203
   70GLOH   H06 9157   5.793   6.632   0.411  0.6269 -1.5011 -1.4623
   70GLOH   H07 9158   5.771   6.471   0.442  2.1717  2.3831  0.0343
   70GLOH    O3 9159   5.726   6.585   0.597  0.0522 -0.0816 -0.0426
   70GLOH   H01 9160   5.742   6.502   0.644 -0.5198  0.2055  0.6607
   71GLOH   H03 9161   9.790   9.241   6.845  0.2064 -0.8346 -0.0826
   71GLOH    O1 9162   9.817   9.248   6.752  0.2460 -0.6104 -0.0547
   71GLOH    C1 9163   9.941   9.326   6.735 -0.1410 -0.0497  0.0008
   71GLOH   H02 9164  10.015   9.316   6.814 -1.2493  2.8898  1.4720
   71GLOH   H08 9165   9.913   9.431   6.743 -2.0860 -0.6084  0.7590
   71GLOH    C2 9166  10.012   9.306   6.603 -0.9143  0.5704 -0.6935
   71GLOH   H04 9167  10.097   9.374   6.618 -0.9796  0.1036  1.8889
   71GLOH    O2 9168  10.052   9.169   6.598 -0.4264 -0.4082  0.6496
   71GLOH   H05 9169   9.980   9.127   6.648 -1.6460 -0.1621 -0.8350
   71GLOH    C3 9170   9.933   9.351   6.480  0.4638  0.5559 -0.2180
   71GLOH   H06 9171   9.841   9.293   6.472  0.4132  0.7755 -1.2596
   71GLOH   H07 9172   9.988   9.341   6.386  0.9094  0.9919 -0.0048
   71GLOH    O3 9173   9.899   9.486   6.494  0.1703 -0.6284  0.3398
   71GLOH   H01 9174   9.820   9.494   6.550 -0.0940  0.3456 -0.1673
   72GLOH   H03 9175   5.622   9.335   8.790  0.4552  0.3683  0.8507
   72GLOH    O1 9176   5.624   9.241   8.767  0.0557  0.6367 -0.2986
   72GLOH    C1 9177   5.740   9.244   8.686 -0.0791 -0.1162 -0.1196
   72GLOH   H02 9178   5.723   9.210   8.583  2.3431  2.2932 -1.3685
   72GLOH   H08 9179   5.808   9.174   8.735 -0.5305 -0.0402  0.6279
   72GLOH    C2 9180   5.813   9.383   8.661 -0.2217  0.2808 -0.2271
   72GLOH   H04 9181   5.861   9.411   8.756 -1.7274 -1.5655  1.1269
   72GLOH    O2 9182   5.905   9.379   8.547  0.2541 -0.0684 -0.6589
   72GLOH   H05 9183   5.986   9.428   8.571  1.9175 -2.2974 -1.5372
   72GLOH    C3 9184   5.701   9.486   8.630 -0.1167  0.4312  0.3043
   72GLOH   H06 9185   5.644   9.439   8.549  0.0052 -0.3586  0.6720
   72GLOH   H07 9186   5.744   9.578   8.590 -1.3532  0.9707  0.1644
   72GLOH    O3 9187   5.619   9.512   8.743 -0.0533  0.0859  0.1794
   72GLOH   H01 9188   5.544   9.569   8.716 -1.5346 -1.6116  0.5993
   73GLOH   H03 9189   6.608   1.706   6.966 -0.5485 -0.4684  2.9291
   73GLOH    O1 9190   6.557   1.787   6.985 -0.6492  0.2893 -0.1828
   73GLOH    C1 9191   6.441   1.806   6.901 -0.2455 -0.0302  0.0790
   73GLOH   H02 9192   6.460   1.767   6.801 -0.4792  0.8453 -0.3082
   73GLOH   H08 9193   6.409   1.908   6.884 -0.9803 -0.2018  0.4200
   73GLOH    C2 9194   6.318   1.735   6.944 -0.1953 -0.3467 -0.4965
   73GLOH   H04 9195   6.315   1.739   7.054 -0.7336 -0.6186 -0.5001
   73GLOH    O2 9196   6.205   1.790   6.875  0.8796 -0.5889 -0.4556
   73GLOH   H05 9197   6.223   1.783   6.780  0.1401 -0.0514 -0.6371
   73GLOH    C3 9198   6.335   1.582   6.923  0.8245 -0.2787 -0.5063
   73GLOH   H06 9199   6.351   1.580   6.816  2.9435  2.8340 -0.3186
   73GLOH   H07 9200   6.241   1.538   6.957  2.2429 -2.2883  0.9354
   73GLOH    O3 9201   6.449   1.532   6.992 -0.1565 -0.3497  0.1289
   73GLOH   H01 9202   6.424   1.530   7.086 -0.1527 -1.4004  0.1142
   74GLOH   H03 9203   8.012   4.980   5.045 -1.0820 -0.7742  0.0507
   74GLOH    O1 9204   7.999   5.012   5.136 -0.5593  0.0906 -0.1721
   74GLOH    C1 9205   8.064   4.914   5.219 -0.6061  0.5731 -0.0885
   74GLOH   H02 9206   8.136   4.969   5.280 -0.3791  0.1739  0.0006
   74GLOH   H08 9207   8.121   4.843   5.158  1.0031  1.1735  0.6785
   74GLOH    C2 9208   7.960   4.838   5.301  0.8793  0.1846 -0.4946
   74GLOH   H04 9209   7.881   4.799   5.235  0.6413  0.3744 -0.3213
   74GLOH    O2 9210   8.020   4.725   5.365  0.2143  0.1714  0.2477
   74GLOH   H05 9211   8.103   4.693   5.328  0.4754  0.5971  0.4657
   74GLOH    C3 9212   7.898   4.934   5.409  0.5223  0.0174 -0.9771
   74GLOH   H06 9213   7.974   4.956   5.484  0.5480 -0.1655 -0.9480
   74GLOH   H07 9214   7.815   4.875   5.449 -0.9094  1.7628 -1.3058
   74GLOH    O3 9215   7.847   5.062   5.362 -0.5093 -0.2454  0.4775
   74GLOH   H01 9216   7.860   5.047   5.266  2.4997  0.6622  0.7031
   75GLOH   H03 9217   1.454   2.964   2.313  1.3869  1.1636 -0.4665
   75GLOH    O1 9218   1.383   3.030   2.304  0.2061 -0.0686 -0.5031
   75GLOH    C1 9219   1.440   3.124   2.213  0.1109  0.0837  0.0107
   75GLOH   H02 9220   1.514   3.072   2.151  0.9621  0.0838  1.0114
   75GLOH   H08 9221   1.491   3.213   2.252  0.5208  0.3235 -1.0409
   75GLOH    C2 9222   1.339   3.170   2.099  0.1382 -0.0533  0.9779
   75GLOH   H04 9223   1.248   3.210   2.148  0.0742  2.9205 -1.4631
   75GLOH    O2 9224   1.401   3.272   2.016 -0.1494  0.1411  0.2009
   75GLOH   H05 9225   1.487   3.246   1.980  0.5407  0.8194  1.3251
   75GLOH    C3 9226   1.299   3.055   2.006 -0.0244  0.2882  0.0175
   75GLOH   H06 9227   1.288   2.961   2.061 -1.5334 -0.8033 -2.0862
   75GLOH   H07 9228   1.379   3.034   1.936 -0.4418 -2.4474  0.2697
   75GLOH    O3 9229   1.178   3.085   1.925 -0.0716 -0.0369  0.1160
   75GLOH   H01 9230   1.197   3.161   1.867  0.1591  0.1859  0.4828
   76GLOH   H03 9231   6.737   7.427   3.567 -0.2636 -0.4504 -3.7504
   76GLOH    O1 9232   6.645   7.403   3.591  0.5087  0.6308  0.9275
   76GLOH    C1 9233   6.571   7.394   3.465  0.1472  0.1669  0.2845
   76GLOH   H02 9234   6.476   7.345   3.488  1.0628 -2.0789 -0.5293
   76GLOH   H08 9235   6.627   7.348   3.384 -0.7548 -1.1236  0.3796
   76GLOH    C2 9236   6.533   7.534   3.424  0.1400 -0.0859  0.8493
   76GLOH   H04 9237   6.624   7.586   3.392 -0.4365  0.5235  0.1612
   76GLOH    O2 9238   6.450   7.513   3.303 -0.1459 -0.6228 -0.5315
   76GLOH   H05 9239   6.373   7.572   3.308  0.8088  0.5768  0.4551
   76GLOH    C3 9240   6.457   7.613   3.538 -0.3969 -0.1119  0.3303
   76GLOH   H06 9241   6.499   7.594   3.637  2.6148  1.4009 -0.5791
   76GLOH   H07 9242   6.354   7.580   3.540 -0.7147  0.3637 -3.3934
   76GLOH    O3 9243   6.469   7.754   3.509  0.0939  0.3175 -0.6919
   76GLOH   H01 9244   6.439   7.752   3.416 -0.1877 -0.9896 -0.5718
   77GLOH   H03 9245   5.846   0.241   7.947  0.7482 -0.3794 -1.1824
   77GLOH    O1 9246   5.867   0.320   7.999  0.2052 -0.8166 -0.2774
   77GLOH    C1 9247   5.997   0.300   8.059  0.4130 -0.3730 -0.3376
   77GLOH   H02 9248   5.992   0.250   8.156  1.4376 -0.8943 -0.5545
   77GLOH   H08 9249   6.061   0.386   8.075  0.7825 -0.9015  1.1055
   77GLOH    C2 9250   6.088   0.204   7.970 -0.4738 -0.7384  0.6723
   77GLOH   H04 9251   6.108   0.236   7.867  1.4796  0.6763  1.4686
   77GLOH    O2 9252   6.219   0.189   8.028  0.0442 -0.0352  0.6476
   77GLOH   H05 9253   6.217   0.116   8.093 -3.4129  1.9101  2.8486
   77GLOH    C3 9254   6.017   0.069   7.968  0.0616  0.9342 -0.2253
   77GLOH   H06 9255   6.032   0.028   8.068 -2.7237 -3.8418 -1.6239
   77GLOH   H07 9256   6.067   0.008   7.893 -0.4683 -0.6610  0.7055
   77GLOH    O3 9257   5.878   0.071   7.929  0.2392  0.2422 -0.2669
   77GLOH   H01 9258   5.833  -0.005   7.970  0.9206  0.2253  0.4728
   78GLOH   H03 9259   8.468   1.039   2.773 -1.7334 -2.5102  0.3998
   78GLOH    O1 9260   8.415   1.105   2.823  0.2381 -0.6007  0.0412
   78GLOH    C1 9261   8.292   1.118   2.751  0.4816  0.4664  0.8000
   78GLOH   H02 9262   8.299   1.187   2.666  0.5158 -2.8663 -2.0040
   78GLOH   H08 9263   8.225   1.169   2.820  1.4112  0.8279  1.4554
   78GLOH    C2 9264   8.224   0.991   2.703  0.1645 -0.6999  0.1684
   78GLOH   H04 9265   8.181   0.938   2.789 -2.0898 -1.3972 -1.3675
   78GLOH    O2 9266   8.106   1.016   2.623  0.7044 -0.2080  0.5315
   78GLOH   H05 9267   8.122   0.987   2.531 -0.3135  0.3601  0.1681
   78GLOH    C3 9268   8.325   0.897   2.643 -0.4267  0.2918  0.3057
   78GLOH   H06 9269   8.380   0.863   2.731  1.7899 -0.5455 -1.3831
   78GLOH   H07 9270   8.393   0.940   2.570  0.4078 -0.6484  0.5256
   78GLOH    O3 9271   8.266   0.778   2.590  0.4219  0.4411  0.5083
   78GLOH   H01 9272   8.198   0.802   2.524  1.2003  0.7889 -0.1729
   79GLOH   H03 9273   3.279   0.870   0.077  0.5728  0.9699  1.2351
   79GLOH    O1 9274   3.370   0.890   0.049  0.7173 -0.3728  0.7094
   79GLOH    C1 9275   3.410   0.788  -0.044 -0.1787  0.3549 -0.0484
   79GLOH   H02 9276   3.477   0.824  -0.122  0.6291 -1.1832 -0.0777
   79GLOH   H08 9277   3.330   0.751  -0.108 -1.1891  1.2056  0.6983
   79GLOH    C2 9278   3.470   0.669   0.036 -0.1364 -0.0631  0.0449
   79GLOH   H04 9279   3.401   0.622   0.107  1.0127  0.0112  1.2311
   79GLOH    O2 9280   3.514   0.568  -0.054  0.1225  0.8493  0.8544
   79GLOH   H05 9281   3.488   0.482  -0.017 -0.7472  0.8407  0.2534
   79GLOH    C3 9282   3.590   0.714   0.120  0.0998  0.3589 -0.3557
   79GLOH   H06 9283   3.675   0.707   0.052  0.4762 -0.7539  0.2110
   79GLOH   H07 9284   3.618   0.638   0.194 -0.0482  1.4227  0.8052
   79GLOH    O3 9285   3.572   0.838   0.190 -0.4540  0.0786 -0.1327
   79GLOH   H01 9286   3.505   0.888   0.140  0.5612 -0.8952 -2.5200
   80GLOH   H03 9287   7.180   2.355   4.017  0.7476 -1.3279  0.0718
   80GLOH    O1 9288   7.199   2.396   3.930  0.1876  0.1450  0.6358
   80GLOH    C1 9289   7.163   2.288   3.843 -0.3661 -0.1556  0.2736
   80GLOH   H02 9290   7.059   2.255   3.855 -0.4048 -0.2618 -0.3752
   80GLOH   H08 9291   7.225   2.202   3.869 -0.5054 -0.1662  0.5817
   80GLOH    C2 9292   7.190   2.306   3.689  0.1130  0.7364 -0.7105
   80GLOH   H04 9293   7.122   2.386   3.657 -1.3022  0.8232  2.3237
   80GLOH    O2 9294   7.329   2.321   3.644  0.2881  0.2996  0.4695
   80GLOH   H05 9295   7.383   2.246   3.673  1.0980 -0.5386 -3.0088
   80GLOH    C3 9296   7.148   2.174   3.621 -0.6264 -0.1206 -0.6283
   80GLOH   H06 9297   7.211   2.094   3.661 -2.3319 -0.6528  1.0569
   80GLOH   H07 9298   7.166   2.187   3.514  0.5815 -1.0943 -0.5569
   80GLOH    O3 9299   7.010   2.145   3.647 -0.4499  0.5533  0.3369
   80GLOH   H01 9300   7.001   2.082   3.720 -1.6022  0.5895  0.2390
   81GLOH   H03 9301   4.401   3.501   4.535  1.4373 -0.3662 -0.8155
   81GLOH    O1 9302   4.442   3.586   4.513  0.3857  0.3763  0.0646
   81GLOH    C1 9303   4.518   3.648   4.615  0.1101  0.2723 -0.7334
   81GLOH   H02 9304   4.537   3.580   4.698  1.9260  0.2370 -1.1534
   81GLOH   H08 9305   4.462   3.726   4.667  1.2901  0.6954 -0.0809
   81GLOH    C2 9306   4.648   3.717   4.568 -0.6829  0.1707 -0.2387
   81GLOH   H04 9307   4.617   3.791   4.494 -1.1029 -0.5859 -0.8244
   81GLOH    O2 9308   4.725   3.777   4.679  0.3264  0.0518 -0.1562
   81GLOH   H05 9309   4.674   3.850   4.719  1.3655 -0.7189  2.7153
   81GLOH    C3 9310   4.731   3.616   4.496  0.0264 -0.6150  0.3064
   81GLOH   H06 9311   4.815   3.673   4.456 -2.7427  1.1888 -3.1810
   81GLOH   H07 9312   4.673   3.573   4.415  1.1840 -0.2129 -0.7451
   81GLOH    O3 9313   4.785   3.509   4.572  0.5747 -0.2189  0.0166
   81GLOH   H01 9314   4.813   3.543   4.660 -0.4618 -0.2370  0.3537
   82GLOH   H03 9315   2.634   4.333   2.362  0.5552  1.0188  1.3941
   82GLOH    O1 9316   2.640   4.417   2.313  0.4017  0.2145 -0.0198
   82GLOH    C1 9317   2.764   4.410   2.240  0.3271  0.4495  0.0272
   82GLOH   H02 9318   2.775   4.501   2.181  1.1472  0.0819 -0.3794
   82GLOH   H08 9319   2.763   4.332   2.164  1.9268  0.1668  0.2968
   82GLOH    C2 9320   2.886   4.372   2.330  0.1044  0.2261  0.1092
   82GLOH   H04 9321   2.859   4.281   2.385  0.3804 -0.2876 -0.6032
   82GLOH    O2 9322   2.995   4.354   2.242 -0.4645  0.0390  0.7031
   82GLOH   H05 9323   2.991   4.257   2.236  0.1596  0.1301 -1.6219
   82GLOH    C3 9324   2.928   4.485   2.432  0.1103  0.4198  0.0001
   82GLOH   H06 9325   2.921   4.580   2.379  1.1912  1.0605  0.9498
   82GLOH   H07 9326   3.035   4.473   2.454  0.4155  0.4641 -1.4476
   82GLOH    O3 9327   2.839   4.484   2.544  0.1616  0.5448 -0.6391
   82GLOH   H01 9328   2.865   4.561   2.597  0.7060 -0.1402  0.1029
   83GLOH   H03 9329   5.303   9.114   5.449 -0.5167 -2.4273 -0.5391
   83GLOH    O1 9330   5.396   9.091   5.462  0.0617 -0.0543 -0.1785
   83GLOH    C1 9331   5.423   8.988   5.361 -0.7980 -0.0010 -0.5937
   83GLOH   H02 9332   5.525   9.001   5.324 -0.6796 -0.7191 -0.5320
   83GLOH   H08 9333   5.353   9.003   5.279 -0.2898  0.7570 -0.9001
   83GLOH    C2 9334   5.403   8.846   5.424  0.2650  0.4175  0.7289
   83GLOH   H04 9335   5.295   8.847   5.447 -0.0937 -0.4046 -0.7803
   83GLOH    O2 9336   5.422   8.744   5.328  0.5926 -0.4765 -0.1131
   83GLOH   H05 9337   5.405   8.663   5.378 -1.3302  0.0187  0.0793
   83GLOH    C3 9338   5.475   8.830   5.558  0.3007 -0.4431  0.2792
   83GLOH   H06 9339   5.575   8.869   5.546  0.4244 -1.4346 -2.2610
   83GLOH   H07 9340   5.487   8.724   5.582  0.3454  0.1112  2.9170
   83GLOH    O3 9341   5.423   8.905   5.671  0.3955 -0.0680  0.0742
   83GLOH   H01 9342   5.452   8.998   5.661 -0.0512  0.0692  0.0193
   84GLOH   H03 9343   1.172   8.124   5.391 -0.1606 -0.2936  0.7729
   84GLOH    O1 9344   1.120   8.067   5.331 -0.5509  0.3539  0.4838
   84GLOH    C1 9345   1.137   7.928   5.368  0.1151 -0.1563  0.0832
   84GLOH   H02 9346   1.108   7.861   5.288  0.6982 -0.9511  0.5280
   84GLOH   H08 9347   1.075   7.905   5.455  1.2211  0.6424  1.1192
   84GLOH    C2 9348   1.275   7.874   5.410  0.2130 -0.1235 -0.7057
   84GLOH   H04 9349   1.305   7.905   5.512 -1.1622 -0.6313 -0.1357
   84GLOH    O2 9350   1.282   7.731   5.419  0.0081  0.1749 -0.5015
   84GLOH   H05 9351   1.212   7.689   5.472  0.6923  0.8091  0.9329
   84GLOH    C3 9352   1.387   7.916   5.318  0.2858  0.0128 -0.2043
   84GLOH   H06 9353   1.370   8.019   5.287 -0.2920 -0.5114 -1.6950
   84GLOH   H07 9354   1.374   7.858   5.226 -1.5030  2.1862 -1.3635
   84GLOH    O3 9355   1.523   7.920   5.370 -0.0365  0.4378  0.1161
   84GLOH   H01 9356   1.532   7.865   5.450 -0.3415 -1.3186 -1.0174
   85GLOH   H03 9357   8.194   6.305   0.270 -0.2658  0.6709 -0.1791
   85GLOH    O1 9358   8.268   6.356   0.310  0.2716  0.1598 -0.5119
   85GLOH    C1 9359   8.216   6.394   0.442 -0.0245  0.2490  0.0346
   85GLOH   H02 9360   8.108   6.398   0.431 -0.0874  1.8031  1.0257
   85GLOH   H08 9361   8.236   6.498   0.468 -1.3287  0.4077  0.4489
   85GLOH    C2 9362   8.255   6.296   0.555 -0.1863  0.1930 -0.5399
   85GLOH   H04 9363   8.191   6.325   0.639 -1.4689 -0.6999 -1.1827
   85GLOH    O2 9364   8.221   6.158   0.523  0.1566  0.4470 -0.3870
   85GLOH   H05 9365   8.299   6.101   0.527  0.5262  0.8511 -1.7689
   85GLOH    C3 9366   8.402   6.321   0.576 -0.7390 -0.2125 -0.3056
   85GLOH   H06 9367   8.418   6.414   0.631 -1.6040 -0.6774  0.7578
   85GLOH   H07 9368   8.448   6.320   0.478 -0.1784  1.1672 -0.0580
   85GLOH    O3 9369   8.455   6.213   0.660  0.3191  0.1183  0.7079
   85GLOH   H01 9370   8.493   6.152   0.595 -0.1498  0.4665  0.0944
   86GLOH   H03 9371   4.579   3.244   6.471  2.7967 -1.0155  1.6818
   86GLOH    O1 9372   4.624   3.233   6.385 -0.0876  0.1255 -0.0695
   86GLOH    C1 9373   4.599   3.103   6.334 -0.3588 -0.1624 -0.0654
   86GLOH   H02 9374   4.565   3.116   6.232  3.1729  0.0820 -1.2747
   86GLOH   H08 9375   4.519   3.052   6.388 -1.0998 -0.9016 -1.8234
   86GLOH    C2 9376   4.730   3.014   6.338 -0.1355  0.1237 -0.5124
   86GLOH   H04 9377   4.774   3.009   6.438 -0.3820 -2.0914 -0.4947
   86GLOH    O2 9378   4.693   2.878   6.288 -0.0754  0.3306  0.7355
   86GLOH   H05 9379   4.676   2.882   6.192 -0.0137 -0.5387  0.6808
   86GLOH    C3 9380   4.819   3.086   6.242 -0.0694  0.2589  0.4109
   86GLOH   H06 9381   4.817   3.190   6.272  1.6894  0.3322  0.3750
   86GLOH   H07 9382   4.783   3.085   6.139  2.3887  1.2862 -0.5240
   86GLOH    O3 9383   4.958   3.042   6.255 -0.3531  0.2402 -0.2077
   86GLOH   H01 9384   5.020   3.090   6.197  0.7117 -1.2744 -0.3538
   87GLOH   H03 9385   3.418   2.586   0.822 -0.5037  2.0262 -1.9345
   87GLOH    O1 9386   3.355   2.636   0.878 -0.7589 -0.0867 -0.2699
   87GLOH    C1 9387   3.257   2.544   0.932  0.1153  0.1803 -0.2844
   87GLOH   H02 9388   3.271   2.517   1.037 -0.3051 -1.6251 -0.6643
   87GLOH   H08 9389   3.278   2.452   0.877  0.4158  0.7117 -1.0694
   87GLOH    C2 9390   3.110   2.588   0.901 -0.3045 -0.6895  0.1689
   87GLOH   H04 9391   3.088   2.584   0.793 -3.5496  0.6514  0.7069
   87GLOH    O2 9392   3.014   2.512   0.970  0.0213  0.0997  0.0797
   87GLOH   H05 9393   3.049   2.422   0.979 -1.5673 -0.5866 -0.4420
   87GLOH    C3 9394   3.095   2.733   0.936 -0.5534  0.0628 -0.0154
   87GLOH   H06 9395   3.089   2.744   1.045 -1.2783 -0.2901 -0.0208
   87GLOH   H07 9396   2.998   2.755   0.892 -0.0608  0.9804 -0.6576
   87GLOH    O3 9397   3.192   2.823   0.879  0.3679  0.0576 -0.1199
   87GLOH   H01 9398   3.278   2.784   0.903  0.1420 -0.7506 -0.6013
   88GLOH   H03 9399   0.210   7.793   5.193 -0.8036 -0.8423 -0.3560
   88GLOH    O1 9400   0.180   7.756   5.278  0.6451 -0.3895  0.3714
   88GLOH    C1 9401   0.300   7.685   5.320 -0.7031  0.8259 -0.4812
   88GLOH   H02 9402   0.364   7.657   5.236 -1.4935 -2.1159 -0.1450
   88GLOH   H08 9403   0.279   7.597   5.380  0.1053  1.4694  0.7730
   88GLOH    C2 9404   0.404   7.766   5.400 -0.0649  0.1124  0.1155
   88GLOH   H04 9405   0.472   7.693   5.446 -0.3356  0.5324  1.1825
   88GLOH    O2 9406   0.483   7.862   5.323  0.3781 -0.3993 -0.3615
   88GLOH   H05 9407   0.522   7.835   5.239  1.0776 -0.9042  0.1198
   88GLOH    C3 9408   0.346   7.828   5.524  0.0242 -1.0207 -0.4277
   88GLOH   H06 9409   0.277   7.908   5.498  2.5809  2.6083  3.4161
   88GLOH   H07 9410   0.428   7.870   5.581 -0.7593  1.9490 -1.3938
   88GLOH    O3 9411   0.285   7.732   5.613 -0.2210 -0.3094  0.0328
   88GLOH   H01 9412   0.189   7.728   5.595 -0.0259 -0.7501 -0.9267
   89GLOH   H03 9413   1.356   5.032   3.831 -0.5947  0.9626  0.3805
   89GLOH    O1 9414   1.378   5.051   3.738 -0.7301 -0.0332  0.1399
   89GLOH    C1 9415   1.272   5.136   3.695 -0.3744 -0.4292  0.3753
   89GLOH   H02 9416   1.299   5.176   3.597 -1.2601 -0.1394  0.2437
   89GLOH   H08 9417   1.241   5.221   3.756 -0.7732  0.4711 -1.0516
   89GLOH    C2 9418   1.142   5.056   3.668  0.4143  0.3543  0.2828
   89GLOH   H04 9419   1.136   4.986   3.753 -0.5533 -0.2734 -0.2917
   89GLOH    O2 9420   1.025   5.145   3.663  0.0733 -0.4795  0.1083
   89GLOH   H05 9421   0.948   5.087   3.651  0.8033 -1.5099  0.2566
   89GLOH    C3 9422   1.140   4.966   3.544  0.1108 -0.0517 -0.1640
   89GLOH   H06 9423   1.052   4.901   3.547  0.4467 -0.4452  1.2432
   89GLOH   H07 9424   1.228   4.902   3.556 -0.8699 -0.9407  2.7047
   89GLOH    O3 9425   1.148   5.040   3.421 -0.7163 -0.0240 -0.3067
   89GLOH   H01 9426   1.241   5.061   3.400 -0.9811  1.8804  0.3898
   90GLOH   H03 9427   6.551   2.009   2.574 -2.7206  0.0316 -0.1751
   90GLOH    O1 9428   6.543   2.010   2.671 -0.0092  0.2030  0.0802
   90GLOH    C1 9429   6.525   2.147   2.718 -0.1885 -0.1128 -0.0843
   90GLOH   H02 9430   6.457   2.201   2.652  0.7519  2.1295  0.7432
   90GLOH   H08 9431   6.614   2.208   2.705 -0.6020  0.0605 -2.3601
   90GLOH    C2 9432   6.458   2.152   2.860 -0.1793 -0.4132  0.1401
   90GLOH   H04 9433   6.506   2.074   2.921  1.5014 -0.3117 -1.0143
   90GLOH    O2 9434   6.485   2.279   2.923  0.1398 -0.5043  0.3366
   90GLOH   H05 9435   6.436   2.352   2.882 -0.2970 -1.8319 -1.5705
   90GLOH    C3 9436   6.314   2.123   2.843  0.3863  0.2351 -0.1423
   90GLOH   H06 9437   6.263   2.132   2.939 -1.0785  2.7392 -1.1290
   90GLOH   H07 9438   6.315   2.018   2.813  0.7588  0.5551 -1.2563
   90GLOH    O3 9439   6.239   2.205   2.750 -0.3991  0.5083 -0.1520
   90GLOH   H01 9440   6.291   2.288   2.743 -0.9048  0.8911  0.5331
   91GLOH   H03 9441   0.328   1.608   1.878  1.0145  1.2944 -0.8873
   91GLOH    O1 9442   0.248   1.633   1.828  0.0606  0.4765  0.1820
   91GLOH    C1 9443   0.262   1.625   1.686 -0.9063 -0.0152  0.0070
   91GLOH   H02 9444   0.320   1.708   1.646 -0.6613 -0.2712 -0.1742
   91GLOH   H08 9445   0.163   1.643   1.644 -0.2297 -0.0279 -1.6215
   91GLOH    C2 9446   0.307   1.481   1.644 -0.5036  0.0266 -0.2818
   91GLOH   H04 9447   0.374   1.431   1.716  0.6633  1.9417 -0.0366
   91GLOH    O2 9448   0.184   1.407   1.621  0.1412 -0.4367 -0.1247
   91GLOH   H05 9449   0.155   1.374   1.708 -0.1259  3.1766  1.2383
   91GLOH    C3 9450   0.375   1.477   1.509  0.3544  0.5308 -0.6100
   91GLOH   H06 9451   0.303   1.483   1.428  0.4536 -0.2174 -0.7495
   91GLOH   H07 9452   0.428   1.384   1.494 -1.3092 -0.3703 -0.9851
   91GLOH    O3 9453   0.479   1.587   1.504  0.8182 -0.3574 -0.2638
   91GLOH   H01 9454   0.546   1.580   1.575  0.2323 -1.1092  0.2199
   92GLOH   H03 9455   1.548   1.120   6.830  2.5419  2.2312 -0.1886
   92GLOH    O1 9456   1.517   1.162   6.747  0.0639 -0.1028 -0.4975
   92GLOH    C1 9457   1.374   1.151   6.747 -0.2616  0.2592 -0.1180
   92GLOH   H02 9458   1.332   1.226   6.815  0.6646 -0.2137  1.0049
   92GLOH   H08 9459   1.340   1.051   6.772  2.2827 -0.5417  0.2844
   92GLOH    C2 9460   1.317   1.179   6.607  0.4774  0.0030  0.6967
   92GLOH   H04 9461   1.208   1.165   6.609 -0.0739  3.7170  1.7585
   92GLOH    O2 9462   1.339   1.318   6.569  0.0782  0.2367  0.2787
   92GLOH   H05 9463   1.424   1.340   6.609 -0.3216  1.6128  0.4119
   92GLOH    C3 9464   1.386   1.080   6.511 -0.0454 -0.2702  0.1025
   92GLOH   H06 9465   1.401   0.985   6.562 -0.1539 -0.4531 -0.2024
   92GLOH   H07 9466   1.490   1.113   6.506 -0.0006 -0.4350 -0.0473
   92GLOH    O3 9467   1.330   1.066   6.381 -0.4596  0.4878 -0.1538
   92GLOH   H01 9468   1.236   1.090   6.391 -0.6705 -0.8590  1.3512
   93GLOH   H03 9469   8.474   1.401   7.458 -0.7212 -0.9145 -0.0104
   93GLOH    O1 9470   8.546   1.435   7.401 -0.7213 -0.3762  0.3039
   93GLOH    C1 9471   8.660   1.365   7.444  0.1748 -0.4535 -0.3625
   93GLOH   H02 9472   8.694   1.382   7.546  0.8148 -2.4454 -0.2200
   93GLOH   H08 9473   8.741   1.393   7.376  0.8238 -2.1673 -0.3249
   93GLOH    C2 9474   8.639   1.211   7.431  0.3517 -0.1514 -0.4118
   93GLOH   H04 9475   8.537   1.184   7.460 -1.0125  1.3749 -3.5600
   93GLOH    O2 9476   8.638   1.175   7.288  0.2132  0.8434  0.1190
   93GLOH   H05 9477   8.590   1.246   7.242  0.4753  1.2932  0.5329
   93GLOH    C3 9478   8.749   1.129   7.500  0.2665 -0.2132  0.1569
   93GLOH   H06 9479   8.741   1.022   7.479  0.3606 -0.3206  0.6791
   93GLOH   H07 9480   8.729   1.149   7.605  0.0109  1.8021 -0.2553
   93GLOH    O3 9481   8.879   1.177   7.458 -0.2219  0.7098 -0.2645
   93GLOH   H01 9482   8.892   1.164   7.362 -0.8139 -0.1372 -0.2310
   94GLOH   H03 9483   5.830   9.749   1.455 -2.0198  0.7608 -0.2027
   94GLOH    O1 9484   5.885   9.798   1.391 -0.8200 -0.0273  0.2095
   94GLOH    C1 9485   5.815   9.813   1.270  0.1734  0.2458  0.3973
   94GLOH   H02 9486   5.790   9.714   1.231  1.1344  0.4213 -0.7105
   94GLOH   H08 9487   5.875   9.864   1.193  0.0448  0.1426  0.2273
   94GLOH    C2 9488   5.680   9.889   1.299  0.2252 -0.2522 -0.5000
   94GLOH   H04 9489   5.610   9.883   1.215 -0.4453  0.7228 -0.0291
   94GLOH    O2 9490   5.615   9.834   1.415 -0.6551 -0.3203  0.4995
   94GLOH   H05 9491   5.521   9.815   1.399 -0.8316  0.6324  0.3629
   94GLOH    C3 9492   5.707  10.040   1.313  0.1843  0.0360 -0.1803
   94GLOH   H06 9493   5.616  10.083   1.355  0.5009  0.2955  0.2299
   94GLOH   H07 9494   5.715  10.087   1.215 -0.8793  3.0492  1.1149
   94GLOH    O3 9495   5.810  10.086   1.402 -0.1432 -0.0676 -0.0809
   94GLOH   H01 9496   5.817  10.025   1.477  1.4180 -0.9433 -0.9056
   95GLOH   H03 9497   5.909   2.058   2.569  0.4179  0.2633  0.3377
   95GLOH    O1 9498   5.848   2.001   2.518  1.0123  0.1139 -0.2099
   95GLOH    C1 9499   5.927   1.890   2.466 -0.4319  0.6130  0.5120
   95GLOH   H02 9500   5.953   1.916   2.363 -0.0991  0.2933  0.5143
   95GLOH   H08 9501   5.878   1.793   2.465 -0.6400  0.7183 -0.7648
   95GLOH    C2 9502   6.051   1.869   2.545 -0.3138  0.9151  0.3346
   95GLOH   H04 9503   6.022   1.827   2.643 -1.2890 -0.6842 -0.6173
   95GLOH    O2 9504   6.132   1.765   2.474 -0.3547 -0.7470  0.1140
   95GLOH   H05 9505   6.185   1.810   2.406 -1.7932  0.1147 -0.4694
   95GLOH    C3 9506   6.122   2.005   2.553 -0.1960 -0.4880 -0.8101
   95GLOH   H06 9507   6.121   2.037   2.449 -1.8964  1.4531 -0.2170
   95GLOH   H07 9508   6.225   1.998   2.588 -0.3515 -1.2843 -0.4974
   95GLOH    O3 9509   6.045   2.095   2.638 -0.0781 -0.1733 -0.5821
   95GLOH   H01 9510   6.114   2.144   2.686 -0.2049  1.5490 -2.0977
   96GLOH   H03 9511   2.083   0.929   2.502  1.3919  0.2267 -1.4140
   96GLOH    O1 9512   2.059   1.022   2.485  0.1312  0.2016  0.1262
   96GLOH    C1 9513   1.927   1.042   2.429  0.3925 -0.4769  0.4451
   96GLOH   H02 9514   1.849   1.034   2.504  0.6141 -1.5406  0.5677
   96GLOH   H08 9515   1.910   0.965   2.353 -1.2661 -0.5789  0.8924
   96GLOH    C2 9516   1.929   1.180   2.357  0.3771  0.1330  0.2868
   96GLOH   H04 9517   2.003   1.182   2.276  0.9613 -0.2027  0.8051
   96GLOH    O2 9518   1.801   1.201   2.298 -0.5142 -0.6545  0.5958
   96GLOH   H05 9519   1.825   1.254   2.221  1.1420 -0.2747  1.3509
   96GLOH    C3 9520   1.966   1.287   2.461  0.3740 -0.3319 -0.2388
   96GLOH   H06 9521   1.882   1.287   2.531  0.7472 -2.6049  0.2523
   96GLOH   H07 9522   1.975   1.388   2.422  2.0197 -1.0492 -1.7617
   96GLOH    O3 9523   2.089   1.266   2.523  0.4745  0.3733  0.0412
   96GLOH   H01 9524   2.103   1.170   2.519  0.5513  0.3454  0.9425
   97GLOH   H03 9525   7.765   5.678   4.983 -1.0747 -1.2393  1.9026
   97GLOH    O1 9526   7.700   5.647   4.917 -0.1509  0.1064  0.3177
   97GLOH    C1 9527   7.672   5.755   4.822  0.0479 -0.2846  1.0254
   97GLOH   H02 9528   7.756   5.757   4.752  0.5346  1.4478  1.6166
   97GLOH   H08 9529   7.672   5.852   4.872 -1.2768  0.8722 -1.1657
   97GLOH    C2 9530   7.534   5.743   4.760  0.3009  0.4953 -0.0637
   97GLOH   H04 9531   7.459   5.757   4.839  1.1571 -0.2004  0.8919
   97GLOH    O2 9532   7.511   5.847   4.662 -0.2171  0.3831  0.2550
   97GLOH   H05 9533   7.588   5.862   4.604  1.1048 -0.8183  1.6625
   97GLOH    C3 9534   7.519   5.603   4.688 -0.0690 -0.1768  0.0698
   97GLOH   H06 9535   7.589   5.607   4.604 -1.1133 -2.2029 -0.9174
   97GLOH   H07 9536   7.421   5.599   4.640 -0.2811 -0.5074  0.5328
   97GLOH    O3 9537   7.536   5.501   4.782 -0.5151 -0.1002  0.0964
   97GLOH   H01 9538   7.598   5.547   4.842  0.0245 -0.6985  0.0001
   98GLOH   H03 9539   4.746   0.823   0.877 -0.2004 -0.0328  2.0219
   98GLOH    O1 9540   4.657   0.841   0.841  0.2852 -0.1748  0.7233
   98GLOH    C1 9541   4.672   0.864   0.699 -0.3103 -0.6129  0.8433
   98GLOH   H02 9542   4.756   0.933   0.682 -0.2104 -0.2574  2.6647
   98GLOH   H08 9543   4.583   0.921   0.672 -1.1713 -1.9010  0.9372
   98GLOH    C2 9544   4.672   0.734   0.616  0.0106 -0.7322 -0.2562
   98GLOH   H04 9545   4.575   0.687   0.642 -0.5867  0.8742  0.4676
   98GLOH    O2 9546   4.668   0.740   0.473 -0.2031 -0.0209 -0.0763
   98GLOH   H05 9547   4.763   0.744   0.451  0.0504  2.1061  1.1903
   98GLOH    C3 9548   4.789   0.641   0.658 -0.8452 -0.3882  0.4733
   98GLOH   H06 9549   4.781   0.558   0.588 -2.2575  0.1849 -0.0637
   98GLOH   H07 9550   4.760   0.604   0.757  1.9577 -0.5923  1.2724
   98GLOH    O3 9551   4.924   0.689   0.662 -0.0113  0.0252  0.0887
   98GLOH   H01 9552   4.939   0.741   0.581 -1.3580  0.2970 -0.0004
   99GLOH   H03 9553   4.705   9.401   1.118  0.2534 -1.8164 -0.6253
   99GLOH    O1 9554   4.612   9.384   1.094 -0.3599  0.0763  0.2894
   99GLOH    C1 9555   4.597   9.387   0.951 -0.1640  0.1247 -0.3966
   99GLOH   H02 9556   4.682   9.444   0.913  0.0306 -0.5975 -1.0561
   99GLOH   H08 9557   4.503   9.431   0.919 -0.6133  0.1513  0.9468
   99GLOH    C2 9558   4.614   9.253   0.870 -0.4043  0.0206 -0.5826
   99GLOH   H04 9559   4.558   9.262   0.775 -2.5427 -0.1785  0.6235
   99GLOH    O2 9560   4.749   9.217   0.849 -0.1756  0.0865  0.4602
   99GLOH   H05 9561   4.796   9.276   0.910  0.5558  0.7300 -0.7281
   99GLOH    C3 9562   4.546   9.142   0.950 -1.2337  0.5479  0.3645
   99GLOH   H06 9563   4.591   9.139   1.049 -2.3596  0.0766  0.8730
   99GLOH   H07 9564   4.561   9.044   0.905  0.1009  1.1669 -0.5966
   99GLOH    O3 9565   4.402   9.174   0.961 -0.9457 -0.4158  0.1652
   99GLOH   H01 9566   4.359   9.093   0.927 -0.2947 -0.2799 -0.9799
  100GLOH   H03 9567   1.650   4.901   3.363 -0.5866 -0.0740  1.2161
  100GLOH    O1 9568   1.573   4.883   3.306  0.1905  0.1574  0.0853
  100GLOH    C1 9569   1.585   4.958   3.180 -0.7181  0.5199  0.3243
  100GLOH   H02 9570   1.521   4.918   3.101  0.7912 -0.6026 -0.3567
  100GLOH   H08 9571   1.688   4.948   3.146 -0.4664 -0.6223  1.4160
  100GLOH    C2 9572   1.558   5.110   3.192  0.4750 -0.3211  0.6218
  100GLOH   H04 9573   1.634   5.149   3.261  0.6381 -0.2784  0.4186
  100GLOH    O2 9574   1.578   5.180   3.067  0.4920 -0.1195  0.6242
  100GLOH   H05 9575   1.669   5.213   3.076  0.7632 -0.2982 -1.2274
  100GLOH    C3 9576   1.419   5.138   3.245 -0.2990  0.2219 -0.0597
  100GLOH   H06 9577   1.344   5.112   3.170 -0.8175 -0.5314  0.7142
  100GLOH   H07 9578   1.408   5.245   3.265 -0.2242  1.3750 -5.3335
  100GLOH    O3 9579   1.389   5.072   3.366 -0.0066 -0.1233 -0.3610
  100GLOH   H01 9580   1.437   4.988   3.370 -2.2127 -1.4630 -1.3326
  101GLOH   H03 9581   3.855   7.616   4.636  0.4266  0.0609 -0.0794
  101GLOH    O1 9582   3.833   7.538   4.582  0.0693  0.1070 -0.0028
  101GLOH    C1 9583   3.732   7.577   4.487  0.4118  0.4020 -0.3064
  101GLOH   H02 9584   3.752   7.675   4.444 -2.4487  1.4293  0.5668
  101GLOH   H08 9585   3.633   7.590   4.529  0.7057  0.2651  0.4336
  101GLOH    C2 9586   3.706   7.482   4.370 -0.1185  0.2754  0.2269
  101GLOH   H04 9587   3.630   7.529   4.306 -0.0663 -1.2992 -1.0352
  101GLOH    O2 9588   3.831   7.466   4.302  0.2293 -0.2938 -0.1862
  101GLOH   H05 9589   3.870   7.379   4.320  1.3048  0.0623 -0.7387
  101GLOH    C3 9590   3.644   7.350   4.425  0.4816 -0.6887  0.2208
  101GLOH   H06 9591   3.701   7.323   4.514  0.1500 -2.0896  0.0171
  101GLOH   H07 9592   3.670   7.268   4.358  1.2926 -0.6725  0.5083
  101GLOH    O3 9593   3.505   7.343   4.459  0.3308 -0.4690 -0.1385
  101GLOH   H01 9594   3.457   7.312   4.380 -1.7100  2.7495 -0.2278
  102GLOH   H03 9595   8.177   5.062   0.276 -0.2392 -0.1097  0.5642
  102GLOH    O1 9596   8.226   4.981   0.297 -0.7088 -0.4888  0.1964
  102GLOH    C1 9597   8.353   5.013   0.360  0.3257  0.0706 -0.5880
  102GLOH   H02 9598   8.393   5.087   0.291 -2.2150 -1.1350 -3.4355
  102GLOH   H08 9599   8.424   4.931   0.362  0.1769 -0.0552  0.9883
  102GLOH    C2 9600   8.332   5.068   0.504  0.5340  0.0825 -0.0370
  102GLOH   H04 9601   8.265   5.010   0.569 -0.4640  1.1304 -0.1081
  102GLOH    O2 9602   8.464   5.076   0.565 -0.6471  0.1002 -0.0965
  102GLOH   H05 9603   8.469   5.103   0.658 -0.7254  1.6050 -0.5140
  102GLOH    C3 9604   8.275   5.210   0.503 -0.1996  0.0977 -0.2971
  102GLOH   H06 9605   8.353   5.271   0.459 -0.6400  1.0385  0.2178
  102GLOH   H07 9606   8.257   5.239   0.606  0.0434  0.9681 -0.5017
  102GLOH    O3 9607   8.144   5.227   0.432  0.1006 -0.2629 -0.3949
  102GLOH   H01 9608   8.062   5.203   0.478  0.5257 -2.8431 -0.8917
  103GLOH   H03 9609   7.098   6.213   5.628  1.9643 -0.0071  0.1570
  103GLOH    O1 9610   7.094   6.178   5.719  0.3404 -0.4857 -0.0794
  103GLOH    C1 9611   7.147   6.278   5.813  0.4978  0.3672  0.0964
  103GLOH   H02 9612   7.126   6.237   5.912 -0.3060 -0.8994 -0.5755
  103GLOH   H08 9613   7.103   6.377   5.812 -1.8607 -0.6476 -1.0539
  103GLOH    C2 9614   7.303   6.300   5.806 -0.0101  0.4609  0.2382
  103GLOH   H04 9615   7.327   6.316   5.700 -0.5325 -1.9311 -0.2771
  103GLOH    O2 9616   7.339   6.413   5.883 -0.2148 -0.1163  0.3646
  103GLOH   H05 9617   7.358   6.389   5.975  1.5618  2.0992  0.6402
  103GLOH    C3 9618   7.392   6.175   5.844 -0.6778  0.0393 -0.0730
  103GLOH   H06 9619   7.366   6.096   5.773 -2.3442  1.2957 -0.8793
  103GLOH   H07 9620   7.371   6.140   5.945  2.7999  0.6889  0.9212
  103GLOH    O3 9621   7.533   6.201   5.820 -0.0978 -0.0926  0.0242
  103GLOH   H01 9622   7.543   6.186   5.724 -2.9775  1.9109 -0.6980
  104GLOH   H03 9623   6.045   0.491   7.720  0.4209 -1.5372  0.8160
  104GLOH    O1 9624   6.097   0.537   7.789 -0.2831 -0.2148  0.4699
  104GLOH    C1 9625   6.232   0.495   7.770  0.6777  0.1175  0.6925
  104GLOH   H02 9626   6.264   0.528   7.672  0.8211 -0.7146  0.4512
  104GLOH   H08 9627   6.233   0.386   7.772  2.5454  0.1389  3.6302
  104GLOH    C2 9628   6.323   0.551   7.877  0.1379  0.2123  0.4590
  104GLOH   H04 9629   6.287   0.499   7.966  0.8317 -0.6524  0.2408
  104GLOH    O2 9630   6.462   0.506   7.869 -0.2302 -0.0859  0.0657
  104GLOH   H05 9631   6.469   0.411   7.888  0.0768  0.0047  0.4178
  104GLOH    C3 9632   6.313   0.700   7.887  0.4381 -0.1712  0.0477
  104GLOH   H06 9633   6.324   0.733   7.784  0.1853 -3.4357 -1.0613
  104GLOH   H07 9634   6.383   0.744   7.959  0.3196 -0.5755  0.4110
  104GLOH    O3 9635   6.177   0.723   7.936 -0.1081 -0.0427 -0.5934
  104GLOH   H01 9636   6.123   0.649   7.903  0.3927 -0.1581 -1.1748
  105GLOH   H03 9637   0.206   2.410   1.619 -1.8656  0.5621  1.0038
  105GLOH    O1 9638   0.153   2.466   1.560 -0.6837  0.1959 -0.4436
  105GLOH    C1 9639   0.022   2.407   1.524 -0.2940 -0.3962  0.2161
  105GLOH   H02 9640  -0.037   2.387   1.614 -2.4373  2.7468 -0.4272
  105GLOH   H08 9641   0.049   2.310   1.482  3.3188  0.9729 -0.7927
  105GLOH    C2 9642  -0.047   2.485   1.412  0.3211 -0.7263 -0.5287
  105GLOH   H04 9643  -0.005   2.474   1.311 -0.0455 -1.1213 -0.6441
  105GLOH    O2 9644  -0.180   2.441   1.393 -0.5827  0.1529 -0.0885
  105GLOH   H05 9645  -0.191   2.426   1.298 -1.1313  0.6373 -0.1064
  105GLOH    C3 9646  -0.042   2.634   1.458  0.5000 -0.0878  0.1599
  105GLOH   H06 9647  -0.093   2.656   1.552 -0.4942  0.4943 -0.5028
  105GLOH   H07 9648  -0.100   2.688   1.383 -0.6051 -0.3719  0.8057
  105GLOH    O3 9649   0.093   2.681   1.466 -0.2467 -0.0493 -0.0583
  105GLOH   H01 9650   0.136   2.606   1.511 -1.8608 -1.4687 -0.8040
  106GLOH   H03 9651   5.164   4.165   0.349  0.3848  2.7310  0.9906
  106GLOH    O1 9652   5.249   4.140   0.310 -0.6123 -0.0939  0.4392
  106GLOH    C1 9653   5.350   4.237   0.362 -0.6959 -0.0373 -0.0898
  106GLOH   H02 9654   5.367   4.222   0.468  0.9469 -1.5888 -0.5685
  106GLOH   H08 9655   5.338   4.346   0.354  0.3047  0.0144 -0.9827
  106GLOH    C2 9656   5.490   4.214   0.305  0.2227  0.1975  0.3001
  106GLOH   H04 9657   5.481   4.241   0.199 -3.5776  1.0213  0.7582
  106GLOH    O2 9658   5.583   4.296   0.372  0.5256  0.0498  0.0812
  106GLOH   H05 9659   5.632   4.346   0.303 -1.4271 -0.3830 -1.6634
  106GLOH    C3 9660   5.531   4.060   0.303 -0.0754 -0.5401 -0.6877
  106GLOH   H06 9661   5.540   4.026   0.406 -1.3069 -0.5367 -0.5620
  106GLOH   H07 9662   5.625   4.042   0.252  0.0552 -3.5455  0.5388
  106GLOH    O3 9663   5.435   3.986   0.226 -0.3428  0.7529 -0.3182
  106GLOH   H01 9664   5.349   4.029   0.246  0.5709  1.2141  2.9475
  107GLOH   H03 9665   0.198   0.927   7.550  0.1579  1.2492  0.9653
  107GLOH    O1 9666   0.284   0.910   7.508 -0.2941  0.6051  0.2995
  107GLOH    C1 9667   0.347   0.798   7.574 -0.2186 -1.1209 -0.4235
  107GLOH   H02 9668   0.303   0.704   7.540 -2.4053  0.1364 -1.1091
  107GLOH   H08 9669   0.345   0.809   7.683  1.5589 -1.0359 -0.3813
  107GLOH    C2 9670   0.498   0.806   7.538  0.0637  0.2092  0.1240
  107GLOH   H04 9671   0.532   0.904   7.574  1.1934  0.0587 -0.5072
  107GLOH    O2 9672   0.578   0.711   7.616  0.3211 -0.0046  0.7527
  107GLOH   H05 9673   0.525   0.689   7.694 -1.9279  0.6826 -0.5519
  107GLOH    C3 9674   0.530   0.780   7.386 -0.4584  0.4917  0.4467
  107GLOH   H06 9675   0.515   0.674   7.364  1.4114 -0.0500  1.5926
  107GLOH   H07 9676   0.636   0.791   7.366 -0.9095  1.3020 -1.5867
  107GLOH    O3 9677   0.439   0.854   7.307 -0.3020 -0.1813 -0.1536
  107GLOH   H01 9678   0.358   0.874   7.357 -0.2729  3.5456 -1.4090
  108GLOH   H03 9679   1.783   0.227   4.878  1.2982 -0.3464 -1.7748
  108GLOH    O1 9680   1.735   0.287   4.818  0.0951  0.1722 -0.3223
  108GLOH    C1 9681   1.746   0.426   4.851  0.3261  0.3619  0.4189
  108GLOH   H02 9682   1.751   0.484   4.759 -0.3885  0.9843  0.7688
  108GLOH   H08 9683   1.838   0.438   4.908 -0.5898  1.2536  1.7363
  108GLOH    C2 9684   1.632   0.473   4.940  0.4269 -0.0844 -0.2236
  108GLOH   H04 9685   1.640   0.442   5.045  2.0084  2.1986  0.3814
  108GLOH    O2 9686   1.628   0.619   4.945  0.3459  0.0638  0.3413
  108GLOH   H05 9687   1.603   0.646   5.035  1.4726 -1.7258  1.2274
  108GLOH    C3 9688   1.498   0.417   4.893 -0.5365  0.2297  0.0363
  108GLOH   H06 9689   1.498   0.308   4.884  1.5727  0.2366 -0.4692
  108GLOH   H07 9690   1.491   0.449   4.789  1.0492  1.6203  0.3295
  108GLOH    O3 9691   1.390   0.455   4.984 -0.6469  0.4435 -0.2624
  108GLOH   H01 9692   1.428   0.445   5.073 -1.9457  0.3272  0.2887
  109GLOH   H03 9693   5.711   1.706   0.930  1.0592 -1.9000 -0.2562
  109GLOH    O1 9694   5.659   1.636   0.973 -0.0279 -0.6477  0.5026
  109GLOH    C1 9695   5.706   1.636   1.108  0.6229  0.2617 -0.6086
  109GLOH   H02 9696   5.751   1.731   1.137  2.8044 -1.1624  0.7872
  109GLOH   H08 9697   5.789   1.566   1.116 -0.4521 -0.8302  1.4827
  109GLOH    C2 9698   5.587   1.598   1.206  0.2305  0.2464 -0.0312
  109GLOH   H04 9699   5.539   1.505   1.172 -0.8577  0.5438  0.6772
  109GLOH    O2 9700   5.642   1.574   1.340  0.0340  0.1874 -0.4429
  109GLOH   H05 9701   5.590   1.622   1.406 -0.1782 -0.4010 -0.1797
  109GLOH    C3 9702   5.486   1.721   1.197 -0.9615  0.1453  0.5834
  109GLOH   H06 9703   5.472   1.751   1.093 -2.1574 -0.3738  0.5878
  109GLOH   H07 9704   5.538   1.806   1.240 -2.3086  0.2978  1.9825
  109GLOH    O3 9705   5.365   1.703   1.274 -0.4186 -0.3411  0.0617
  109GLOH   H01 9706   5.315   1.782   1.245  1.9391  0.8977 -0.7385
  110GLOH   H03 9707   6.613   7.723   7.629  0.2080 -0.4525  0.2202
  110GLOH    O1 9708   6.602   7.671   7.711 -0.3553 -0.3938  0.1782
  110GLOH    C1 9709   6.728   7.627   7.760  0.9284 -0.4259 -0.1131
  110GLOH   H02 9710   6.801   7.703   7.734  1.2870 -1.1748 -1.2727
  110GLOH   H08 9711   6.754   7.532   7.713 -0.5792 -1.2619  0.6913
  110GLOH    C2 9712   6.744   7.621   7.919  0.4730 -0.2705  0.4193
  110GLOH   H04 9713   6.843   7.577   7.939  1.1406  1.4975  1.1105
  110GLOH    O2 9714   6.742   7.752   7.973  0.2738  0.2355 -0.1530
  110GLOH   H05 9715   6.757   7.742   8.068  1.2958  2.7900  0.0108
  110GLOH    C3 9716   6.631   7.536   7.975 -0.4422  0.7335 -0.8718
  110GLOH   H06 9717   6.531   7.578   7.960 -1.0929 -0.8059 -0.9879
  110GLOH   H07 9718   6.647   7.547   8.082  0.3933  1.2912 -1.0475
  110GLOH    O3 9719   6.646   7.394   7.939  0.6265  0.0048 -0.7759
  110GLOH   H01 9720   6.724   7.363   7.990  1.1243 -0.4310 -1.7731
  111GLOH   H03 9721   6.164   5.100   2.099 -1.1847 -0.2556 -0.3620
  111GLOH    O1 9722   6.181   5.005   2.116  0.1445 -0.0046 -0.1998
  111GLOH    C1 9723   6.151   4.977   2.257 -0.1685 -0.6540 -0.8326
  111GLOH   H02 9724   6.044   4.993   2.268  0.2297  2.9982 -1.6765
  111GLOH   H08 9725   6.206   5.047   2.320 -0.4667 -2.3372  1.3569
  111GLOH    C2 9726   6.204   4.835   2.309 -0.1586 -0.5487 -0.4720
  111GLOH   H04 9727   6.311   4.849   2.328 -0.2168 -0.3422 -0.2932
  111GLOH    O2 9728   6.166   4.802   2.447 -0.2567 -0.0616 -0.2751
  111GLOH   H05 9729   6.069   4.792   2.447 -0.2705  0.0712  0.8193
  111GLOH    C3 9730   6.178   4.717   2.204 -0.8821 -0.1505 -0.2298
  111GLOH   H06 9731   6.249   4.637   2.225 -1.7638 -0.6498  0.9369
  111GLOH   H07 9732   6.211   4.754   2.107  0.2873  0.7223  0.4908
  111GLOH    O3 9733   6.046   4.664   2.198  0.2450  0.5033  0.0620
  111GLOH   H01 9734   6.055   4.570   2.177 -0.7607  0.5933 -0.8648
  112GLOH   H03 9735   3.777   9.115   4.718  1.9480 -1.5326  0.2484
  112GLOH    O1 9736   3.795   9.128   4.624 -0.2501  0.7413  0.0958
  112GLOH    C1 9737   3.803   9.269   4.596  0.9931  0.4581  0.0203
  112GLOH   H02 9738   3.728   9.323   4.654  0.0992 -1.4210  0.6430
  112GLOH   H08 9739   3.776   9.286   4.491 -0.1406  0.0540  0.2326
  112GLOH    C2 9740   3.940   9.330   4.626  0.3286  0.0313 -0.0192
  112GLOH   H04 9741   3.932   9.437   4.598  0.1975 -0.3805 -1.6395
  112GLOH    O2 9742   3.970   9.334   4.767 -0.1294  0.0082 -0.3780
  112GLOH   H05 9743   4.059   9.301   4.790  0.8974  1.8560 -1.6916
  112GLOH    C3 9744   4.054   9.266   4.552  0.4876 -0.0866  0.7133
  112GLOH   H06 9745   4.038   9.159   4.566  3.0527 -0.5854  0.0590
  112GLOH   H07 9746   4.146   9.291   4.605  1.1705 -0.8471 -0.0861
  112GLOH    O3 9747   4.061   9.303   4.411  0.4445  0.0525 -0.4074
  112GLOH   H01 9748   4.079   9.397   4.394  1.7267  0.1045  1.0710
  113GLOH   H03 9749   2.983   9.855   6.078 -2.5036  4.8422  1.5376
  113GLOH    O1 9750   2.914   9.795   6.112  0.4321  0.3647  0.1118
  113GLOH    C1 9751   2.818   9.865   6.186 -0.8348  0.0257 -0.1866
  113GLOH   H02 9752   2.810   9.968   6.150  2.0411  0.2719 -0.2420
  113GLOH   H08 9753   2.852   9.875   6.289 -1.2588 -0.3518 -0.0078
  113GLOH    C2 9754   2.685   9.791   6.215 -0.2315 -0.2049  0.0531
  113GLOH   H04 9755   2.709   9.700   6.273 -1.5646 -1.5313 -1.4126
  113GLOH    O2 9756   2.584   9.872   6.280 -0.2517  0.1842 -0.4624
  113GLOH   H05 9757   2.529   9.919   6.215  0.5320 -0.6053 -1.7137
  113GLOH    C3 9758   2.625   9.751   6.084  0.0164 -0.3928 -0.1509
  113GLOH   H06 9759   2.524   9.717   6.108 -1.2040  2.5033 -1.0545
  113GLOH   H07 9760   2.688   9.668   6.051  0.2842 -1.5722  3.1419
  113GLOH    O3 9761   2.621   9.863   5.998 -0.2454  0.2058  0.2020
  113GLOH   H01 9762   2.583   9.833   5.914 -0.4137  0.9185  0.0213
  114GLOH   H03 9763   9.249   1.130   0.981  0.0294 -0.5591 -0.2522
  114GLOH    O1 9764   9.317   1.120   0.912 -0.0420  0.0068 -0.4111
  114GLOH    C1 9765   9.357   1.255   0.873  0.1597 -0.3195  0.3379
  114GLOH   H02 9766   9.463   1.244   0.852  0.1292  2.3501 -1.5250
  114GLOH   H08 9767   9.354   1.324   0.957  2.8312  0.4662 -0.1651
  114GLOH    C2 9768   9.287   1.317   0.754  0.2158  0.2506  0.1534
  114GLOH   H04 9769   9.183   1.337   0.783  0.7089 -0.5825  2.6508
  114GLOH    O2 9770   9.342   1.442   0.713  0.2798  0.2196  0.1590
  114GLOH   H05 9771   9.287   1.487   0.647  0.6813  0.3415 -0.0970
  114GLOH    C3 9772   9.291   1.216   0.636 -0.2454  0.1877  0.6832
  114GLOH   H06 9773   9.395   1.199   0.606 -0.2432  0.1924  0.6851
  114GLOH   H07 9774   9.245   1.265   0.551  1.3151  0.7196  0.1213
  114GLOH    O3 9775   9.227   1.092   0.676 -0.6864  0.0023 -0.2035
  114GLOH   H01 9776   9.282   1.070   0.753  0.0846  1.3555 -0.3365
  115GLOH   H03 9777   4.632   5.256   0.862  1.3557 -1.2243 -0.4796
  115GLOH    O1 9778   4.704   5.321   0.871  0.1638  0.0178  0.2505
  115GLOH    C1 9779   4.823   5.244   0.859 -0.1863 -0.6527  0.5041
  115GLOH   H02 9780   4.889   5.281   0.782 -0.7717 -1.2626 -0.3038
  115GLOH   H08 9781   4.793   5.148   0.815  0.5107 -0.4300 -0.4574
  115GLOH    C2 9782   4.894   5.237   0.998  0.1724 -0.6133 -0.4530
  115GLOH   H04 9783   4.832   5.180   1.068  0.1428  0.2454  0.2301
  115GLOH    O2 9784   5.016   5.163   0.985  0.7628 -0.3147  0.2552
  115GLOH   H05 9785   5.020   5.124   0.897 -0.0847  0.1420  0.0030
  115GLOH    C3 9786   4.921   5.378   1.051  0.2229  0.3211 -0.4570
  115GLOH   H06 9787   5.005   5.417   0.994  0.7567 -1.8100 -1.1854
  115GLOH   H07 9788   4.962   5.358   1.150  3.1360 -1.1866 -1.9065
  115GLOH    O3 9789   4.801   5.458   1.060  0.2142  0.1612 -0.3643
  115GLOH   H01 9790   4.732   5.411   1.009 -0.6893 -1.3987  2.2421
  116GLOH   H03 9791   6.754   5.122   7.608 -0.9602 -1.3382 -0.9441
  116GLOH    O1 9792   6.837   5.075   7.589  0.2291  0.0758  0.6437
  116GLOH    C1 9793   6.823   5.030   7.452 -0.0750 -0.1658 -0.1904
  116GLOH   H02 9794   6.727   5.051   7.406 -1.3312  0.6021  2.6619
  116GLOH   H08 9795   6.842   4.923   7.444  0.1360 -0.2505  1.2847
  116GLOH    C2 9796   6.930   5.095   7.364 -0.3856 -0.6604 -0.6706
  116GLOH   H04 9797   7.027   5.085   7.415 -0.8474 -1.4847  0.0533
  116GLOH    O2 9798   6.939   5.023   7.241  0.6859 -0.2043  0.1509
  116GLOH   H05 9799   7.011   5.059   7.187 -0.7944  0.2763 -1.5503
  116GLOH    C3 9800   6.885   5.245   7.346 -0.4561  0.4898 -0.1357
  116GLOH   H06 9801   6.968   5.304   7.306  1.5927 -0.9266  1.8795
  116GLOH   H07 9802   6.878   5.297   7.442  0.0047  1.6823 -0.7343
  116GLOH    O3 9803   6.763   5.265   7.275 -0.4060 -0.6134 -0.5425
  116GLOH   H01 9804   6.772   5.262   7.178 -1.3366 -2.8798 -0.5872
  117GLOH   H03 9805   2.718   5.834   3.481 -1.8095  3.1600 -1.7900
  117GLOH    O1 9806   2.798   5.890   3.487  0.7657 -0.4868 -0.4096
  117GLOH    C1 9807   2.781   5.978   3.602  0.3701  0.2478 -0.1445
  117GLOH   H02 9808   2.713   5.932   3.673 -0.2581 -2.8970 -2.6725
  117GLOH   H08 9809   2.731   6.070   3.573 -0.0293  0.9386  2.5466
  117GLOH    C2 9810   2.923   6.008   3.662 -0.2767 -0.3392  0.5154
  117GLOH   H04 9811   2.961   5.913   3.701  2.2126  0.4252  0.0456
  117GLOH    O2 9812   3.016   6.059   3.560  0.1606 -0.4360  0.1748
  117GLOH   H05 9813   3.050   5.984   3.510 -0.5485 -0.5078 -0.2202
  117GLOH    C3 9814   2.919   6.096   3.779  0.4366 -0.9068 -0.0471
  117GLOH   H06 9815   3.020   6.126   3.804 -0.0490 -0.5792  1.5503
  117GLOH   H07 9816   2.886   6.051   3.872 -0.2155  1.1002  0.7303
  117GLOH    O3 9817   2.845   6.211   3.760 -0.4713 -0.7693 -0.6851
  117GLOH   H01 9818   2.776   6.221   3.828  0.3106 -0.5936  0.0992
  118GLOH   H03 9819   5.647   5.172   1.001  1.4121  1.7131  1.5461
  118GLOH    O1 9820   5.676   5.214   0.918  0.2490 -0.4167  0.0079
  118GLOH    C1 9821   5.680   5.120   0.813  0.0155 -0.6475 -0.3024
  118GLOH   H02 9822   5.602   5.044   0.814 -0.8373  0.2115 -1.3629
  118GLOH   H08 9823   5.773   5.064   0.818  0.5608  0.2176 -0.6457
  118GLOH    C2 9824   5.676   5.192   0.677 -0.5843  0.5791  0.3504
  118GLOH   H04 9825   5.667   5.114   0.600  2.6185 -0.5339  1.0234
  118GLOH    O2 9826   5.567   5.279   0.658  0.1367  0.0610  0.1851
  118GLOH   H05 9827   5.520   5.291   0.742  0.8950 -2.1511  0.9433
  118GLOH    C3 9828   5.801   5.279   0.664 -0.6521 -0.3943 -0.7648
  118GLOH   H06 9829   5.792   5.362   0.734 -1.0985 -0.0375 -1.2409
  118GLOH   H07 9830   5.795   5.335   0.570 -0.5158 -0.7835 -1.0097
  118GLOH    O3 9831   5.924   5.204   0.681 -0.5741  0.6647  0.8035
  118GLOH   H01 9832   5.973   5.228   0.600 -0.8267  0.5474  0.6189
  119GLOH   H03 9833   7.178   1.111   6.648 -0.1990  0.3687  0.4638
  119GLOH    O1 9834   7.121   1.081   6.574  0.3083 -0.2175  0.3116
  119GLOH    C1 9835   7.112   0.939   6.588 -0.4729  0.6382  0.4913
  119GLOH   H02 9836   7.130   0.914   6.692  0.1302 -1.1372 -0.0173
  119GLOH   H08 9837   7.189   0.894   6.526 -0.9537  1.0962 -0.4582
  119GLOH    C2 9838   6.970   0.881   6.542  0.0038 -0.0679 -0.3437
  119GLOH   H04 9839   6.894   0.951   6.580 -1.4792  0.0179 -3.3917
  119GLOH    O2 9840   6.944   0.873   6.401  0.0285 -0.3267  0.2465
  119GLOH   H05 9841   6.999   0.816   6.345  1.6556  0.1392  1.3388
  119GLOH    C3 9842   6.925   0.756   6.625 -0.8360  0.5587 -0.0150
  119GLOH   H06 9843   6.991   0.676   6.594 -1.5654  0.4417 -1.2808
  119GLOH   H07 9844   6.828   0.726   6.586  0.4158 -1.2906 -1.7775
  119GLOH    O3 9845   6.919   0.769   6.766 -0.7157 -0.3770 -0.5990
  119GLOH   H01 9846   6.874   0.854   6.777  1.7053  0.9194 -0.3209
  120GLOH   H03 9847   1.622   8.323   2.999  0.5354  0.1070 -0.7722
  120GLOH    O1 9848   1.660   8.397   3.051 -0.5110 -0.1261  0.3565
  120GLOH    C1 9849   1.703   8.343   3.175 -0.2710 -0.1976  0.7582
  120GLOH   H02 9850   1.773   8.262   3.157  0.6821  0.5592  1.0084
  120GLOH   H08 9851   1.621   8.302   3.235 -0.2314 -0.8228  0.3911
  120GLOH    C2 9852   1.771   8.455   3.257  0.2000  0.1660  0.0066
  120GLOH   H04 9853   1.720   8.552   3.255 -0.5794 -0.2467 -0.1112
  120GLOH    O2 9854   1.780   8.403   3.389 -0.3243  0.0735  0.4227
  120GLOH   H05 9855   1.723   8.462   3.440 -1.8215  0.8630 -2.0925
  120GLOH    C3 9856   1.914   8.473   3.198 -0.4427 -0.1183  0.2661
  120GLOH   H06 9857   1.915   8.449   3.092  0.5961 -1.9634  0.6781
  120GLOH   H07 9858   1.976   8.400   3.249  0.4821 -0.1070 -0.8262
  120GLOH    O3 9859   1.979   8.598   3.224  0.2240 -0.1044 -0.3883
  120GLOH   H01 9860   1.918   8.674   3.220  0.7163  0.2650 -0.9449
  121ACOH    H4 9861   4.424   2.941   3.473  2.2843  0.8172  2.1108
  121ACOH    O2 9862   4.428   2.849   3.503 -0.6596 -0.1966 -0.3831
  121ACOH    C2 9863   4.402   2.758   3.407 -0.3306 -0.2556  0.1547
  121ACOH    O1 9864   4.370   2.789   3.290 -0.2629  0.1793 -0.3227
  121ACOH    C1 9865   4.387   2.618   3.460 -0.1030  0.3870  0.0053
  121ACOH    H1 9866   4.342   2.555   3.384  1.3727 -2.2934  1.2821
  121ACOH    H2 9867   4.311   2.620   3.537 -0.8186 -0.5079 -0.6664
  121ACOH    H3 9868   4.484   2.580   3.493  0.3706  1.4368 -0.1465
  122ACOH    H4 9869   3.330   0.910   7.780 -0.3106 -0.9464 -0.6172
  122ACOH    O2 9870   3.411   0.877   7.823  0.1704  0.0322 -0.7698
  122ACOH    C2 9871   3.373   0.775   7.903  0.1864  0.1225  0.3851
  122ACOH    O1 9872   3.257   0.741   7.933 -0.6948 -0.1977 -0.4914
  122ACOH    C1 9873   3.483   0.706   7.975  0.9605 -0.1981  0.8368
  122ACOH    H1 9874   3.471   0.603   7.944  1.0101  0.5236 -1.7264
  122ACOH    H2 9875   3.470   0.733   8.080  0.2304  1.7912  0.2689
  122ACOH    H3 9876   3.581   0.745   7.946  0.9288  0.5102  1.6347
  123ACOH    H4 9877   9.383   0.164   5.548  0.1768 -0.0408 -2.0753
  123ACOH    O2 9878   9.293   0.200   5.554 -0.0533 -0.8280 -0.4184
  123ACOH    C2 9879   9.204   0.106   5.514  0.2235  0.3341 -0.3466
  123ACOH    O1 9880   9.225  -0.012   5.508  0.0888 -0.4843 -0.0184
  123ACOH    C1 9881   9.071   0.173   5.493 -0.2305  0.8614 -0.4230
  123ACOH    H1 9882   9.024   0.169   5.591  1.2346  1.0666  0.3067
  123ACOH    H2 9883   9.023   0.116   5.413 -0.5307  2.0934 -1.1380
  123ACOH    H3 9884   9.081   0.276   5.457  2.0315 -0.1957 -2.9604
  124ACOH    H4 9885   5.352   3.656   5.484 -0.3309 -0.5000 -2.7426
  124ACOH    O2 9886   5.321   3.747   5.475 -0.3743 -0.2376 -0.2080
  124ACOH    C2 9887   5.294   3.782   5.345 -0.1044  0.1872  0.5729
  124ACOH    O1 9888   5.299   3.705   5.252  0.7232  0.5749  0.9903
  124ACOH    C1 9889   5.272   3.930   5.331  0.1953 -0.4222  0.0966
  124ACOH    H1 9890   5.204   3.967   5.408  0.6451  1.0792 -0.2255
  124ACOH    H2 9891   5.222   3.954   5.238 -0.3873  0.7945  0.7146
  124ACOH    H3 9892   5.370   3.977   5.335  0.4060 -0.7388 -1.3429
  125ACOH    H4 9893   7.582   4.734   7.240 -1.8955  1.0252 -0.0113
  125ACOH    O2 9894   7.563   4.692   7.154 -0.2104  0.1226  0.0430
  125ACOH    C2 9895   7.650   4.758   7.070 -0.5979  0.3949  0.0984
  125ACOH    O1 9896   7.715   4.858   7.092 -0.5901  0.4630 -0.3635
  125ACOH    C1 9897   7.639   4.694   6.938 -0.5763 -0.2880 -0.0603
  125ACOH    H1 9898   7.733   4.720   6.889 -0.8585 -0.1204 -0.5170
  125ACOH    H2 9899   7.551   4.725   6.881 -0.4283  0.8197  0.2981
  125ACOH    H3 9900   7.634   4.588   6.961  3.0557 -0.3697  0.6896
  126ACOH    H4 9901   5.043   7.815   7.520 -0.4823 -0.9726  0.1356
  126ACOH    O2 9902   4.968   7.810   7.581 -0.4974  0.5175  0.2634
  126ACOH    C2 9903   4.877   7.881   7.514 -0.2843 -0.7087 -0.5384
  126ACOH    O1 9904   4.858   7.866   7.394 -0.1725 -0.4478  0.0540
  126ACOH    C1 9905   4.760   7.927   7.598 -0.2669  0.5954  0.0562
  126ACOH    H1 9906   4.715   7.841   7.647  3.6673 -1.4145  0.3597
  126ACOH    H2 9907   4.683   7.970   7.534 -0.9965  0.7449  1.0237
  126ACOH    H3 9908   4.794   8.004   7.666  3.7136  0.1137 -1.2408
  127ACOH    H4 9909   6.812   9.468   2.221 -0.5976  1.1820  0.3155
  127ACOH    O2 9910   6.733   9.434   2.267 -0.4986  0.3546 -0.1274
  127ACOH    C2 9911   6.707   9.313   2.218 -0.1845  0.2268  0.5871
  127ACOH    O1 9912   6.766   9.259   2.129  0.4644 -0.1824 -0.5906
  127ACOH    C1 9913   6.612   9.244   2.316 -0.3721  0.6132 -0.3354
  127ACOH    H1 9914   6.520   9.302   2.318 -0.2984  0.6786  1.0628
  127ACOH    H2 9915   6.657   9.253   2.414 -4.2953 -1.3911  1.7532
  127ACOH    H3 9916   6.597   9.138   2.296  3.1309  0.1382 -0.7804
  128ACOH    H4 9917   2.424   6.517   3.103  0.1825  0.0367 -0.5485
  128ACOH    O2 9918   2.356   6.450   3.121 -0.1330  0.5105  0.0501
  128ACOH    C2 9919   2.246   6.492   3.059  0.1093 -0.5526 -0.9375
  128ACOH    O1 9920   2.229   6.585   2.985  0.2393  0.1987  0.3274
  128ACOH    C1 9921   2.152   6.381   3.070  0.0075  0.3737 -0.1371
  128ACOH    H1 9922   2.168   6.304   3.146  0.7949 -0.0327 -0.7160
  128ACOH    H2 9923   2.147   6.318   2.981  0.8325 -0.6197  0.5021
  128ACOH    H3 9924   2.052   6.425   3.078 -0.2467  0.1315 -1.7942
  129ACOH    H4 9925   6.144   6.992   4.535 -0.3979  0.2128 -0.3744
  129ACOH    O2 9926   6.164   6.900   4.557 -0.2200  0.3197 -0.0879
  129ACOH    C2 9927   6.227   6.887   4.675 -0.2132 -0.5989 -0.9289
  129ACOH    O1 9928   6.230   6.972   4.764  0.1782 -0.1545  0.5582
  129ACOH    C1 9929   6.270   6.747   4.701  0.7953  0.0492 -0.4447
  129ACOH    H1 9930   6.261   6.685   4.612 -0.5786  0.5298 -0.6562
  129ACOH    H2 9931   6.203   6.714   4.780  0.0475 -0.5767 -1.3275
  129ACOH    H3 9932   6.373   6.753   4.736 -0.0296  1.6093  1.8421
  130ACOH    H4 9933   3.263   2.579   5.928  2.0874  1.0311 -3.4806
  130ACOH    O2 9934   3.278   2.483   5.919 -1.0337  0.0633  0.1105
  130ACOH    C2 9935   3.249   2.450   5.793  0.3064  0.4807  0.1393
  130ACOH    O1 9936   3.247   2.521   5.693  0.3244  0.0291  0.4301
  130ACOH    C1 9937   3.216   2.305   5.778 -0.5275 -0.1878 -0.6523
  130ACOH    H1 9938   3.308   2.249   5.797  0.0967  1.0193 -0.0968
  130ACOH    H2 9939   3.178   2.278   5.679  0.3994 -2.2652 -0.4806
  130ACOH    H3 9940   3.145   2.280   5.857  1.1036  3.4316  2.1212
  131ACOH    H4 9941   4.809   8.129   0.572 -0.0331  2.1045  0.7722
  131ACOH    O2 9942   4.797   8.148   0.478  0.7647 -0.4942  0.1216
  131ACOH    C2 9943   4.760   8.035   0.408 -0.5418 -0.4073  0.2227
  131ACOH    O1 9944   4.744   7.923   0.445 -0.2579 -0.2972 -0.3407
  131ACOH    C1 9945   4.716   8.076   0.275  0.0246  0.2266 -0.4430
  131ACOH    H1 9946   4.610   8.098   0.274  0.3688  1.9655 -0.6363
  131ACOH    H2 9947   4.732   8.001   0.197 -0.3297  0.8548 -1.1266
  131ACOH    H3 9948   4.767   8.165   0.235  0.4280 -0.4925 -1.5638
  132ACOH    H4 9949   6.857   4.904   7.222 -1.0224  1.7182 -0.7196
  132ACOH    O2 9950   6.785   4.838   7.222  0.1105  0.4810  0.0169
  132ACOH    C2 9951   6.737   4.856   7.098  1.1797 -0.6750  0.4192
  132ACOH    O1 9952   6.749   4.949   7.023  0.6981 -0.3975 -0.0428
  132ACOH    C1 9953   6.630   4.758   7.057 -0.0624  0.6618 -1.1391
  132ACOH    H1 9954   6.562   4.790   6.977 -0.7163 -1.6258 -1.5175
  132ACOH    H2 9955   6.584   4.730   7.151  1.2160  1.1409 -0.3536
  132ACOH    H3 9956   6.681   4.668   7.022  3.0128  1.8836 -0.0309
  133ACOH    H4 9957   2.691   1.139   7.758 -0.9615 -1.1651  1.1376
  133ACOH    O2 9958   2.773   1.179   7.793 -0.7429 -0.7483  0.1616
  133ACOH    C2 9959   2.751   1.312   7.827  0.5091 -0.1969  0.5038
  133ACOH    O1 9960   2.660   1.381   7.781 -0.0749  0.2986  0.1899
  133ACOH    C1 9961   2.869   1.376   7.890  0.0746 -0.2579 -0.2978
  133ACOH    H1 9962   2.889   1.329   7.986 -0.5058 -0.4514 -0.2754
  133ACOH    H2 9963   2.851   1.483   7.903 -1.4179 -0.8068  2.4130
  133ACOH    H3 9964   2.952   1.364   7.820  0.5206  4.2972 -0.7449
  134ACOH    H4 9965   4.019   3.580   0.105  1.4796 -2.3378 -0.8950
  134ACOH    O2 9966   3.976   3.579   0.018 -0.1988  0.3562 -0.1730
  134ACOH    C2 9967   4.073   3.559  -0.077 -0.5135 -0.3816  0.4725
  134ACOH    O1 9968   4.184   3.616  -0.058 -0.5006  0.5402 -0.3491
  134ACOH    C1 9969   4.031   3.489  -0.198  0.4643  0.0522 -0.6494
  134ACOH    H1 9970   4.104   3.409  -0.211 -0.5152 -1.0222  0.3554
  134ACOH    H2 9971   4.038   3.542  -0.293 -0.4416  0.9748 -0.2095
  134ACOH    H3 9972   3.932   3.442  -0.189  0.4880  0.4325  2.0272
  135ACOH    H4 9973   1.344   1.261   1.412  0.6667 -2.1781  1.3583
  135ACOH    O2 9974   1.377   1.316   1.485 -0.0887 -0.0449  0.1397
  135ACOH    C2 9975   1.268   1.359   1.552 -0.2075  0.2393 -0.5471
  135ACOH    O1 9976   1.156   1.368   1.506  0.3818  0.5587  0.5665
  135ACOH    C1 9977   1.307   1.429   1.682 -0.4148  0.2568  0.7829
  135ACOH    H1 9978   1.390   1.496   1.660 -0.2207 -0.2756 -0.1238
  135ACOH    H2 9979   1.327   1.362   1.765 -1.1408  1.0075  1.5715
  135ACOH    H3 9980   1.221   1.492   1.707 -0.2641 -0.7020  3.8085
  136ACOH    H4 9981   0.283   4.715   2.678 -0.8941 -1.1442  0.2145
  136ACOH    O2 9982   0.201   4.760   2.701 -0.0894  0.4417  0.0417
  136ACOH    C2 9983   0.232   4.888   2.720 -0.0203  0.0018 -0.6158
  136ACOH    O1 9984   0.340   4.942   2.697  0.4144 -0.0132  0.0204
  136ACOH    C1 9985   0.108   4.967   2.757  0.0833 -0.1486  0.0133
  136ACOH    H1 9986   0.123   5.013   2.855  0.2341 -0.3237  0.0737
  136ACOH    H2 9987   0.031   4.891   2.764  0.7803 -1.2063 -2.9310
  136ACOH    H3 9988   0.080   5.047   2.689 -0.0162  0.5106  0.8223
  137ACOH    H4 9989   0.119   4.267   4.717 -1.4348 -0.4673  0.9025
  137ACOH    O2 9990   0.154   4.189   4.762  0.2060 -0.0873  0.3246
  137ACOH    C2 9991   0.258   4.233   4.836  0.0617 -1.1997 -0.0951
  137ACOH    O1 9992   0.267   4.348   4.880 -0.1603 -0.2786 -0.2387
  137ACOH    C1 9993   0.342   4.125   4.891  0.2448  1.1226 -0.2201
  137ACOH    H1 9994   0.301   4.088   4.986 -1.9698  4.5496  0.2153
  137ACOH    H2 9995   0.447   4.148   4.913  0.9614 -0.3172 -1.9777
  137ACOH    H3 9996   0.342   4.047   4.815 -1.7011 -0.9936  1.8514
  138ACOH    H4 9997   0.596   8.399   6.305 -0.3084 -0.4654 -2.4075
  138ACOH    O2 9998   0.652   8.475   6.282 -0.0337 -0.1304 -0.6558
  138ACOH    C2 9999   0.652   8.556   6.388  0.3768  0.4579 -0.1053
  138ACOH    O110000   0.580   8.558   6.487  0.3756  0.5296  0.4489
  138ACOH    C110001   0.769   8.642   6.377  0.6875  0.3543  0.8100
  138ACOH    H110002   0.757   8.716   6.298  1.3947 -0.0751  0.2876
  138ACOH    H210003   0.860   8.587   6.350  0.6307  1.1773 -1.1260
  138ACOH    H310004   0.790   8.700   6.466  0.1285  1.0492  0.4870
  139ACOH    H410005   4.227   4.907   9.966 -3.2458 -1.6445  0.0572
  139ACOH    O210006   4.232   4.909   9.869 -0.3137  0.0182  0.2092
  139ACOH    C210007   4.137   4.826   9.821 -0.7982 -0.0276 -0.9760
  139ACOH    O110008   4.058   4.757   9.889 -0.4488  0.1961  0.0777
  139ACOH    C110009   4.144   4.808   9.676 -0.1539 -0.8610 -0.3332
  139ACOH    H110010   4.228   4.754   9.633  0.6126  0.3760 -0.4371
  139ACOH    H210011   4.144   4.908   9.632 -0.9500 -1.1910 -1.1111
  139ACOH    H310012   4.054   4.759   9.641 -0.3619  0.1845 -1.3096
  140ACOH    H410013   3.681   5.628   2.312 -0.4498  0.5421 -0.3820
  140ACOH    O210014   3.760   5.630   2.255  0.0495 -0.1774  0.2776
  140ACOH    C210015   3.827   5.524   2.301 -0.3496 -0.1937  0.0555
  140ACOH    O110016   3.776   5.425   2.348  0.2120 -0.9125  0.2742
  140ACOH    C110017   3.968   5.525   2.245 -0.3371  0.1919  0.8785
  140ACOH    H110018   3.983   5.609   2.178 -0.5550 -0.4339  0.0322
  140ACOH    H210019   3.987   5.428   2.197  0.6714  1.0192 -0.4368
  140ACOH    H310020   4.041   5.540   2.325 -0.2865  1.3405  0.6130
  141ACOH    H410021   4.716   3.740   5.086  2.2951 -0.5006 -0.5134
  141ACOH    O210022   4.688   3.670   5.026 -0.1511 -0.2375  0.2428
  141ACOH    C210023   4.786   3.643   4.935  0.3491 -0.0542 -0.3951
  141ACOH    O110024   4.790   3.536   4.877  0.1363  0.3517  0.0426
  141ACOH    C110025   4.894   3.738   4.942 -0.1218  0.2730  0.4192
  141ACOH    H110026   4.918   3.750   5.047 -0.2366 -1.3056  0.6422
  141ACOH    H210027   4.869   3.832   4.892  0.0470  0.1119  0.0329
  141ACOH    H310028   4.984   3.699   4.894 -0.5247 -0.7195  0.4511
  142ACOH    H410029   6.528   6.232   1.670  0.3979  0.7632  0.1732
  142ACOH    O210030   6.474   6.245   1.750 -0.3934 -0.1287 -0.2093
  142ACOH    C210031   6.346   6.222   1.730 -0.5820 -0.4738  0.1156
  142ACOH    O110032   6.292   6.193   1.622  0.3191  0.2359 -0.5361
  142ACOH    C110033   6.272   6.241   1.864 -0.7318 -0.2619  0.1268
  142ACOH    H110034   6.209   6.153   1.875 -2.1878  0.7992  0.2988
  142ACOH    H210035   6.207   6.328   1.853 -1.9484 -0.7020  3.4550
  142ACOH    H310036   6.338   6.250   1.950  0.5259 -1.4428 -0.6810
  143ACOH    H410037   7.120   2.967   5.281 -0.9079 -0.6751 -0.6887
  143ACOH    O210038   7.063   2.965   5.360 -0.5848 -0.7222 -0.4569
  143ACOH    C210039   7.130   2.939   5.478  0.3353  0.4144  0.4461
  143ACOH    O110040   7.250   2.952   5.497 -0.1120  0.3318  0.1784
  143ACOH    C110041   7.030   2.896   5.574 -0.2233  0.1738 -0.1912
  143ACOH    H110042   7.023   2.970   5.654  1.7659 -1.6084  1.7040
  143ACOH    H210043   7.076   2.812   5.626  1.9353  0.5337 -1.4900
  143ACOH    H310044   6.937   2.873   5.523 -2.6014  1.5667  3.2991
  144ACOH    H410045   4.441   7.530  10.069 -0.9000 -0.0295 -1.0720
  144ACOH    O210046   4.472   7.621  10.054 -0.7532  0.1590  0.2700
  144ACOH    C210047   4.561   7.650  10.153 -0.4050 -0.1353  0.5440
  144ACOH    O110048   4.601   7.575  10.236  0.1026 -0.5459  0.6109
  144ACOH    C110049   4.621   7.782  10.128 -0.3832 -0.2398  0.0098
  144ACOH    H110050   4.571   7.849  10.058  0.1791 -1.2631 -1.4115
  144ACOH    H210051   4.726   7.774  10.099 -0.4963  0.0487 -0.4955
  144ACOH    H310052   4.605   7.844  10.215  0.7058  0.7068 -0.4622
  145ACOH    H410053   5.773   1.335   7.682  1.2422 -0.2388  1.5366
  145ACOH    O210054   5.716   1.386   7.742 -0.4144  0.1049 -0.2994
  145ACOH    C210055   5.632   1.299   7.802 -0.2950 -0.1384  0.2399
  145ACOH    O110056   5.628   1.175   7.806  0.2264  0.0471  0.3408
  145ACOH    C110057   5.550   1.377   7.895  0.5322 -0.6237 -0.8568
  145ACOH    H110058   5.476   1.425   7.830  0.2895  0.3786  0.1390
  145ACOH    H210059   5.607   1.459   7.939 -1.0260  0.9351 -1.6671
  145ACOH    H310060   5.501   1.313   7.968  0.8757 -1.0511 -1.0038
  146ACOH    H410061   7.763   1.145   4.064  2.4335 -2.4385  0.7502
  146ACOH    O210062   7.760   1.126   3.969 -0.0061 -0.5763  0.4151
  146ACOH    C210063   7.631   1.137   3.932  0.6097 -0.2557 -0.0668
  146ACOH    O110064   7.541   1.166   4.008  0.1300  0.3327 -0.0775
  146ACOH    C110065   7.623   1.127   3.784  0.4211 -0.0064  0.8233
  146ACOH    H110066   7.703   1.181   3.733  1.5164 -0.6945  1.7814
  146ACOH    H210067   7.522   1.160   3.760  0.5251 -1.0760 -1.1906
  146ACOH    H310068   7.631   1.020   3.763 -2.6169  0.0306 -0.8334
  147ACOH    H410069   2.962   5.991   2.552  0.7372 -0.4660 -0.0172
  147ACOH    O210070   2.910   5.991   2.635  0.0848 -0.6161 -0.4217
  147ACOH    C210071   2.933   5.875   2.690 -0.2569  0.4899 -1.1573
  147ACOH    O110072   3.031   5.803   2.662 -0.6258 -0.1487 -0.0280
  147ACOH    C110073   2.852   5.849   2.806  0.2025 -0.0203 -0.7774
  147ACOH    H110074   2.828   5.744   2.825 -0.7650  0.1087 -1.2286
  147ACOH    H210075   2.754   5.897   2.806  1.7196  3.2353 -2.7035
  147ACOH    H310076   2.910   5.888   2.890 -0.2869 -0.0801 -0.4082
  148ACOH    H410077   5.481   4.994   6.235  0.9976  0.2452  0.7693
  148ACOH    O210078   5.408   4.997   6.299 -0.0288 -0.3290 -0.3473
  148ACOH    C210079   5.379   5.128   6.305  0.5565 -1.3070  0.1819
  148ACOH    O110080   5.461   5.215   6.271 -0.0042 -0.3581  0.0905
  148ACOH    C110081   5.237   5.154   6.333  0.1551  0.2883 -0.5260
  148ACOH    H110082   5.190   5.165   6.236  0.7097 -1.7787 -1.0523
  148ACOH    H210083   5.236   5.244   6.394  0.0237 -1.1623  1.6705
  148ACOH    H310084   5.193   5.071   6.388  0.7923 -0.8956 -1.7851
  149ACOH    H410085   3.469   5.313   6.081  0.4157 -1.0486  0.2415
  149ACOH    O210086   3.452   5.403   6.049 -0.5043 -1.1977  0.3063
  149ACOH    C210087   3.369   5.463   6.132  1.0976 -0.2079 -0.3709
  149ACOH    O110088   3.315   5.407   6.227 -0.0771  0.2013 -0.3835
  149ACOH    C110089   3.362   5.613   6.111 -0.0426  0.0713 -0.0802
  149ACOH    H110090   3.258   5.645   6.117 -0.5226 -1.6413  1.0841
  149ACOH    H210091   3.397   5.637   6.011 -1.8134  3.0568 -0.0486
  149ACOH    H310092   3.416   5.674   6.185 -1.8657  1.9679 -0.2496
  150ACOH    H410093   0.244   2.197   1.389 -0.8015 -0.1547  1.1176
  150ACOH    O210094   0.308   2.262   1.424 -0.0493 -0.1043 -0.3257
  150ACOH    C210095   0.313   2.360   1.329  0.5744  0.0806 -0.0058
  150ACOH    O110096   0.230   2.378   1.245  0.3211  0.1162  0.2634
  150ACOH    C110097   0.431   2.446   1.347  0.0340  0.0172 -0.6482
  150ACOH    H110098   0.506   2.405   1.414  0.3805  1.6981  0.0366
  150ACOH    H210099   0.385   2.527   1.403  0.5592 -1.1782  1.5630
  150ACOH    H310100   0.479   2.476   1.253  0.0337  0.2501 -0.5755
  151ACOH    H410101   5.342   3.975   6.511 -2.0428 -0.1859 -2.5292
  151ACOH    O210102   5.330   4.069   6.530  0.1184 -0.4556  0.3872
  151ACOH    C210103   5.261   4.121   6.422  0.0349  1.2093  0.3772
  151ACOH    O110104   5.248   4.064   6.311  0.4727 -0.9173  0.0493
  151ACOH    C110105   5.220   4.260   6.441  0.6685 -0.8067  0.1433
  151ACOH    H110106   5.248   4.295   6.540 -1.7464 -2.8889  1.6250
  151ACOH    H210107   5.111   4.272   6.447  0.4349 -3.1239  1.0012
  151ACOH    H310108   5.258   4.311   6.353 -2.4806 -0.6531 -1.2013
  152ACOH    H410109   6.007   2.664   2.687 -0.1072 -0.0507 -0.5183
  152ACOH    O210110   5.998   2.570   2.711  0.2227  0.0128 -0.1418
  152ACOH    C210111   5.864   2.548   2.706  0.5091  0.0648 -0.0538
  152ACOH    O110112   5.772   2.617   2.658 -0.6599  0.6317  0.2864
  152ACOH    C110113   5.830   2.423   2.777 -0.2178 -0.0442  0.3610
  152ACOH    H110114   5.915   2.370   2.820 -0.8834 -2.1949 -0.8881
  152ACOH    H210115   5.778   2.353   2.712  2.1887 -2.0250  0.5047
  152ACOH    H310116   5.762   2.461   2.853 -1.7060  1.3048 -1.6318
  153ACOH    H410117   7.688   5.989   5.843 -0.5776 -0.0603  0.9768
  153ACOH    O210118   7.683   5.910   5.787  0.0366  0.1466  0.6277
  153ACOH    C210119   7.584   5.817   5.800 -0.2462 -0.3547  0.0753
  153ACOH    O110120   7.490   5.826   5.873  0.2912  0.0903  0.4393
  153ACOH    C110121   7.604   5.691   5.726  0.3195  0.5228 -0.0558
  153ACOH    H110122   7.673   5.705   5.642  1.1814 -0.0678  0.5506
  153ACOH    H210123   7.515   5.644   5.685  0.0697 -0.6856  1.8111
  153ACOH    H310124   7.649   5.621   5.796 -0.8498 -2.2815 -2.0243
  154ACOH    H410125   4.956   3.354   2.909 -0.2999 -0.7429  0.7383
  154ACOH    O210126   5.035   3.302   2.934  0.5235  0.3439  0.4138
  154ACOH    C210127   4.984   3.184   2.969  0.6726 -0.0717  0.5467
  154ACOH    O110128   4.870   3.150   2.985 -0.4923  0.2594 -0.2746
  154ACOH    C110129   5.104   3.103   3.006  0.9046 -0.9708 -0.1671
  154ACOH    H110130   5.156   3.153   3.087 -3.8656 -0.1112  2.5560
  154ACOH    H210131   5.159   3.097   2.912 -1.0849  0.3449 -1.4669
  154ACOH    H310132   5.083   3.002   3.041 -0.4788 -0.6449 -0.0165
  155ACOH    H410133   9.389   9.903   7.917 -0.3331 -1.4957 -0.3050
  155ACOH    O210134   9.297   9.929   7.936 -0.0033 -0.4992  0.0009
  155ACOH    C210135   9.239   9.838   8.017 -0.1616 -0.2438 -0.2014
  155ACOH    O110136   9.224   9.719   7.997  0.0698 -0.1567 -0.1548
  155ACOH    C110137   9.142   9.910   8.104  0.6850  0.3188  0.8426
  155ACOH    H110138   9.176  10.011   8.129 -1.6487  0.7970  2.2152
  155ACOH    H210139   9.113   9.859   8.196  1.5463 -1.2150  0.2906
  155ACOH    H310140   9.053   9.916   8.041  1.5611 -3.5595 -0.9341
  156ACOH    H410141   5.703   2.433   2.419  0.2110 -0.3561 -1.2318
  156ACOH    O210142   5.766   2.358   2.419  0.6264 -0.0347  0.3608
  156ACOH    C210143   5.847   2.362   2.308 -0.1229  0.7437 -0.2186
  156ACOH    O110144   5.848   2.439   2.212  0.5937 -0.0677 -0.1323
  156ACOH    C110145   5.961   2.270   2.336  0.0284 -0.1176 -0.2844
  156ACOH    H110146   6.036   2.308   2.406 -0.1562  1.4954 -0.9411
  156ACOH    H210147   6.006   2.236   2.242 -2.3564 -0.1908 -1.4368
  156ACOH    H310148   5.920   2.181   2.384  0.6447 -1.2875 -1.8534
  157ACOH    H410149   3.703   3.314   2.642  0.8288 -0.1292 -2.2128
  157ACOH    O210150   3.606   3.319   2.632  0.5027 -0.3368  0.3737
  157ACOH    C210151   3.546   3.196   2.646 -0.1663  0.0384 -0.1558
  157ACOH    O110152   3.611   3.098   2.664  0.6248 -0.6164 -0.4544
  157ACOH    C110153   3.397   3.210   2.662  0.2961  0.0800  0.7803
  157ACOH    H110154   3.366   3.282   2.739  1.7861  1.8515 -0.2495
  157ACOH    H210155   3.356   3.109   2.672  1.3243 -0.7051 -2.3346
  157ACOH    H310156   3.360   3.251   2.568  1.7199 -3.7854 -1.5840
  158ACOH    H410157   3.256   8.966   3.464  0.3925 -1.5082 -1.1130
  158ACOH    O210158   3.183   9.002   3.410 -0.4616 -0.6720  0.5555
  158ACOH    C210159   3.240   9.031   3.290  0.3819  0.2801 -1.1697
  158ACOH    O110160   3.350   9.087   3.266  0.0960  0.1969 -0.3148
  158ACOH    C110161   3.136   9.050   3.187  0.4255  0.1652 -0.1276
  158ACOH    H110162   3.062   9.117   3.230  0.6426  0.4670 -0.2274
  158ACOH    H210163   3.083   8.957   3.166 -0.4292  0.1812  1.8241
  158ACOH    H310164   3.173   9.099   3.097  1.2497 -1.3741 -0.6513
  159ACOH    H410165   3.883   9.874   6.483 -0.3637 -0.0054 -0.6254
  159ACOH    O210166   3.811   9.927   6.445 -0.3986  0.2374 -0.2127
  159ACOH    C210167   3.851  10.034   6.379  0.3794 -0.4646 -0.0111
  159ACOH    O110168   3.953  10.038   6.313 -0.2899  0.8115  0.6575
  159ACOH    C110169   3.743  10.128   6.344  0.5605 -0.8846 -0.0042
  159ACOH    H110170   3.781  10.230   6.353  0.7348 -1.0492  1.1938
  159ACOH    H210171   3.659  10.098   6.408 -0.7586  0.7658 -0.9041
  159ACOH    H310172   3.722  10.110   6.239 -0.1101  2.4387 -0.5050
  160ACOH    H410173   6.856   4.935   7.673  1.0578 -0.7185 -1.5070
  160ACOH    O210174   6.861   4.850   7.721  0.5180  0.1880  0.2246
  160ACOH    C210175   6.976   4.792   7.699  0.0287 -0.1401 -0.6355
  160ACOH    O110176   7.073   4.829   7.639 -0.4418  0.0542 -0.0676
  160ACOH    C110177   6.969   4.670   7.786 -0.6619  0.1469 -0.0446
  160ACOH    H110178   6.932   4.706   7.882  1.0845  0.3499  0.5719
  160ACOH    H210179   7.065   4.619   7.795 -1.6892 -2.1148 -1.3193
  160ACOH    H310180   6.900   4.598   7.742 -1.1659 -0.3804  1.6066
  161ACOH    H410181   5.361   3.074   5.944  1.1004 -0.8923 -1.5922
  161ACOH    O210182   5.319   3.158   5.918  0.2751 -0.6361  0.4900
  161ACOH    C210183   5.306   3.139   5.786  0.0283 -0.8606  0.3995
  161ACOH    O110184   5.336   3.043   5.718  0.2586 -0.1983 -0.3932
  161ACOH    C110185   5.239   3.252   5.727  0.4969  0.2069  0.2689
  161ACOH    H110186   5.213   3.324   5.805 -1.1098 -0.7780  0.6613
  161ACOH    H210187   5.148   3.210   5.685  0.5639 -2.3251  2.5370
  161ACOH    H310188   5.303   3.304   5.655 -0.5979  0.5371 -0.4881
  162ACOH    H410189   4.930   2.715   7.317  2.0207  0.8357 -0.5972
  162ACOH    O210190   4.925   2.647   7.249 -0.2287  0.1252  0.2133
  162ACOH    C210191   4.985   2.711   7.143  0.1944  0.0814  0.3355
  162ACOH    O110192   5.059   2.806   7.155 -0.4807 -0.1233 -0.0020
  162ACOH    C110193   4.936   2.661   7.012  0.9287  0.4027 -0.0140
  162ACOH    H110194   5.020   2.655   6.943  0.7855  3.2467 -0.5039
  162ACOH    H210195   4.873   2.736   6.964  1.2276  0.1674 -0.7851
  162ACOH    H310196   4.895   2.561   7.026  2.1173 -0.0703  0.1596
  163ACOH    H410197   5.529   3.648   7.326 -0.2096 -1.7047 -2.9099
  163ACOH    O210198   5.626   3.655   7.320 -0.1849 -0.0419 -1.1596
  163ACOH    C210199   5.645   3.740   7.219 -0.7196 -0.0087 -0.3826
  163ACOH    O110200   5.557   3.801   7.160  0.3476  0.3424  0.0278
  163ACOH    C110201   5.786   3.784   7.209  0.2286 -0.2345 -0.7124
  163ACOH    H110202   5.815   3.793   7.104  0.6489 -0.8020 -0.6438
  163ACOH    H210203   5.847   3.699   7.241 -0.3419 -0.3377  0.1216
  163ACOH    H310204   5.809   3.864   7.279  0.4633  1.4406 -2.6574
  164ACOH    H410205   0.987   0.364   1.574 -0.6058  0.2968 -0.1166
  164ACOH    O210206   1.059   0.329   1.519 -0.3911  0.4756  0.0505
  164ACOH    C210207   1.168   0.286   1.596  0.4574  0.0934  0.1156
  164ACOH    O110208   1.187   0.347   1.703  0.3145  0.2755 -0.0590
  164ACOH    C110209   1.280   0.226   1.515  0.0247 -0.7655  0.4953
  164ACOH    H110210   1.315   0.297   1.441 -2.2216 -0.2629 -0.1378
  164ACOH    H210211   1.239   0.141   1.460 -2.3251  0.6940 -0.0936
  164ACOH    H310212   1.369   0.198   1.571 -0.2739  0.9749  1.8748
  165ACOH    H410213   8.487   9.464   0.552  0.3624 -0.7933 -2.6613
  165ACOH    O210214   8.391   9.452   0.545  0.1043 -0.2891 -0.5270
  165ACOH    C210215   8.356   9.548   0.454  0.3537 -0.0982  0.6874
  165ACOH    O110216   8.439   9.600   0.379  0.3596 -0.2069 -0.5174
  165ACOH    C110217   8.209   9.543   0.420  0.3354 -0.5496 -0.9720
  165ACOH    H110218   8.194   9.576   0.317 -3.6903  0.0386 -0.2574
  165ACOH    H210219   8.165   9.610   0.493  2.6149  0.0682 -0.1252
  165ACOH    H310220   8.169   9.442   0.433  1.1262 -0.8753 -1.0315
  166ACOH    H410221   4.352   4.961   6.973 -0.6327  0.2507 -0.4706
  166ACOH    O210222   4.315   4.873   6.990 -0.4031  0.2683  0.1388
  166ACOH    C210223   4.397   4.822   7.082 -0.0361  0.5225 -0.4736
  166ACOH    O110224   4.490   4.873   7.140 -0.2529  0.2664 -0.0794
  166ACOH    C110225   4.369   4.677   7.115  0.6714  0.2586 -0.2174
  166ACOH    H110226   4.466   4.632   7.135  0.9299  1.1671  0.6025
  166ACOH    H210227   4.318   4.632   7.030  0.1393 -0.8490  0.6634
  166ACOH    H310228   4.308   4.673   7.206  0.1159  2.6543 -0.4497
  167ACOH    H410229   7.173   0.162   0.468  1.7363  3.2693 -0.0313
  167ACOH    O210230   7.097   0.197   0.417 -0.0803 -0.3041  0.0760
  167ACOH    C210231   7.140   0.209   0.291 -0.0954 -0.0489  0.2127
  167ACOH    O110232   7.234   0.149   0.250 -0.1586 -0.4053 -0.0423
  167ACOH    C110233   7.029   0.258   0.201 -0.3968 -0.3168 -0.1248
  167ACOH    H110234   7.059   0.230   0.100  1.1052 -0.5171  0.3701
  167ACOH    H210235   7.027   0.367   0.209  0.6010 -0.3174  0.1499
  167ACOH    H310236   6.932   0.220   0.232 -0.3883  1.5756  2.3989
  168ACOH    H410237   2.162   4.538   2.109 -1.8004  0.2998  0.8748
  168ACOH    O210238   2.137   4.446   2.093  0.2261 -0.1734  0.2263
  168ACOH    C210239   2.017   4.438   2.036  0.2718  0.4599  0.0087
  168ACOH    O110240   1.958   4.523   1.970  0.3479 -0.5050 -0.4270
  168ACOH    C110241   2.000   4.297   1.993  0.6662  0.1053 -0.2099
  168ACOH    H110242   1.952   4.231   2.065  0.9492 -0.2403 -0.3375
  168ACOH    H210243   2.102   4.260   1.987  0.4039 -0.5403 -0.7957
  168ACOH    H310244   1.960   4.280   1.893 -1.5269  0.5377  0.5521
  169ACOH    H410245   5.391   5.279   0.995  1.1080 -0.6975  0.8067
  169ACOH    O210246   5.351   5.205   1.043  0.4256 -0.4693  0.6074
  169ACOH    C210247   5.306   5.111   0.964 -0.6926 -0.3715 -0.4935
  169ACOH    O110248   5.280   5.136   0.848  0.1053  0.5157 -0.2480
  169ACOH    C110249   5.286   4.978   1.020 -0.3859 -0.1037  0.2898
  169ACOH    H110250   5.206   4.982   1.095 -1.5107  0.3205 -0.9168
  169ACOH    H210251   5.380   4.953   1.068  0.6427 -0.1637 -1.7347
  169ACOH    H310252   5.266   4.902   0.944  2.1729  0.1502 -0.6764
  170ACOH    H410253   8.323   9.661   5.919 -0.9471  0.7849 -1.5386
  170ACOH    O210254   8.394   9.722   5.946 -1.0880  0.3915 -0.2336
  170ACOH    C210255   8.372   9.768   6.067 -0.3397  0.2105  0.4844
  170ACOH    O110256   8.262   9.775   6.126  0.0001 -0.2888  0.2611
  170ACOH    C110257   8.491   9.826   6.122 -0.3149  0.7034 -0.3225
  170ACOH    H110258   8.478   9.934   6.130  0.2560  0.5792  2.9052
  170ACOH    H210259   8.577   9.799   6.061 -0.6533 -3.1753  0.7846
  170ACOH    H310260   8.505   9.805   6.228 -0.6874 -0.1767 -0.4476
  171ACOH    H410261   6.416   8.577   1.797  2.2070  2.5015 -2.5738
  171ACOH    O210262   6.343   8.598   1.735 -0.1468  0.7090 -0.4926
  171ACOH    C210263   6.227   8.619   1.799  0.5882  0.3199 -0.2360
  171ACOH    O110264   6.223   8.593   1.919 -0.0542  0.7371 -0.2715
  171ACOH    C110265   6.107   8.654   1.719  0.1522  0.4284  0.9906
  171ACOH    H110266   6.032   8.575   1.705 -1.8554  2.1076  2.0482
  171ACOH    H210267   6.127   8.679   1.615  0.9442  1.9548  1.4937
  171ACOH    H310268   6.051   8.732   1.769  1.6944  0.9907  1.8628
  172ACOH    H410269   3.757   6.990   6.595  1.5660 -0.2836 -0.5802
  172ACOH    O210270   3.792   6.908   6.633  0.1201 -0.3714  0.6097
  172ACOH    C210271   3.885   6.857   6.550  0.0626 -0.3463  0.2662
  172ACOH    O110272   3.905   6.895   6.435  0.5749  0.2694  0.6889
  172ACOH    C110273   3.941   6.733   6.610  0.0923  0.2868  0.2614
  172ACOH    H110274   3.953   6.660   6.530  1.4591  0.7238  0.0488
  172ACOH    H210275   3.875   6.692   6.686  0.8130 -2.6239 -0.6219
  172ACOH    H310276   4.036   6.757   6.658  1.2778 -1.0025 -1.3727
  173ACOH    H410277   7.982   1.281   3.044  0.5308 -0.6788 -0.4947
  173ACOH    O210278   8.077   1.298   3.055  0.2453  0.5406  0.2388
  173ACOH    C210279   8.095   1.430   3.076  0.4266 -0.4241 -0.2020
  173ACOH    O110280   8.002   1.515   3.066  0.0984 -0.2575 -0.8525
  173ACOH    C110281   8.231   1.472   3.129 -0.2049 -0.3311  0.0542
  173ACOH    H110282   8.217   1.575   3.161  0.7791  0.2523 -1.3859
  173ACOH    H210283   8.306   1.474   3.050 -0.4043  0.5279 -0.1126
  173ACOH    H310284   8.256   1.402   3.209  2.2542 -0.1572 -0.5377
  174ACOH    H410285   4.898   7.720   7.719  0.5910 -1.5139 -0.6954
  174ACOH    O210286   4.858   7.656   7.780 -0.3807 -0.3934 -0.1229
  174ACOH    C210287   4.960   7.636   7.862  1.0027  0.5538 -0.3493
  174ACOH    O110288   5.063   7.701   7.869 -0.0332 -0.3399  0.4479
  174ACOH    C110289   4.930   7.514   7.942  0.7815 -0.3771 -0.1977
  174ACOH    H110290   4.938   7.421   7.886  1.0736  0.3412 -1.3660
  174ACOH    H210291   4.830   7.521   7.984  1.3560  1.7786  0.8740
  174ACOH    H310292   5.006   7.506   8.020 -0.2248  0.5411  0.8993
  175ACOH    H410293   7.194   9.326   1.280 -0.6371 -1.1582  0.2678
  175ACOH    O210294   7.243   9.273   1.215 -0.2433 -0.1995 -0.2247
  175ACOH    C210295   7.197   9.320   1.099  0.3242  0.3242  0.4428
  175ACOH    O110296   7.141   9.423   1.074  0.2097 -0.2857  0.3321
  175ACOH    C110297   7.254   9.236   0.988 -0.0200  0.0609  0.0845
  175ACOH    H110298   7.231   9.276   0.889 -2.9117  1.0459  1.1226
  175ACOH    H210299   7.217   9.134   0.998 -2.6802  1.2759  3.6912
  175ACOH    H310300   7.362   9.240   0.999 -0.0705 -0.8691  1.0182
  176ACOH    H410301   4.506   1.728   2.235 -0.0509 -1.3073  0.8632
  176ACOH    O210302   4.566   1.768   2.300 -0.2169  0.2700  0.0615
  176ACOH    C210303   4.633   1.869   2.240  0.3811  0.7619  0.5400
  176ACOH    O110304   4.630   1.905   2.123 -0.1251  0.8959 -0.1714
  176ACOH    C110305   4.708   1.955   2.335 -0.1362 -0.9914 -0.3198
  176ACOH    H110306   4.717   1.909   2.433  1.2722  0.2333  0.1401
  176ACOH    H210307   4.652   2.048   2.348  2.6667  0.4467  2.0247
  176ACOH    H310308   4.805   1.980   2.292 -0.0284 -2.4601 -0.9599
  177ACOH    H410309   7.559   6.667   0.562  0.1622 -0.2439 -0.3816
  177ACOH    O210310   7.535   6.755   0.530 -0.3560 -0.0834  0.4488
  177ACOH    C210311   7.397   6.754   0.533 -0.5354 -0.0170 -0.0718
  177ACOH    O110312   7.312   6.665   0.551 -0.4270 -0.7450  0.2904
  177ACOH    C110313   7.357   6.883   0.471  0.8835  0.2484 -0.0718
  177ACOH    H110314   7.421   6.898   0.385  0.2401  0.4791 -0.5122
  177ACOH    H210315   7.374   6.968   0.537  1.3746  0.2476 -0.2001
  177ACOH    H310316   7.252   6.893   0.443  1.0934  1.5018 -0.4484
  178ACOH    H410317   6.141   3.338   3.009 -1.5602  1.5418  0.1531
  178ACOH    O210318   6.062   3.287   3.035 -0.2637 -0.2371  0.6269
  178ACOH    C210319   5.978   3.385   3.073 -0.2071  0.3854 -0.0802
  178ACOH    O110320   6.005   3.503   3.094  0.1472 -0.3490  0.6200
  178ACOH    C110321   5.838   3.325   3.083 -0.2447 -0.0777  0.8063
  178ACOH    H110322   5.809   3.306   3.186 -0.4929  0.6383  0.8724
  178ACOH    H210323   5.833   3.231   3.028  0.2534  0.6648 -0.5409
  178ACOH    H310324   5.767   3.390   3.032  1.1410  2.4460  2.0192
  179ACOH    H410325   0.107   1.800   5.815  1.0069  0.5266 -3.0723
  179ACOH    O210326   0.088   1.895   5.825  0.1744  0.1277 -0.3390
  179ACOH    C210327  -0.031   1.897   5.886 -0.3044 -0.8041  0.3213
  179ACOH    O110328  -0.092   1.798   5.926  0.1951 -0.1789  0.5836
  179ACOH    C110329  -0.094   2.031   5.911 -0.5887  0.1067  0.6725
  179ACOH    H110330  -0.038   2.102   5.850 -2.0543 -0.0791 -0.9143
  179ACOH    H210331  -0.074   2.051   6.017 -1.3091  0.2482  0.7841
  179ACOH    H310332  -0.195   2.054   5.877  0.4122 -0.6527 -2.9770
  180ACOH    H410333   4.975   4.744   6.438  0.1844 -2.7722 -1.1257
  180ACOH    O210334   5.070   4.756   6.422 -0.0166  0.4600 -0.3950
  180ACOH    C210335   5.115   4.653   6.349 -0.5448  0.1783  0.2179
  180ACOH    O110336   5.049   4.574   6.282 -1.1580 -0.2230 -0.5244
  180ACOH    C110337   5.263   4.658   6.339 -0.3109  0.3036  0.3622
  180ACOH    H110338   5.308   4.634   6.436 -1.4135 -2.4034  0.2389
  180ACOH    H210339   5.300   4.755   6.307 -2.4594  0.4429 -1.7986
  180ACOH    H310340   5.294   4.593   6.258  1.1345  0.0485  1.1007
  181ACOH    H410341   5.446   1.819   5.930 -1.2878  0.7167 -0.2945
  181ACOH    O210342   5.493   1.893   5.972  0.3127 -0.3514 -0.1720
  181ACOH    C210343   5.396   1.975   6.013  0.8405 -1.5920  0.5062
  181ACOH    O110344   5.279   1.975   5.980 -0.1586 -0.1594 -0.3074
  181ACOH    C110345   5.450   2.086   6.097 -0.0698 -0.5624  0.0446
  181ACOH    H110346   5.520   2.151   6.045 -0.1164 -0.7844 -0.2959
  181ACOH    H210347   5.509   2.051   6.182  1.6618  1.3309 -0.3446
  181ACOH    H310348   5.369   2.148   6.135  0.1742 -0.7323  0.8506
  182ACOH    H410349   4.736   4.379   6.141 -0.4416  0.9366  0.6925
  182ACOH    O210350   4.688   4.297   6.121  0.4177  0.5752  0.0815
  182ACOH    C210351   4.777   4.197   6.115 -0.4007  0.3452 -0.4927
  182ACOH    O110352   4.899   4.214   6.118 -0.5409  0.1193  0.1740
  182ACOH    C110353   4.706   4.069   6.078 -0.7738 -0.2193 -0.1193
  182ACOH    H110354   4.769   3.982   6.100  0.3915  0.1370 -1.9193
  182ACOH    H210355   4.684   4.067   5.971  0.6729  2.1405 -0.4974
  182ACOH    H310356   4.614   4.061   6.135 -0.3574  0.2529  0.6241
  183ACOH    H410357   2.574   1.295   4.455  1.3898  1.2791 -0.1589
  183ACOH    O210358   2.579   1.270   4.549  0.4863  0.0865 -0.4230
  183ACOH    C210359   2.664   1.364   4.594  0.2194 -0.6092  0.5448
  183ACOH    O110360   2.726   1.449   4.537 -0.4102 -0.3154 -0.1479
  183ACOH    C110361   2.700   1.341   4.737 -0.1969 -0.2918 -0.3428
  183ACOH    H110362   2.614   1.303   4.791 -0.1385  1.4026  0.9939
  183ACOH    H210363   2.729   1.432   4.789  0.3084  0.2685 -1.5853
  183ACOH    H310364   2.785   1.273   4.741  0.3184  0.4033  0.9759
  184ACOH    H410365   6.615   7.789   6.324 -3.5218  1.5172  0.5938
  184ACOH    O210366   6.615   7.838   6.240  0.2136  0.4591 -0.0918
  184ACOH    C210367   6.591   7.964   6.258  0.3751 -0.6741  0.1069
  184ACOH    O110368   6.600   8.021   6.367 -0.0049  0.1694  0.1371
  184ACOH    C110369   6.543   8.041   6.141 -0.1916 -0.1929  0.0726
  184ACOH    H110370   6.539   7.983   6.049  1.2330  2.5875 -1.8093
  184ACOH    H210371   6.621   8.117   6.126 -1.5123  1.1222 -0.2368
  184ACOH    H310372   6.448   8.092   6.158  0.8586  2.1700 -0.8007
  185ACOH    H410373   0.521   8.969   2.475  0.5898  0.4841  0.6963
  185ACOH    O210374   0.589   8.997   2.412 -0.1122 -0.6056 -0.5802
  185ACOH    C210375   0.645   9.104   2.469 -0.5520  0.1834 -0.4537
  185ACOH    O110376   0.624   9.151   2.580  0.0313 -0.5550  0.4036
  185ACOH    C110377   0.754   9.167   2.389  0.8591 -0.0915 -0.4023
  185ACOH    H110378   0.793   9.261   2.430 -1.6495  2.1248 -2.9342
  185ACOH    H210379   0.712   9.179   2.289 -0.1966 -1.9222 -0.2041
  185ACOH    H310380   0.843   9.104   2.393 -0.1612 -1.4714  2.2905
  186ACOH    H410381   5.150   7.092   6.385  0.5457 -0.4097  0.0172
  186ACOH    O210382   5.091   7.059   6.456  0.0380  0.0787 -0.1750
  186ACOH    C210383   5.050   7.168   6.518 -0.0964  0.0189  0.2227
  186ACOH    O110384   5.080   7.281   6.490  0.2050 -0.5212 -0.1882
  186ACOH    C110385   4.958   7.125   6.631  0.5681  0.0565  0.9896
  186ACOH    H110386   5.015   7.077   6.711 -0.4660 -1.7834  0.6531
  186ACOH    H210387   4.888   7.051   6.594  0.0210  1.2465 -0.4146
  186ACOH    H310388   4.905   7.212   6.671 -2.3529 -0.7981 -0.8995
  187ACOH    H410389   4.071   7.377   3.360 -0.2894  0.3138  0.1266
  187ACOH    O210390   4.050   7.333   3.275 -0.4806  0.3169  0.1719
  187ACOH    C210391   3.922   7.299   3.283  0.5490  0.4299  0.3972
  187ACOH    O110392   3.845   7.299   3.377 -0.6763 -0.2807  0.6802
  187ACOH    C110393   3.864   7.285   3.148  0.1010  0.3727  1.1710
  187ACOH    H110394   3.941   7.292   3.071 -0.9595 -2.4940 -0.2417
  187ACOH    H210395   3.794   7.368   3.135 -1.1074 -0.6504  1.0464
  187ACOH    H310396   3.804   7.195   3.139  1.3750 -0.4324  0.5703
  188ACOH    H410397   9.343   2.165   7.385 -1.4611  0.1091 -0.1568
  188ACOH    O210398   9.346   2.123   7.473 -0.0058 -0.0195 -0.2666
  188ACOH    C210399   9.471   2.090   7.506  0.1871  0.2017 -0.1386
  188ACOH    O110400   9.576   2.138   7.464 -0.0532 -0.1572 -0.2822
  188ACOH    C110401   9.460   1.998   7.620 -0.6532 -0.5053 -0.1861
  188ACOH    H110402   9.557   2.002   7.670  0.7787  1.6030 -2.9869
  188ACOH    H210403   9.455   1.895   7.583  0.8392  0.0690 -2.0749
  188ACOH    H310404   9.385   2.031   7.691  0.8506  0.4339  1.0055
  189ACOH    H410405   5.633   1.552   2.079  1.5264  1.4813 -0.0984
  189ACOH    O210406   5.617   1.546   2.175  0.1093 -0.0983 -0.4001
  189ACOH    C210407   5.651   1.663   2.228  0.5427  0.0658  0.1108
  189ACOH    O110408   5.732   1.740   2.180 -0.5746  0.0064  0.4643
  189ACOH    C110409   5.584   1.681   2.357  0.5904  0.4305 -0.3196
  189ACOH    H110410   5.519   1.599   2.388  0.7979  0.1958 -0.5064
  189ACOH    H210411   5.517   1.767   2.361 -1.5804 -1.2719  0.7705
  189ACOH    H310412   5.668   1.695   2.425  0.3331 -0.7529  0.2459
  190ACOH    H410413   8.914   2.832   7.638  0.0911 -0.3055 -0.0587
  190ACOH    O210414   9.008   2.846   7.655 -0.0844  0.7502  0.1033
  190ACOH    C210415   9.018   2.978   7.644 -0.1718 -0.2337 -0.0137
  190ACOH    O110416   8.935   3.063   7.619  0.3325  0.0838 -0.6644
  190ACOH    C110417   9.150   3.022   7.699 -0.2549  0.5913 -0.3048
  190ACOH    H110418   9.233   2.971   7.650  0.0812  1.3900 -0.5815
  190ACOH    H210419   9.151   3.002   7.806 -2.8011 -2.3779 -0.7753
  190ACOH    H310420   9.163   3.130   7.688 -1.6720  0.8272  0.2432
  191ACOH    H410421   5.110   4.832   7.269  0.2459 -3.0611  0.5038
  191ACOH    O210422   5.047   4.843   7.342 -0.2651 -0.1751 -0.3064
  191ACOH    C210423   4.950   4.748   7.315 -0.0881 -0.3418  1.0244
  191ACOH    O110424   4.938   4.690   7.210 -0.4432 -0.0562  0.0229
  191ACOH    C110425   4.849   4.758   7.424  0.0546 -0.6565  0.8089
  191ACOH    H110426   4.869   4.828   7.506 -2.0222  3.6565 -2.1862
  191ACOH    H210427   4.843   4.655   7.460  2.3456 -1.4364 -0.9686
  191ACOH    H310428   4.750   4.782   7.386  0.6106  0.3429 -0.0329
  192ACOH    H410429   3.683   0.349   1.920  2.4537  0.8129 -0.6494
  192ACOH    O210430   3.654   0.431   1.876 -0.6070 -0.1797 -0.5748
  192ACOH    C210431   3.711   0.528   1.945  0.1711 -0.3175  0.8205
  192ACOH    O110432   3.825   0.545   1.971  0.1823  0.0035  0.9507
  192ACOH    C110433   3.619   0.652   1.940 -0.2792  0.1093 -0.1696
  192ACOH    H110434   3.585   0.680   1.840 -1.0304 -0.5925 -0.1070
  192ACOH    H210435   3.662   0.745   1.979  0.3128 -0.1684 -0.1536
  192ACOH    H310436   3.531   0.633   2.001  0.1376 -1.0715  0.0669
  193ACOH    H410437   2.028   3.124   2.151  0.7361  1.9779  0.2644
  193ACOH    O210438   2.119   3.100   2.127  0.0567  0.0703 -0.4899
  193ACOH    C210439   2.115   2.976   2.175 -0.9348  0.0215 -0.1763
  193ACOH    O110440   2.058   2.927   2.267  0.4460  0.2533  0.1051
  193ACOH    C110441   2.242   2.909   2.138 -0.4329  0.5707  0.0311
  193ACOH    H110442   2.251   2.905   2.030  0.0978 -1.1171  0.1183
  193ACOH    H210443   2.239   2.807   2.175  0.5638  0.3047 -0.6116
  193ACOH    H310444   2.327   2.961   2.184  0.2573  0.4464 -1.0947
  194ACOH    H410445   0.581   0.173   0.884  2.1194  1.7425 -0.4994
  194ACOH    O210446   0.576   0.212   0.973  0.2866  0.6406 -0.0783
  194ACOH    C210447   0.535   0.341   0.948  0.6548 -0.4132  0.3679
  194ACOH    O110448   0.486   0.382   0.843 -0.0166  0.3366  0.5994
  194ACOH    C110449   0.553   0.420   1.067  0.5098  0.5195 -0.2869
  194ACOH    H110450   0.638   0.381   1.123  1.7477  1.7668 -1.2330
  194ACOH    H210451   0.461   0.420   1.124  0.0182  0.4885 -1.0738
  194ACOH    H310452   0.566   0.526   1.043 -0.4961  0.7787  0.3027
  195ACOH    H410453   7.640   4.546   6.355 -0.0671  0.2028  0.2113
  195ACOH    O210454   7.609   4.544   6.263 -0.1717 -0.0480  0.2516
  195ACOH    C210455   7.571   4.414   6.234 -0.1783 -0.1587 -0.2990
  195ACOH    O110456   7.585   4.324   6.315 -0.3693  0.4872 -0.3008
  195ACOH    C110457   7.572   4.389   6.089 -0.1474 -0.6671  0.2823
  195ACOH    H110458   7.630   4.469   6.042 -0.5967 -0.7468 -0.4083
  195ACOH    H210459   7.469   4.398   6.054  0.0838 -1.1556 -0.5422
  195ACOH    H310460   7.610   4.289   6.068  0.1614 -0.1921 -1.4944
  196ACOH    H410461   5.196   0.300   1.795  0.1203 -0.1539  0.2241
  196ACOH    O210462   5.158   0.390   1.796  0.0928 -0.1645  0.1090
  196ACOH    C210463   5.022   0.378   1.823  0.6718  0.0994  0.3431
  196ACOH    O110464   4.977   0.280   1.878  0.1184  0.3383  0.4509
  196ACOH    C110465   4.952   0.509   1.807  0.2727 -0.9462  0.0200
  196ACOH    H110466   4.843   0.499   1.807  0.1669  0.0482 -0.9457
  196ACOH    H210467   4.983   0.552   1.712  1.2648 -1.5683  0.0609
  196ACOH    H310468   4.959   0.591   1.878 -2.0511 -0.8061  0.1507
  197ACOH    H410469   5.278   9.955   5.440  0.6666  1.1185  0.3988
  197ACOH    O210470   5.322   9.945   5.354 -0.5628  0.1008 -0.1452
  197ACOH    C210471   5.446   9.887   5.379  0.6987  0.6696  0.6890
  197ACOH    O110472   5.513   9.915   5.481  0.2708  0.0710  0.3323
  197ACOH    C110473   5.503   9.834   5.251  0.1763 -0.0144  0.0483
  197ACOH    H110474   5.422   9.821   5.180  1.5376 -1.0026 -1.3562
  197ACOH    H210475   5.538   9.732   5.263 -0.1413 -0.3708 -1.8795
  197ACOH    H310476   5.580   9.896   5.204  0.3716  0.5606  1.1145
  198ACOH    H410477   7.004   9.821   0.920 -0.9427 -1.9092 -1.3278
  198ACOH    O210478   6.924   9.859   0.879 -0.0057  0.2468 -1.2390
  198ACOH    C210479   6.968   9.966   0.807 -0.1059  0.7322 -0.1462
  198ACOH    O110480   7.081  10.011   0.821  0.2746  0.1479 -0.4234
  198ACOH    C110481   6.864  10.033   0.733  0.3849 -0.3748  0.0843
  198ACOH    H110482   6.866  10.011   0.627 -1.4083 -1.1600  0.1967
  198ACOH    H210483   6.871  10.142   0.738  1.4959 -0.4823  1.2705
  198ACOH    H310484   6.770   9.989   0.767 -0.5169  0.4211 -1.3167
  199ACOH    H410485   1.498   4.920   5.259 -0.0064 -0.6723 -0.1608
  199ACOH    O210486   1.488   4.955   5.169 -0.2360  0.0097  0.1213
  199ACOH    C210487   1.421   4.864   5.093  0.4403 -0.1262 -0.2349
  199ACOH    O110488   1.317   4.816   5.132 -0.3767 -0.8150  0.2173
  199ACOH    C110489   1.427   4.888   4.944 -0.6896 -0.4388 -0.0891
  199ACOH    H110490   1.345   4.950   4.909 -0.6749 -0.4446 -0.1326
  199ACOH    H210491   1.422   4.793   4.892  0.7713 -0.3486 -0.4212
  199ACOH    H310492   1.525   4.930   4.921 -1.0939  0.3913 -0.3053
  200ACOH    H410493   8.263   4.645   7.504 -1.7692 -0.6082 -0.7370
  200ACOH    O210494   8.221   4.574   7.554 -1.1394 -0.2311  0.3390
  200ACOH    C210495   8.269   4.458   7.504 -0.1463 -0.2452 -0.7643
  200ACOH    O110496   8.347   4.454   7.411  0.0089 -0.1882  0.0000
  200ACOH    C110497   8.229   4.342   7.596 -0.2352 -0.1973 -0.5123
  200ACOH    H110498   8.267   4.347   7.698  1.3289 -2.3557 -0.9612
  200ACOH    H210499   8.272   4.251   7.554 -0.3018 -0.5751  0.2323
  200ACOH    H310500   8.120   4.337   7.597 -0.4455  3.0368 -1.1312
  201ACOH    H410501   7.502   5.671   4.094 -0.0928  0.4944  0.4961
  201ACOH    O210502   7.425   5.613   4.101  0.1478 -0.0064 -0.8678
  201ACOH    C210503   7.435   5.514   4.014 -0.5182  0.5185 -0.3077
  201ACOH    O110504   7.495   5.509   3.909  0.0715  0.1183  0.5922
  201ACOH    C110505   7.348   5.402   4.059  0.6644  0.5706  0.5149
  201ACOH    H110506   7.411   5.313   4.064  1.2265  0.8565 -1.3949
  201ACOH    H210507   7.262   5.392   3.993  0.5813 -0.1230  0.7231
  201ACOH    H310508   7.309   5.429   4.157  0.6606  1.3020  0.3109
  202ACOH    H410509   9.578   3.006   7.429 -0.3931  2.2637 -2.0164
  202ACOH    O210510   9.562   3.058   7.509  0.4049 -0.4302 -0.0093
  202ACOH    C210511   9.593   2.984   7.615  0.7196  0.0253  0.1175
  202ACOH    O110512   9.651   2.881   7.612  0.4999  0.4288 -0.3344
  202ACOH    C110513   9.553   3.046   7.745  0.6710 -0.6349 -0.1355
  202ACOH    H110514   9.473   3.120   7.737 -0.0585 -1.4765 -0.6637
  202ACOH    H210515   9.647   3.097   7.768 -0.2463  0.4736  1.2631
  202ACOH    H310516   9.532   2.972   7.821 -0.7923 -0.7534 -0.6506
  203ACOH    H410517   0.368   1.121   4.370  0.3851 -3.6475 -2.4710
  203ACOH    O210518   0.356   1.072   4.453  0.6334  0.1143 -0.0610
  203ACOH    C210519   0.443   1.135   4.534  0.1186  0.4896  0.1946
  203ACOH    O110520   0.528   1.212   4.494 -0.6538  0.3436  0.4648
  203ACOH    C110521   0.446   1.068   4.672 -0.1019  0.8011  0.3581
  203ACOH    H110522   0.354   1.094   4.724  0.6013 -0.0305  2.0941
  203ACOH    H210523   0.526   1.121   4.725  0.3164  1.5463 -1.0088
  203ACOH    H310524   0.466   0.961   4.672 -1.9945  0.4368 -0.2798
  204ACOH    H410525   5.279   1.052   1.098  0.4145  1.1743  2.3198
  204ACOH    O210526   5.371   1.055   1.065 -0.2819 -0.2233  0.1178
  204ACOH    C210527   5.435   1.146   1.137 -0.5590  0.2469 -0.4896
  204ACOH    O110528   5.368   1.227   1.206 -0.3002 -0.2174  0.0472
  204ACOH    C110529   5.574   1.170   1.096  0.3223  0.0301  0.4301
  204ACOH    H110530   5.586   1.250   1.023  1.8837  1.8105  2.5657
  204ACOH    H210531   5.598   1.073   1.052 -1.2464 -1.8031  3.4076
  204ACOH    H310532   5.637   1.190   1.183  2.1621 -0.3332 -0.8083
  205ACOH    H410533   6.532   7.014   7.402 -1.7491 -0.2706  2.9807
  205ACOH    O210534   6.458   6.956   7.379 -0.5228 -0.6083 -0.5435
  205ACOH    C210535   6.480   6.837   7.427  0.5289 -0.4180  0.1937
  205ACOH    O110536   6.576   6.794   7.486  0.1082  0.1613  0.2297
  205ACOH    C110537   6.390   6.740   7.368 -0.1240  0.1650  0.3748
  205ACOH    H110538   6.375   6.645   7.419 -2.4199  1.2437  1.8029
  205ACOH    H210539   6.424   6.716   7.267 -1.9906  0.4985 -0.3541
  205ACOH    H310540   6.291   6.784   7.361 -1.0717 -2.2451 -2.9759
  206ACOH    H410541   5.572   0.282   5.166  0.8284 -1.4451  1.9467
  206ACOH    O210542   5.592   0.231   5.086 -0.0703  0.7153  0.2880
  206ACOH    C210543   5.627   0.329   5.003  0.7068  0.2536  0.0810
  206ACOH    O110544   5.582   0.440   4.997  0.0955 -0.1803  0.2623
  206ACOH    C110545   5.688   0.270   4.877 -0.0364 -0.6078 -0.1547
  206ACOH    H110546   5.755   0.341   4.828  1.1261 -1.8092 -0.3420
  206ACOH    H210547   5.606   0.236   4.814 -0.0810 -0.3007 -0.2633
  206ACOH    H310548   5.760   0.191   4.899 -0.2088 -1.0150 -1.0115
  207ACOH    H410549   7.800   9.862   2.296  1.5822 -1.5851  0.3037
  207ACOH    O210550   7.740   9.800   2.252  0.1756 -0.4146  0.5408
  207ACOH    C210551   7.652   9.749   2.340  0.3900 -0.2707  0.8942
  207ACOH    O110552   7.615   9.803   2.445 -0.0841 -0.3905  1.0998
  207ACOH    C110553   7.579   9.635   2.278 -0.0444  0.0029  0.5566
  207ACOH    H110554   7.649   9.567   2.229  1.4631  1.8922  0.0627
  207ACOH    H210555   7.516   9.683   2.203 -1.5035 -0.0378  1.7147
  207ACOH    H310556   7.509   9.594   2.351 -1.1775  1.9926  0.6297
  208ACOH    H410557   5.686   6.646   1.662  0.2488  0.7180 -1.3878
  208ACOH    O210558   5.774   6.632   1.624  0.6449 -0.1230 -0.2131
  208ACOH    C210559   5.798   6.500   1.621  0.0804 -0.3501  0.6506
  208ACOH    O110560   5.718   6.412   1.643 -0.1291 -0.3520 -1.2238
  208ACOH    C110561   5.940   6.468   1.601  0.2436  0.1347 -0.4884
  208ACOH    H110562   5.979   6.409   1.684 -0.1797 -1.2738 -1.2574
  208ACOH    H210563   6.007   6.553   1.587  1.4188 -0.4534  1.2968
  208ACOH    H310564   5.938   6.401   1.515  2.1549  0.3762 -0.7360
  209ACOH    H410565   6.495   2.707   3.700  0.1768 -0.7192  0.2509
  209ACOH    O210566   6.400   2.686   3.692 -0.0586  0.2661  0.4355
  209ACOH    C210567   6.359   2.748   3.580 -0.8084 -0.2463  0.8543
  209ACOH    O110568   6.422   2.822   3.507  0.0299 -0.5083  0.2233
  209ACOH    C110569   6.216   2.720   3.556 -0.5764 -0.6665  0.5197
  209ACOH    H110570   6.175   2.637   3.615 -1.4252 -1.2156 -0.8073
  209ACOH    H210571   6.200   2.688   3.453 -0.7638 -0.3585  0.4525
  209ACOH    H310572   6.157   2.809   3.576  1.4234  1.4956 -2.7195
  210ACOH    H410573   6.968   6.685   7.943  1.2149 -2.2921  1.4964
  210ACOH    O210574   6.906   6.618   7.909 -0.5515  0.0178 -0.0028
  210ACOH    C210575   6.969   6.500   7.904  0.0148  0.2702 -0.0122
  210ACOH    O110576   7.085   6.486   7.902 -0.1771 -0.1580 -0.0846
  210ACOH    C110577   6.872   6.387   7.874  0.0141 -0.4559 -0.2572
  210ACOH    H110578   6.801   6.373   7.956  1.9461 -1.2212  1.3220
  210ACOH    H210579   6.936   6.299   7.880  0.2967 -0.1565  1.4828
  210ACOH    H310580   6.833   6.403   7.774  1.1285  5.6430  0.0867
  211ACOH    H410581   9.734   3.823   7.808 -1.0580 -0.6850  0.2965
  211ACOH    O210582   9.711   3.901   7.862  0.2302 -0.3802  0.4209
  211ACOH    C210583   9.576   3.919   7.849 -0.5109 -1.1867 -0.8325
  211ACOH    O110584   9.501   3.864   7.770 -0.3780 -0.5210 -0.2248
  211ACOH    C110585   9.532   4.018   7.953  0.0602  0.5496 -0.0669
  211ACOH    H110586   9.559   4.120   7.929 -0.6412  0.4887 -1.1312
  211ACOH    H210587   9.582   3.985   8.045 -1.8658 -2.2808  0.0402
  211ACOH    H310588   9.425   4.014   7.974 -0.8817  0.0431 -4.5693
  212ACOH    H410589   4.924   3.164   2.017 -0.7719  0.6420 -0.3640
  212ACOH    O210590   4.962   3.147   1.930  0.1791 -0.3910  0.2375
  212ACOH    C210591   4.909   3.034   1.880 -0.7497 -0.3641 -0.2833
  212ACOH    O110592   4.811   2.971   1.924 -0.5470 -0.4676 -0.1268
  212ACOH    C110593   4.964   3.007   1.752 -0.0693 -0.4117  0.0941
  212ACOH    H110594   5.072   3.022   1.741  0.0275  0.0455  1.5294
  212ACOH    H210595   4.913   3.079   1.688 -0.1024 -0.5850 -0.0748
  212ACOH    H310596   4.938   2.906   1.719 -0.6314 -0.9308  2.0637
  213ACOH    H410597   9.329   4.903   6.342 -0.1221  1.8393 -2.1084
  213ACOH    O210598   9.420   4.904   6.375 -0.5764 -0.3468 -0.6771
  213ACOH    C210599   9.493   4.853   6.278  0.5994 -0.1817  0.0184
  213ACOH    O110600   9.469   4.860   6.157  0.5790  0.6455 -0.0680
  213ACOH    C110601   9.630   4.856   6.325  0.0661 -0.0256  0.7860
  213ACOH    H110602   9.634   4.822   6.428  3.3696 -2.1689  0.0196
  213ACOH    H210603   9.677   4.954   6.319 -2.2226  1.2589  2.9314
  213ACOH    H310604   9.677   4.782   6.260 -1.6044  0.2585 -0.8053
  214ACOH    H410605   3.996   6.469   7.228  1.8132 -0.1609  0.1619
  214ACOH    O210606   4.027   6.546   7.178  0.2382  0.1062 -0.4195
  214ACOH    C210607   4.016   6.525   7.045 -0.4713  0.1408 -0.2679
  214ACOH    O110608   4.030   6.426   6.983 -0.3434 -0.4492  0.1363
  214ACOH    C110609   4.046   6.651   6.968  0.2289 -0.0181  0.9835
  214ACOH    H110610   4.139   6.702   6.994  1.5730 -2.9558  2.1661
  214ACOH    H210611   3.967   6.723   6.988 -0.1470 -0.1570  0.0553
  214ACOH    H310612   4.040   6.646   6.859 -0.7358 -1.3763  1.0951
  215ACOH    H410613   3.292   2.755   5.523 -0.5319 -0.5350  0.1668
  215ACOH    O210614   3.377   2.762   5.571 -0.2754  0.0868 -0.3708
  215ACOH    C210615   3.356   2.862   5.667 -0.3987  0.6799 -0.7343
  215ACOH    O110616   3.254   2.889   5.722  0.2620 -0.0843  0.0300
  215ACOH    C110617   3.489   2.912   5.707  0.2120 -0.5483  0.3329
  215ACOH    H110618   3.494   2.948   5.809  3.0720 -1.4241  0.5501
  215ACOH    H210619   3.521   2.997   5.646  0.8346 -0.8835  0.1919
  215ACOH    H310620   3.562   2.831   5.704  1.1151  0.3029 -1.7363
  216ACOH    H410621   4.262   6.990   2.759 -0.7506 -1.5730  0.3564
  216ACOH    O210622   4.269   7.022   2.851  0.4283 -0.4913 -0.1094
  216ACOH    C210623   4.195   6.939   2.925 -0.6283 -0.0954 -0.0066
  216ACOH    O110624   4.196   6.946   3.044 -0.1799  0.3083 -0.5559
  216ACOH    C110625   4.157   6.811   2.864 -0.8283  0.5815  0.3482
  216ACOH    H110626   4.125   6.742   2.943 -0.8655  0.1319 -0.0529
  216ACOH    H210627   4.239   6.765   2.809 -0.8966  0.5349  0.2856
  216ACOH    H310628   4.076   6.830   2.794 -0.2995  2.2028  0.1646
  217ACOH    H410629   6.955   6.378   6.041 -0.2059 -0.4480  0.9269
  217ACOH    O210630   6.896   6.337   5.976  0.5905 -0.1551  0.0166
  217ACOH    C210631   6.869   6.212   6.023  0.2508 -0.4664 -0.0668
  217ACOH    O110632   6.940   6.148   6.094 -0.0230  0.4049 -0.7234
  217ACOH    C110633   6.762   6.153   5.938 -0.3499  0.3207  0.3918
  217ACOH    H110634   6.814   6.144   5.843  0.4506  1.8136  0.6604
  217ACOH    H210635   6.673   6.217   5.940 -1.2783 -0.8637 -1.9243
  217ACOH    H310636   6.738   6.054   5.977  1.6568 -0.7151 -0.9140
  218ACOH    H410637   6.545   0.533   0.375 -0.5515  0.3355 -1.1920
  218ACOH    O210638   6.591   0.451   0.349  0.7648  0.6237  0.1797
  218ACOH    C210639   6.711   0.466   0.397 -0.2364 -0.3888 -0.5396
  218ACOH    O110640   6.779   0.568   0.374 -0.8125 -0.1348 -0.3549
  218ACOH    C110641   6.773   0.337   0.439 -0.3714  0.1955  0.3686
  218ACOH    H110642   6.732   0.297   0.532 -1.8964  2.2379  0.6162
  218ACOH    H210643   6.882   0.336   0.451 -0.1861  0.1573 -1.2564
  218ACOH    H310644   6.746   0.269   0.358  0.6830 -0.6658  0.7221
  219ACOH    H410645   0.168   8.707   6.183  0.4904  0.7489 -1.3617
  219ACOH    O210646   0.207   8.626   6.147 -0.8907 -0.5369 -0.0429
  219ACOH    C210647   0.339   8.655   6.150  0.8995  0.0001 -0.1245
  219ACOH    O110648   0.398   8.762   6.158  0.5930 -0.7047 -0.0433
  219ACOH    C110649   0.397   8.522   6.107  0.0501 -0.6421 -0.1896
  219ACOH    H110650   0.354   8.441   6.167  0.7864  0.2644  1.5891
  219ACOH    H210651   0.506   8.520   6.105  0.1046 -1.3885  2.3670
  219ACOH    H310652   0.371   8.503   6.003  0.2577  4.1277 -1.2155
  220ACOH    H410653   7.288   6.523   0.446  0.3784 -0.5024  1.5872
  220ACOH    O210654   7.282   6.436   0.402  0.0501  0.1993  0.2088
  220ACOH    C210655   7.410   6.400   0.388  0.1949  0.3968 -0.1538
  220ACOH    O110656   7.504   6.470   0.352  0.1042  0.5185  0.1447
  220ACOH    C110657   7.435   6.250   0.393 -0.1035  0.1796 -0.3405
  220ACOH    H110658   7.535   6.227   0.358 -0.4222 -1.0696 -0.4478
  220ACOH    H210659   7.354   6.197   0.342 -1.9963  0.1965  2.4878
  220ACOH    H310660   7.432   6.225   0.499  0.2500  0.1871 -0.3305
  221ACOH    H410661   7.679   3.964   6.310 -2.1795  0.4956  1.0421
  221ACOH    O210662   7.621   3.891   6.283 -0.1710 -0.7020 -0.1528
  221ACOH    C210663   7.555   3.856   6.390  0.0690  0.0886  0.0851
  221ACOH    O110664   7.559   3.914   6.496  0.3482 -0.9524  0.3589
  221ACOH    C110665   7.480   3.725   6.372 -0.0983  0.2661  0.2897
  221ACOH    H110666   7.535   3.665   6.300 -0.7161 -0.2909  0.2721
  221ACOH    H210667   7.384   3.754   6.328  0.5137  0.7258 -0.7566
  221ACOH    H310668   7.451   3.672   6.463 -0.0752  0.1938  0.2548
  222ACOH    H410669   9.025   4.729   3.941  4.4574  1.8544  0.3263
  222ACOH    O210670   8.993   4.819   3.924 -0.2389  0.1622 -0.4651
  222ACOH    C210671   8.858   4.809   3.903 -0.2858 -0.3178 -0.0957
  222ACOH    O110672   8.802   4.705   3.868 -0.1115 -0.7538 -0.2912
  222ACOH    C110673   8.791   4.943   3.883 -0.2572  0.2036  0.1426
  222ACOH    H110674   8.748   4.942   3.783  0.6695  1.4595 -0.2713
  222ACOH    H210675   8.866   5.021   3.895  0.6722 -0.6502  0.0258
  222ACOH    H310676   8.712   4.964   3.955  1.1691  0.6182  1.6282
  223ACOH    H410677   6.717   7.001   2.600 -1.2590 -0.9122 -0.1626
  223ACOH    O210678   6.656   7.046   2.539  0.0157  0.8805 -0.1656
  223ACOH    C210679   6.576   7.123   2.617  0.2962 -0.0126 -0.0633
  223ACOH    O110680   6.606   7.182   2.719  0.1691  0.3358 -0.2320
  223ACOH    C110681   6.457   7.171   2.540  0.1477 -0.3687  0.3886
  223ACOH    H110682   6.366   7.138   2.590 -0.0100  0.1394  0.4406
  223ACOH    H210683   6.461   7.121   2.443 -1.0201 -0.5703  0.4422
  223ACOH    H310684   6.464   7.279   2.533  2.9512 -0.6496 -2.4155
  224ACOH    H410685   7.991   6.762   0.216  2.2651 -0.5166  3.0818
  224ACOH    O210686   7.927   6.818   0.262 -0.1082 -0.2251 -0.4229
  224ACOH    C210687   7.999   6.928   0.302  0.0600 -0.1128 -0.7280
  224ACOH    O110688   8.122   6.939   0.294  0.5247 -0.3448 -0.4500
  224ACOH    C110689   7.920   7.052   0.308 -0.6087  0.4567  0.7564
  224ACOH    H110690   7.859   7.048   0.398 -0.0200 -2.5228  1.0839
  224ACOH    H210691   7.853   7.041   0.222  0.5437 -0.4857 -0.0325
  224ACOH    H310692   7.980   7.143   0.307  0.2908 -0.1194  1.7790
  225ACOH    H410693   5.820   0.484   7.994 -0.4387  0.3850  1.0907
  225ACOH    O210694   5.797   0.579   7.990  0.3498  0.5425 -0.4920
  225ACOH    C210695   5.713   0.591   8.094  0.5436  0.4964 -0.8812
  225ACOH    O110696   5.665   0.504   8.162  0.5461 -0.5477 -0.0691
  225ACOH    C110697   5.694   0.738   8.138  0.0650  0.4926  0.5815
  225ACOH    H110698   5.797   0.771   8.156  0.2734 -0.3186  0.9317
  225ACOH    H210699   5.635   0.752   8.228  1.2530  0.7213  1.3414
  225ACOH    H310700   5.639   0.796   8.065 -1.8482 -1.0002  0.8006
  226ACOH    H410701   5.262   7.234   6.849  0.4874 -0.1610 -0.4600
  226ACOH    O210702   5.233   7.189   6.930 -0.0539  0.3318 -0.3743
  226ACOH    C210703   5.198   7.276   7.021  0.0146  0.0893 -0.5934
  226ACOH    O110704   5.222   7.395   7.031 -0.2539 -0.6667 -0.1438
  226ACOH    C110705   5.115   7.203   7.117 -0.4510 -0.1400  0.1667
  226ACOH    H110706   5.128   7.096   7.099 -1.0814  0.0312 -1.3938
  226ACOH    H210707   5.009   7.207   7.095  0.3742 -1.2215 -4.5738
  226ACOH    H310708   5.138   7.220   7.223  1.8879  1.1635 -0.5012
  227ACOH    H410709   6.605   6.199   2.103 -2.1232 -2.1235  2.3804
  227ACOH    O210710   6.545   6.276   2.108  0.5296  0.3078 -0.9546
  227ACOH    C210711   6.615   6.369   2.040 -0.5531  0.5325  0.1659
  227ACOH    O110712   6.733   6.373   2.001 -0.1181  0.3636  0.0721
  227ACOH    C110713   6.542   6.499   2.027  0.2294 -0.1782 -0.3412
  227ACOH    H110714   6.439   6.492   1.992  0.2675 -3.0456 -0.0407
  227ACOH    H210715   6.595   6.557   1.952 -0.1438 -1.9399 -2.0063
  227ACOH    H310716   6.551   6.546   2.125 -0.1853 -1.1437  0.1662
  228ACOH    H410717   7.627   5.344   4.733  0.1002  1.1793 -1.0879
  228ACOH    O210718   7.659   5.264   4.690  0.0041  0.5494 -0.0052
  228ACOH    C210719   7.733   5.283   4.577 -0.0038  0.2912 -0.5637
  228ACOH    O110720   7.756   5.394   4.539 -0.1816  0.4066  0.1296
  228ACOH    C110721   7.804   5.164   4.526  0.3770  0.6277  0.0654
  228ACOH    H110722   7.747   5.083   4.481  1.1933  0.7108 -1.1284
  228ACOH    H210723   7.863   5.125   4.609 -2.3963 -0.7830  1.4681
  228ACOH    H310724   7.862   5.201   4.442 -2.2054  0.0839 -2.0556
  229ACOH    H410725   4.379   5.365   7.362  2.2539  0.0722 -0.5921
  229ACOH    O210726   4.407   5.291   7.418  0.3672 -0.3698 -0.1792
  229ACOH    C210727   4.338   5.294   7.532  0.0640 -0.0607  0.4494
  229ACOH    O110728   4.224   5.344   7.547 -0.0737 -0.2488  0.2193
  229ACOH    C110729   4.409   5.219   7.636  0.5558  0.9003  0.6414
  229ACOH    H110730   4.347   5.223   7.726 -0.3971  0.4811  0.0063
  229ACOH    H210731   4.507   5.263   7.654  1.2903 -0.5673  0.3212
  229ACOH    H310732   4.420   5.119   7.594 -1.6706  0.2846  1.4275
  230ACOH    H410733   7.958   8.809   8.149  0.3989 -1.3827  0.7329
  230ACOH    O210734   8.013   8.850   8.219  0.3387  0.3643 -0.2109
  230ACOH    C210735   7.996   8.771   8.324 -0.8830  0.5823  0.4311
  230ACOH    O110736   7.888   8.722   8.352 -0.0122 -0.3827 -0.2313
  230ACOH    C110737   8.098   8.812   8.424 -0.6552  0.1971  0.3013
  230ACOH    H110738   8.052   8.848   8.516 -4.0053  1.4736 -1.8123
  230ACOH    H210739   8.161   8.893   8.387 -1.3075 -1.3536 -4.6300
  230ACOH    H310740   8.164   8.725   8.431 -0.2047  0.5566  0.5544
  231ACOH    H410741   7.066   6.034   5.794 -0.0067 -0.6173 -1.4945
  231ACOH    O210742   7.051   5.940   5.817  0.3694 -0.3896 -0.3265
  231ACOH    C210743   7.113   5.869   5.729  0.1185 -0.0809 -0.6481
  231ACOH    O110744   7.189   5.913   5.640  0.2897 -0.4221  0.1512
  231ACOH    C110745   7.066   5.734   5.759 -0.9757  0.0491 -0.1958
  231ACOH    H110746   7.104   5.665   5.684 -0.6313  0.5458 -0.4829
  231ACOH    H210747   6.958   5.727   5.752 -1.1353  0.0420  1.8833
  231ACOH    H310748   7.103   5.708   5.859 -0.5538  1.2400 -0.0298
  232ACOH    H410749   7.542   2.237   6.684  1.0083  0.9351  0.3343
  232ACOH    O210750   7.484   2.292   6.628  0.6845 -0.1657 -0.4267
  232ACOH    C210751   7.565   2.392   6.570 -0.1079 -0.4456  0.9157
  232ACOH    O110752   7.683   2.408   6.583  0.2501 -0.0546 -0.6993
  232ACOH    C110753   7.479   2.468   6.474  0.3339  0.5836  0.3567
  232ACOH    H110754   7.400   2.510   6.536 -0.7541 -0.0571 -0.6026
  232ACOH    H210755   7.444   2.413   6.388  0.7630 -0.9839  1.1678
  232ACOH    H310756   7.535   2.557   6.443  2.1753 -0.0042  1.8668
  233ACOH    H410757   8.959   6.781   2.112 -0.0314  1.0969  0.1654
  233ACOH    O210758   8.892   6.717   2.141  0.6548  0.2990  0.0300
  233ACOH    C210759   8.807   6.781   2.226  0.2879 -0.3474 -0.0268
  233ACOH    O110760   8.813   6.902   2.249 -0.2167  0.3012  0.8208
  233ACOH    C110761   8.688   6.697   2.249  0.1166 -0.8202  0.1310
  233ACOH    H110762   8.661   6.648   2.155  1.1618  0.2975 -0.7693
  233ACOH    H210763   8.600   6.749   2.288  0.3203 -0.2770 -0.1168
  233ACOH    H310764   8.729   6.616   2.308  1.2470 -0.2981  0.0769
  234ACOH    H410765   6.578   5.629   7.379 -0.5109  1.1590 -1.4691
  234ACOH    O210766   6.481   5.637   7.387 -0.4831  0.2149 -0.0423
  234ACOH    C210767   6.434   5.675   7.269  0.1637  0.5355  0.0981
  234ACOH    O110768   6.498   5.695   7.168 -0.0069  0.0154  0.2801
  234ACOH    C110769   6.285   5.699   7.283 -0.0542  0.1290 -0.4561
  234ACOH    H110770   6.262   5.777   7.355  1.0220 -0.8707  0.9959
  234ACOH    H210771   6.243   5.605   7.320  0.1100 -0.2569 -1.2337
  234ACOH    H310772   6.245   5.729   7.186  0.9693  0.4030 -0.8004
  235ACOH    H410773   7.831   5.184   5.453  0.0031 -0.6493  1.0719
  235ACOH    O210774   7.812   5.269   5.497 -0.0158 -0.0190 -0.1326
  235ACOH    C210775   7.922   5.283   5.580 -0.1504  0.2056 -0.4529
  235ACOH    O110776   8.027   5.221   5.573 -0.5130 -0.2368 -0.2956
  235ACOH    C110777   7.900   5.391   5.676 -0.5072  0.0606 -0.1489
  235ACOH    H110778   7.987   5.403   5.742  0.3681  0.3830 -1.3437
  235ACOH    H210779   7.821   5.359   5.744 -1.0190 -1.7416 -1.5607
  235ACOH    H310780   7.883   5.485   5.624 -0.3041  0.5280  0.6153
  236ACOH    H410781   5.472   1.132   3.782  0.3499 -0.5460 -4.7825
  236ACOH    O210782   5.532   1.056   3.779  0.9451 -0.4220  0.0858
  236ACOH    C210783   5.585   1.048   3.904 -0.7141 -0.2753 -0.2863
  236ACOH    O110784   5.563   1.126   3.997 -0.7281 -0.1734  0.2007
  236ACOH    C110785   5.661   0.926   3.930 -0.2483 -0.3544  0.2080
  236ACOH    H110786   5.587   0.846   3.929  0.6559 -1.1998 -2.5054
  236ACOH    H210787   5.707   0.938   4.028 -1.3341  1.5546  0.4982
  236ACOH    H310788   5.727   0.904   3.847 -1.2233  1.6201 -1.1183
  237ACOH    H410789   9.315   4.418   4.179  0.6948 -0.3342  1.2236
  237ACOH    O210790   9.366   4.345   4.140  0.7324  0.1235  0.3950
  237ACOH    C210791   9.285   4.267   4.067 -0.8633  1.2367  0.1110
  237ACOH    O110792   9.175   4.299   4.023  0.5100 -0.0409 -0.7888
  237ACOH    C110793   9.346   4.140   4.017 -0.1419 -0.1038  0.0267
  237ACOH    H110794   9.381   4.154   3.915  0.4600 -0.3425  0.2008
  237ACOH    H210795   9.274   4.058   4.015  0.4990 -0.6684  0.0504
  237ACOH    H310796   9.431   4.106   4.076 -1.5348 -3.4611  0.2425
  238ACOH    H410797   2.193   8.970  10.032  0.5627 -1.0521  4.9060
  238ACOH    O210798   2.269   9.031  10.029 -0.1894 -0.1189  0.3467
  238ACOH    C210799   2.203   9.144   9.996 -0.5641 -0.7598 -0.3339
  238ACOH    O110800   2.092   9.158   9.954  0.3490  0.5751 -0.2473
  238ACOH    C110801   2.296   9.264  10.003  0.2455 -0.3456  0.3792
  238ACOH    H110802   2.253   9.354  10.047  0.8808  0.9580 -1.5898
  238ACOH    H210803   2.334   9.278   9.901  1.1203 -0.0404  0.7374
  238ACOH    H310804   2.388   9.247  10.059  0.7447  2.2956  0.4478
  239ACOH    H410805   9.934   2.622   4.097  0.7656  3.6537  0.5468
  239ACOH    O210806   9.877   2.640   4.174 -0.8190  0.3688  0.2433
  239ACOH    C210807   9.800   2.746   4.147  0.0983  0.4196 -0.6951
  239ACOH    O110808   9.767   2.791   4.041  0.7224  0.2306  0.7305
  239ACOH    C110809   9.731   2.779   4.275  0.1566  0.4125  0.1856
  239ACOH    H110810   9.766   2.878   4.307 -3.2497  1.5790  0.5528
  239ACOH    H210811   9.754   2.710   4.355  0.3597  1.0892  0.7184
  239ACOH    H310812   9.623   2.785   4.263  0.4550  2.3999 -2.0245
  240ACOH    H410813   4.792   4.754   4.742  2.2018 -4.0978 -0.3381
  240ACOH    O210814   4.801   4.769   4.646  0.0338 -0.0540 -0.0221
  240ACOH    C210815   4.810   4.901   4.633  0.0349 -0.0629  0.0770
  240ACOH    O110816   4.838   4.982   4.720 -0.3399 -0.3512  0.3875
  240ACOH    C110817   4.783   4.942   4.493  0.0871 -0.2447 -0.4322
  240ACOH    H110818   4.857   4.892   4.430  1.0430 -0.8954  1.1585
  240ACOH    H210819   4.792   5.049   4.475 -0.1505 -0.2722 -0.7245
  240ACOH    H310820   4.687   4.904   4.459  0.8101  0.2115 -3.0418
  241ACOH    H410821   7.123   0.688   0.121  0.9942 -0.2866  2.1107
  241ACOH    O210822   7.195   0.695   0.057 -0.8902  0.3511 -0.0333
  241ACOH    C210823   7.304   0.626   0.099 -0.4689 -0.2722  0.0435
  241ACOH    O110824   7.303   0.528   0.171  0.5515  0.7353  0.1642
  241ACOH    C110825   7.428   0.692   0.044 -0.1375 -1.0458  0.2231
  241ACOH    H110826   7.410   0.794   0.011 -2.9223 -1.2511  1.0109
  241ACOH    H210827   7.454   0.645  -0.051 -1.5451  0.7139 -1.0552
  241ACOH    H310828   7.514   0.675   0.110 -0.5452  1.8535  1.5514
  242ACOH    H410829   7.119   6.216   5.043  1.1983 -0.7288 -1.4490
  242ACOH    O210830   7.043   6.156   5.031  0.2391  0.1082  0.2521
  242ACOH    C210831   7.055   6.057   5.126 -0.6964  0.3415 -0.1561
  242ACOH    O110832   7.155   6.019   5.181 -0.2647  0.4075 -0.2828
  242ACOH    C110833   6.927   5.985   5.133  0.3035  0.1961  0.2840
  242ACOH    H110834   6.921   5.918   5.219 -0.2994 -0.0188  0.0796
  242ACOH    H210835   6.918   5.923   5.043  0.7090  1.0523 -0.3596
  242ACOH    H310836   6.846   6.058   5.142  0.3950  0.3503 -0.1212
  243ACOH    H410837   1.993   6.271   4.621  0.3312  0.9705  1.2291
  243ACOH    O210838   1.958   6.334   4.557  0.0586 -0.1965  0.2126
  243ACOH    C210839   1.995   6.283   4.443  0.3386 -0.1004  0.3656
  243ACOH    O110840   2.090   6.210   4.420  0.4700  0.1551 -0.1301
  243ACOH    C110841   1.932   6.358   4.332 -0.7801 -0.3355  0.7708
  243ACOH    H110842   1.959   6.320   4.234 -1.4143 -2.0687  1.2441
  243ACOH    H210843   1.947   6.466   4.335 -0.8944 -0.3355  1.4575
  243ACOH    H310844   1.823   6.358   4.340 -0.8020  0.9177  0.6747
  244ACOH    H410845   6.027   3.863   0.107 -0.2164  1.2609 -0.6790
  244ACOH    O210846   6.078   3.910   0.175 -0.2209  0.0497  0.1930
  244ACOH    C210847   6.049   3.848   0.289  0.1305  0.1194  0.3419
  244ACOH    O110848   6.040   3.732   0.302 -0.7932  0.3471  0.0135
  244ACOH    C110849   6.098   3.942   0.395 -0.5255  0.4498 -0.9403
  244ACOH    H110850   6.086   3.899   0.494 -1.3796 -1.7932 -1.9731
  244ACOH    H210851   6.033   4.030   0.393 -0.0949  0.7870 -0.0407
  244ACOH    H310852   6.204   3.964   0.379  0.4609 -2.0382  1.8003
  245ACOH    H410853   5.711   7.262   2.249 -0.5140  0.9325  1.7976
  245ACOH    O210854   5.801   7.284   2.279  0.1288  0.5696  0.2073
  245ACOH    C210855   5.839   7.376   2.197 -0.0056 -0.6124 -0.4392
  245ACOH    O110856   5.783   7.413   2.096 -0.3359  0.3231  0.2001
  245ACOH    C110857   5.973   7.423   2.226  0.0315 -0.0775  0.0606
  245ACOH    H110858   5.983   7.530   2.208  0.1667 -0.1485 -0.2950
  245ACOH    H210859   6.046   7.365   2.170  0.5469 -0.4531  1.1121
  245ACOH    H310860   5.990   7.396   2.330  0.1345 -1.0798 -0.2110
  246ACOH    H410861   7.423   4.767   3.786 -0.9027  1.4398  1.3395
  246ACOH    O210862   7.347   4.706   3.792  0.4558 -0.5715 -0.8405
  246ACOH    C210863   7.246   4.761   3.713 -0.6912 -0.2513  0.0424
  246ACOH    O110864   7.245   4.865   3.652 -0.2425 -0.0446  0.5323
  246ACOH    C110865   7.131   4.672   3.733  0.0706 -0.1968  0.5759
  246ACOH    H110866   7.108   4.669   3.840 -2.0660 -0.7700  0.1226
  246ACOH    H210867   7.143   4.572   3.691 -0.2495 -0.4933  1.1823
  246ACOH    H310868   7.042   4.715   3.689 -0.4028  0.8706  2.5115
  247ACOH    H410869   7.532   2.603   6.827 -1.0331  1.6467  2.0943
  247ACOH    O210870   7.497   2.665   6.761  0.1167  0.4300  0.3051
  247ACOH    C210871   7.606   2.737   6.715  0.2640  0.5319  0.3504
  247ACOH    O110872   7.719   2.743   6.762  0.3676  0.5736  0.1370
  247ACOH    C110873   7.575   2.815   6.591  0.1632  0.5032 -0.6287
  247ACOH    H110874   7.476   2.860   6.600 -1.9600 -3.6524 -1.9117
  247ACOH    H210875   7.568   2.749   6.505  1.3980  0.5523 -0.7739
  247ACOH    H310876   7.652   2.892   6.583  0.2619  0.9743  3.5107
  248ACOH    H410877   5.177   5.682   3.545  0.3808  0.6860 -0.7745
  248ACOH    O210878   5.273   5.666   3.547  0.2932  0.2557  0.0749
  248ACOH    C210879   5.298   5.643   3.675  0.2613 -0.7535  0.4796
  248ACOH    O110880   5.231   5.577   3.754 -0.6335  0.0546  0.0984
  248ACOH    C110881   5.444   5.664   3.701 -0.1803  0.4887 -0.0231
  248ACOH    H110882   5.481   5.561   3.698 -1.9221 -0.1183 -1.1140
  248ACOH    H210883   5.464   5.710   3.798  0.9400 -0.7242  0.3343
  248ACOH    H310884   5.490   5.720   3.620  0.3906  0.2870  0.1557
  249ACOH    H410885   9.563   9.777   0.041  0.4405  1.0578 -0.6455
  249ACOH    O210886   9.528   9.728  -0.035  0.3914 -0.0481  0.0760
  249ACOH    C210887   9.479   9.827  -0.112 -0.5708 -0.0640  0.8223
  249ACOH    O110888   9.471   9.946  -0.085 -0.1692  0.0983  0.1852
  249ACOH    C110889   9.407   9.770  -0.228 -0.9886 -0.4369 -0.2601
  249ACOH    H110890   9.325   9.702  -0.203 -1.0095 -0.1770  0.3702
  249ACOH    H210891   9.484   9.711  -0.278 -0.4228 -2.1789  2.5540
  249ACOH    H310892   9.364   9.843  -0.296 -0.8435 -1.3250 -1.3298
  250ACOH    H410893   8.128   3.510   3.405 -0.5172 -0.5374  1.5070
  250ACOH    O210894   8.185   3.431   3.407  0.3819  0.0424 -0.3934
  250ACOH    C210895   8.224   3.416   3.535 -0.1803  0.0255 -0.0469
  250ACOH    O110896   8.217   3.499   3.623 -0.5363 -0.4392  0.0449
  250ACOH    C110897   8.289   3.287   3.554 -1.5384  0.0799  0.9594
  250ACOH    H110898   8.213   3.210   3.537 -0.7065 -0.3933 -0.6408
  250ACOH    H210899   8.322   3.277   3.658 -0.1575  1.4180  0.6580
  250ACOH    H310900   8.376   3.272   3.491 -1.1137 -1.5675  1.9136
  251ACOH    H410901   9.461   9.556   3.915  2.1201  0.5401 -2.4397
  251ACOH    O210902   9.419   9.487   3.862  0.3103 -0.1115 -0.2452
  251ACOH    C210903   9.519   9.411   3.814  0.3172 -0.2721 -0.1503
  251ACOH    O110904   9.637   9.423   3.823  0.3071  0.5675  0.0101
  251ACOH    C110905   9.456   9.285   3.770  0.5619  0.3516  0.1523
  251ACOH    H110906   9.529   9.207   3.749  0.5249 -0.3066  2.3197
  251ACOH    H210907   9.386   9.305   3.688 -0.5446 -0.5164  0.8664
  251ACOH    H310908   9.390   9.249   3.849 -0.0986  0.0817 -0.5118
  252ACOH    H410909   8.786   4.388   1.708  1.0817  1.0917  1.2717
  252ACOH    O210910   8.697   4.426   1.719  0.3340 -0.1372 -0.3165
  252ACOH    C210911   8.699   4.496   1.836  0.4763 -0.3083 -0.0451
  252ACOH    O110912   8.787   4.497   1.915 -0.7150  0.5016 -0.7845
  252ACOH    C110913   8.580   4.584   1.850 -0.4694 -0.7109  0.1650
  252ACOH    H110914   8.600   4.683   1.891  0.8092 -0.2205 -1.5476
  252ACOH    H210915   8.512   4.537   1.920  1.2816 -1.5954  1.3042
  252ACOH    H310916   8.530   4.600   1.754 -1.5052  1.3915  1.0227
  253ACOH    H410917   7.006   9.092   8.672  0.4713 -1.3419 -1.8660
  253ACOH    O210918   6.911   9.106   8.659  0.2682 -0.1629  0.5010
  253ACOH    C210919   6.874   9.005   8.577  0.1209 -0.0891 -0.2240
  253ACOH    O110920   6.925   8.898   8.574  0.0785 -0.2213 -0.1887
  253ACOH    C110921   6.748   9.046   8.513  0.0975 -0.0952  0.4769
  253ACOH    H110922   6.691   9.115   8.576 -0.9445 -1.1268  0.6868
  253ACOH    H210923   6.683   8.959   8.501 -0.5068  0.2151  1.4675
  253ACOH    H310924   6.763   9.096   8.417 -4.0098  0.0874 -0.1719
  254ACOH    H410925   0.681   5.705   3.337  1.9418 -0.5125 -3.8549
  254ACOH    O210926   0.592   5.718   3.300  0.5113 -0.4621 -0.5112
  254ACOH    C210927   0.516   5.605   3.307 -0.4755  0.0251 -0.4551
  254ACOH    O110928   0.563   5.499   3.337 -0.3881  0.5100  0.0502
  254ACOH    C110929   0.385   5.616   3.234 -0.1986 -0.2248 -0.2370
  254ACOH    H110930   0.355   5.718   3.212 -0.5623 -0.1487  0.5756
  254ACOH    H210931   0.312   5.578   3.305  0.3131 -2.0549 -0.6575
  254ACOH    H310932   0.394   5.553   3.145  0.1766 -0.3874 -0.0864
  255ACOH    H410933   6.381   2.003   7.363 -0.1244  0.1831  0.5654
  255ACOH    O210934   6.284   1.999   7.372 -0.1393  0.2597  0.4465
  255ACOH    C210935   6.220   2.042   7.260  0.2581 -0.1626 -0.2410
  255ACOH    O110936   6.269   2.073   7.154  0.5673  0.4543  0.0091
  255ACOH    C110937   6.081   2.067   7.287  0.2414  0.5537  0.1162
  255ACOH    H110938   6.064   2.100   7.389 -0.8264  0.8645 -0.1506
  255ACOH    H210939   6.020   1.978   7.274  1.4669 -0.3517  0.4813
  255ACOH    H310940   6.051   2.142   7.213  1.6854  0.9395 -0.0950
  256ACOH    H410941   6.079   7.591   7.707  0.6757 -0.8181  0.5978
  256ACOH    O210942   5.991   7.548   7.714  0.2824 -0.0412  0.4251
  256ACOH    C210943   5.900   7.605   7.632 -0.2607 -0.7658  0.2031
  256ACOH    O110944   5.914   7.682   7.537 -0.3292  0.2962  0.7120
  256ACOH    C110945   5.773   7.533   7.634 -0.1465 -0.0005 -0.3575
  256ACOH    H110946   5.691   7.603   7.644  0.0860  0.3752 -1.1171
  256ACOH    H210947   5.767   7.467   7.722 -0.7278  0.7600  0.1791
  256ACOH    H310948   5.766   7.466   7.548  2.6425 -1.1481  0.2509
  257ACOH    H410949   2.829   6.670   7.159  0.1409  0.8650  1.1012
  257ACOH    O210950   2.738   6.637   7.146  0.4295  0.5528 -0.1769
  257ACOH    C210951   2.666   6.727   7.076  0.2569 -0.0783  0.4970
  257ACOH    O110952   2.703   6.830   7.026 -0.0675  0.2696 -0.1627
  257ACOH    C110953   2.522   6.703   7.076  0.4295 -0.0503 -0.6090
  257ACOH    H110954   2.476   6.774   7.143  0.0595  0.6020 -1.5447
  257ACOH    H210955   2.497   6.601   7.107  0.2226  0.4666  0.9076
  257ACOH    H310956   2.481   6.719   6.976  1.4101  0.1336 -0.9852
  258ACOH    H410957   7.067   2.258   6.830 -0.6321  1.6201 -1.1541
  258ACOH    O210958   7.039   2.290   6.917 -0.3343 -0.2848 -0.3390
  258ACOH    C210959   6.991   2.189   6.990 -0.4963  0.6413 -0.4572
  258ACOH    O110960   6.942   2.085   6.955  0.4275 -0.0359  0.6068
  258ACOH    C110961   6.995   2.226   7.133 -0.2733  0.5409 -0.9692
  258ACOH    H110962   6.898   2.263   7.163  0.9489  2.4890  0.6802
  258ACOH    H210963   7.073   2.297   7.161  0.0575  0.0337 -0.5867
  258ACOH    H310964   7.023   2.135   7.187 -0.1539  1.5188  0.6394
  259ACOH    H410965   0.961   8.629   5.365  1.2768  0.9263  0.2129
  259ACOH    O210966   0.935   8.704   5.308 -0.2240  0.1381 -0.1867
  259ACOH    C210967   0.923   8.811   5.385 -0.3575 -0.5785 -0.9526
  259ACOH    O110968   0.954   8.830   5.501  0.0350 -0.0317 -0.3323
  259ACOH    C110969   0.865   8.924   5.307  0.1527  0.9312  0.5069
  259ACOH    H110970   0.915   9.018   5.329  1.4741  0.0027  1.5560
  259ACOH    H210971   0.760   8.933   5.333  0.1426  3.2879 -0.2238
  259ACOH    H310972   0.881   8.903   5.201  1.0254  1.5404  0.5126
  260ACOH    H410973   6.691   2.529   6.410 -1.8169  3.3949  0.0723
  260ACOH    O210974   6.732   2.548   6.496 -0.0242 -0.0943  0.1039
  260ACOH    C210975   6.793   2.437   6.541  0.2027 -0.2511 -0.3695
  260ACOH    O110976   6.820   2.339   6.479  0.0637  0.2817  0.0792
  260ACOH    C110977   6.844   2.456   6.681 -0.0133 -0.0504  0.3928
  260ACOH    H110978   6.898   2.368   6.717  0.3241  0.1105  0.2805
  260ACOH    H210979   6.758   2.467   6.747 -1.2023 -0.0481 -1.1372
  260ACOH    H310980   6.911   2.542   6.688 -0.8150  0.6718 -0.6961
  261ACOH    H410981   4.474   2.805   5.136 -2.0862 -0.9321  1.1061
  261ACOH    O210982   4.446   2.893   5.166  0.1280  0.0384  0.3870
  261ACOH    C210983   4.559   2.967   5.182 -0.4904  0.6356 -0.6158
  261ACOH    O110984   4.672   2.938   5.198 -0.2917  0.3193  0.2229
  261ACOH    C110985   4.514   3.111   5.211 -0.4612  0.0863 -0.1459
  261ACOH    H110986   4.435   3.104   5.286  0.4944 -3.3864  0.6184
  261ACOH    H210987   4.488   3.167   5.121  2.1041  1.4650 -0.0693
  261ACOH    H310988   4.592   3.169   5.260  4.1967 -3.1581 -3.2845
  262ACOH    H410989   8.032   8.696   0.713 -2.7139  2.8927 -1.5515
  262ACOH    O210990   7.980   8.623   0.675  0.5927 -0.5010 -0.0055
  262ACOH    C210991   8.057   8.517   0.696 -0.5871  0.4433 -0.7264
  262ACOH    O110992   8.150   8.491   0.774  0.3446 -0.4348  0.2016
  262ACOH    C110993   8.003   8.422   0.599 -0.4266  0.5125  0.0185
  262ACOH    H110994   8.038   8.466   0.506 -1.4252  2.7652  0.6648
  262ACOH    H210995   7.895   8.413   0.597 -0.2788 -1.1848 -1.8436
  262ACOH    H310996   8.044   8.323   0.616 -1.0056  0.6615  2.5075
  263ACOH    H410997   3.808   5.460   7.680 -0.9353 -3.0464  0.1941
  263ACOH    O210998   3.869   5.439   7.753 -0.1585 -0.7266  0.2641
  263ACOH    C210999   3.875   5.304   7.758 -0.2405 -0.0404  0.0177
  263ACOH    O111000   3.813   5.231   7.683  0.6965  0.7115  0.4893
  263ACOH    C111001   3.961   5.250   7.868 -0.8319  0.7741  0.0033
  263ACOH    H111002   3.988   5.145   7.866 -1.5973  0.5716  0.3590
  263ACOH    H211003   3.920   5.269   7.968 -0.0341  0.9714  0.3009
  263ACOH    H311004   4.056   5.302   7.857 -0.5072  0.1844  0.0076
  264ACOH    H411005   5.130   4.628   5.938 -2.3133  0.0552 -1.8456
  264ACOH    O211006   5.182   4.672   5.868  0.2099 -0.0814 -0.1280
  264ACOH    C211007   5.228   4.783   5.933  0.3262  0.0857  0.4949
  264ACOH    O111008   5.182   4.839   6.027 -0.2821 -0.1966 -0.0250
  264ACOH    C111009   5.351   4.839   5.869  0.1829  0.3429  0.0568
  264ACOH    H111010   5.437   4.801   5.924 -1.1387 -1.7149  0.7889
  264ACOH    H211011   5.351   4.948   5.868 -1.0378  0.3437 -0.5029
  264ACOH    H311012   5.364   4.802   5.767 -0.0963  3.0181 -0.9950
  265ACOH    H411013   8.064   4.100   5.302  0.2146  1.1095  0.0832
  265ACOH    O211014   7.978   4.127   5.340 -0.2634 -0.0621 -0.1407
  265ACOH    C211015   7.926   4.195   5.231 -0.1562 -0.3227 -0.7317
  265ACOH    O111016   7.941   4.154   5.118 -0.1420 -0.1588 -0.4294
  265ACOH    C111017   7.800   4.265   5.274  0.1977 -0.0015  0.5109
  265ACOH    H111018   7.723   4.193   5.305 -2.4798  2.4673 -0.1766
  265ACOH    H211019   7.759   4.331   5.198  2.0800  1.5847  0.8627
  265ACOH    H311020   7.828   4.328   5.359  3.9183  1.5193 -1.7534
  266ACOH    H411021   7.098   6.145   3.965  0.6380  0.8505 -1.7772
  266ACOH    O211022   7.099   6.051   3.990 -0.9113  1.1569 -0.4623
  266ACOH    C211023   7.206   5.994   3.934 -0.0813 -0.6183  0.4014
  266ACOH    O111024   7.274   6.028   3.836 -0.2881  0.3463 -0.0519
  266ACOH    C111025   7.246   5.877   4.012  0.0371  0.8692 -0.5773
  266ACOH    H111026   7.264   5.782   3.961  1.9376  0.9910 -0.1527
  266ACOH    H211027   7.174   5.854   4.091 -1.4785 -0.6612 -2.3385
  266ACOH    H311028   7.340   5.904   4.060  0.0498 -0.0746 -0.0596
  267ACOH    H411029   5.398   7.438   5.505 -1.4807  0.2877  1.2690
  267ACOH    O211030   5.337   7.471   5.438  0.0136 -0.0385 -0.2699
  267ACOH    C211031   5.400   7.464   5.319 -0.0996  0.9048  0.7338
  267ACOH    O111032   5.513   7.440   5.293  0.0506  0.0777  0.6150
  267ACOH    C111033   5.310   7.469   5.207 -0.2588 -0.0782 -0.5872
  267ACOH    H111034   5.338   7.385   5.143 -1.6184  0.2036 -1.5761
  267ACOH    H211035   5.330   7.560   5.150  1.2580 -0.4726 -0.7182
  267ACOH    H311036   5.208   7.466   5.245  0.7311 -0.9103  2.0872
  268ACOH    H411037   4.253   4.470   2.856  0.3834  0.8444 -1.5484
  268ACOH    O211038   4.313   4.393   2.864 -0.6179  0.2723  0.6468
  268ACOH    C211039   4.424   4.442   2.808  0.2067  0.6492 -0.1239
  268ACOH    O111040   4.450   4.543   2.750  0.6067 -0.5856  0.1007
  268ACOH    C111041   4.525   4.330   2.820  0.3229  0.1950 -0.2371
  268ACOH    H111042   4.486   4.248   2.879 -1.6225  0.3222 -1.3026
  268ACOH    H211043   4.613   4.361   2.877 -0.8843 -0.7251  2.1711
  268ACOH    H311044   4.561   4.289   2.726 -0.9169  0.4758 -0.8354
  269ACOH    H411045   5.087   7.503   0.896  0.0538  0.1409  0.8256
  269ACOH    O211046   5.153   7.570   0.919  0.6673 -0.3512  0.5211
  269ACOH    C211047   5.264   7.510   0.963  0.6158 -0.4787  0.2749
  269ACOH    O111048   5.268   7.393   0.999 -0.4337 -0.6194  0.8572
  269ACOH    C111049   5.352   7.612   1.017 -0.2945  0.0497 -0.3910
  269ACOH    H111050   5.403   7.662   0.935  0.8072  0.5739  0.6042
  269ACOH    H211051   5.421   7.571   1.091  0.7609  1.8014 -0.3840
  269ACOH    H311052   5.294   7.689   1.068 -1.9413 -0.5679 -1.2772
  270ACOH    H411053   9.503   0.987   0.784 -1.2520  0.6532  0.6781
  270ACOH    O211054   9.439   0.914   0.776 -0.4162 -0.0118 -0.0259
  270ACOH    C211055   9.455   0.820   0.873  0.2787  0.2541 -0.0578
  270ACOH    O111056   9.560   0.802   0.931  0.0377 -0.1966 -0.2679
  270ACOH    C111057   9.336   0.727   0.861 -0.2360 -0.0409  0.6153
  270ACOH    H111058   9.361   0.628   0.898  2.2349  0.8878  1.4983
  270ACOH    H211059   9.305   0.716   0.757 -0.8580  1.7920  0.5993
  270ACOH    H311060   9.254   0.778   0.911 -0.3389  1.0050 -0.6154
  271ACOH    H411061   5.755   4.628   2.821 -0.5469  0.2846  0.0992
  271ACOH    O211062   5.757   4.680   2.903 -0.2572  0.2267  0.1261
  271ACOH    C211063   5.637   4.680   2.949 -0.7306  0.3792  0.3655
  271ACOH    O111064   5.537   4.687   2.879  0.0015  0.1687 -0.0485
  271ACOH    C111065   5.639   4.744   3.085  0.0766  0.1463  0.1659
  271ACOH    H111066   5.677   4.676   3.161 -1.0815 -1.3066 -0.5209
  271ACOH    H211067   5.535   4.769   3.106 -0.2776  2.9090 -4.1104
  271ACOH    H311068   5.696   4.837   3.076  0.0287  0.1108 -0.5735
  272ACOH    H411069   5.061   4.820   7.009  0.5735  0.9476  0.6003
  272ACOH    O211070   5.011   4.871   6.943  0.3337  0.3199  0.2983
  272ACOH    C211071   5.092   4.880   6.835  0.0533  0.6648  0.1620
  272ACOH    O111072   5.197   4.827   6.822  0.3839  0.3282  0.2203
  272ACOH    C111073   5.024   4.953   6.723  0.3693 -0.0659  0.0554
  272ACOH    H111074   4.930   4.993   6.760  1.1982  0.8942  1.1747
  272ACOH    H211075   5.002   4.884   6.642  2.5959 -2.5842  1.5053
  272ACOH    H311076   5.086   5.037   6.691 -1.8906  1.4470 -0.4522
  273ACOH    H411077   3.234   6.466   1.862  0.2639 -0.9507 -0.5431
  273ACOH    O211078   3.244   6.437   1.769 -0.2776  0.1475 -0.9550
  273ACOH    C211079   3.326   6.332   1.756  0.4369  0.4790 -0.3919
  273ACOH    O111080   3.343   6.243   1.836  0.1855  0.2275  0.0732
  273ACOH    C111081   3.357   6.310   1.613 -0.5305  0.2812 -0.1735
  273ACOH    H111082   3.422   6.394   1.588 -0.8720  0.5024 -0.3329
  273ACOH    H211083   3.265   6.322   1.555 -1.5110 -0.3699  1.2077
  273ACOH    H311084   3.396   6.210   1.599 -0.6949  0.2332 -0.2990
  274ACOH    H411085   4.756   2.823   2.372 -0.8526  0.1843 -0.3577
  274ACOH    O211086   4.715   2.891   2.428 -0.6294 -0.0882  0.1372
  274ACOH    C211087   4.817   2.968   2.480 -0.9733  0.0148 -0.2277
  274ACOH    O111088   4.933   2.968   2.440  0.4012  0.1690 -0.0901
  274ACOH    C111089   4.768   3.083   2.561 -0.2050  0.3157 -0.1562
  274ACOH    H111090   4.702   3.156   2.514  1.3179  1.6668 -0.2605
  274ACOH    H211091   4.847   3.131   2.619 -0.3896  1.4601 -0.8473
  274ACOH    H311092   4.705   3.032   2.634  0.7346  1.6485  1.6507
  275ACOH    H411093   1.951   1.988   4.657  0.7742  0.0181 -1.1533
  275ACOH    O211094   2.019   1.955   4.718 -0.4245 -0.7268 -0.2174
  275ACOH    C211095   2.061   2.060   4.795 -0.3795  0.3075 -0.2455
  275ACOH    O111096   2.020   2.178   4.784  0.1532  0.2370  0.2151
  275ACOH    C111097   2.133   2.033   4.920 -0.4606  0.3378  0.2437
  275ACOH    H111098   2.074   1.964   4.980 -0.1461  0.9777  1.3046
  275ACOH    H211099   2.160   2.119   4.983  0.2722 -0.7109  1.3794
  275ACOH    H311100   2.232   1.992   4.902 -0.3529  1.1016 -0.9994
  276ACOH    H411101   5.269   6.990   0.468  0.8216  0.9170 -0.7001
  276ACOH    O211102   5.226   7.015   0.384 -0.6907 -0.3475 -0.3241
  276ACOH    C211103   5.315   6.998   0.288  0.2705  0.3754  0.8266
  276ACOH    O111104   5.431   6.974   0.302  0.3772 -0.1503 -0.0405
  276ACOH    C111105   5.245   7.012   0.154  0.7970 -0.0721 -0.5084
  276ACOH    H111106   5.316   7.052   0.082  0.3509 -1.2074 -1.5861
  276ACOH    H211107   5.152   7.069   0.158 -0.2145 -1.5678 -2.2731
  276ACOH    H311108   5.221   6.911   0.122 -1.7849  1.6141 -4.1360
  277ACOH    H411109   4.794   1.839   4.346 -1.1839 -0.5339 -1.2352
  277ACOH    O211110   4.796   1.919   4.291  0.3413  0.1634 -0.1990
  277ACOH    C211111   4.667   1.960   4.287 -0.0959 -0.1877 -0.2296
  277ACOH    O111112   4.590   1.942   4.373  0.7187 -0.1426 -0.1020
  277ACOH    C111113   4.637   2.069   4.189  0.4967 -0.2878 -0.1569
  277ACOH    H111114   4.632   2.166   4.239 -2.8134  0.1990 -1.3103
  277ACOH    H211115   4.540   2.046   4.145 -0.1185 -0.3380  1.2050
  277ACOH    H311116   4.707   2.067   4.105 -1.1084  0.0068 -1.5198
  278ACOH    H411117   4.417   5.571   5.422 -1.1676  2.3817  3.0350
  278ACOH    O211118   4.427   5.651   5.367 -0.1451  0.0376 -0.3201
  278ACOH    C211119   4.308   5.691   5.336  0.1066 -0.5855  0.3289
  278ACOH    O111120   4.203   5.639   5.363  0.0189  0.7879  0.5107
  278ACOH    C111121   4.322   5.820   5.267  0.1098 -0.1943 -0.1814
  278ACOH    H111122   4.239   5.884   5.301 -0.7021 -1.2517 -0.1556
  278ACOH    H211123   4.323   5.804   5.160  2.9120 -2.5989  0.1694
  278ACOH    H311124   4.415   5.867   5.299  0.5978 -2.2267  1.4899
  279ACOH    H411125   8.261   7.265   4.417  0.1057 -0.5583  0.7830
  279ACOH    O211126   8.224   7.236   4.331  0.5471 -0.0574  0.4266
  279ACOH    C211127   8.095   7.251   4.344 -0.3185 -0.2203 -0.3025
  279ACOH    O111128   8.033   7.308   4.433  0.6354  0.1407  0.6148
  279ACOH    C111129   8.027   7.197   4.222  0.7912  0.2989 -0.3602
  279ACOH    H111130   7.920   7.205   4.237  0.4716  0.0099 -2.3330
  279ACOH    H211131   8.049   7.093   4.197 -2.1648 -0.2497 -0.8625
  279ACOH    H311132   8.057   7.266   4.143  1.7665  0.0622 -0.2062
  280ACOH    H411133   4.751   6.640   3.210  0.4213  0.6333  0.0063
  280ACOH    O211134   4.813   6.580   3.164  0.1124 -0.1322  0.5755
  280ACOH    C211135   4.849   6.652   3.065 -0.2177 -0.5801  0.5517
  280ACOH    O111136   4.855   6.775   3.061 -0.2117 -0.4557  0.3489
  280ACOH    C111137   4.943   6.583   2.978 -0.2982  0.4395 -0.2057
  280ACOH    H111138   5.048   6.588   3.007 -0.6982 -0.4310  1.4468
  280ACOH    H211139   4.923   6.618   2.877 -0.9947  0.7136  0.0262
  280ACOH    H311140   4.913   6.478   2.976  1.6598 -0.1349 -0.6488
  281ACOH    H411141   5.758   2.810   5.370  0.3509 -1.1966 -3.1792
  281ACOH    O211142   5.854   2.807   5.384  0.0152  0.1670 -0.0778
  281ACOH    C211143   5.918   2.806   5.263 -0.4668 -0.5183  0.1118
  281ACOH    O111144   5.861   2.826   5.158 -0.8350  0.0666  0.1397
  281ACOH    C111145   6.058   2.785   5.275  0.0586  0.5115 -0.2895
  281ACOH    H111146   6.104   2.824   5.185  2.2998 -0.6317  0.3328
  281ACOH    H211147   6.081   2.679   5.284  1.9257  0.9956  0.9271
  281ACOH    H311148   6.090   2.836   5.366 -0.9750  0.0309  0.3552
  282ACOH    H411149   4.545   4.714   5.959  1.1602 -2.0714  0.8343
  282ACOH    O211150   4.638   4.739   5.970  0.5464  0.4179  0.4982
  282ACOH    C211151   4.662   4.774   6.099  0.5686 -0.0526 -0.8061
  282ACOH    O111152   4.570   4.813   6.171  0.0049 -0.3625  0.3575
  282ACOH    C111153   4.805   4.797   6.127 -0.4864 -0.5015 -0.4584
  282ACOH    H111154   4.850   4.873   6.064  0.5392 -1.8820 -1.4308
  282ACOH    H211155   4.856   4.701   6.121  2.4504  0.8403  1.8648
  282ACOH    H311156   4.807   4.833   6.230 -1.0844 -1.4492 -0.1025
  283ACOH    H411157   4.583   1.318   3.816 -0.0755 -2.4876  0.0845
  283ACOH    O211158   4.680   1.319   3.817 -0.0885 -0.1084  0.1897
  283ACOH    C211159   4.725   1.444   3.773 -0.0140  0.2008  0.3638
  283ACOH    O111160   4.651   1.538   3.746 -0.9651  0.0452  0.0345
  283ACOH    C111161   4.869   1.438   3.730 -0.0262 -0.3208  0.1365
  283ACOH    H111162   4.941   1.418   3.808  1.0896  0.2694 -0.7254
  283ACOH    H211163   4.905   1.529   3.683 -2.5171  1.8344  2.2262
  283ACOH    H311164   4.888   1.353   3.664  0.4471  1.1080 -1.6136
  284ACOH    H411165   6.600   9.074   1.557 -0.2354 -0.9105 -0.3140
  284ACOH    O211166   6.503   9.072   1.555 -0.2582  0.0565 -0.0969
  284ACOH    C211167   6.465   8.965   1.625  0.3782  0.2861 -0.9596
  284ACOH    O111168   6.531   8.894   1.702  0.1676 -0.0603 -0.0337
  284ACOH    C111169   6.320   8.944   1.604 -0.2232  0.0851  0.6498
  284ACOH    H111170   6.287   8.845   1.634 -0.5299 -0.6996 -2.2096
  284ACOH    H211171   6.291   8.961   1.501  0.4297  1.8414  0.7470
  284ACOH    H311172   6.279   9.022   1.669  0.3159  1.3897 -0.5421
  285ACOH    H411173   6.216   7.401   2.454 -2.7055  1.0263 -1.4593
  285ACOH    O211174   6.262   7.384   2.371  0.0536  0.1270  0.1889
  285ACOH    C211175   6.290   7.499   2.316 -0.3414  0.6222  0.1166
  285ACOH    O111176   6.245   7.611   2.344  0.1476  0.0460  0.3524
  285ACOH    C111177   6.351   7.475   2.187 -0.6960  0.2120  0.2253
  285ACOH    H111178   6.448   7.524   2.186 -2.0026  2.8983 -1.4527
  285ACOH    H211179   6.303   7.527   2.105 -0.1466  0.6381  0.1704
  285ACOH    H311180   6.375   7.369   2.175  2.7499  1.0637 -0.9771
  286ACOH    H411181   7.103   6.622   1.636  1.1447  1.5338  2.3028
  286ACOH    O211182   7.174   6.663   1.584  0.5908 -0.0179  0.2569
  286ACOH    C211183   7.141   6.795   1.594  0.1810  0.7646 -0.8927
  286ACOH    O111184   7.084   6.848   1.686  0.6052  0.5624  0.4918
  286ACOH    C111185   7.217   6.875   1.489 -0.2627  0.2246 -0.2120
  286ACOH    H111186   7.143   6.950   1.462  1.1096  0.9259 -2.0705
  286ACOH    H211187   7.245   6.817   1.402 -1.9573  0.7260 -1.1097
  286ACOH    H311188   7.308   6.924   1.524  1.0998 -2.7001  0.5576
  287ACOH    H411189   0.844   3.187   9.989  0.0439  1.4215 -0.2711
  287ACOH    O211190   0.918   3.182   9.926  0.0790 -0.0495 -0.1528
  287ACOH    C211191   0.988   3.076   9.962  0.6631  0.2433 -0.3978
  287ACOH    O111192   0.976   3.013  10.064 -0.3303 -0.0579  0.2239
  287ACOH    C111193   1.083   3.034   9.857  0.4708 -0.1186 -0.2279
  287ACOH    H111194   1.075   3.092   9.765 -1.4846 -1.3520 -0.8815
  287ACOH    H211195   1.064   2.927   9.843 -1.1530  0.0857  0.3816
  287ACOH    H311196   1.184   3.050   9.896  0.5687 -0.3379 -0.3870
  288ACOH    H411197   8.840   7.021   6.232  0.7336  0.3281  0.4861
  288ACOH    O211198   8.833   7.101   6.286  0.6348  0.4756  0.2529
  288ACOH    C211199   8.921   7.175   6.225  0.4146  0.3867  0.3144
  288ACOH    O111200   8.974   7.159   6.117  0.2523  0.2099  0.4532
  288ACOH    C111201   8.960   7.300   6.297  0.3488  0.5198  0.3549
  288ACOH    H111202   8.899   7.314   6.387  0.1843 -1.4691  0.5738
  288ACOH    H211203   8.943   7.382   6.228 -3.5310 -1.0568 -0.6971
  288ACOH    H311204   9.065   7.302   6.325  0.6165 -1.5957 -0.4162
  289ACOH    H411205   1.325   3.925   4.534 -3.3336  0.4048 -1.8016
  289ACOH    O211206   1.354   3.863   4.465 -0.2055 -0.6241  0.3304
  289ACOH    C211207   1.419   3.933   4.370 -0.1666 -0.4523 -0.1499
  289ACOH    O111208   1.407   4.052   4.347  0.1039  0.4634  0.7022
  289ACOH    C111209   1.478   3.838   4.269  0.6599 -0.1272 -0.4123
  289ACOH    H111210   1.583   3.822   4.293  0.4265  0.5044  1.1376
  289ACOH    H211211   1.463   3.863   4.164 -1.6313 -1.5635 -0.4484
  289ACOH    H311212   1.429   3.741   4.282 -1.0110  0.7987  0.3572
  290ACOH    H411213   4.364   5.244   6.637 -1.4999 -2.5628 -0.4886
  290ACOH    O211214   4.450   5.211   6.607 -0.0324  0.2905  0.4196
  290ACOH    C211215   4.428   5.100   6.529 -0.4008 -0.1392  0.1297
  290ACOH    O111216   4.321   5.055   6.487  0.0460  0.0430  0.4304
  290ACOH    C111217   4.549   5.029   6.499 -0.2547  0.7286  0.0279
  290ACOH    H111218   4.540   4.923   6.523 -0.5999  0.2246 -2.2370
  290ACOH    H211219   4.627   5.074   6.560 -0.6930 -1.9336  2.6960
  290ACOH    H311220   4.575   5.033   6.393  0.9840 -2.0134  0.1789
  291ACOH    H411221   4.705   5.807   0.159 -1.6710 -1.7797 -0.0497
  291ACOH    O211222   4.773   5.738   0.164  0.0273 -0.1987 -0.7475
  291ACOH    C211223   4.850   5.736   0.052  0.2288 -0.6199 -0.4049
  291ACOH    O111224   4.831   5.804  -0.049 -0.0822 -0.7672 -0.6357
  291ACOH    C111225   4.969   5.647   0.042  0.2575 -0.3627 -0.1000
  291ACOH    H111226   4.966   5.589   0.134 -1.5244  1.5126  1.0656
  291ACOH    H211227   5.055   5.714   0.048  0.3937 -0.3792 -1.6558
  291ACOH    H311228   4.969   5.583  -0.046 -0.3125 -0.9451  0.3220
  292ACOH    H411229   8.407   9.124   0.596  0.1919 -0.7966  0.5809
  292ACOH    O211230   8.345   9.131   0.522  0.1292  0.0936  0.7064
  292ACOH    C211231   8.268   9.022   0.536  0.3139  0.5477 -0.3806
  292ACOH    O111232   8.294   8.927   0.605  0.0782  0.0009 -0.3208
  292ACOH    C111233   8.161   9.029   0.433  0.3452 -0.3853  0.1631
  292ACOH    H111234   8.087   9.100   0.469 -0.2664 -1.4658  1.0759
  292ACOH    H211235   8.121   8.927   0.437  1.6695 -0.9307 -0.2777
  292ACOH    H311236   8.209   9.059   0.340  1.6655 -1.2825  0.5477
  293ACOH    H411237   1.111   3.481   4.405 -0.3657 -1.2909  0.3434
  293ACOH    O211238   1.087   3.544   4.475  0.2661 -0.0861 -0.4998
  293ACOH    C211239   1.187   3.557   4.566  0.5211 -0.1090  0.0753
  293ACOH    O111240   1.284   3.484   4.584  0.6437 -0.1108 -0.2670
  293ACOH    C111241   1.159   3.683   4.640  0.1193  0.0662 -0.0266
  293ACOH    H111242   1.087   3.748   4.591  0.2947  1.5814  1.6872
  293ACOH    H211243   1.248   3.740   4.666  0.6871 -1.4906  1.5048
  293ACOH    H311244   1.112   3.654   4.733  0.0435 -0.2672 -0.1684
  294ACOH    H411245   6.515   2.833   4.900  1.7179 -2.0845 -0.7169
  294ACOH    O211246   6.434   2.786   4.929  0.6445 -0.0196 -0.2703
  294ACOH    C211247   6.482   2.666   4.966  0.1622  0.3542 -0.5085
  294ACOH    O111248   6.598   2.631   4.955 -0.3111 -0.1520 -0.0670
  294ACOH    C111249   6.370   2.570   4.998  0.1190  0.5152 -0.2215
  294ACOH    H111250   6.316   2.626   5.075 -1.3551 -2.2535  0.8086
  294ACOH    H211251   6.409   2.479   5.043  1.7263  0.4419 -1.7231
  294ACOH    H311252   6.304   2.551   4.914  2.1044 -0.4898 -1.5848
  295ACOH    H411253   5.308   4.633   7.077  2.9604 -1.6687 -4.2953
  295ACOH    O211254   5.382   4.693   7.098  0.6517 -0.0908 -0.2925
  295ACOH    C211255   5.322   4.805   7.140  0.8306 -0.6565 -0.2867
  295ACOH    O111256   5.201   4.824   7.137 -0.5330  0.7512  0.0492
  295ACOH    C111257   5.414   4.921   7.150 -0.3661 -0.1699 -0.0891
  295ACOH    H111258   5.399   4.970   7.246 -2.3868 -0.2333 -0.3497
  295ACOH    H211259   5.380   4.988   7.070  1.4496  0.9993  0.0800
  295ACOH    H311260   5.517   4.887   7.136 -0.4068 -0.6340  0.7102
  296ACOH    H411261   5.442   7.253   6.065 -0.8342 -0.1459  1.7004
  296ACOH    O211262   5.484   7.165   6.072  0.1247  0.1273 -0.2798
  296ACOH    C211263   5.543   7.149   5.954 -0.0061 -0.3420  0.5998
  296ACOH    O111264   5.547   7.223   5.860 -0.1704 -0.1387  0.2107
  296ACOH    C111265   5.623   7.026   5.947  0.5992  0.2891 -0.5884
  296ACOH    H111266   5.684   7.019   6.036 -2.1995  0.5047  1.4028
  296ACOH    H211267   5.689   7.012   5.861  3.4651  0.7683  1.4619
  296ACOH    H311268   5.547   6.948   5.947  0.8182  0.0692 -1.0415
  297ACOH    H411269   9.731   1.774   3.848 -1.0514 -3.4885  2.1446
  297ACOH    O211270   9.637   1.781   3.825 -0.3880 -0.6053 -0.0391
  297ACOH    C211271   9.602   1.916   3.829 -0.2828 -0.0274  0.3786
  297ACOH    O111272   9.654   2.011   3.882 -0.7099  0.3085  1.0732
  297ACOH    C111273   9.476   1.932   3.759 -0.3808  0.2739  0.2201
  297ACOH    H111274   9.419   2.022   3.780 -1.4077 -0.1824 -0.5844
  297ACOH    H211275   9.416   1.843   3.779  0.8258 -0.0472  2.6540
  297ACOH    H311276   9.502   1.928   3.654  1.2010 -2.4393  0.6506
  298ACOH    H411277   6.544   2.408   6.274 -0.3564  1.1766 -2.7961
  298ACOH    O211278   6.627   2.457   6.285 -0.1754  0.4052 -0.6188
  298ACOH    C211279   6.688   2.463   6.164 -1.0256 -0.2405  0.3447
  298ACOH    O111280   6.639   2.422   6.054  0.3153  0.0154 -0.9282
  298ACOH    C111281   6.820   2.537   6.172  0.1490  0.0180 -0.0921
  298ACOH    H111282   6.825   2.634   6.122 -1.4910 -0.5220 -1.3366
  298ACOH    H211283   6.890   2.463   6.132  0.7202 -0.1451  1.1919
  298ACOH    H311284   6.852   2.550   6.275  1.5076  1.1694 -0.6411
  299ACOH    H411285   4.486   0.861   3.145 -0.0410 -1.7766 -1.2220
  299ACOH    O211286   4.583   0.866   3.136  0.0059  0.0706  0.2776
  299ACOH    C211287   4.625   0.754   3.197 -0.5000  0.1131 -0.2340
  299ACOH    O111288   4.559   0.658   3.232  0.6093 -0.3024 -0.1619
  299ACOH    C111289   4.769   0.767   3.220 -0.4381 -0.2421 -0.7680
  299ACOH    H111290   4.800   0.678   3.275 -0.9084 -0.0033 -0.1024
  299ACOH    H211291   4.785   0.858   3.278 -1.3735 -0.8707  0.5190
  299ACOH    H311292   4.825   0.782   3.129 -0.3589  1.5921 -0.4370
  300ACOH    H411293   4.687   3.823   3.827  1.0850  0.4086  1.8501
  300ACOH    O211294   4.780   3.812   3.801  0.7371  0.1935  0.6623
  300ACOH    C211295   4.839   3.810   3.922 -0.0778  0.4028 -0.4202
  300ACOH    O111296   4.781   3.783   4.027 -0.2662 -0.1390  0.2379
  300ACOH    C111297   4.988   3.824   3.908  0.1772  0.4746 -0.9349
  300ACOH    H111298   5.022   3.917   3.864  0.9334  1.1069  0.9392
  300ACOH    H211299   5.031   3.744   3.848 -0.5361 -1.0181  0.4974
  300ACOH    H311300   5.018   3.813   4.012  1.2987 -0.2102 -1.3240
  301ACOH    H411301   4.531   4.313   6.721  2.7079 -0.9149 -1.8178
  301ACOH    O211302   4.575   4.399   6.733 -0.3992  0.5668 -0.5850
  301ACOH    C211303   4.478   4.484   6.768 -0.1396  1.1702 -0.0618
  301ACOH    O111304   4.365   4.482   6.734  0.1434  0.5594 -0.0800
  301ACOH    C111305   4.538   4.607   6.816 -0.1833 -0.6047  0.5928
  301ACOH    H111306   4.641   4.591   6.848  0.4017 -1.6211 -1.7158
  301ACOH    H211307   4.491   4.660   6.899  2.3287 -0.1332  1.7732
  301ACOH    H311308   4.547   4.681   6.736 -0.3879 -0.6738  0.5070
  302ACOH    H411309   8.012   2.590   7.183 -0.2133 -0.0039 -0.3201
  302ACOH    O211310   7.915   2.583   7.190 -0.2277  0.6137  0.0250
  302ACOH    C211311   7.868   2.698   7.141 -0.2921 -0.3056 -0.5080
  302ACOH    O111312   7.929   2.781   7.075  0.4302  0.2269 -0.3398
  302ACOH    C111313   7.721   2.703   7.138 -0.0622  0.4558 -0.0280
  302ACOH    H111314   7.679   2.620   7.194  0.1533  0.8719  0.7693
  302ACOH    H211315   7.682   2.701   7.037 -0.3125  0.3209  0.0702
  302ACOH    H311316   7.691   2.800   7.180  2.4741  0.4495  1.9220
  303ACOH    H411317   5.336   3.312   5.053  0.2588  0.3554 -1.0402
  303ACOH    O211318   5.376   3.223   5.050 -0.3347  0.0427 -0.0319
  303ACOH    C211319   5.467   3.236   5.148  0.2251  0.4481 -0.4894
  303ACOH    O111320   5.506   3.331   5.213 -0.1714 -0.3512  0.2157
  303ACOH    C111321   5.514   3.101   5.169  0.7390 -0.2238  0.0824
  303ACOH    H111322   5.433   3.033   5.196  2.1711 -1.6801  0.8215
  303ACOH    H211323   5.588   3.109   5.248  0.2644 -3.3038  0.9228
  303ACOH    H311324   5.564   3.071   5.076 -2.4210 -1.2220 -1.3498
  304ACOH    H411325   2.041   7.032   3.297  0.4274  0.5682  0.0850
  304ACOH    O211326   1.965   7.085   3.269 -0.1945 -0.1199  0.4480
  304ACOH    C211327   1.925   7.036   3.151  0.4336  0.0558  1.2227
  304ACOH    O111328   1.962   6.935   3.094 -0.1709 -0.0403 -0.2420
  304ACOH    C111329   1.806   7.100   3.106 -0.2169  0.1179 -0.4563
  304ACOH    H111330   1.825   7.135   3.004 -0.3676 -0.3184 -0.6359
  304ACOH    H211331   1.778   7.188   3.164 -1.5521  0.3284 -1.3776
  304ACOH    H311332   1.725   7.027   3.110 -0.2865  0.2449  0.6237
  305ACOH    H411333   4.152   2.619   2.403  1.5744  1.1326  0.2555
  305ACOH    O211334   4.190   2.534   2.377  0.2768  0.7106 -0.3407
  305ACOH    C211335   4.129   2.437   2.451 -0.2237  0.0739 -0.3483
  305ACOH    O111336   4.066   2.460   2.553  0.4585 -0.3310  0.2567
  305ACOH    C111337   4.163   2.300   2.403  0.0783 -0.0034 -0.2289
  305ACOH    H111338   4.075   2.243   2.374 -0.2029  0.4862 -0.3388
  305ACOH    H211339   4.207   2.242   2.485  2.4752 -1.0925 -2.1948
  305ACOH    H311340   4.231   2.301   2.318 -1.2098 -0.4208 -1.2955
  306ACOH    H411341   5.176   8.166   1.411 -2.0669 -0.8212 -1.1983
  306ACOH    O211342   5.239   8.109   1.363 -0.0368 -0.1663  0.6400
  306ACOH    C211343   5.248   8.161   1.241 -0.5188 -0.1507  0.4166
  306ACOH    O111344   5.195   8.261   1.202  0.3601  0.4271  0.4785
  306ACOH    C111345   5.340   8.093   1.150 -0.1831 -0.3446 -0.1511
  306ACOH    H111346   5.422   8.159   1.120 -1.7897  0.5543 -2.7892
  306ACOH    H211347   5.299   8.070   1.051 -0.2570 -2.0300  0.2716
  306ACOH    H311348   5.367   7.998   1.196 -0.8718  0.3972  1.8228
  307ACOH    H411349   3.302   6.093   6.594 -0.4615 -0.7082  0.9330
  307ACOH    O211350   3.304   6.168   6.656 -0.0642  0.0504  0.0228
  307ACOH    C211351   3.369   6.138   6.766  0.3607  0.0472  0.5803
  307ACOH    O111352   3.457   6.054   6.773 -0.4047 -0.4948 -0.2106
  307ACOH    C111353   3.372   6.258   6.856 -0.1028 -0.2494  0.5403
  307ACOH    H111354   3.274   6.303   6.863  1.6627  3.4934  2.7242
  307ACOH    H211355   3.430   6.343   6.818  0.6104 -1.7054 -1.7490
  307ACOH    H311356   3.400   6.224   6.956 -0.3173  0.2100  0.7530
  308ACOH    H411357   7.987   2.656   2.526 -0.5503 -0.4008  1.6465
  308ACOH    O211358   7.898   2.650   2.488  0.0459  0.0205  0.1328
  308ACOH    C211359   7.897   2.726   2.376 -0.8158  0.0109 -0.0780
  308ACOH    O111360   7.992   2.759   2.305  0.1630 -0.5675 -0.0207
  308ACOH    C111361   7.759   2.760   2.341 -0.7279  0.5359  0.4039
  308ACOH    H111362   7.741   2.714   2.244 -1.7693  0.2950  0.7009
  308ACOH    H211363   7.723   2.862   2.350  2.2393  1.4553  2.2601
  308ACOH    H311364   7.689   2.706   2.406 -1.6727 -0.3041 -1.2562
  309ACOH    H411365   4.331   3.454   3.218 -0.3663 -0.0212 -0.8932
  309ACOH    O211366   4.424   3.431   3.198 -0.1776 -0.3064  0.2623
  309ACOH    C211367   4.508   3.475   3.295  0.1368 -0.0201  0.4939
  309ACOH    O111368   4.472   3.513   3.403  0.7269 -0.1247 -0.0407
  309ACOH    C111369   4.653   3.455   3.251 -0.3302  0.2392  0.3154
  309ACOH    H111370   4.691   3.524   3.175 -0.6193  0.4555  0.3662
  309ACOH    H211371   4.677   3.352   3.224 -0.8620 -0.2753  1.7637
  309ACOH    H311372   4.719   3.469   3.337  1.6220 -0.1714 -1.0733
  310ACOH    H411373   2.706   0.408   4.004 -0.1695 -0.6543 -0.9627
  310ACOH    O211374   2.639   0.374   4.066 -0.2747 -0.0358 -0.7337
  310ACOH    C211375   2.699   0.345   4.187 -0.5320 -0.0391  0.0650
  310ACOH    O111376   2.809   0.375   4.228  0.3623 -0.0188 -0.1365
  310ACOH    C111377   2.579   0.310   4.269 -0.2599  0.5486  0.1788
  310ACOH    H111378   2.567   0.201   4.267  0.2925  0.4768  0.7007
  310ACOH    H211379   2.487   0.358   4.236 -0.0883  0.8476  0.1340
  310ACOH    H311380   2.609   0.338   4.370  0.6257 -0.3622  0.1728
  311ACOH    H411381   4.369   1.364   3.424  0.8523 -0.0272  0.9650
  311ACOH    O211382   4.427   1.292   3.392 -0.1958 -0.3903 -0.1791
  311ACOH    C211383   4.368   1.251   3.274 -0.2491  0.3478  0.1554
  311ACOH    O111384   4.270   1.297   3.221 -0.8198 -0.0473 -0.3198
  311ACOH    C111385   4.435   1.137   3.208  0.7392  0.1899  0.5581
  311ACOH    H111386   4.369   1.051   3.219 -2.5178  2.0153 -3.5982
  311ACOH    H211387   4.541   1.116   3.225 -0.0234 -2.4604  2.2701
  311ACOH    H311388   4.431   1.165   3.102  0.5328  1.4996  0.9033
  312ACOH    H411389   4.624   4.112   3.786  1.9983  1.1403 -0.8210
  312ACOH    O211390   4.671   4.090   3.869 -0.2195  0.1298  0.2030
  312ACOH    C211391   4.612   4.159   3.968 -0.1796 -1.0858  0.1477
  312ACOH    O111392   4.549   4.268   3.949 -0.2442 -0.4808 -0.6898
  312ACOH    C111393   4.645   4.107   4.099 -0.5496 -0.5443 -0.3576
  312ACOH    H111394   4.563   4.049   4.142  0.3138 -1.1766  0.4538
  312ACOH    H211395   4.668   4.191   4.164 -2.6702  0.4865 -0.8849
  312ACOH    H311396   4.732   4.041   4.096 -0.6021 -0.6333  0.1345
  313ACOH    H411397   5.526   6.999   3.494 -0.1465 -1.5674  0.5154
  313ACOH    O211398   5.430   6.994   3.505 -0.3065 -0.4039 -0.2975
  313ACOH    C211399   5.404   7.079   3.608  0.2935 -0.6754  0.6072
  313ACOH    O111400   5.482   7.145   3.673 -0.3503  0.2259  0.2348
  313ACOH    C111401   5.263   7.098   3.638  0.5335  0.6772 -0.3760
  313ACOH    H111402   5.245   7.193   3.688 -3.4569  0.2437 -0.8186
  313ACOH    H211403   5.224   7.019   3.702  1.2258  1.4475  1.0263
  313ACOH    H311404   5.204   7.101   3.546 -0.6647  0.4553  0.3864
  314ACOH    H411405   6.172   4.140   3.036 -0.3429  0.2662  2.6936
  314ACOH    O211406   6.090   4.087   3.040 -0.4434  0.1553  0.0330
  314ACOH    C211407   6.113   3.959   3.006  0.3978  0.5706 -0.0202
  314ACOH    O111408   6.230   3.935   2.978  1.0100  0.0284  0.1733
  314ACOH    C111409   5.996   3.873   3.040  0.0581 -0.6671  0.1659
  314ACOH    H111410   5.963   3.901   3.140 -0.3634 -0.1839 -0.1017
  314ACOH    H211411   6.020   3.767   3.037 -0.2832 -0.8460  2.5152
  314ACOH    H311412   5.917   3.895   2.968  2.5888 -1.8658 -3.0683
  315ACOH    H411413   4.027   6.900   6.315 -2.4939  1.5175 -1.2079
  315ACOH    O211414   4.094   6.901   6.245 -0.6748  0.4785  0.4969
  315ACOH    C211415   4.026   6.936   6.135  0.0343  1.0469  0.4542
  315ACOH    O111416   3.938   7.019   6.126  0.3740 -0.2237 -0.2694
  315ACOH    C111417   4.106   6.904   6.017  0.7717  0.2199  1.0421
  315ACOH    H111418   4.172   6.989   6.002  2.0255 -0.5204  2.1702
  315ACOH    H211419   4.038   6.890   5.933  1.1911  0.7742  0.6100
  315ACOH    H311420   4.178   6.822   6.027 -0.4412 -0.7766  1.8349
  316ACOH    H411421   5.220   8.772   0.867  1.6187  1.9213 -0.2471
  316ACOH    O211422   5.276   8.722   0.928  0.0093  0.4431  0.0539
  316ACOH    C211423   5.208   8.702   1.043 -0.4516  0.2396  0.0922
  316ACOH    O111424   5.126   8.781   1.085 -0.0595 -0.0733 -0.7909
  316ACOH    C111425   5.275   8.607   1.132 -1.0089 -0.0919 -0.1048
  316ACOH    H111426   5.245   8.604   1.237  0.0787  3.7623  0.3928
  316ACOH    H211427   5.382   8.628   1.120 -1.1829  1.6645  1.2111
  316ACOH    H311428   5.257   8.512   1.081 -0.9155 -0.1803  0.0277
  317ACOH    H411429   5.199   1.426   3.839  0.0832  2.5441  2.4930
  317ACOH    O211430   5.236   1.483   3.769 -0.5697  0.0960  0.0683
  317ACOH    C211431   5.351   1.418   3.726  0.2631 -0.5131  0.0312
  317ACOH    O111432   5.389   1.308   3.755  0.0847 -0.1418 -0.1500
  317ACOH    C111433   5.408   1.500   3.614 -0.1029  0.4168 -0.6450
  317ACOH    H111434   5.416   1.428   3.532 -2.7387  0.8850 -1.3468
  317ACOH    H211435   5.511   1.532   3.633 -0.6356  0.9707  1.4172
  317ACOH    H311436   5.338   1.582   3.597 -1.7874 -0.7190  0.5858
  318ACOH    H411437   4.085   7.312   9.742  0.1350 -2.7266  1.1732
  318ACOH    O211438   4.133   7.266   9.670  0.4039 -0.2607 -0.2907
  318ACOH    C211439   4.262   7.293   9.699  0.2481  0.4590 -0.5351
  318ACOH    O111440   4.303   7.286   9.814  0.1482  0.1268  0.5687
  318ACOH    C111441   4.351   7.279   9.581  0.5273 -1.0718  0.2856
  318ACOH    H111442   4.436   7.347   9.579 -0.1287 -0.2655 -0.1440
  318ACOH    H211443   4.303   7.291   9.484  3.2248  0.7016 -0.8755
  318ACOH    H311444   4.394   7.179   9.587 -0.6087 -1.6007 -0.1325
  319ACOH    H411445   6.484   7.576   7.705  0.3864  0.1809 -0.2647
  319ACOH    O211446   6.420   7.504   7.690  0.4411  0.0471  0.1250
  319ACOH    C211447   6.382   7.517   7.562 -0.1893 -0.0423 -0.4978
  319ACOH    O111448   6.438   7.571   7.469 -0.3275  0.0294 -0.1451
  319ACOH    C111449   6.282   7.418   7.529  0.0635  0.1878  0.0393
  319ACOH    H111450   6.254   7.378   7.626  1.2611 -0.9564 -0.0850
  319ACOH    H211451   6.303   7.333   7.465  1.9761 -0.0147  0.9018
  319ACOH    H311452   6.200   7.481   7.494 -0.2362  0.6023  1.4634
  320ACOH    H411453   8.345   2.705   7.411 -1.2366  1.4631  0.2786
  320ACOH    O211454   8.298   2.636   7.461  0.4259  0.2231  0.1566
  320ACOH    C211455   8.385   2.584   7.552  0.1787 -0.1664  0.0090
  320ACOH    O111456   8.499   2.616   7.575  0.2581 -1.0213 -0.0841
  320ACOH    C111457   8.319   2.482   7.631  0.1379  0.1746 -0.0631
  320ACOH    H111458   8.389   2.404   7.660  0.5364 -0.1364 -1.8684
  320ACOH    H211459   8.238   2.442   7.572  1.4446  1.5467 -2.8699
  320ACOH    H311460   8.284   2.531   7.723  0.8202  1.9831 -0.7402
  321ACOH    H411461   8.432   3.596   6.988 -0.0104 -1.4133 -1.4128
  321ACOH    O211462   8.396   3.540   7.058 -0.2923 -0.0399 -0.4368
  321ACOH    C211463   8.500   3.488   7.127 -0.1757  0.6991 -0.0807
  321ACOH    O111464   8.618   3.482   7.091 -0.6387  0.2035  0.0165
  321ACOH    C111465   8.461   3.399   7.242 -0.0136 -0.5218  0.4234
  321ACOH    H111466   8.427   3.469   7.319  1.2260  1.1694 -0.5411
  321ACOH    H211467   8.534   3.331   7.287  0.5700 -1.0177 -1.2476
  321ACOH    H311468   8.374   3.346   7.203  0.3408 -1.3867  0.7841
  322ACOH    H411469   7.679   1.761   5.119 -1.1882 -0.4090 -1.3777
  322ACOH    O211470   7.729   1.803   5.048  0.0521  0.7941  0.1737
  322ACOH    C211471   7.659   1.919   5.021  0.2459  0.1640 -0.4116
  322ACOH    O111472   7.587   1.978   5.102  0.5834  0.5057  0.7365
  322ACOH    C111473   7.737   1.991   4.919 -0.1327  0.2289 -0.2397
  322ACOH    H111474   7.683   2.082   4.895  0.1886  0.3538 -0.4825
  322ACOH    H211475   7.745   1.927   4.831  0.5073 -2.1745  1.5103
  322ACOH    H311476   7.831   2.018   4.967 -2.3755  2.4338  3.1551
  323ACOH    H411477   0.898   9.595   7.936 -1.7358  1.1630 -2.6390
  323ACOH    O211478   0.846   9.648   7.998 -0.1271 -0.3873  0.1698
  323ACOH    C211479   0.811   9.768   7.934 -0.0479  0.2712 -0.3137
  323ACOH    O111480   0.842   9.801   7.815  0.3230 -0.0135  0.1027
  323ACOH    C111481   0.708   9.830   8.016 -0.7779 -0.1508 -0.1311
  323ACOH    H111482   0.622   9.762   8.013 -0.0035 -1.1499  0.1367
  323ACOH    H211483   0.680   9.932   7.991  1.1410  0.2915 -0.5240
  323ACOH    H311484   0.738   9.833   8.121 -1.1978  0.5785 -0.0249
  324ACOH    H411485   4.071   5.357   7.448  0.4609  0.3329  0.0468
  324ACOH    O211486   3.992   5.382   7.397  0.1359  0.3754  0.5678
  324ACOH    C211487   3.975   5.290   7.298  0.5259 -0.6416 -0.0929
  324ACOH    O111488   4.036   5.185   7.297 -0.3045  0.3870 -0.5575
  324ACOH    C111489   3.854   5.308   7.214 -0.2390 -0.0540  0.1096
  324ACOH    H111490   3.806   5.402   7.240 -1.1422 -0.3359 -0.5089
  324ACOH    H211491   3.778   5.232   7.238  1.0059 -1.5255 -0.5219
  324ACOH    H311492   3.878   5.303   7.108  1.8834 -1.2263  0.6186
  325ACOH    H411493   5.254   7.718   0.729  0.5859  0.5143  1.2160
  325ACOH    O211494   5.317   7.645   0.717 -0.5288 -0.3204  0.3608
  325ACOH    C211495   5.253   7.550   0.647 -0.2314  0.5200  0.1760
  325ACOH    O111496   5.142   7.561   0.604  0.4647 -0.1605 -0.0399
  325ACOH    C111497   5.335   7.430   0.624  0.0514 -0.3049  0.1253
  325ACOH    H111498   5.437   7.436   0.587 -0.2333 -1.4740 -0.8817
  325ACOH    H211499   5.285   7.358   0.559  0.5960 -0.8679  0.3165
  325ACOH    H311500   5.354   7.390   0.724  0.5864 -0.2254  0.0590
  326ACOH    H411501   5.818   8.545   5.372 -2.6278  2.2696  1.4780
  326ACOH    O211502   5.812   8.600   5.291 -0.2041 -0.1064 -0.3903
  326ACOH    C211503   5.832   8.726   5.336  0.1595  0.3836 -0.5302
  326ACOH    O111504   5.873   8.759   5.447  0.1958  0.2684  0.1235
  326ACOH    C111505   5.791   8.823   5.236 -0.1306 -0.1392 -0.0725
  326ACOH    H111506   5.825   8.795   5.136  0.7944 -1.8813  0.7132
  326ACOH    H211507   5.843   8.916   5.257 -0.2831 -0.2452  0.7814
  326ACOH    H311508   5.683   8.839   5.235 -0.4219 -2.0226 -1.2012
  327ACOH    H411509   8.995   1.814   6.760 -1.3532 -1.7030  0.2502
  327ACOH    O211510   8.949   1.839   6.678 -0.3053  0.0734  0.1905
  327ACOH    C211511   8.826   1.790   6.703 -0.3957  0.0292 -0.3002
  327ACOH    O111512   8.775   1.759   6.810 -0.1692 -0.2191  0.4412
  327ACOH    C111513   8.743   1.809   6.579  0.2041  0.4511 -0.2556
  327ACOH    H111514   8.702   1.908   6.562  0.8416  1.0526  1.5698
  327ACOH    H211515   8.664   1.734   6.583  1.5263 -0.9180  1.0535
  327ACOH    H311516   8.808   1.785   6.495  2.1223  0.9622  1.0397
  328ACOH    H411517   3.790   6.102   5.020 -1.4216  2.1438 -2.9568
  328ACOH    O211518   3.868   6.134   4.971  0.8488  0.4476 -0.6173
  328ACOH    C211519   3.932   6.233   5.043 -0.5208  0.1790 -0.4504
  328ACOH    O111520   3.911   6.274   5.157 -0.1766  0.2240 -0.0785
  328ACOH    C111521   4.052   6.273   4.966 -0.0634 -0.2768 -0.8239
  328ACOH    H111522   4.068   6.379   4.986  0.1570 -0.5422  0.4486
  328ACOH    H211523   4.035   6.259   4.859 -2.4648 -0.0515 -0.4924
  328ACOH    H311524   4.141   6.214   4.989 -0.8364 -0.6947  1.2035
  329ACOH    H411525   4.680   7.620   1.274  0.0625  0.5440  1.5586
  329ACOH    O211526   4.697   7.534   1.317 -0.5803 -0.4072 -0.0540
  329ACOH    C211527   4.763   7.458   1.225 -0.2414 -0.1351 -0.2985
  329ACOH    O111528   4.798   7.504   1.116 -0.2497 -0.0662  0.1319
  329ACOH    C111529   4.760   7.314   1.261  0.3667  0.3337 -0.2556
  329ACOH    H111530   4.702   7.268   1.181  0.5125  1.6459 -1.1317
  329ACOH    H211531   4.715   7.289   1.357  0.0603 -1.4024 -0.8388
  329ACOH    H311532   4.860   7.272   1.260 -0.4071 -1.6611  1.3319
  330ACOH    H411533   4.244   2.249   3.166  0.5062 -0.4449  0.1769
  330ACOH    O211534   4.312   2.296   3.115  0.0235  0.4735  0.3604
  330ACOH    C211535   4.395   2.336   3.212 -0.7073 -1.1377 -0.0829
  330ACOH    O111536   4.414   2.284   3.317  0.5081 -0.2532 -0.0240
  330ACOH    C111537   4.492   2.436   3.154  0.4286  0.0031 -0.1615
  330ACOH    H111538   4.467   2.444   3.049  0.7824 -2.9997 -0.5186
  330ACOH    H211539   4.597   2.409   3.159  0.9253  1.9580  0.1295
  330ACOH    H311540   4.471   2.532   3.202  1.2053  0.5667 -0.9492
  331ACOH    H411541   1.921   7.852   2.118  0.8034  0.5816 -0.5216
  331ACOH    O211542   1.928   7.810   2.206 -0.1756 -0.1148 -0.7660
  331ACOH    C211543   1.879   7.884   2.307 -0.2298 -0.2589 -0.8026
  331ACOH    O111544   1.851   8.001   2.300  0.3066  0.7548 -0.0783
  331ACOH    C111545   1.888   7.822   2.443  0.2799  0.3130  0.7462
  331ACOH    H111546   1.969   7.870   2.497  0.6896 -0.2486  0.6330
  331ACOH    H211547   1.906   7.715   2.450  2.2065  0.6302  0.8930
  331ACOH    H311548   1.791   7.846   2.487 -0.9252 -0.2376 -1.5483
  332ACOH    H411549   2.762   7.978   2.688  1.8534  0.8204  1.3693
  332ACOH    O211550   2.799   7.890   2.669 -0.0433  0.3445 -0.2429
  332ACOH    C211551   2.691   7.811   2.661  1.0663  0.2877 -0.0469
  332ACOH    O111552   2.581   7.833   2.703  0.0383 -0.5616  0.3827
  332ACOH    C111553   2.729   7.678   2.611 -0.2101  0.1129 -0.3514
  332ACOH    H111554   2.705   7.608   2.691 -1.0154 -0.6352 -1.2382
  332ACOH    H211555   2.835   7.680   2.587  0.5626  2.0305  2.8225
  332ACOH    H311556   2.675   7.649   2.521 -1.2354  1.3656 -0.1608
  333ACOH    H411557   6.107   6.836   4.406 -0.9763  2.6016 -1.2377
  333ACOH    O211558   6.122   6.806   4.315  0.5795 -0.0251 -0.1662
  333ACOH    C211559   6.078   6.905   4.233  0.0649  0.4701 -0.1356
  333ACOH    O111560   6.020   7.007   4.260  0.1491  0.6675 -0.2379
  333ACOH    C111561   6.080   6.843   4.096  0.0047 -0.1115  0.1829
  333ACOH    H111562   6.095   6.921   4.021  0.4232 -0.9531 -0.6056
  333ACOH    H211563   5.989   6.787   4.078 -0.0531 -0.1612  0.6150
  333ACOH    H311564   6.161   6.771   4.100 -1.6114 -1.9576  0.3091
  334ACOH    H411565   5.043   9.477   0.896 -0.0703  1.0488 -0.7128
  334ACOH    O211566   5.105   9.411   0.862 -0.1408  0.5850  0.0541
  334ACOH    C211567   5.194   9.375   0.958 -0.4125  0.3528 -0.4920
  334ACOH    O111568   5.203   9.420   1.072 -0.4603 -0.0781  0.0960
  334ACOH    C111569   5.290   9.275   0.899 -0.1124 -0.2833 -0.2622
  334ACOH    H111570   5.354   9.236   0.978 -0.6983  0.0100  0.3582
  334ACOH    H211571   5.345   9.326   0.819  1.5031  2.8869  2.7109
  334ACOH    H311572   5.240   9.185   0.863 -0.2607  0.0057 -0.7853
  335ACOH    H411573   3.815   3.732   7.617  0.2378  0.7755  0.6163
  335ACOH    O211574   3.747   3.802   7.613 -0.2804  0.2232 -0.3823
  335ACOH    C211575   3.777   3.879   7.506  0.6506 -0.2390  0.2218
  335ACOH    O111576   3.830   3.837   7.406  0.2475  0.2599 -0.2657
  335ACOH    C111577   3.708   4.013   7.506 -0.0771 -0.1828 -0.1043
  335ACOH    H111578   3.695   4.064   7.411 -1.4452 -0.8421 -0.2840
  335ACOH    H211579   3.771   4.079   7.566  0.8894  0.7213 -2.1015
  335ACOH    H311580   3.611   3.984   7.548 -0.6766  0.4927 -0.9938
  336ACOH    H411581   9.962   5.250   4.117 -0.6639 -0.7664 -1.6254
  336ACOH    O211582   9.970   5.343   4.089 -0.0229 -0.5183 -0.6293
  336ACOH    C211583   9.865   5.371   4.009  0.1881 -0.1381 -0.1210
  336ACOH    O111584   9.770   5.293   3.996 -0.2918 -0.0740 -0.1789
  336ACOH    C111585   9.870   5.504   3.948 -0.0305 -0.5299 -0.0784
  336ACOH    H111586   9.862   5.483   3.841  0.2470 -0.7731 -0.0503
  336ACOH    H211587   9.972   5.541   3.958 -0.0089 -0.7539  0.5264
  336ACOH    H311588   9.798   5.577   3.985  0.1696  0.6926 -2.0336
  337ACOH    H411589   4.160   0.493   0.437  0.7315  0.9021  1.5490
  337ACOH    O211590   4.174   0.561   0.369 -0.3302  0.1042  0.4902
  337ACOH    C211591   4.228   0.659   0.439 -0.6019 -0.3648  0.2782
  337ACOH    O111592   4.227   0.677   0.562  0.3936  0.0664  0.1261
  337ACOH    C111593   4.295   0.747   0.345 -0.2290  0.3024 -0.0543
  337ACOH    H111594   4.276   0.716   0.242  2.9020 -2.0694 -0.0060
  337ACOH    H211595   4.404   0.755   0.356 -0.3067 -0.2692  1.1280
  337ACOH    H311596   4.248   0.845   0.356 -1.3523 -0.3109  0.6333
  338ACOH    H411597   4.825   5.288   4.953  0.2933  0.6611  0.9053
  338ACOH    O211598   4.871   5.326   4.876 -0.3328 -0.2540  0.0726
  338ACOH    C211599   4.999   5.283   4.881  1.0848 -0.1037  0.2871
  338ACOH    O111600   5.055   5.249   4.982  0.8504 -0.2026  0.8654
  338ACOH    C111601   5.061   5.307   4.749  0.4304  0.3995 -0.2876
  338ACOH    H111602   5.156   5.253   4.741 -0.0410 -0.4299 -0.3383
  338ACOH    H211603   5.073   5.415   4.744  2.0530  0.4827  3.6033
  338ACOH    H311604   4.995   5.271   4.670  0.2951 -0.4215  0.1896
  339ACOH    H411605   5.633   6.143   2.373  1.2911  2.4312  0.6906
  339ACOH    O211606   5.722   6.105   2.379  0.2623 -0.1255  0.0168
  339ACOH    C211607   5.744   6.033   2.261  0.3413 -0.6333  0.1500
  339ACOH    O111608   5.654   6.006   2.184  0.4570 -0.7271  0.2560
  339ACOH    C111609   5.883   5.987   2.248  0.6725  0.1909 -0.0281
  339ACOH    H111610   5.911   5.968   2.145 -0.8035  0.7492 -0.5484
  339ACOH    H211611   5.873   5.896   2.306 -0.5642  1.7032  2.2247
  339ACOH    H311612   5.950   6.060   2.294 -0.2564  0.0717  1.5582
  340ACOH    H411613   6.736   2.619   5.446  1.1118  2.1908  1.4668
  340ACOH    O211614   6.734   2.677   5.369 -0.2635  0.2688 -0.0051
  340ACOH    C211615   6.834   2.629   5.289 -0.0030 -0.4851 -0.8381
  340ACOH    O111616   6.897   2.526   5.304  0.0615  0.2984 -0.3226
  340ACOH    C111617   6.860   2.711   5.173  0.1027  0.3085  1.0817
  340ACOH    H111618   6.903   2.808   5.198 -0.9821  0.4052  2.6430
  340ACOH    H211619   6.773   2.726   5.109 -1.3697 -4.8461  1.6776
  340ACOH    H311620   6.927   2.661   5.103 -0.0510  0.0782  1.0995
  341ACOH    H411621   5.430   3.713   0.358  0.4665 -0.2939  0.7083
  341ACOH    O211622   5.363   3.722   0.427  0.5627  0.3718  0.7196
  341ACOH    C211623   5.257   3.781   0.374 -0.1558  0.4033 -0.6111
  341ACOH    O111624   5.203   3.748   0.269 -0.3301  0.2031 -0.3898
  341ACOH    C111625   5.170   3.835   0.483 -0.2825 -0.3634 -0.6605
  341ACOH    H111626   5.181   3.777   0.575  0.8654  1.6886  0.5217
  341ACOH    H211627   5.062   3.844   0.473  0.0671  1.6062 -2.9403
  341ACOH    H311628   5.204   3.936   0.504 -0.8758 -0.0015 -1.4426
  342ACOH    H411629   5.945   2.267   6.631 -0.6439 -0.7692 -1.0938
  342ACOH    O211630   6.036   2.233   6.626 -0.2170  0.2355 -0.1760
  342ACOH    C211631   6.061   2.152   6.734 -0.1303 -0.2188 -0.6222
  342ACOH    O111632   5.982   2.122   6.822 -0.5628  0.3646 -0.4965
  342ACOH    C111633   6.203   2.108   6.741 -0.0494  0.4992 -0.4060
  342ACOH    H111634   6.234   2.053   6.651  1.0813 -0.8249  0.7622
  342ACOH    H211635   6.218   2.043   6.827 -1.2941 -1.1649 -1.4234
  342ACOH    H311636   6.266   2.194   6.762 -0.9870  1.3918 -1.2314
  343ACOH    H411637   4.522   2.607   4.630  1.8394 -2.6588  1.3743
  343ACOH    O211638   4.539   2.577   4.539 -0.3021 -0.0085  0.0312
  343ACOH    C211639   4.447   2.482   4.506  0.3193 -0.0683 -1.1690
  343ACOH    O111640   4.370   2.432   4.590 -0.6702 -0.1188  0.1135
  343ACOH    C111641   4.447   2.442   4.363 -0.1060  0.0960  0.3177
  343ACOH    H111642   4.475   2.337   4.356 -0.1473  0.2423 -2.4866
  343ACOH    H211643   4.511   2.518   4.318 -0.8867  0.8509  0.4674
  343ACOH    H311644   4.344   2.447   4.329 -0.1796 -1.8879  0.1748
  344ACOH    H411645   3.984   5.747   7.110 -0.0556  0.4106 -0.5981
  344ACOH    O211646   3.973   5.789   7.197  0.4897 -0.5998 -0.0373
  344ACOH    C211647   4.064   5.739   7.282  0.8267  0.3461 -0.2920
  344ACOH    O111648   4.146   5.652   7.268  0.2114 -0.1589  0.2884
  344ACOH    C111649   4.039   5.787   7.419 -0.5935 -0.6167  0.3048
  344ACOH    H111650   3.962   5.864   7.429 -0.3880 -0.2202 -1.1177
  344ACOH    H211651   4.132   5.835   7.450  0.5800 -1.1638 -2.3115
  344ACOH    H311652   4.030   5.706   7.492  2.1886 -0.9236  0.3362
  345ACOH    H411653   5.841   1.943   4.043  1.7317 -0.6155  0.8657
  345ACOH    O211654   5.783   1.890   3.985  0.5580  0.4743  1.0158
  345ACOH    C211655   5.862   1.807   3.911 -0.1993  0.1492  0.4170
  345ACOH    O111656   5.984   1.800   3.932  0.1167 -0.8400 -0.2162
  345ACOH    C111657   5.790   1.738   3.802  0.2169  0.0886  0.0463
  345ACOH    H111658   5.845   1.650   3.769 -0.8687 -0.6934  0.2949
  345ACOH    H211659   5.789   1.802   3.714  0.2672  0.2343  0.1523
  345ACOH    H311660   5.686   1.723   3.830 -0.2220  0.3603 -1.3778
  346ACOH    H411661   5.725   0.162   8.397 -0.3251  0.7166 -0.1327
  346ACOH    O211662   5.724   0.134   8.490 -0.3414  0.2022 -0.2849
  346ACOH    C211663   5.729  -0.000   8.487  0.0945 -0.3589  0.3618
  346ACOH    O111664   5.765  -0.073   8.395  0.1172  0.4395 -0.4000
  346ACOH    C111665   5.720  -0.060   8.621 -0.4376  0.2764 -0.6801
  346ACOH    H111666   5.782  -0.149   8.628 -0.4131  0.4336  1.5980
  346ACOH    H211667   5.619  -0.098   8.636 -0.6376  0.3344 -1.7987
  346ACOH    H311668   5.741   0.014   8.699  0.4787  2.1385 -2.6314
  347ACOH    H411669   5.344   3.752   2.672 -0.1256 -0.2297  1.4696
  347ACOH    O211670   5.250   3.730   2.679 -0.3161 -0.2504 -0.6149
  347ACOH    C211671   5.187   3.849   2.665 -0.7047 -0.6670 -0.1901
  347ACOH    O111672   5.234   3.956   2.650  0.2486  0.1241 -0.2456
  347ACOH    C111673   5.044   3.821   2.669 -0.0357 -0.2341 -0.0780
  347ACOH    H111674   4.994   3.915   2.696 -0.5895 -0.7007  0.5377
  347ACOH    H211675   5.015   3.743   2.740 -0.5397  0.3749  0.3967
  347ACOH    H311676   5.017   3.793   2.567  0.4123 -1.1911  0.0688
  348ACOH    H411677   1.683   6.795   3.743  0.7143 -0.5150  0.3066
  348ACOH    O211678   1.689   6.773   3.648 -0.3240 -0.1161  0.1534
  348ACOH    C211679   1.738   6.888   3.603 -0.3137  0.3486 -0.4339
  348ACOH    O111680   1.748   6.996   3.659  0.1956  0.5761  0.4198
  348ACOH    C111681   1.791   6.872   3.463 -0.2517 -0.9665 -0.2876
  348ACOH    H111682   1.725   6.932   3.400 -2.1210 -0.2908  2.2437
  348ACOH    H211683   1.793   6.769   3.426 -2.9735 -0.9464 -0.5604
  348ACOH    H311684   1.887   6.922   3.448 -1.7651  1.9578 -0.5313
  349ACOH    H411685   5.036   4.445   2.860 -0.7474  0.5839 -0.9903
  349ACOH    O211686   5.037   4.352   2.833 -0.3851  0.3703 -0.2299
  349ACOH    C211687   5.019   4.350   2.698 -1.1306  0.3372  0.1896
  349ACOH    O111688   5.066   4.434   2.624 -0.3785 -0.1195  0.1579
  349ACOH    C111689   5.007   4.209   2.656 -0.3423  1.1835 -0.0957
  349ACOH    H111690   4.993   4.144   2.743  0.3224 -0.0155 -0.8628
  349ACOH    H211691   5.098   4.180   2.603 -1.6632 -2.4580 -0.5309
  349ACOH    H311692   4.920   4.194   2.592 -0.3478  0.4595  0.0731
  350ACOH    H411693   6.248   6.508   1.079 -0.6355 -1.6641  1.8002
  350ACOH    O211694   6.312   6.555   1.135  0.4245 -0.6078 -0.2745
  350ACOH    C211695   6.299   6.516   1.259  0.3790 -0.2493  0.0994
  350ACOH    O111696   6.192   6.483   1.303 -0.0930  0.0643 -0.1151
  350ACOH    C111697   6.416   6.545   1.344 -0.2616  0.2875 -0.3209
  350ACOH    H111698   6.504   6.528   1.281 -0.9200 -1.3837 -0.8191
  350ACOH    H211699   6.425   6.478   1.429 -1.7212  1.2040  0.5628
  350ACOH    H311700   6.417   6.649   1.377 -2.6621  0.3528 -0.3501
  351ACOH    H411701   3.854   0.670   0.374 -0.6038  0.1923  0.2911
  351ACOH    O211702   3.831   0.730   0.301  0.2540  0.3133  0.1160
  351ACOH    C211703   3.908   0.835   0.290 -1.3782 -0.4696  0.3854
  351ACOH    O111704   3.962   0.896   0.379  0.5536  0.1981 -0.4310
  351ACOH    C111705   3.900   0.908   0.157 -0.0369  0.6100 -0.1671
  351ACOH    H111706   3.869   1.012   0.168  0.3093  0.8846 -1.6411
  351ACOH    H211707   3.831   0.855   0.092 -0.5310  0.4782  0.4612
  351ACOH    H311708   3.997   0.906   0.106  0.0455  0.7877 -0.0162
  352ACOH    H411709   1.428   6.781   0.284 -0.1103  0.9728 -0.1486
  352ACOH    O211710   1.397   6.825   0.365 -0.1693  0.1616  0.2804
  352ACOH    C211711   1.392   6.748   0.470  0.9206 -0.3753 -0.0683
  352ACOH    O111712   1.413   6.629   0.472  0.2067  0.0471  0.0318
  352ACOH    C111713   1.378   6.828   0.595  0.4949  0.4328  0.1745
  352ACOH    H111714   1.444   6.796   0.676  0.7402 -0.6966 -0.4584
  352ACOH    H211715   1.282   6.810   0.643  0.5707  1.8205  0.8691
  352ACOH    H311716   1.381   6.936   0.580  0.1284  0.5159  0.6962
  353ACOH    H411717   7.788   5.432   4.106  0.2462  0.0951  0.5967
  353ACOH    O211718   7.747   5.369   4.045  0.2413  0.4340  0.2514
  353ACOH    C211719   7.764   5.244   4.095 -0.0035 -0.0120  0.2652
  353ACOH    O111720   7.854   5.212   4.168 -0.3662 -0.8332  0.1445
  353ACOH    C111721   7.691   5.144   4.012  0.3683  0.3009 -0.0748
  353ACOH    H111722   7.605   5.192   3.966  0.8673 -0.2171 -1.5842
  353ACOH    H211723   7.680   5.052   4.069  1.9822 -0.2704 -0.6542
  353ACOH    H311724   7.752   5.118   3.925 -1.1793  1.3566 -1.5059
  354ACOH    H411725   4.502   4.029   7.790  0.3558  0.8174  1.8358
  354ACOH    O211726   4.583   3.976   7.792 -0.2574 -0.2864 -0.4940
  354ACOH    C211727   4.666   4.053   7.720  0.8705 -0.2980  0.6505
  354ACOH    O111728   4.652   4.169   7.690  0.1903 -0.3287 -0.2290
  354ACOH    C111729   4.787   3.981   7.684 -0.3150  0.0141 -0.3058
  354ACOH    H111730   4.809   3.990   7.578 -0.7290  0.3574 -0.3627
  354ACOH    H211731   4.766   3.874   7.690 -0.0620 -0.0165  0.0374
  354ACOH    H311732   4.867   4.008   7.752 -0.2299 -0.6273 -0.1550
  355ACOH    H411733   5.984   0.956   3.446  3.1324  0.8291  1.1772
  355ACOH    O211734   5.954   1.048   3.460  0.2854  0.1422  0.0490
  355ACOH    C211735   5.962   1.122   3.344 -0.3891  0.0592 -0.3992
  355ACOH    O111736   5.941   1.071   3.233  0.7904  0.0707 -0.0186
  355ACOH    C111737   5.957   1.268   3.366 -0.2426 -0.0271 -0.5015
  355ACOH    H111738   6.040   1.310   3.310 -0.0628  0.7160  0.3111
  355ACOH    H211739   5.992   1.284   3.468 -0.2499  1.9723 -0.8034
  355ACOH    H311740   5.866   1.323   3.343 -1.1581 -0.2924  2.2735
  356ACOH    H411741   3.608   5.577   5.692 -1.5302 -0.3483  0.2062
  356ACOH    O211742   3.570   5.660   5.727  0.0456  0.3153  0.3903
  356ACOH    C211743   3.661   5.752   5.699 -0.0516  0.0400  0.9085
  356ACOH    O111744   3.747   5.745   5.613 -0.1156  0.4226 -0.2960
  356ACOH    C111745   3.624   5.884   5.756 -0.3940 -0.5751 -0.1430
  356ACOH    H111746   3.715   5.933   5.790  0.0409 -1.3943 -0.0991
  356ACOH    H211747   3.562   5.875   5.845 -1.5567  0.3673 -0.8485
  356ACOH    H311748   3.576   5.953   5.687 -1.1863 -1.2188 -0.2544
  357ACOH    H411749   4.786   0.376   1.488 -1.0624 -1.0996  0.6470
  357ACOH    O211750   4.717   0.444   1.494 -0.1617 -0.0922 -0.2548
  357ACOH    C211751   4.761   0.570   1.477 -0.0918  0.1403  0.6001
  357ACOH    O111752   4.868   0.602   1.434 -0.3443 -0.0274 -0.4300
  357ACOH    C111753   4.659   0.675   1.504  0.1203  0.6350  0.6649
  357ACOH    H111754   4.634   0.730   1.413 -1.2179  0.6667  1.0411
  357ACOH    H211755   4.705   0.743   1.576  4.5027  0.6069 -1.8842
  357ACOH    H311756   4.564   0.646   1.547 -0.2149 -0.1418 -0.5654
  358ACOH    H411757   5.338   4.768   6.704 -2.1460 -1.2421 -2.6278
  358ACOH    O211758   5.414   4.741   6.650  0.0398  0.1191 -0.3783
  358ACOH    C211759   5.408   4.610   6.665  0.5971 -0.7427  0.7448
  358ACOH    O111760   5.323   4.540   6.715  0.1746 -0.6442  0.3534
  358ACOH    C111761   5.537   4.543   6.622 -0.7309  0.5868 -0.0655
  358ACOH    H111762   5.587   4.603   6.546 -0.3617 -0.7216 -0.8789
  358ACOH    H211763   5.523   4.443   6.579  2.4348 -0.7822  1.9168
  358ACOH    H311764   5.590   4.538   6.717 -0.5568 -1.5405 -0.2496
  359ACOH    H411765   4.234   7.425   6.088  1.2418 -1.8551 -0.1815
  359ACOH    O211766   4.240   7.386   6.176 -0.3527 -0.1307  0.7265
  359ACOH    C211767   4.295   7.267   6.155  0.3625 -0.5703 -0.0765
  359ACOH    O111768   4.333   7.216   6.051 -0.2316  0.2369  0.0719
  359ACOH    C111769   4.287   7.184   6.280  0.1851 -0.4415  0.3600
  359ACOH    H111770   4.205   7.218   6.343  2.0448 -1.2077  3.2924
  359ACOH    H211771   4.388   7.184   6.322 -0.2525  0.9636  1.4259
  359ACOH    H311772   4.265   7.080   6.256  0.0402 -0.2927 -0.1606
  360ACOH    H411773   1.833   2.068   0.370  2.0672  1.1579 -0.7553
  360ACOH    O211774   1.806   2.094   0.280  0.5109  0.0549 -0.6346
  360ACOH    C211775   1.731   1.991   0.235 -0.2093  0.5556 -0.8665
  360ACOH    O111776   1.737   1.874   0.275 -0.0623 -0.2729  0.3301
  360ACOH    C111777   1.669   2.018   0.102 -0.3708  0.9988  0.1695
  360ACOH    H111778   1.674   2.124   0.077 -0.3555  0.9559 -0.0065
  360ACOH    H211779   1.564   1.989   0.104 -0.4149  1.1173 -0.3172
  360ACOH    H311780   1.723   1.956   0.030  1.1297  1.9691  0.4406
  361ACOH    H411781   1.937   2.073   1.075 -2.3003 -0.4323 -1.0776
  361ACOH    O211782   1.932   2.154   1.021  0.2782  0.2287 -0.4081
  361ACOH    C211783   1.948   2.130   0.890 -0.3681 -0.0535  0.3265
  361ACOH    O111784   1.970   2.019   0.845  0.1124 -0.6932 -0.4142
  361ACOH    C111785   1.948   2.252   0.807  0.8007 -0.6601  0.2880
  361ACOH    H111786   2.020   2.322   0.850  1.1841 -0.5793 -0.4711
  361ACOH    H211787   1.848   2.294   0.813  1.0708  0.3182 -1.5414
  361ACOH    H311788   1.970   2.233   0.702  0.4052  0.5261 -0.0178
  362ACOH    H411789   5.283   3.056   2.617 -0.6911 -1.6366  0.3319
  362ACOH    O211790   5.301   3.090   2.706  0.3936 -0.1054 -0.4470
  362ACOH    C211791   5.375   3.196   2.687 -0.0810 -1.0526  0.1425
  362ACOH    O111792   5.438   3.233   2.588  0.6526  0.0927 -0.5493
  362ACOH    C111793   5.366   3.279   2.811  0.3306  0.1555  0.2413
  362ACOH    H111794   5.427   3.231   2.887  1.1220 -0.0007 -0.4725
  362ACOH    H211795   5.262   3.285   2.842  0.0580  2.0661 -0.9748
  362ACOH    H311796   5.406   3.378   2.791 -0.2195  0.7659  2.1342
  363ACOH    H411797   6.114   2.336   1.395  0.6405 -0.0126  1.9003
  363ACOH    O211798   6.026   2.304   1.420 -0.1927  0.5178 -0.2053
  363ACOH    C211799   6.006   2.387   1.527 -0.3308 -0.0814  0.2294
  363ACOH    O111800   6.044   2.503   1.548  0.4035  0.0057  0.1130
  363ACOH    C111801   5.881   2.338   1.594  0.1369  0.8242  0.2558
  363ACOH    H111802   5.897   2.246   1.649 -0.2888  2.3475  3.0121
  363ACOH    H211803   5.806   2.317   1.517  1.0510  0.2362 -0.4919
  363ACOH    H311804   5.837   2.412   1.660  0.3085  2.4546 -1.3941
  364ACOH    H411805   2.607   9.466   6.241  0.3650 -0.2886 -0.8284
  364ACOH    O211806   2.529   9.518   6.218  0.2731  0.1265  0.3713
  364ACOH    C211807   2.407   9.454   6.233  0.4799  0.5164  1.0467
  364ACOH    O111808   2.390   9.342   6.279 -0.0239 -0.1924 -0.1662
  364ACOH    C111809   2.302   9.549   6.179 -0.8459  0.0648 -0.0405
  364ACOH    H111810   2.301   9.636   6.244  1.5504  2.2058 -2.7375
  364ACOH    H211811   2.215   9.486   6.195  0.0017 -0.4002  3.1477
  364ACOH    H311812   2.317   9.571   6.073  1.0957  0.0173  0.1928
  365ACOH    H411813   5.366   1.820   3.990 -0.1292  0.2818  0.2659
  365ACOH    O211814   5.297   1.846   3.926  0.3798 -0.2454 -0.5131
  365ACOH    C211815   5.329   1.796   3.809  0.1202 -0.9179  0.2142
  365ACOH    O111816   5.442   1.764   3.768  0.5947 -0.4516  0.1860
  365ACOH    C111817   5.211   1.814   3.715 -0.5333 -0.1962 -0.4204
  365ACOH    H111818   5.147   1.726   3.724  0.1178 -0.4950  1.6101
  365ACOH    H211819   5.249   1.826   3.613  0.6243  0.5836  0.1007
  365ACOH    H311820   5.156   1.904   3.744  1.1737  0.7637 -0.1118
  366ACOH    H411821   5.003   2.149   4.282  0.7969  0.4214  0.3144
  366ACOH    O211822   4.932   2.216   4.286 -0.0489 -0.4489 -0.1755
  366ACOH    C211823   4.934   2.265   4.413 -0.4734 -0.7203 -0.2526
  366ACOH    O111824   5.004   2.225   4.501 -0.0185  0.7563  0.5066
  366ACOH    C111825   4.843   2.376   4.433 -0.1177 -0.5236  0.2908
  366ACOH    H111826   4.746   2.330   4.418  0.3236 -1.5879  0.6419
  366ACOH    H211827   4.853   2.453   4.356 -0.9002 -0.1892  0.5221
  366ACOH    H311828   4.838   2.422   4.531 -0.0567  0.1858 -0.0349
  367ACOH    H411829   4.487   8.966   0.299  1.0510 -1.0600 -0.9362
  367ACOH    O211830   4.540   8.931   0.373  0.0444  0.2232  0.4294
  367ACOH    C211831   4.514   8.996   0.488 -0.3529  0.7146  0.6621
  367ACOH    O111832   4.428   9.081   0.507  0.3811 -0.4039 -0.6854
  367ACOH    C111833   4.593   8.929   0.592  0.4991  0.0649  0.3743
  367ACOH    H111834   4.690   8.917   0.544  0.0182  0.3633 -0.6833
  367ACOH    H211835   4.550   8.832   0.617  3.2569 -1.1230  0.7529
  367ACOH    H311836   4.597   8.996   0.678  0.8176 -1.3167  1.4610
  368ACOH    H411837   5.460   5.359   2.852 -0.8059 -1.8866  1.9993
  368ACOH    O211838   5.385   5.419   2.866 -0.0836 -0.5498  0.3450
  368ACOH    C211839   5.397   5.524   2.784 -0.6097  0.1104 -0.0074
  368ACOH    O111840   5.499   5.549   2.720  0.7011  0.6555  0.3063
  368ACOH    C111841   5.269   5.590   2.760 -0.0805 -0.4273 -0.3919
  368ACOH    H111842   5.194   5.534   2.816  0.8496 -0.5597  0.7380
  368ACOH    H211843   5.245   5.599   2.654 -1.6891 -2.7304 -0.2553
  368ACOH    H311844   5.272   5.693   2.796  0.6607 -0.1421 -1.2453
  369ACOH    H411845   7.932   6.427   0.169  1.9885  2.0254  0.8485
  369ACOH    O211846   7.972   6.430   0.080 -0.1771  0.4870 -0.2331
  369ACOH    C211847   8.056   6.538   0.072 -0.0665 -0.1687  0.2235
  369ACOH    O111848   8.087   6.611   0.165 -0.3080 -0.2452  0.5332
  369ACOH    C111849   8.105   6.558  -0.059 -0.1471  0.1264 -0.8938
  369ACOH    H111850   8.210   6.537  -0.075 -0.5401 -2.1890 -0.6192
  369ACOH    H211851   8.083   6.663  -0.076  0.8994  0.6031  0.6190
  369ACOH    H311852   8.049   6.501  -0.134  0.9287 -2.5650  0.2775
  370ACOH    H411853   6.621   5.206   7.362  0.7283  1.9178  0.4440
  370ACOH    O211854   6.527   5.217   7.383  0.4742  0.5225  0.0756
  370ACOH    C211855   6.535   5.267   7.509  0.5516 -0.3257 -0.5435
  370ACOH    O111856   6.611   5.244   7.594  0.0222  0.6844 -0.9274
  370ACOH    C111857   6.404   5.335   7.541 -0.5718  0.1709 -0.2636
  370ACOH    H111858   6.336   5.291   7.468 -0.7799  1.6596 -0.9885
  370ACOH    H211859   6.420   5.441   7.518 -2.1368  0.7263  1.0694
  370ACOH    H311860   6.364   5.319   7.641 -0.2244  1.6109  0.1173
  371ACOH    H411861   8.200   4.245   7.134 -0.1344 -0.0564  0.5314
  371ACOH    O211862   8.257   4.167   7.131 -0.1746 -0.0704  0.0933
  371ACOH    C211863   8.183   4.051   7.111 -0.5011  0.3241 -0.0140
  371ACOH    O111864   8.077   4.055   7.060 -0.0347  0.2105  0.5461
  371ACOH    C111865   8.278   3.931   7.112  0.3948  0.4064 -0.1919
  371ACOH    H111866   8.323   3.909   7.015  2.1329  1.9316  0.2378
  371ACOH    H211867   8.232   3.840   7.151  0.1648  1.1113  1.2190
  371ACOH    H311868   8.361   3.953   7.178  0.9068 -1.0367 -0.3510
  372ACOH    H411869   5.528   9.352   1.665 -1.8471  0.4851  0.0914
  372ACOH    O211870   5.512   9.303   1.583  0.3290 -0.1734  0.0391
  372ACOH    C211871   5.488   9.402   1.487  0.1604 -0.0171 -0.1439
  372ACOH    O111872   5.480   9.521   1.499  0.3591 -0.4060  0.0477
  372ACOH    C111873   5.483   9.342   1.351  0.3107 -0.1431 -0.1528
  372ACOH    H111874   5.473   9.417   1.273 -1.4272 -1.6095 -1.3727
  372ACOH    H211875   5.403   9.269   1.349  1.2564 -1.1671 -1.6970
  372ACOH    H311876   5.569   9.277   1.337  0.1444 -1.2953  3.7084
  373ACOH    H411877   0.684   5.634   1.543  0.3118 -0.4196 -0.5277
  373ACOH    O211878   0.734   5.660   1.622  0.3050  0.1967 -0.7245
  373ACOH    C211879   0.646   5.665   1.721  0.3240 -0.3339  0.3070
  373ACOH    O111880   0.522   5.650   1.729  0.1551  0.2028 -0.8173
  373ACOH    C111881   0.729   5.657   1.841 -0.0228 -0.3143 -0.0372
  373ACOH    H111882   0.822   5.714   1.835  0.5008 -1.2235 -0.9746
  373ACOH    H211883   0.761   5.554   1.859  1.1591 -0.1590 -1.1120
  373ACOH    H311884   0.666   5.679   1.927  2.5912  2.7823  1.1762
  374ACOH    H411885   5.091   5.699   3.089 -1.1295 -0.0980  1.9624
  374ACOH    O211886   5.152   5.642   3.138  0.9864  0.2162 -0.2025
  374ACOH    C211887   5.285   5.663   3.116 -0.0240 -0.5630 -0.7082
  374ACOH    O111888   5.321   5.748   3.040 -0.3888  0.1742  0.0792
  374ACOH    C111889   5.385   5.583   3.193  0.3299  1.0393  0.4542
  374ACOH    H111890   5.346   5.570   3.294 -1.5194  1.5284 -0.1863
  374ACOH    H211891   5.483   5.631   3.190  1.1526 -0.5355  1.4415
  374ACOH    H311892   5.390   5.490   3.136  0.0558 -0.2042  2.4228
  375ACOH    H411893   4.408   5.950   4.802 -0.1306 -0.6842 -0.7706
  375ACOH    O211894   4.494   5.976   4.765  0.0610  0.0376  0.1520
  375ACOH    C211895   4.499   6.113   4.770 -0.0833  0.0922 -0.2172
  375ACOH    O111896   4.439   6.179   4.851 -0.2614 -0.3648 -0.2922
  375ACOH    C111897   4.610   6.159   4.682 -0.3560  0.2835  0.6568
  375ACOH    H111898   4.600   6.119   4.581 -0.8204 -0.4279  0.9760
  375ACOH    H211899   4.699   6.118   4.731 -0.1011  1.6379  1.3438
  375ACOH    H311900   4.614   6.268   4.687 -1.5070  0.3053  1.2568
  376ACOH    H411901   4.973   3.994   6.631 -1.4583  1.5213  1.4183
  376ACOH    O211902   4.974   4.074   6.575  0.5865  0.4531 -0.1304
  376ACOH    C211903   4.857   4.138   6.608  0.3368  0.3155 -0.0464
  376ACOH    O111904   4.755   4.083   6.638 -0.2367 -0.5916 -0.3188
  376ACOH    C111905   4.847   4.273   6.560 -0.1437 -0.0123 -0.5499
  376ACOH    H111906   4.894   4.284   6.463  2.2065  2.9237  0.8465
  376ACOH    H211907   4.902   4.337   6.629  2.4093 -1.1809 -1.4484
  376ACOH    H311908   4.744   4.310   6.555  0.0490  0.5464 -0.3828
  377ACOH    H411909   7.274   5.136   6.727  3.2696  2.3179 -0.6718
  377ACOH    O211910   7.224   5.137   6.644  0.3311  0.8703  1.0171
  377ACOH    C211911   7.096   5.103   6.657 -0.3473 -0.2036  0.0031
  377ACOH    O111912   7.028   5.114   6.760 -0.5872  0.3310 -0.0721
  377ACOH    C111913   7.047   5.079   6.522  0.1175  0.2613 -0.5157
  377ACOH    H111914   6.938   5.075   6.519  0.0620 -0.7966  1.6440
  377ACOH    H211915   7.089   4.985   6.486 -0.2441 -0.0697 -0.0847
  377ACOH    H311916   7.086   5.155   6.454 -1.0693  1.3364 -0.0198
  378ACOH    H411917   6.746   6.400   6.281 -0.3067 -0.5880 -2.5251
  378ACOH    O211918   6.756   6.304   6.294  0.0458 -0.2271  0.2736
  378ACOH    C211919   6.782   6.271   6.415 -0.3849  0.3711 -0.4472
  378ACOH    O111920   6.825   6.350   6.503 -0.1983  0.3229  0.5546
  378ACOH    C111921   6.796   6.125   6.428  0.2379  0.0874  0.3003
  378ACOH    H111922   6.851   6.087   6.341 -0.0473  0.6353 -0.1256
  378ACOH    H211923   6.696   6.081   6.428  0.3505 -0.1792 -0.2973
  378ACOH    H311924   6.852   6.097   6.517 -1.7699 -3.3724  0.5506
  379ACOH    H411925   4.654   1.775   6.693  0.3235 -0.8060  2.0167
  379ACOH    O211926   4.576   1.718   6.683 -0.6937  0.7804  0.4696
  379ACOH    C211927   4.471   1.780   6.727 -0.3633 -0.1575 -0.4986
  379ACOH    O111928   4.472   1.886   6.791 -0.4408 -0.0815 -0.3342
  379ACOH    C111929   4.348   1.713   6.679  0.0069 -0.2586 -0.3765
  379ACOH    H111930   4.314   1.752   6.583  4.2535  0.9004 -1.5427
  379ACOH    H211931   4.272   1.734   6.754  0.0648  0.8670 -0.6148
  379ACOH    H311932   4.358   1.605   6.669 -0.2464 -0.3704  0.5417
  380ACOH    H411933   7.021   1.830   7.599 -0.5735 -0.6768  2.2106
  380ACOH    O211934   7.116   1.847   7.592 -0.8054 -0.0788  0.1096
  380ACOH    C211935   7.129   1.953   7.510 -1.0085 -0.3015  0.1198
  380ACOH    O111936   7.042   2.013   7.448  0.8916  0.2090 -0.1698
  380ACOH    C111937   7.260   2.017   7.512  0.0410 -0.1544  0.4579
  380ACOH    H111938   7.268   2.101   7.443  1.3672  0.6179  1.5534
  380ACOH    H211939   7.343   1.952   7.482  1.0315  2.7720 -3.6255
  380ACOH    H311940   7.272   2.061   7.611  1.0106 -1.3602  0.8920
  381ACOH    H411941   5.527   8.371   6.426  3.2570  2.0130  1.3157
  381ACOH    O211942   5.481   8.376   6.512 -0.0128 -0.3478 -0.1925
  381ACOH    C211943   5.557   8.443   6.600 -0.0549 -0.5219 -0.6944
  381ACOH    O111944   5.651   8.520   6.585  0.1752 -0.2125 -0.6290
  381ACOH    C111945   5.506   8.429   6.739 -0.4586  0.0223 -0.3119
  381ACOH    H111946   5.556   8.498   6.807  1.0411 -0.5406 -0.8196
  381ACOH    H211947   5.505   8.327   6.777  0.2617 -0.5117 -1.6865
  381ACOH    H311948   5.403   8.462   6.744 -0.3836  0.1801  0.2153
  382ACOH    H411949   4.712   4.027   3.155  2.6520  0.5546 -0.8122
  382ACOH    O211950   4.748   3.962   3.218 -0.2205 -0.4172 -0.1085
  382ACOH    C211951   4.679   3.965   3.330 -0.0377  0.0059  0.2974
  382ACOH    O111952   4.575   4.025   3.358  0.3025  0.0392  0.2359
  382ACOH    C111953   4.739   3.875   3.433 -0.4379  0.1044  0.0127
  382ACOH    H111954   4.663   3.820   3.489  0.3792 -1.9417 -0.8545
  382ACOH    H211955   4.799   3.938   3.499 -1.2660  0.9878 -0.0650
  382ACOH    H311956   4.796   3.796   3.386 -3.5738 -1.7700 -0.7882
  383ACOH    H411957   0.689   6.163   1.575 -0.2932 -0.4758  0.1104
  383ACOH    O211958   0.625   6.117   1.519 -0.1455 -0.2431 -0.2525
  383ACOH    C211959   0.610   5.991   1.560 -0.7404  0.6368  0.3243
  383ACOH    O111960   0.615   5.956   1.674  0.5697 -0.2448 -0.3113
  383ACOH    C111961   0.549   5.910   1.455 -0.5828 -0.3525 -0.9360
  383ACOH    H111962   0.527   5.809   1.488 -2.3520  0.1760 -0.4567
  383ACOH    H211963   0.616   5.913   1.369  1.5725 -0.5353  0.6847
  383ACOH    H311964   0.454   5.958   1.433 -0.8639  0.2723  1.4457
  384ACOH    H411965   2.958   4.737   7.455 -1.0441 -1.5230 -2.1212
  384ACOH    O211966   2.889   4.706   7.516  0.3907  0.1063  0.3848
  384ACOH    C211967   2.962   4.674   7.627  0.4928 -0.6391 -0.2186
  384ACOH    O111968   3.082   4.670   7.641  0.3440 -0.1533 -0.7597
  384ACOH    C111969   2.868   4.637   7.731 -0.0389  0.4301  0.4843
  384ACOH    H111970   2.897   4.545   7.781  0.7437  0.9673  1.0390
  384ACOH    H211971   2.764   4.634   7.699 -0.5239  0.5891  2.0119
  384ACOH    H311972   2.862   4.712   7.810 -0.8404  0.8048  0.0762
  385ACOH    H411973   6.644   2.799   5.389 -2.0128 -1.4314 -0.2721
  385ACOH    O211974   6.599   2.884   5.386 -0.2355 -0.4594 -0.0761
  385ACOH    C211975   6.485   2.850   5.320  0.2109 -0.5051  0.0566
  385ACOH    O111976   6.460   2.742   5.267  0.7258  0.7487 -0.1842
  385ACOH    C111977   6.376   2.942   5.367  0.0812  0.0000  0.3016
  385ACOH    H111978   6.430   3.024   5.414 -0.6038 -0.3008  1.6477
  385ACOH    H211979   6.321   2.879   5.437  0.7502  0.5732  1.3527
  385ACOH    H311980   6.319   2.976   5.281  0.5328  0.1627  0.0692
  386ACOH    H411981   6.612   4.084   3.083 -0.3180 -0.8170 -0.0696
  386ACOH    O211982   6.638   4.026   3.156 -0.0152 -0.0813  0.4096
  386ACOH    C211983   6.764   4.057   3.171 -0.0164 -0.4255  0.7919
  386ACOH    O111984   6.824   4.158   3.143  0.5095  0.0992 -0.1136
  386ACOH    C111985   6.827   3.949   3.254  0.3751 -0.3603 -0.5782
  386ACOH    H111986   6.778   3.960   3.351  2.1173 -0.3476  0.3295
  386ACOH    H211987   6.935   3.960   3.262  0.2024  0.2587  1.0581
  386ACOH    H311988   6.794   3.859   3.202  0.6837 -0.5594 -0.4346
  387ACOH    H411989   4.531   4.372   4.770 -1.8338  0.7924  0.5853
  387ACOH    O211990   4.555   4.459   4.733 -0.7471 -0.0625 -0.7800
  387ACOH    C211991   4.437   4.522   4.726  0.3659 -0.2787 -0.5903
  387ACOH    O111992   4.342   4.498   4.796 -0.0404 -0.3543 -0.7014
  387ACOH    C111993   4.457   4.656   4.667 -0.1765 -0.2535 -0.1532
  387ACOH    H111994   4.508   4.645   4.571 -0.3393  1.2632 -0.4143
  387ACOH    H211995   4.516   4.720   4.731  1.4182  0.0405 -1.8617
  387ACOH    H311996   4.359   4.700   4.654  0.0192  0.5060  0.9039
  388ACOH    H411997   9.051   6.631   6.692 -1.1044  0.0873  1.9110
  388ACOH    O211998   9.023   6.723   6.679 -0.2151  0.1706  0.3683
  388ACOH    C211999   9.086   6.773   6.577  0.2300 -0.5959  0.2620
  388ACOH    O112000   9.142   6.705   6.491 -0.5979 -0.2506  0.3997
  388ACOH    C112001   9.073   6.921   6.566  0.0522 -0.0221 -0.3527
  388ACOH    H112002   9.122   6.959   6.656 -0.2587  2.1342 -1.0736
  388ACOH    H212003   8.974   6.967   6.574  0.2934  0.1009  2.8921
  388ACOH    H312004   9.125   6.950   6.475  1.4207  2.8877  1.2935
  389ACOH    H412005   9.747   5.111   6.546 -0.8380 -0.9296  1.1161
  389ACOH    O212006   9.669   5.104   6.488  0.4993 -0.3723 -0.8104
  389ACOH    C212007   9.629   5.229   6.455 -0.3500  0.1092 -0.1124
  389ACOH    O112008   9.692   5.332   6.482 -0.4399  0.2494  0.1591
  389ACOH    C112009   9.526   5.224   6.353  0.1421 -0.9560  0.0768
  389ACOH    H112010   9.499   5.323   6.316  1.0267 -0.0592  1.7705
  389ACOH    H212011   9.437   5.179   6.396 -1.7912 -1.6461 -4.3434
  389ACOH    H312012   9.552   5.169   6.262  1.8237 -0.8126  0.4604
  390ACOH    H412013   7.383   3.281   6.102 -1.0214  1.3860 -0.1356
  390ACOH    O212014   7.316   3.220   6.137  0.5411 -0.0973  0.3379
  390ACOH    C212015   7.373   3.160   6.245  0.2302  0.5005 -0.0676
  390ACOH    O112016   7.492   3.169   6.274 -0.4537  0.2795 -0.3979
  390ACOH    C112017   7.281   3.066   6.310 -0.4083 -0.6821 -0.1295
  390ACOH    H112018   7.194   3.122   6.343  0.5751  1.4914 -1.1438
  390ACOH    H212019   7.328   2.998   6.381  0.4717  0.7482  0.6764
  390ACOH    H312020   7.243   3.000   6.232 -1.0281  0.0164 -0.4134
  391ACOH    H412021   0.448   5.544   7.302  2.6704 -0.1841  3.3045
  391ACOH    O212022   0.452   5.641   7.314  0.6145  0.3929 -0.1053
  391ACOH    C212023   0.518   5.685   7.204 -0.0290 -0.0495 -1.0153
  391ACOH    O112024   0.585   5.620   7.131 -0.1080 -0.1479 -0.4589
  391ACOH    C112025   0.511   5.830   7.195  0.5233  0.3569  0.0574
  391ACOH    H112026   0.599   5.860   7.138  0.5244 -1.5173 -0.9656
  391ACOH    H212027   0.514   5.885   7.289  3.3246  0.8422 -0.2775
  391ACOH    H312028   0.423   5.854   7.135  1.2437  2.9604  0.0032
  392ACOH    H412029   6.660   5.787   6.501  0.0542  0.5210 -0.7266
  392ACOH    O212030   6.576   5.771   6.546  0.4483  0.2603 -0.0746
  392ACOH    C212031   6.574   5.835   6.661  0.3400  0.1595  0.1775
  392ACOH    O112032   6.638   5.932   6.692 -0.0606  0.5612  0.1613
  392ACOH    C112033   6.461   5.791   6.751 -0.3812 -0.0700 -0.4551
  392ACOH    H112034   6.399   5.709   6.717  0.8158 -1.0513 -0.3043
  392ACOH    H212035   6.392   5.875   6.759 -1.0242 -0.6815  0.5134
  392ACOH    H312036   6.508   5.764   6.846  1.1068 -0.1073 -1.1864
  393ACOH    H412037   4.898   4.808   5.105 -0.2856 -0.2544 -0.0589
  393ACOH    O212038   4.897   4.750   5.183 -0.3617 -0.3101 -0.1013
  393ACOH    C212039   4.797   4.816   5.251 -0.3663 -0.0975 -0.2680
  393ACOH    O112040   4.737   4.917   5.215 -0.7186  0.0908 -0.2712
  393ACOH    C112041   4.767   4.738   5.373  0.3981 -0.2844 -0.1909
  393ACOH    H112042   4.707   4.801   5.439  2.3260  0.0551  1.3148
  393ACOH    H212043   4.864   4.706   5.412  0.8887 -1.0052 -1.9820
  393ACOH    H312044   4.714   4.647   5.347  1.8087 -0.7054 -1.6532
  394ACOH    H412045   4.521   8.478   8.271 -0.9426 -0.3189 -0.0517
  394ACOH    O212046   4.563   8.410   8.326 -0.1224  0.3854  0.2217
  394ACOH    C212047   4.510   8.291   8.287 -0.0199 -0.3521  0.1132
  394ACOH    O112048   4.420   8.281   8.201 -0.0067 -0.4209 -0.3106
  394ACOH    C112049   4.569   8.176   8.362 -0.1461  0.0612 -0.0618
  394ACOH    H112050   4.676   8.176   8.341 -0.0287 -0.3478  0.5426
  394ACOH    H212051   4.525   8.083   8.326  0.3566 -1.1286  2.3119
  394ACOH    H312052   4.562   8.187   8.470  1.8030  1.9841 -0.1077
  395ACOH    H412053   9.689   0.317   7.923  1.4327  0.7032 -2.5462
  395ACOH    O212054   9.756   0.364   7.975  0.0475 -0.4069  0.3510
  395ACOH    C212055   9.756   0.299   8.091  0.2258 -0.0724 -0.2613
  395ACOH    O112056   9.717   0.185   8.103  0.1480 -0.3168 -0.0595
  395ACOH    C112057   9.778   0.387   8.205 -0.1351 -0.0730 -0.8269
  395ACOH    H112058   9.684   0.438   8.222 -0.4647 -0.5795 -1.1055
  395ACOH    H212059   9.855   0.462   8.186 -0.8907  0.4810 -1.7569
  395ACOH    H312060   9.804   0.329   8.293  0.5063  1.3734 -0.0393
  396ACOH    H412061   6.703   2.821   4.490  1.2078 -0.6648  0.1278
  396ACOH    O212062   6.731   2.820   4.583  0.3728  0.3190  0.4066
  396ACOH    C212063   6.668   2.912   4.660 -0.0664 -0.4052  0.6857
  396ACOH    O112064   6.638   2.901   4.776  0.0677  0.3169  0.3435
  396ACOH    C112065   6.586   2.998   4.574  0.1666 -1.0270 -0.4122
  396ACOH    H112066   6.569   3.094   4.623  0.1877 -1.4497  0.4314
  396ACOH    H212067   6.494   2.949   4.541  1.4158 -2.6160 -1.6073
  396ACOH    H312068   6.641   3.009   4.481 -0.5156 -3.1342 -1.1024
  397ACOH    H412069   5.061   8.425   4.391 -1.0983 -1.8160 -1.2623
  397ACOH    O212070   5.134   8.413   4.328  0.0981  0.4818 -0.3573
  397ACOH    C212071   5.074   8.339   4.227 -0.3347  0.4360 -0.1431
  397ACOH    O112072   4.967   8.277   4.238  0.4612  0.2863  0.3185
  397ACOH    C112073   5.164   8.314   4.112 -0.8464  1.0809 -0.1224
  397ACOH    H112074   5.131   8.376   4.029 -0.5029  2.8913  1.0575
  397ACOH    H212075   5.169   8.208   4.088  0.1874  1.5515 -2.0850
  397ACOH    H312076   5.266   8.348   4.132  0.8844 -3.5823 -0.5714
  398ACOH    H412077   0.265   9.752   3.839 -2.8498 -0.2817 -2.6703
  398ACOH    O212078   0.268   9.848   3.829  0.7236 -0.0164  0.0991
  398ACOH    C212079   0.156   9.898   3.885 -0.1542 -0.3158  0.7182
  398ACOH    O112080   0.091   9.839   3.973 -1.0983  0.6952 -0.0423
  398ACOH    C112081   0.153  10.045   3.852  0.1725 -0.6747  0.2554
  398ACOH    H112082   0.050  10.081   3.846 -0.1563 -1.7457 -0.8688
  398ACOH    H212083   0.195  10.067   3.754  0.2025  1.0422  0.6434
  398ACOH    H312084   0.187  10.106   3.936 -0.7136 -0.6907  0.6362
  399ACOH    H412085   3.804   4.793   1.209  0.0565  0.0411 -0.0678
  399ACOH    O212086   3.743   4.744   1.152  0.0864 -0.1156  0.0339
  399ACOH    C212087   3.821   4.681   1.056 -0.5850  0.2121 -0.4133
  399ACOH    O112088   3.938   4.696   1.039 -0.0071  0.4623  0.1953
  399ACOH    C112089   3.738   4.609   0.958  0.6482 -0.0625 -0.1095
  399ACOH    H112090   3.646   4.664   0.939  1.0771  0.9157  0.6138
  399ACOH    H212091   3.705   4.513   0.997  0.1221 -0.1536 -0.7555
  399ACOH    H312092   3.780   4.592   0.859  2.6380 -0.6054  0.8181
  400ACOH    H412093   5.024   2.752   6.437  0.6100 -0.6409  0.3272
  400ACOH    O212094   5.099   2.801   6.474 -0.0147  0.0476  0.7096
  400ACOH    C212095   5.170   2.810   6.360 -0.2789 -0.9981  0.9910
  400ACOH    O112096   5.158   2.754   6.256 -0.1783 -0.6412  0.5551
  400ACOH    C112097   5.303   2.883   6.374  0.2927  0.2585 -0.1487
  400ACOH    H112098   5.307   2.923   6.475  0.1754 -2.2841  0.9105
  400ACOH    H212099   5.316   2.956   6.294  1.0072  0.5621  0.2420
  400ACOH    H312100   5.388   2.815   6.365 -0.7435 -1.0911  0.0492
  401ACOH    H412101   6.017   9.728   1.973 -0.4532 -0.6283 -0.0405
  401ACOH    O212102   5.997   9.736   1.878 -0.4729 -0.2317 -0.0037
  401ACOH    C212103   6.106   9.748   1.800 -0.3001  0.6181  0.5534
  401ACOH    O112104   6.211   9.801   1.833 -0.3030  0.1411  0.2278
  401ACOH    C112105   6.067   9.710   1.668 -0.0484 -0.2119  0.5064
  401ACOH    H112106   6.148   9.657   1.618  0.6339  0.6719  0.6655
  401ACOH    H212107   6.029   9.796   1.613 -1.5581 -0.2873  1.3816
  401ACOH    H312108   5.982   9.642   1.677 -2.5682  2.8163  0.6532
  402ACOH    H412109   6.463   6.177   7.198  0.1818 -1.0313 -1.0158
  402ACOH    O212110   6.373   6.145   7.179 -0.4717  0.0834  0.1676
  402ACOH    C212111   6.374   6.114   7.051  0.2442 -0.0625  0.1990
  402ACOH    O112112   6.475   6.100   6.980 -0.2306 -0.6521 -0.3066
  402ACOH    C112113   6.242   6.052   7.020 -0.3012  0.3453  0.6691
  402ACOH    H112114   6.240   6.009   6.920 -1.7026 -0.8388  1.1760
  402ACOH    H212115   6.173   6.136   7.026  0.9488  1.4460 -0.3617
  402ACOH    H312116   6.217   5.973   7.091 -0.2014 -0.9593 -0.7159
  403ACOH    H412117   5.064   8.408   1.504 -3.1350  0.0548  0.5066
  403ACOH    O212118   5.060   8.490   1.452  0.4109  0.4681  0.7075
  403ACOH    C212119   4.954   8.472   1.365  0.4735  0.4567 -0.1527
  403ACOH    O112120   4.860   8.394   1.362 -0.5472  0.6433 -0.5198
  403ACOH    C112121   4.929   8.597   1.282  0.1043 -0.5129  0.0826
  403ACOH    H112122   4.912   8.576   1.177 -1.9163  0.2452  0.2415
  403ACOH    H212123   5.004   8.675   1.294 -1.6298  0.8508  2.4784
  403ACOH    H312124   4.848   8.656   1.326  1.6516  2.2005 -0.5691
  404ACOH    H412125   6.144   2.707   6.043  1.1286 -0.9934 -0.1979
  404ACOH    O212126   6.188   2.764   5.978  0.0401  0.3728  0.2392
  404ACOH    C212127   6.228   2.679   5.886  0.4213  0.0880  0.6126
  404ACOH    O112128   6.161   2.590   5.829  0.4336 -0.4176  0.5474
  404ACOH    C112129   6.357   2.728   5.824 -0.1879 -0.4788 -0.4536
  404ACOH    H112130   6.371   2.829   5.863  0.3542 -0.6834 -0.1110
  404ACOH    H212131   6.344   2.733   5.716 -0.9317 -1.4522 -0.4168
  404ACOH    H312132   6.437   2.666   5.865 -3.1065 -3.3190  1.2509
  405ACOH    H412133   8.493   4.667   5.417 -1.9261  0.5437 -1.2582
  405ACOH    O212134   8.420   4.634   5.473 -0.3685 -0.0085  0.5154
  405ACOH    C212135   8.463   4.643   5.602  0.2876 -0.0316 -0.0747
  405ACOH    O112136   8.560   4.702   5.642 -0.3492 -0.0800 -0.3330
  405ACOH    C112137   8.363   4.575   5.685  0.0234 -0.6143 -0.3013
  405ACOH    H112138   8.301   4.636   5.751  0.0318 -1.2073  0.2630
  405ACOH    H212139   8.411   4.498   5.746 -0.4667  0.2618  1.2334
  405ACOH    H312140   8.286   4.523   5.628 -0.4391 -0.9608  0.6117
  406ACOH    H412141   5.480   6.932   1.038  1.3639  0.4813  1.6670
  406ACOH    O212142   5.435   7.013   1.068 -0.3373  0.2081 -0.0592
  406ACOH    C212143   5.493   7.062   1.181 -0.0095  0.1940 -0.2927
  406ACOH    O112144   5.470   7.169   1.231  0.5063 -0.0633 -0.0153
  406ACOH    C112145   5.581   6.963   1.251 -0.0298  0.1211  0.0884
  406ACOH    H112146   5.614   6.901   1.167  3.9040  0.6060  1.1655
  406ACOH    H212147   5.532   6.905   1.329  2.7422 -1.5673  0.6386
  406ACOH    H312148   5.673   7.011   1.283  1.2328 -2.4785  0.5211
  407ACOH    H412149   3.622   6.388   5.652 -1.4447 -0.3236  0.2446
  407ACOH    O212150   3.662   6.325   5.714 -0.0612  0.5901  0.3050
  407ACOH    C212151   3.777   6.297   5.657 -0.5307 -0.3650 -0.1861
  407ACOH    O112152   3.830   6.186   5.669 -0.2603  0.5541  0.2631
  407ACOH    C112153   3.829   6.395   5.559  0.0084 -0.3677  1.0847
  407ACOH    H112154   3.770   6.385   5.469  0.8071 -0.2711  0.5416
  407ACOH    H212155   3.934   6.375   5.536 -0.3884  0.3165 -1.4505
  407ACOH    H312156   3.830   6.501   5.585  1.8489 -0.0835 -0.0739
  408ACOH    H412157   0.268   9.123   7.625  0.4033  1.4104  1.7298
  408ACOH    O212158   0.309   9.076   7.700  0.4332 -0.0266  0.8327
  408ACOH    C212159   0.218   9.005   7.774 -0.2709  0.2874 -0.5925
  408ACOH    O112160   0.106   8.969   7.737  0.1480  0.0116  0.5845
  408ACOH    C112161   0.282   8.949   7.905  0.8673 -0.0527  0.1592
  408ACOH    H112162   0.318   8.848   7.888  1.4729  0.6389 -2.9722
  408ACOH    H212163   0.205   8.941   7.983 -1.0012 -1.3928 -1.7626
  408ACOH    H312164   0.366   9.006   7.945 -0.6110  1.4065  1.2607
  409ACOH    H412165   3.636   5.974   6.151 -3.0120 -0.4804 -0.5733
  409ACOH    O212166   3.670   5.891   6.115  0.4410  0.5170  0.1902
  409ACOH    C212167   3.664   5.799   6.212 -0.6770  0.8944 -0.6016
  409ACOH    O112168   3.614   5.811   6.323 -0.3938  0.5253 -0.0154
  409ACOH    C112169   3.726   5.670   6.155 -0.3147  0.3931  0.0703
  409ACOH    H112170   3.645   5.597   6.142  0.0385 -0.1399  0.7901
  409ACOH    H212171   3.800   5.639   6.230 -0.6301  2.1758  1.1526
  409ACOH    H312172   3.769   5.681   6.056  1.1473 -1.4280  0.4671
  410ACOH    H412173   7.551   3.888   5.168  1.0138 -0.4673  0.9807
  410ACOH    O212174   7.498   3.946   5.225  0.2051  0.3265 -0.5428
  410ACOH    C212175   7.393   3.877   5.270 -0.1415  0.5596  0.3257
  410ACOH    O112176   7.393   3.753   5.276 -0.3684 -0.1056 -0.4298
  410ACOH    C112177   7.315   3.956   5.358  0.8513 -0.0636  0.1016
  410ACOH    H112178   7.378   4.036   5.397 -0.8779  1.2684  0.2241
  410ACOH    H212179   7.262   3.892   5.428  1.8549  1.2259  2.0818
  410ACOH    H312180   7.242   4.007   5.295 -0.0072 -0.2168  0.9567
  411ACOH    H412181   6.758   0.216   8.325  0.1048  0.8534 -1.2113
  411ACOH    O212182   6.803   0.279   8.384 -0.2662  0.4824 -0.5268
  411ACOH    C212183   6.844   0.381   8.305 -0.0352  0.3943 -0.7949
  411ACOH    O112184   6.861   0.378   8.184  0.2500 -0.4974 -0.2854
  411ACOH    C112185   6.883   0.502   8.382 -0.0942  0.0050  0.2069
  411ACOH    H112186   6.991   0.514   8.377  0.1615 -2.0116  0.5549
  411ACOH    H212187   6.862   0.496   8.488 -1.6455 -2.6092 -0.1900
  411ACOH    H312188   6.832   0.589   8.341  0.6674  0.1229 -0.5008
  412ACOH    H412189   5.352   7.721   7.967 -2.0153 -0.3590  1.6394
  412ACOH    O212190   5.412   7.652   8.001 -0.1909  0.2772 -0.1514
  412ACOH    C212191   5.528   7.685   7.946 -0.5058  0.7980 -0.0692
  412ACOH    O112192   5.554   7.746   7.847  0.3869 -0.3942  0.5608
  412ACOH    C112193   5.636   7.623   8.026  0.1515  0.6195  0.4082
  412ACOH    H112194   5.726   7.637   7.966  0.5509 -0.9925  0.6064
  412ACOH    H212195   5.613   7.518   8.042  0.9256  0.2510 -0.7962
  412ACOH    H312196   5.655   7.675   8.119  0.9909 -2.4049  1.9844
  413ACOH    H412197   0.271   9.548   8.021 -0.0534 -0.6811 -1.6657
  413ACOH    O212198   0.366   9.533   8.033 -0.0989  0.0220 -0.3927
  413ACOH    C212199   0.409   9.468   7.924 -0.3631  0.3210 -0.4161
  413ACOH    O112200   0.330   9.458   7.829  0.3949 -0.4485 -0.1687
  413ACOH    C112201   0.540   9.404   7.926  0.8705 -0.1637  0.1451
  413ACOH    H112202   0.584   9.415   7.827  1.3921  0.5131  0.4462
  413ACOH    H212203   0.533   9.298   7.950 -1.6325 -0.0814 -0.1076
  413ACOH    H312204   0.604   9.464   7.991 -0.0398  1.0687 -0.0789
  414ACOH    H412205   8.221   1.693   7.532 -0.5032  0.5700  0.3918
  414ACOH    O212206   8.218   1.647   7.617  0.2972  0.4510  0.3563
  414ACOH    C212207   8.222   1.744   7.709 -0.0771  0.2551 -0.1062
  414ACOH    O112208   8.160   1.847   7.700 -0.3680 -0.0275 -0.7059
  414ACOH    C112209   8.258   1.692   7.841 -0.0737 -0.0769  0.2750
  414ACOH    H112210   8.221   1.745   7.929 -2.0060  0.8907 -1.0776
  414ACOH    H212211   8.367   1.691   7.850  0.3234 -2.3571 -3.4932
  414ACOH    H312212   8.227   1.588   7.852 -0.3470 -0.1344 -0.9244
  415ACOH    H412213   5.731   2.023   2.391  0.8424  0.7647  0.2824
  415ACOH    O212214   5.710   2.055   2.301 -0.2645 -0.1903  0.1962
  415ACOH    C212215   5.575   2.078   2.306 -0.3962  0.4659  0.3696
  415ACOH    O112216   5.492   2.054   2.394 -0.0590  0.0055  0.0619
  415ACOH    C112217   5.543   2.151   2.183  0.0880 -0.5646  0.0276
  415ACOH    H112218   5.459   2.217   2.202  0.8894 -0.5598  3.9877
  415ACOH    H212219   5.514   2.077   2.108 -0.6102 -0.6987  0.4243
  415ACOH    H312220   5.629   2.210   2.152  0.5248 -0.9034  0.5721
  416ACOH    H412221   3.744   7.626   6.631  0.9892 -1.1431 -1.0293
  416ACOH    O212222   3.801   7.610   6.708  0.4212  0.3249 -0.2770
  416ACOH    C212223   3.736   7.543   6.809 -0.2258 -0.6508  0.4955
  416ACOH    O112224   3.618   7.555   6.814  0.1185 -0.1799  0.4925
  416ACOH    C112225   3.823   7.513   6.925 -1.1680  0.0957  0.3636
  416ACOH    H112226   3.890   7.432   6.897  0.7208  1.8348 -0.2544
  416ACOH    H212227   3.782   7.491   7.024 -2.4981 -0.6241 -0.3401
  416ACOH    H312228   3.889   7.599   6.941 -0.7534 -0.4564  1.7089
  417ACOH    H412229   6.165   2.171   4.726 -1.1376 -0.8036  0.4167
  417ACOH    O212230   6.166   2.202   4.818  0.9195  0.5187 -0.0220
  417ACOH    C212231   6.057   2.270   4.844  0.4016 -0.0469 -0.2835
  417ACOH    O112232   5.990   2.323   4.758  1.0418  0.3890  0.2576
  417ACOH    C112233   6.059   2.318   4.986  0.3312  0.1097  0.1053
  417ACOH    H112234   5.961   2.354   5.015 -0.0274 -1.5072  0.9494
  417ACOH    H212235   6.125   2.405   4.996 -2.9306  2.7488 -0.4286
  417ACOH    H312236   6.098   2.243   5.054 -1.8337 -1.7439 -0.6372
  418ACOH    H412237   2.358   6.231   9.934  1.5304  0.7222 -2.3173
  418ACOH    O212238   2.274   6.246   9.889 -0.0228 -1.3169 -0.1805
  418ACOH    C212239   2.215   6.325   9.979 -0.8331 -0.6224 -0.3777
  418ACOH    O112240   2.260   6.407  10.061 -0.1249 -0.3788 -0.2617
  418ACOH    C112241   2.074   6.285   9.995  0.4625 -0.5047  0.1558
  418ACOH    H112242   2.057   6.191   9.944  1.3874 -0.9270  0.6277
  418ACOH    H212243   2.013   6.360   9.943  0.1857  0.5621  1.9472
  418ACOH    H312244   2.041   6.276  10.099 -2.3435 -1.8898 -0.7889
  419ACOH    H412245   1.539   8.183   0.337  0.8612  0.0494  0.6095
  419ACOH    O212246   1.589   8.226   0.265  0.0326  0.1169  0.0734
  419ACOH    C212247   1.539   8.194   0.141  0.3190  0.2495  0.1744
  419ACOH    O112248   1.451   8.114   0.120  0.1267  0.0542  0.0344
  419ACOH    C112249   1.640   8.239   0.042  0.9221 -0.0096 -0.1153
  419ACOH    H112250   1.703   8.155   0.010  1.5988  1.4268 -2.6986
  419ACOH    H212251   1.699   8.324   0.075  1.1055 -0.8385  1.7304
  419ACOH    H312252   1.582   8.270  -0.045 -2.1420 -0.1051  1.8411
  420ACOH    H412253   6.787   7.232   4.684  0.3820 -0.7578  2.0866
  420ACOH    O212254   6.702   7.185   4.681 -0.2177  0.3962 -0.0901
  420ACOH    C212255   6.707   7.076   4.753 -0.0660  0.5566  0.4064
  420ACOH    O112256   6.777   7.056   4.848 -0.4379  0.3698  0.1736
  420ACOH    C112257   6.587   6.993   4.736 -0.2128 -0.3945 -0.1637
  420ACOH    H112258   6.565   6.978   4.630 -1.5990 -1.0883  0.2104
  420ACOH    H212259   6.507   7.046   4.788  0.8443  2.3717 -1.2558
  420ACOH    H312260   6.607   6.894   4.778  1.7958 -0.7866 -1.9611
  421ACOH    H412261   7.342   6.200   7.689 -1.7966  0.7039 -0.8618
  421ACOH    O212262   7.317   6.109   7.665  0.4782 -0.1523 -0.1862
  421ACOH    C212263   7.213   6.068   7.754 -0.1144 -0.2574 -0.0458
  421ACOH    O112264   7.154   6.140   7.837 -0.5496 -0.0393 -0.3730
  421ACOH    C112265   7.165   5.933   7.718 -0.4375  0.2443 -0.1216
  421ACOH    H112266   7.221   5.880   7.640 -0.5516  2.1442 -1.5208
  421ACOH    H212267   7.064   5.945   7.679 -0.2854 -0.3745 -0.7330
  421ACOH    H312268   7.155   5.868   7.805 -0.1260 -0.3797 -0.5486
  422ACOH    H412269   2.409   3.976   7.088  0.7244 -1.3376 -1.1925
  422ACOH    O212270   2.395   3.912   7.160 -1.0324 -0.1331 -0.4193
  422ACOH    C212271   2.282   3.853   7.138 -0.4675  0.0366  0.6050
  422ACOH    O112272   2.191   3.899   7.073  0.3923  0.1254 -0.4516
  422ACOH    C112273   2.262   3.725   7.208  0.0604 -0.3114  0.3715
  422ACOH    H112274   2.161   3.687   7.188  0.2710  0.3270 -1.9630
  422ACOH    H212275   2.291   3.724   7.313  0.7099  0.8303  0.2021
  422ACOH    H312276   2.327   3.654   7.158  2.0319 -0.7201  3.3631
  423ACOH    H412277   7.297   8.408   1.387  1.9127 -0.0137 -0.6567
  423ACOH    O212278   7.294   8.319   1.349  0.4060 -0.1961 -0.1346
  423ACOH    C212279   7.393   8.314   1.253 -0.3340  0.7080  0.1358
  423ACOH    O112280   7.468   8.403   1.214 -0.2278  0.3775 -0.4979
  423ACOH    C112281   7.410   8.173   1.198  0.1564  0.0175 -0.0550
  423ACOH    H112282   7.342   8.174   1.113 -0.2109 -2.6524  0.1697
  423ACOH    H212283   7.380   8.105   1.278 -0.1128 -0.0288 -0.1926
  423ACOH    H312284   7.514   8.164   1.168  1.0184  1.2847  2.4272
  424ACOH    H412285   9.510   0.634   2.107  2.4317  0.4257 -2.2314
  424ACOH    O212286   9.568   0.640   2.184 -0.5578 -0.0057  0.1299
  424ACOH    C212287   9.626   0.518   2.191  0.3627 -0.7298 -0.1731
  424ACOH    O112288   9.612   0.422   2.116  0.0738 -0.8336  0.0616
  424ACOH    C112289   9.712   0.510   2.313 -0.1452 -0.9189 -0.6174
  424ACOH    H112290   9.798   0.575   2.297  1.0368 -2.1886  0.5268
  424ACOH    H212291   9.744   0.407   2.329  0.7588 -0.6756 -0.8496
  424ACOH    H312292   9.651   0.537   2.399 -1.1178 -0.0535 -1.5734
  425ACOH    H412293   6.219   0.855   6.698 -2.0718 -0.0890 -1.1982
  425ACOH    O212294   6.271   0.852   6.616  0.3856 -0.6443  0.3289
  425ACOH    C212295   6.392   0.799   6.654  0.0500 -0.1511 -0.1407
  425ACOH    O112296   6.435   0.794   6.767  0.2557  0.0586 -0.3318
  425ACOH    C112297   6.477   0.751   6.541  0.5449  0.1134  0.2179
  425ACOH    H112298   6.542   0.669   6.572  1.2168  0.5536 -0.0190
  425ACOH    H212299   6.543   0.835   6.518  2.5925 -1.5352 -0.1318
  425ACOH    H312300   6.420   0.725   6.452  0.1113 -1.0447  0.8247
  426ACOH    H412301   0.474   9.719   1.962 -2.9745 -1.8588  0.2481
  426ACOH    O212302   0.506   9.637   1.921  0.4147 -0.4498 -0.1336
  426ACOH    C212303   0.616   9.651   1.849 -0.1769  0.3265  0.3270
  426ACOH    O112304   0.705   9.732   1.868 -0.2683 -0.0783 -0.5277
  426ACOH    C112305   0.648   9.536   1.759  0.3669 -0.1513  0.4599
  426ACOH    H112306   0.572   9.544   1.681  2.0489  3.8534 -0.9133
  426ACOH    H212307   0.632   9.445   1.817  1.0410 -0.7305 -0.2678
  426ACOH    H312308   0.750   9.536   1.721  0.6024 -0.4135  1.0900
  427ACOH    H412309   9.169   4.649   4.905  0.2951  0.7642  0.4965
  427ACOH    O212310   9.098   4.629   4.968 -0.2349  0.2416 -0.2567
  427ACOH    C212311   9.040   4.748   4.998  1.0859 -0.3110 -0.2418
  427ACOH    O112312   9.066   4.859   4.949  0.0047 -0.0136 -0.4869
  427ACOH    C112313   8.935   4.725   5.103 -0.5397  0.4904  0.1074
  427ACOH    H112314   8.854   4.660   5.069  1.1229 -0.8534 -1.3613
  427ACOH    H212315   8.893   4.821   5.133 -0.1575  0.1070  1.8971
  427ACOH    H312316   8.979   4.671   5.186 -0.7163  1.3049  0.7381
  428ACOH    H412317   5.120   2.112   6.297  1.3831  1.1294 -0.0700
  428ACOH    O212318   5.110   2.198   6.340 -0.3672  0.7795  0.2908
  428ACOH    C212319   5.128   2.286   6.241  0.2367  0.2940 -0.0184
  428ACOH    O112320   5.080   2.286   6.128 -0.1204  0.3802  0.2668
  428ACOH    C112321   5.175   2.415   6.296  0.6206 -0.2724 -0.5182
  428ACOH    H112322   5.192   2.409   6.403 -1.5418 -0.9418 -0.1906
  428ACOH    H212323   5.098   2.491   6.278  1.8286  0.3280 -3.5701
  428ACOH    H312324   5.271   2.446   6.253  1.6992 -0.0775  1.9824
  429ACOH    H412325   2.135   6.299   0.723  0.4393  0.2611 -2.3354
  429ACOH    O212326   2.174   6.211   0.710 -0.1614 -0.3484 -0.2758
  429ACOH    C212327   2.303   6.227   0.692  0.3744  0.1056  0.2678
  429ACOH    O112328   2.363   6.330   0.684  0.1260 -0.3504 -0.3759
  429ACOH    C112329   2.379   6.094   0.683  0.0602  0.0975 -0.4704
  429ACOH    H112330   2.349   6.046   0.589 -1.1606  4.1237 -2.2882
  429ACOH    H212331   2.343   6.032   0.765  0.1253  1.6345  0.7471
  429ACOH    H312332   2.486   6.112   0.690 -0.2859  2.8056 -1.3152
  430ACOH    H412333   8.694   4.288   3.442  0.3718 -1.3944 -1.1260
  430ACOH    O212334   8.724   4.364   3.389 -0.4195  0.1450  0.5575
  430ACOH    C212335   8.639   4.467   3.407 -0.7619  0.3463  0.0655
  430ACOH    O112336   8.581   4.495   3.507 -0.0953  0.3156  0.0564
  430ACOH    C112337   8.646   4.562   3.294  0.0867 -0.5969 -0.3115
  430ACOH    H112338   8.696   4.649   3.336  1.7498 -1.5281 -0.3287
  430ACOH    H212339   8.549   4.597   3.257  0.1905 -1.3717 -1.3561
  430ACOH    H312340   8.710   4.524   3.214  2.7987  0.7634  1.1489
  431ACOH    H412341   3.566   8.523   8.179  3.0763 -0.2357  1.9429
  431ACOH    O212342   3.527   8.453   8.234  0.2326  0.0053  0.3069
  431ACOH    C212343   3.588   8.334   8.205 -0.5053 -0.1569  0.1987
  431ACOH    O112344   3.686   8.315   8.138  0.2576  0.0049 -0.4542
  431ACOH    C112345   3.529   8.213   8.277  0.0547 -0.1685 -0.2162
  431ACOH    H112346   3.440   8.244   8.332 -0.8282 -2.8360 -0.0755
  431ACOH    H212347   3.606   8.172   8.342  1.5998 -1.1782 -2.6133
  431ACOH    H312348   3.503   8.133   8.208  0.9197  0.8655 -1.7711
  432ACOH    H412349   1.586   1.877   7.679  2.0464  3.1410  2.6013
  432ACOH    O212350   1.511   1.875   7.741 -0.2013 -0.2906 -0.0278
  432ACOH    C212351   1.483   2.001   7.785 -0.3404  0.0106 -0.1340
  432ACOH    O112352   1.579   2.074   7.792  0.0271 -0.5916  0.1370
  432ACOH    C112353   1.361   2.014   7.863  0.1828 -0.0302 -0.4033
  432ACOH    H112354   1.400   2.029   7.963  0.0444  0.1025 -0.3693
  432ACOH    H212355   1.297   1.925   7.857  0.7579 -0.3390 -2.3626
  432ACOH    H312356   1.312   2.108   7.840  0.1430 -0.3429 -1.6433
  433ACOH    H412357   1.231   6.603   7.502  0.9292 -0.2119 -0.3400
  433ACOH    O212358   1.223   6.641   7.591 -0.1101  0.1876 -0.5986
  433ACOH    C212359   1.229   6.544   7.684  0.3367 -0.3751 -0.0383
  433ACOH    O112360   1.255   6.425   7.666  0.6435  0.4722 -0.0004
  433ACOH    C112361   1.199   6.607   7.817  0.1439  0.6450  0.1067
  433ACOH    H112362   1.279   6.672   7.852 -1.7386  1.5586  2.8687
  433ACOH    H212363   1.168   6.536   7.894  1.8670 -0.3610 -0.0904
  433ACOH    H312364   1.110   6.669   7.815 -0.4616 -0.2370 -0.5109
  434ACOH    H412365   5.978   6.183   0.188 -0.4377 -0.5012 -0.3090
  434ACOH    O212366   5.977   6.274   0.222  0.3409 -0.3956 -0.5529
  434ACOH    C212367   6.085   6.288   0.295 -0.4285 -0.1964  0.6677
  434ACOH    O112368   6.182   6.218   0.290 -0.3547 -1.0793 -0.0484
  434ACOH    C112369   6.102   6.426   0.339 -0.4417 -0.5835  0.1441
  434ACOH    H112370   6.010   6.468   0.381  1.0193 -0.0315  2.9507
  434ACOH    H212371   6.136   6.485   0.254 -1.2252  0.1059  0.2986
  434ACOH    H312372   6.165   6.437   0.427 -0.0658 -0.1192 -0.1854
  435ACOH    H412373   6.248   8.275   2.175  0.2678 -2.1918  4.8569
  435ACOH    O212374   6.253   8.189   2.129 -0.4663  0.2352 -0.0213
  435ACOH    C212375   6.378   8.175   2.082 -0.3081  0.1618 -0.3279
  435ACOH    O112376   6.455   8.254   2.041 -0.6984 -0.1418 -0.1202
  435ACOH    C112377   6.402   8.031   2.051 -0.3283  0.0491 -0.3091
  435ACOH    H112378   6.483   8.019   1.979 -2.0748 -1.2836 -2.1331
  435ACOH    H212379   6.316   7.984   2.002 -0.6962 -0.2699  0.6296
  435ACOH    H312380   6.418   7.975   2.143 -0.5482 -1.4087 -1.1385
  436ACOH    H412381   5.124   6.480   3.190  3.3687 -0.7225  1.6019
  436ACOH    O212382   5.083   6.506   3.274  0.1534 -0.0777 -0.1070
  436ACOH    C212383   5.153   6.625   3.289 -0.0280  0.4588  0.0720
  436ACOH    O112384   5.192   6.688   3.192  0.7901 -0.7410 -0.4078
  436ACOH    C112385   5.150   6.684   3.423  0.1473 -0.6329  0.0116
  436ACOH    H112386   5.219   6.769   3.428 -1.2657  0.4741  0.9432
  436ACOH    H212387   5.180   6.606   3.493 -0.5127 -1.5620 -0.7261
  436ACOH    H312388   5.049   6.716   3.448  0.5239  1.3852 -0.9592
  437ACOH    H412389   5.950   2.644   4.510 -0.6509  2.0108  0.8455
  437ACOH    O212390   5.968   2.697   4.431 -0.6970 -0.0091 -0.5815
  437ACOH    C212391   6.061   2.636   4.359  0.0951 -0.3145  0.3680
  437ACOH    O112392   6.079   2.517   4.354  0.3835  0.1066  0.0928
  437ACOH    C112393   6.114   2.728   4.252  0.2774  0.0557  0.6814
  437ACOH    H112394   6.167   2.681   4.169  1.0287  1.2881  0.4554
  437ACOH    H212395   6.180   2.801   4.299  0.7148 -1.4230  2.4058
  437ACOH    H312396   6.032   2.788   4.213  0.2065 -1.1238 -1.0223
  438ACOH    H412397   7.743   5.028   7.636 -0.4039  0.0820  1.0329
  438ACOH    O212398   7.743   4.936   7.668 -0.8568 -0.2554  0.0865
  438ACOH    C212399   7.874   4.907   7.690 -0.0204  0.5147 -0.3571
  438ACOH    O112400   7.970   4.975   7.657  0.1808  0.1155 -0.0706
  438ACOH    C112401   7.888   4.765   7.736  0.5518  0.4888 -0.5550
  438ACOH    H112402   7.787   4.735   7.762  1.1658 -1.7100 -0.6046
  438ACOH    H212403   7.972   4.760   7.806  0.0340  1.4835  0.1584
  438ACOH    H312404   7.912   4.711   7.645 -1.5538  1.8476 -1.9460
  439ACOH    H412405   7.824   6.698   0.865 -2.6254 -0.5372  0.0807
  439ACOH    O212406   7.830   6.703   0.768 -0.1463  0.8390  0.2808
  439ACOH    C212407   7.923   6.615   0.730  0.7852  0.5956 -0.0417
  439ACOH    O112408   7.953   6.526   0.803  0.2760 -0.5405  0.5189
  439ACOH    C112409   7.940   6.608   0.578 -0.2673  0.2083 -0.2821
  439ACOH    H112410   7.848   6.633   0.526 -0.6865  1.8904  1.2513
  439ACOH    H212411   7.958   6.504   0.549  1.2105  0.3495  0.0563
  439ACOH    H312412   8.023   6.669   0.542  0.1851 -1.3158 -1.9095
  440ACOH    H412413   1.305   7.012   1.086  1.5441  0.0941 -0.1862
  440ACOH    O212414   1.279   7.081   1.150 -0.3581  0.0412 -0.8778
  440ACOH    C212415   1.367   7.106   1.245 -0.0291  0.1901  0.0668
  440ACOH    O112416   1.470   7.047   1.268 -0.4276 -0.3162 -0.5972
  440ACOH    C112417   1.326   7.231   1.307 -0.0979  0.2512  0.3660
  440ACOH    H112418   1.221   7.230   1.338 -0.4151 -2.2379 -0.6164
  440ACOH    H212419   1.340   7.310   1.233 -0.7128  0.0799  0.0606
  440ACOH    H312420   1.391   7.250   1.392  0.7024  1.4939 -0.5071
  441ACOH    H412421   0.143   5.378   7.284 -1.2488  0.3797  0.7051
  441ACOH    O212422   0.120   5.461   7.239  0.2178  0.4247  0.0132
  441ACOH    C212423   0.105   5.430   7.108 -0.0138 -0.1026 -0.5480
  441ACOH    O112424   0.111   5.318   7.053 -0.0929  0.0074  0.1536
  441ACOH    C112425   0.073   5.553   7.024 -0.1981 -0.0531  0.4724
  441ACOH    H112426  -0.013   5.603   7.069 -1.0740  0.5367 -1.7777
  441ACOH    H212427   0.045   5.530   6.921 -0.3503  1.9024  0.0674
  441ACOH    H312428   0.157   5.622   7.032 -0.0131 -0.3258  0.8729
  442ACOH    H412429   5.062   4.282   5.748  0.7204  1.0038  1.9976
  442ACOH    O212430   5.054   4.362   5.693  0.2913 -0.6832 -0.4998
  442ACOH    C212431   4.933   4.409   5.731 -0.8326  0.3522  0.2435
  442ACOH    O112432   4.850   4.351   5.792  0.4569  0.0960 -0.3056
  442ACOH    C112433   4.913   4.537   5.662 -0.1952  0.5618 -0.3753
  442ACOH    H112434   5.000   4.562   5.601  0.4209 -0.6132  0.0037
  442ACOH    H212435   4.909   4.610   5.742  1.5351 -0.4280  0.6301
  442ACOH    H312436   4.823   4.533   5.600  0.4827 -1.9313 -1.2459
  443ACOH    H412437   5.827   7.188   6.246 -0.2963  0.6053  0.8732
  443ACOH    O212438   5.756   7.123   6.258 -0.0257  0.0989 -0.2028
  443ACOH    C212439   5.658   7.186   6.328  0.1085 -0.3861  0.1966
  443ACOH    O112440   5.658   7.309   6.343  0.2441  0.4088 -0.7663
  443ACOH    C112441   5.548   7.099   6.378  0.1500 -0.4365  0.2633
  443ACOH    H112442   5.541   7.020   6.303  1.1218 -0.3336  0.0656
  443ACOH    H212443   5.452   7.147   6.397  1.5151  2.2049  0.5528
  443ACOH    H312444   5.577   7.045   6.468  0.7728 -0.1960  0.2065
  444ACOH    H412445   7.064   6.071   3.192  2.3329 -1.0370 -0.3303
  444ACOH    O212446   7.033   6.037   3.278 -0.2143  0.7453 -0.4875
  444ACOH    C212447   7.122   6.082   3.372 -0.4109  0.6519  0.3701
  444ACOH    O112448   7.237   6.107   3.340 -0.7039  0.0500 -0.7792
  444ACOH    C112449   7.079   6.043   3.506  0.1932  0.2199  0.3462
  444ACOH    H112450   7.124   6.107   3.582  2.4201  1.7954 -2.1996
  444ACOH    H212451   7.103   5.940   3.531  1.7708  0.9360  1.9298
  444ACOH    H312452   6.972   6.061   3.515  0.0674  0.6687 -1.8067
  445ACOH    H412453   4.969   2.318   2.006  0.1145  2.6269  1.5079
  445ACOH    O212454   5.056   2.287   2.037 -0.2534 -0.1210 -0.0708
  445ACOH    C212455   5.103   2.197   1.950  0.1667 -0.4849 -0.0356
  445ACOH    O112456   5.068   2.193   1.836 -0.1845  0.0761  0.0534
  445ACOH    C112457   5.234   2.148   2.010  0.2841 -0.6297  0.1800
  445ACOH    H112458   5.303   2.231   2.020 -0.6408 -0.0273  1.6617
  445ACOH    H212459   5.277   2.072   1.944 -0.6677 -1.3727  0.3957
  445ACOH    H312460   5.207   2.101   2.104  1.3205 -0.6248  0.4794
  446ACOH    H412461   4.834   4.284   6.969  0.8021  0.4356 -0.1965
  446ACOH    O212462   4.870   4.220   6.907 -0.1064 -0.1320 -0.1527
  446ACOH    C212463   4.976   4.166   6.972  0.0030 -0.1852 -0.2243
  446ACOH    O112464   5.045   4.226   7.051  0.7014 -0.2017 -0.3674
  446ACOH    C112465   5.021   4.035   6.916  0.2081  0.3052 -0.0484
  446ACOH    H112466   5.019   4.035   6.807  0.1761 -3.4495 -0.1152
  446ACOH    H212467   4.958   3.953   6.951 -0.2192  0.1657 -1.1317
  446ACOH    H312468   5.126   4.015   6.937 -0.2954 -2.2324  0.1623
  447ACOH    H412469   7.363   2.946   5.930 -0.1878  1.9544  1.9651
  447ACOH    O212470   7.333   3.023   5.879 -0.1108  0.3902 -0.5226
  447ACOH    C212471   7.205   3.041   5.919  0.8853  0.2259  0.0279
  447ACOH    O112472   7.147   2.953   5.980  0.7986 -0.3462  0.6716
  447ACOH    C112473   7.138   3.160   5.857 -0.2046 -0.3493  0.4689
  447ACOH    H112474   7.084   3.223   5.928 -0.5958 -1.4453  1.1500
  447ACOH    H212475   7.076   3.137   5.770  0.9461  1.8699 -0.9953
  447ACOH    H312476   7.211   3.230   5.815 -1.0983  0.1366 -0.3030
  448ACOH    H412477   5.546   8.788   1.421  1.2506  0.8647  1.2179
  448ACOH    O212478   5.519   8.747   1.504 -0.4708 -0.2453  0.1498
  448ACOH    C212479   5.636   8.704   1.550  0.1486  0.1054 -0.1957
  448ACOH    O112480   5.738   8.709   1.492 -0.2878  0.2200  0.1087
  448ACOH    C112481   5.627   8.668   1.692  0.1038 -0.0089  0.4291
  448ACOH    H112482   5.550   8.729   1.741  1.3098 -0.2290  2.6516
  448ACOH    H212483   5.719   8.680   1.749  0.4980 -1.9144  0.2102
  448ACOH    H312484   5.596   8.564   1.699 -0.3192  0.1214  0.5163
  449ACOH    H412485   2.358   9.372   5.048  0.4433 -0.1181  0.6496
  449ACOH    O212486   2.432   9.321   5.087  0.8798  0.1938  0.2419
  449ACOH    C212487   2.537   9.352   5.007  0.1080 -0.0421  0.2768
  449ACOH    O112488   2.534   9.439   4.923  0.3447  0.0005  0.0409
  449ACOH    C112489   2.666   9.301   5.058  0.3091 -0.0940 -0.3334
  449ACOH    H112490   2.707   9.360   5.140 -0.1170 -1.1117  0.6166
  449ACOH    H212491   2.743   9.292   4.981 -0.5057  0.3131 -1.2128
  449ACOH    H312492   2.652   9.204   5.104  1.1367  1.0205  2.3801
  450ACOH    H412493   5.998   7.127   3.359  1.1443  0.3561 -0.1886
  450ACOH    O212494   5.979   7.032   3.368  0.8222  0.3900 -0.4888
  450ACOH    C212495   6.040   6.986   3.479  0.0429  0.1100 -0.1674
  450ACOH    O112496   6.104   7.054   3.551 -0.1903 -0.1671 -0.0371
  450ACOH    C112497   5.995   6.848   3.520  0.2794 -0.9181 -0.0469
  450ACOH    H112498   5.940   6.811   3.433 -1.6191 -0.7755  1.0714
  450ACOH    H212499   5.937   6.843   3.612 -0.7764  1.3487 -0.5668
  450ACOH    H312500   6.091   6.796   3.529  1.0110  0.5424  0.7265
  451ACOH    H412501   5.925   1.349   3.891  0.6356 -0.6707 -0.0147
  451ACOH    O212502   5.856   1.298   3.846  0.0590 -0.0902  0.2025
  451ACOH    C212503   5.840   1.349   3.723  0.2250  0.7042  0.2677
  451ACOH    O112504   5.910   1.424   3.668 -0.1874  0.2527  0.1534
  451ACOH    C112505   5.721   1.290   3.657  0.2904  0.3068  0.5496
  451ACOH    H112506   5.723   1.184   3.682 -2.0350  0.0203 -0.3965
  451ACOH    H212507   5.706   1.302   3.549 -2.3715 -2.4764  0.5561
  451ACOH    H312508   5.633   1.335   3.702 -1.0886  0.5632 -2.2586
  452ACOH    H412509   6.626   8.325   1.968 -1.3252 -2.0081 -2.1447
  452ACOH    O212510   6.687   8.353   1.897  0.1001  0.3760 -0.0658
  452ACOH    C212511   6.629   8.462   1.845  0.2617 -0.0912  0.7513
  452ACOH    O112512   6.545   8.524   1.907  0.2288 -0.2347 -0.3114
  452ACOH    C112513   6.688   8.497   1.714  0.1094  0.3406 -0.2763
  452ACOH    H112514   6.651   8.421   1.645  2.7869 -0.2955 -1.0391
  452ACOH    H212515   6.795   8.483   1.722 -0.0074 -1.0516 -1.0193
  452ACOH    H312516   6.653   8.592   1.673 -0.0089  1.2427  1.8483
  453ACOH    H412517   4.948   5.068   7.131 -0.0879 -0.3428  0.7204
  453ACOH    O212518   5.019   5.134   7.129 -0.1573 -0.2896 -0.2572
  453ACOH    C212519   4.978   5.230   7.048  0.7034  0.4241 -0.0799
  453ACOH    O112520   4.875   5.236   6.978  0.2321 -0.0110 -0.1655
  453ACOH    C112521   5.076   5.333   7.023  0.0692 -0.2948  0.0965
  453ACOH    H112522   5.044   5.430   7.062 -0.1711 -0.6322  0.7516
  453ACOH    H212523   5.084   5.343   6.915 -0.9315 -0.0359  0.0340
  453ACOH    H312524   5.171   5.299   7.063 -0.5013 -0.1834  1.6120
  454ACOH    H412525   3.156   8.879   1.219 -2.7747  1.5826 -1.6937
  454ACOH    O212526   3.162   8.828   1.137  0.4480  0.0886 -0.6115
  454ACOH    C212527   3.043   8.758   1.139  0.0935 -0.3640 -0.0856
  454ACOH    O112528   2.948   8.777   1.214  0.3292  0.0176  0.2595
  454ACOH    C112529   3.052   8.646   1.042 -0.3064  0.9321 -0.8350
  454ACOH    H112530   2.994   8.563   1.083  0.0801  0.8002 -0.5494
  454ACOH    H212531   3.154   8.608   1.041 -1.1077 -1.2934 -0.9198
  454ACOH    H312532   3.026   8.674   0.940 -1.0274  0.5375 -0.7585
  455ACOH    H412533   6.598   7.310   7.807 -2.0441  0.2023  0.6277
  455ACOH    O212534   6.589   7.265   7.721 -0.0937  0.4219  0.2934
  455ACOH    C212535   6.505   7.162   7.731 -0.3783  0.0128  0.1946
  455ACOH    O112536   6.478   7.082   7.642  0.2087  0.2966 -0.3779
  455ACOH    C112537   6.440   7.157   7.865  0.8093  0.6650 -0.6354
  455ACOH    H112538   6.512   7.186   7.942 -0.7345 -1.4273  1.6793
  455ACOH    H212539   6.400   7.057   7.884 -3.7875  2.3054 -1.1623
  455ACOH    H312540   6.355   7.225   7.871 -0.4283 -0.8376 -0.8624
  456ACOH    H412541   7.656   5.411   6.005 -0.6044  0.2820  0.5720
  456ACOH    O212542   7.636   5.332   5.951 -0.3260  0.1553  0.6522
  456ACOH    C212543   7.702   5.229   6.003 -0.0501  0.5332 -0.5447
  456ACOH    O112544   7.788   5.235   6.091  0.0734  0.0806 -0.5394
  456ACOH    C112545   7.685   5.115   5.913 -0.1944  0.1418 -0.3508
  456ACOH    H112546   7.781   5.068   5.891 -0.9320 -1.2988 -0.5106
  456ACOH    H212547   7.638   5.151   5.821  0.1577 -0.0820 -0.6187
  456ACOH    H312548   7.629   5.033   5.958  0.8093  0.6643  1.8831
  457ACOH    H412549   5.571   5.149   2.501 -0.5129  0.2484 -0.8029
  457ACOH    O212550   5.477   5.123   2.503 -0.2294 -0.7601  0.4537
  457ACOH    C212551   5.434   5.133   2.627 -0.1337  0.1777 -0.0332
  457ACOH    O112552   5.493   5.173   2.723  0.3093 -0.4684 -0.4707
  457ACOH    C112553   5.285   5.116   2.635 -0.1088 -0.2175  0.4399
  457ACOH    H112554   5.242   5.089   2.538 -1.4477 -0.0432  0.9622
  457ACOH    H212555   5.237   5.212   2.657  1.5929  0.6214  0.5382
  457ACOH    H312556   5.256   5.039   2.707  0.0584 -1.7272 -1.0772
  458ACOH    H412557   2.590   1.586   3.654  0.8989  1.8438 -0.8055
  458ACOH    O212558   2.568   1.649   3.725 -0.0661  0.6865 -0.0582
  458ACOH    C212559   2.659   1.751   3.720  0.7462  0.7914  0.0207
  458ACOH    O112560   2.722   1.785   3.624 -0.4643  0.4766  0.4633
  458ACOH    C112561   2.648   1.842   3.837  0.5089  0.8263 -0.0848
  458ACOH    H112562   2.552   1.837   3.888  0.9221  0.0797  0.6362
  458ACOH    H212563   2.651   1.944   3.799  1.0476  0.3712 -1.2866
  458ACOH    H312564   2.731   1.828   3.907 -0.1241  1.0768  0.7247
  459ACOH    H412565   6.475   2.381   3.458 -0.3828  1.7198 -0.3238
  459ACOH    O212566   6.474   2.351   3.366 -0.0141  0.2802  0.1299
  459ACOH    C212567   6.440   2.223   3.356  0.4239 -0.9441 -0.1702
  459ACOH    O112568   6.453   2.138   3.443 -0.7934  0.5966 -0.6024
  459ACOH    C112569   6.408   2.186   3.219  0.7384 -0.4752 -0.2666
  459ACOH    H112570   6.375   2.274   3.164  0.5225 -1.4601 -1.7455
  459ACOH    H212571   6.332   2.107   3.218  0.4831 -0.2382 -2.9746
  459ACOH    H312572   6.493   2.137   3.172  1.1245 -0.5103  0.4723
  460ACOH    H412573   6.527   2.295   5.029 -2.5346  1.1821  0.9315
  460ACOH    O212574   6.564   2.297   5.118 -0.3803 -0.6068  0.1099
  460ACOH    C212575   6.656   2.192   5.133  0.1071 -0.7005  0.4834
  460ACOH    O112576   6.704   2.119   5.050  0.1550 -0.2338  0.2410
  460ACOH    C112577   6.712   2.184   5.263  0.1628  1.2846  0.2637
  460ACOH    H112578   6.744   2.081   5.275  0.5814  1.1255 -1.9111
  460ACOH    H212579   6.645   2.217   5.342  1.5081  0.4971  1.7536
  460ACOH    H312580   6.803   2.243   5.275  0.9330  0.1878 -0.1505
  461ACOH    H412581   4.326   5.480   5.036  1.2789  2.2843 -0.4385
  461ACOH    O212582   4.414   5.446   5.062  0.5581  0.3189 -0.4526
  461ACOH    C212583   4.487   5.559   5.033 -0.2599 -0.4132 -0.6415
  461ACOH    O112584   4.459   5.674   5.010 -0.2521  0.5497  0.0528
  461ACOH    C112585   4.621   5.520   5.072  0.2916 -0.0593  0.0618
  461ACOH    H112586   4.640   5.550   5.175 -0.0937 -3.9227  1.3471
  461ACOH    H212587   4.691   5.584   5.019  1.0285 -0.5473  0.4425
  461ACOH    H312588   4.635   5.413   5.056 -0.7235 -0.5517  2.2751
  462ACOH    H412589   8.070   7.716   0.482 -1.2198 -1.9360  0.6215
  462ACOH    O212590   8.098   7.691   0.392  0.2083 -0.2749  0.5664
  462ACOH    C212591   8.208   7.769   0.353 -0.4125  0.9431  0.0684
  462ACOH    O112592   8.276   7.846   0.418  0.8816  0.1664 -0.1389
  462ACOH    C112593   8.248   7.739   0.218  0.1734 -0.2385  0.7375
  462ACOH    H112594   8.169   7.790   0.164 -0.0712 -0.6449  0.7083
  462ACOH    H212595   8.246   7.631   0.202  2.0578 -0.3895  1.3567
  462ACOH    H312596   8.346   7.776   0.188 -0.1046  0.8866  1.2207
  463ACOH    H412597   6.990   8.113   5.925  1.6819 -1.0293 -0.3098
  463ACOH    O212598   6.932   8.088   5.999  0.5406  0.3954 -0.6947
  463ACOH    C212599   7.006   8.016   6.085  0.4359 -0.2540  0.1963
  463ACOH    O112600   7.124   8.017   6.088 -0.9642  0.5598 -0.0339
  463ACOH    C112601   6.919   7.946   6.182 -0.2291 -0.2214 -0.2429
  463ACOH    H112602   6.965   7.878   6.254  0.1036 -0.8650 -1.0591
  463ACOH    H212603   6.836   7.900   6.129 -1.0822  0.3946  0.5396
  463ACOH    H312604   6.876   8.031   6.236  0.8784  0.6958 -0.7774
  464ACOH    H412605   9.097   3.384   7.252 -0.8981 -0.1035 -1.3157
  464ACOH    O212606   9.046   3.424   7.324  0.3865 -0.0038 -0.4635
  464ACOH    C212607   9.114   3.397   7.438 -0.1432  0.0739 -1.7084
  464ACOH    O112608   9.210   3.323   7.458  0.3641 -0.3079 -0.3690
  464ACOH    C112609   9.056   3.455   7.563  0.6947 -0.0734  0.0833
  464ACOH    H112610   9.118   3.432   7.650  0.6824  0.7529  0.3160
  464ACOH    H212611   8.951   3.424   7.570  1.0796 -1.4995 -0.3256
  464ACOH    H312612   9.052   3.563   7.550 -0.1579 -0.3388 -2.0854
  465ACOH    H412613   6.977   7.081   3.242  0.7372  0.6497 -0.3587
  465ACOH    O212614   6.963   6.985   3.241 -0.1128  0.7778 -0.5339
  465ACOH    C212615   6.843   6.953   3.192 -0.1016 -0.3452 -0.3209
  465ACOH    O112616   6.760   7.039   3.168 -0.1501 -0.1351  0.0029
  465ACOH    C112617   6.806   6.812   3.160 -0.4010  0.8790 -0.3916
  465ACOH    H112618   6.738   6.761   3.229 -0.3901 -0.1499 -1.1224
  465ACOH    H212619   6.906   6.768   3.164  0.1468  1.9934 -1.5439
  465ACOH    H312620   6.774   6.803   3.057  0.6998 -1.3332 -0.5776
  466ACOH    H412621   7.440   7.886   1.437 -0.2293 -0.0613 -0.1893
  466ACOH    O212622   7.353   7.904   1.477 -0.3149 -0.2288 -0.3019
  466ACOH    C212623   7.293   7.787   1.501  0.4391 -0.1252 -0.6963
  466ACOH    O112624   7.343   7.679   1.473  0.3001  0.2360 -0.1113
  466ACOH    C112625   7.176   7.801   1.589  0.3750 -0.3309 -0.9218
  466ACOH    H112626   7.210   7.770   1.688 -0.6594 -0.0945 -0.4942
  466ACOH    H212627   7.096   7.733   1.559 -1.1882 -0.3597  3.1055
  466ACOH    H312628   7.149   7.907   1.589 -1.1282 -0.7129  0.3412
  467ACOH    H412629   7.964   4.805   4.924 -0.5678 -1.2395 -2.1927
  467ACOH    O212630   7.924   4.739   4.982 -0.4801 -0.1603 -0.8670
  467ACOH    C212631   7.986   4.622   4.958  0.6468  0.2503  0.7034
  467ACOH    O112632   8.069   4.600   4.875  0.8486  0.3062 -0.5356
  467ACOH    C112633   7.961   4.523   5.066  0.1085 -0.1999  0.2479
  467ACOH    H112634   7.995   4.576   5.155 -1.9887  1.1949  0.2528
  467ACOH    H212635   8.013   4.427   5.060  1.0535  0.3152  0.2270
  467ACOH    H312636   7.854   4.500   5.066  0.1913 -0.5901  0.3034
  468ACOH    H412637   2.623   6.479   3.349  1.9955 -0.8774  0.4280
  468ACOH    O212638   2.599   6.384   3.345  0.0080 -0.3763 -0.1443
  468ACOH    C212639   2.697   6.335   3.281  0.3604 -0.4498  0.4130
  468ACOH    O112640   2.800   6.393   3.241  0.1979 -0.0785 -0.3011
  468ACOH    C112641   2.689   6.189   3.283 -0.5427  0.7104  0.2801
  468ACOH    H112642   2.788   6.152   3.259 -0.6150 -1.0263  2.4607
  468ACOH    H212643   2.618   6.150   3.211  2.0801 -3.2544 -0.3119
  468ACOH    H312644   2.664   6.147   3.381 -0.4906 -0.4807 -0.2089
  469ACOH    H412645   1.268   3.564   7.121 -0.0728  1.7270 -0.9498
  469ACOH    O212646   1.265   3.601   7.211  0.2346 -0.1332 -0.1629
  469ACOH    C212647   1.307   3.730   7.213  0.7240  0.1605  0.6406
  469ACOH    O112648   1.341   3.794   7.114  0.4278  0.1964 -0.2224
  469ACOH    C112649   1.298   3.790   7.345 -0.6544  0.0485  0.1621
  469ACOH    H112650   1.315   3.897   7.346  0.1143 -0.0594  1.7754
  469ACOH    H212651   1.372   3.734   7.402 -2.2598 -2.7296 -0.3915
  469ACOH    H312652   1.202   3.762   7.389 -0.9485 -0.3236 -0.7075
  470ACOH    H412653   5.170   7.837   7.900 -0.8300  1.2610  1.4789
  470ACOH    O212654   5.260   7.867   7.921  0.3607 -0.5610 -0.7986
  470ACOH    C212655   5.262   7.991   7.880  0.4506 -0.9342 -0.1426
  470ACOH    O112656   5.167   8.046   7.830  0.3433 -0.2627  0.0166
  470ACOH    C112657   5.383   8.067   7.924  0.2681 -0.2540  0.2766
  470ACOH    H112658   5.394   8.055   8.031 -0.9255 -2.0910  0.2223
  470ACOH    H212659   5.368   8.171   7.897 -1.0801 -0.0053  1.8751
  470ACOH    H312660   5.468   8.016   7.877  0.0552 -0.7160  0.3833
  471ACOH    H412661   4.825   6.786   4.362 -1.1414  0.4459 -0.0678
  471ACOH    O212662   4.865   6.733   4.290  0.2707 -0.0423  1.0477
  471ACOH    C212663   4.917   6.810   4.192  0.8679  0.0577  0.3046
  471ACOH    O112664   4.934   6.927   4.210  0.5121  0.4472 -0.1823
  471ACOH    C112665   4.976   6.726   4.084 -0.0538 -0.6184 -0.5301
  471ACOH    H112666   5.067   6.772   4.045 -0.6907 -0.4943 -1.9080
  471ACOH    H212667   4.904   6.718   4.003 -2.6292  0.9965  1.5012
  471ACOH    H312668   5.002   6.628   4.124  3.4178  0.6910  0.6299
  472ACOH    H412669   6.046   2.793   2.236  0.7472 -1.1611  0.8668
  472ACOH    O212670   5.975   2.740   2.195  0.1845  0.0023  0.3063
  472ACOH    C212671   5.872   2.827   2.197  0.2024 -0.4944  0.2693
  472ACOH    O112672   5.878   2.948   2.173 -0.6345 -0.1155 -0.6889
  472ACOH    C112673   5.744   2.754   2.170  0.5129  0.0199 -0.9554
  472ACOH    H112674   5.682   2.811   2.101  0.7329  0.9903 -0.3563
  472ACOH    H212675   5.675   2.737   2.252  0.6766  0.2163 -0.7758
  472ACOH    H312676   5.751   2.650   2.140  2.7913  0.1171 -0.8678
  473ACOH    H412677   6.700   5.501   2.759  1.1698  0.9687 -1.4362
  473ACOH    O212678   6.718   5.580   2.812 -0.3670  0.5131 -0.2326
  473ACOH    C212679   6.855   5.599   2.804  0.1332 -0.6920  0.4667
  473ACOH    O112680   6.936   5.537   2.737  0.3174  0.4195 -0.5723
  473ACOH    C112681   6.890   5.736   2.860  0.1920 -0.4239  0.5942
  473ACOH    H112682   6.948   5.788   2.784  0.2980 -1.0317  0.2521
  473ACOH    H212683   6.949   5.731   2.951  0.3351  0.0362  0.5264
  473ACOH    H312684   6.795   5.787   2.872  1.1205  1.6059 -0.4955
  474ACOH    H412685   6.258   5.027   2.731  2.0945  0.8990 -2.0567
  474ACOH    O212686   6.246   5.120   2.757 -0.1439 -0.0143  0.5009
  474ACOH    C212687   6.331   5.128   2.864  0.2210  0.3307 -0.1757
  474ACOH    O112688   6.418   5.048   2.896  0.2333  0.2690  0.1873
  474ACOH    C112689   6.319   5.261   2.928 -0.6623 -0.1515 -0.3686
  474ACOH    H112690   6.341   5.271   3.034  0.7006  1.5262 -0.7743
  474ACOH    H212691   6.218   5.300   2.914 -0.4370  0.6111  0.0535
  474ACOH    H312692   6.387   5.329   2.875 -1.1661 -0.4877 -1.4430
  475ACOH    H412693   7.792   4.372   2.284 -0.8610 -0.6858 -0.4712
  475ACOH    O212694   7.830   4.354   2.196 -0.9145 -0.2033 -0.5978
  475ACOH    C212695   7.737   4.302   2.109 -0.0868 -0.3346  0.0897
  475ACOH    O112696   7.617   4.292   2.118  0.2314  0.2021 -0.2609
  475ACOH    C112697   7.811   4.241   1.990  0.7644  0.0930  1.2774
  475ACOH    H112698   7.902   4.188   2.017  0.9156 -0.3565 -0.0672
  475ACOH    H212699   7.845   4.327   1.932 -2.8984  0.9985  0.3288
  475ACOH    H312700   7.742   4.178   1.934  1.1747 -0.7803  1.7420
  476ACOH    H412701   6.770   3.093   2.565  1.0067 -1.7652  1.0209
  476ACOH    O212702   6.801   3.087   2.473 -0.4277  0.4620  0.3592
  476ACOH    C212703   6.832   2.955   2.460 -0.5755 -0.0156  0.2490
  476ACOH    O112704   6.889   2.893   2.552 -0.1600 -0.1153 -0.3877
  476ACOH    C112705   6.826   2.898   2.324  0.0572 -1.2135 -0.5672
  476ACOH    H112706   6.882   2.963   2.258 -2.0190  1.0557 -0.1544
  476ACOH    H212707   6.725   2.912   2.286  0.3327 -0.3170 -0.9772
  476ACOH    H312708   6.864   2.796   2.324  2.0760 -0.4916  1.1246
  477ACOH    H412709   5.429   5.979   2.426 -0.1377 -0.1881  0.7102
  477ACOH    O212710   5.460   5.993   2.517 -0.3840  0.5581  0.6876
  477ACOH    C212711   5.563   5.909   2.540 -0.0533  0.2717 -0.6085
  477ACOH    O112712   5.601   5.820   2.465 -0.0733  0.3697 -0.5547
  477ACOH    C112713   5.620   5.928   2.677  0.7232 -0.1931  0.0583
  477ACOH    H112714   5.542   5.892   2.744 -0.3630  0.0808 -1.0246
  477ACOH    H212715   5.638   6.034   2.693  0.4130 -0.2421  0.7494
  477ACOH    H312716   5.715   5.876   2.690  1.3951  0.8865 -0.5526
  478ACOH    H412717   7.165   5.421   7.558  0.2571  0.3719  1.4358
  478ACOH    O212718   7.075   5.399   7.588 -0.0740  0.2088  0.3225
  478ACOH    C212719   7.059   5.434   7.713  0.1426  0.6959  0.4393
  478ACOH    O112720   7.148   5.412   7.790  0.3136 -0.0343 -0.3808
  478ACOH    C112721   6.918   5.408   7.744 -0.8900  0.0642  0.0405
  478ACOH    H112722   6.905   5.396   7.852 -1.2822  1.2380  0.1220
  478ACOH    H212723   6.890   5.316   7.693  1.5696  0.8105 -2.7954
  478ACOH    H312724   6.863   5.495   7.709  1.1117  1.6682  0.7865
  479ACOH    H412725   4.692   7.121   4.884 -0.1646 -0.5557 -1.3322
  479ACOH    O212726   4.753   7.055   4.921  0.0975  0.1199 -0.5286
  479ACOH    C212727   4.773   6.957   4.835  0.2367  0.3998  1.0331
  479ACOH    O112728   4.690   6.929   4.749  0.0179 -0.1837  0.0226
  479ACOH    C112729   4.867   6.864   4.895 -0.6849  1.1952  0.3560
  479ACOH    H112730   4.799   6.800   4.951 -1.6718  0.9218 -1.0961
  479ACOH    H212731   4.935   6.918   4.961  0.6205 -0.6550  0.5612
  479ACOH    H312732   4.920   6.807   4.818 -0.4965  3.3641 -1.1819
  480ACOH    H412733   4.492   1.828   4.015  0.2805 -1.6611 -0.2313
  480ACOH    O212734   4.574   1.799   4.059  0.5238 -0.2925  0.2296
  480ACOH    C212735   4.566   1.665   4.057  0.4661 -0.2506  0.6146
  480ACOH    O112736   4.467   1.595   4.036 -0.4632  0.0590 -0.2263
  480ACOH    C112737   4.690   1.601   4.114  0.5976 -0.2155 -0.5030
  480ACOH    H112738   4.763   1.594   4.034  1.1445 -1.9192  0.1055
  480ACOH    H212739   4.665   1.497   4.134  1.7872 -0.4255 -0.1010
  480ACOH    H312740   4.728   1.665   4.194 -2.4527  1.7917 -0.5880
  481ACOH    H412741   7.681   5.472   5.100 -0.7618  0.4032  1.9575
  481ACOH    O212742   7.593   5.443   5.071  0.1388  0.0843 -0.5476
  481ACOH    C212743   7.505   5.518   5.146 -0.4793 -0.0173  0.0677
  481ACOH    O112744   7.536   5.569   5.253  0.3168 -0.1290  0.1696
  481ACOH    C112745   7.361   5.499   5.104  0.6363 -0.0791  0.6385
  481ACOH    H112746   7.316   5.578   5.043  1.2079  0.1042  0.4539
  481ACOH    H212747   7.302   5.484   5.194  2.4178  0.9780  2.0032
  481ACOH    H312748   7.354   5.409   5.043  0.8068  0.7655 -0.6604
  482ACOH    H412749   4.746   4.384   5.317  0.0541  0.9770  3.0613
  482ACOH    O212750   4.831   4.431   5.320  0.5742  0.3706 -0.2745
  482ACOH    C212751   4.930   4.338   5.322 -0.6867 -0.3264 -0.4096
  482ACOH    O112752   4.912   4.218   5.297 -0.9302 -0.7780  0.0398
  482ACOH    C112753   5.058   4.406   5.340  0.1058 -1.1457  0.4620
  482ACOH    H112754   5.054   4.515   5.340 -2.2739 -1.0947 -3.4380
  482ACOH    H212755   5.124   4.378   5.257 -1.9396 -2.7311 -0.7081
  482ACOH    H312756   5.101   4.372   5.434 -0.4991 -3.4311 -0.0615
  483ACOH    H412757   7.219   4.086   3.554  0.6903 -0.2467 -0.2343
  483ACOH    O212758   7.192   3.995   3.575 -0.1814 -0.2428 -1.3110
  483ACOH    C212759   7.155   3.937   3.466 -0.2102  0.0760 -0.4019
  483ACOH    O112760   7.179   3.981   3.354  0.6959 -0.5008 -0.4595
  483ACOH    C112761   7.098   3.805   3.487  1.0332  0.3317 -0.7414
  483ACOH    H112762   7.075   3.744   3.400  1.3210  0.9973 -1.2863
  483ACOH    H212763   7.002   3.811   3.539  2.5576  1.8514  2.0201
  483ACOH    H312764   7.159   3.747   3.557 -0.7955 -0.8773 -0.1092
  484ACOH    H412765   0.783   4.657   7.951  1.2251 -0.2361  1.0503
  484ACOH    O212766   0.777   4.699   8.039 -0.1343  0.7387  0.5034
  484ACOH    C212767   0.648   4.733   8.049 -0.3183  0.0698 -0.8491
  484ACOH    O112768   0.557   4.732   7.971  0.1011 -0.1457  0.3968
  484ACOH    C112769   0.643   4.778   8.194  0.2487  0.0813  0.3635
  484ACOH    H112770   0.718   4.854   8.215 -0.2747  0.6579  0.1573
  484ACOH    H212771   0.664   4.690   8.254  1.5007  0.3530  0.3317
  484ACOH    H312772   0.544   4.814   8.223  0.4763  0.1946  1.0032
  485ACOH    H412773   6.984   5.793   6.557  1.5474 -1.4889  0.7639
  485ACOH    O212774   7.029   5.807   6.472 -0.1082 -0.1386  0.0735
  485ACOH    C212775   6.927   5.802   6.382 -0.1009 -0.3390  0.1218
  485ACOH    O112776   6.808   5.767   6.399  0.5377  0.9221 -0.2200
  485ACOH    C112777   6.981   5.827   6.247 -0.8371  0.0494 -0.4187
  485ACOH    H112778   7.059   5.753   6.229 -0.2886  0.6688 -0.5977
  485ACOH    H212779   7.023   5.928   6.249 -1.1573  0.1708  0.3020
  485ACOH    H312780   6.900   5.826   6.174 -0.9849  0.6025 -0.2602
  486ACOH    H412781   7.794   3.602   6.096 -0.1767 -0.6247 -0.8425
  486ACOH    O212782   7.725   3.648   6.045 -0.0478  0.3555 -0.1284
  486ACOH    C212783   7.765   3.776   6.036  0.0130  0.2686  0.3993
  486ACOH    O112784   7.881   3.816   6.046 -0.1563 -0.2229 -0.2390
  486ACOH    C112785   7.655   3.847   5.964 -0.4133  0.0100 -0.1665
  486ACOH    H112786   7.557   3.800   5.972 -0.7573  0.6031 -0.8262
  486ACOH    H212787   7.678   3.857   5.858  1.5950 -1.1674  0.1296
  486ACOH    H312788   7.650   3.949   6.001 -0.2194  0.2730 -0.8525
  487ACOH    H412789   7.034   8.256   3.392  0.5124  0.9389 -0.4143
  487ACOH    O212790   6.990   8.308   3.323 -0.3223  0.7368 -0.0433
  487ACOH    C212791   6.880   8.370   3.366  0.0848 -1.0774  0.6375
  487ACOH    O112792   6.875   8.423   3.476  0.4791 -0.0982 -0.3657
  487ACOH    C112793   6.815   8.435   3.254  0.4653 -0.1456  0.1552
  487ACOH    H112794   6.832   8.383   3.159 -1.2014  1.2259 -0.9237
  487ACOH    H212795   6.844   8.540   3.246 -1.4103  0.5595  2.3270
  487ACOH    H312796   6.708   8.440   3.275  0.4685  3.1319 -0.3558
  488ACOH    H412797   7.494   6.813   1.191 -1.7362  0.1519  0.5233
  488ACOH    O212798   7.486   6.807   1.095  0.3388  0.2607  0.3231
  488ACOH    C212799   7.496   6.679   1.057  0.6400  0.6538 -0.0923
  488ACOH    O112800   7.489   6.585   1.133 -0.3802 -0.0690 -0.1146
  488ACOH    C112801   7.475   6.669   0.911  0.1583 -0.5983  0.3677
  488ACOH    H112802   7.474   6.769   0.868  2.5871 -0.8543 -0.3286
  488ACOH    H212803   7.382   6.627   0.871 -0.8141  1.5823  0.2590
  488ACOH    H312804   7.556   6.608   0.870 -0.2473 -0.4131 -0.7225
  489ACOH    H412805   7.602   1.306   2.791  0.5733  1.3307 -1.9520
  489ACOH    O212806   7.601   1.369   2.865 -0.6446  0.0610 -0.8347
  489ACOH    C212807   7.517   1.319   2.955 -0.6533  0.2576 -0.1594
  489ACOH    O112808   7.468   1.209   2.957  0.1577 -0.5946 -0.7271
  489ACOH    C112809   7.485   1.419   3.059  0.4282 -0.4940  0.0379
  489ACOH    H112810   7.539   1.412   3.153 -1.0176 -1.4621  0.8230
  489ACOH    H212811   7.384   1.392   3.091 -0.0321 -2.0626 -2.5558
  489ACOH    H312812   7.475   1.520   3.020  3.5491  0.6705  2.1220
  490ACOH    H412813   1.792   6.224   0.028 -1.3342  0.4430  0.8743
  490ACOH    O212814   1.789   6.246  -0.067  0.6053  0.0986  0.7190
  490ACOH    C212815   1.707   6.159  -0.133  0.0921  0.2090  0.2148
  490ACOH    O112816   1.676   6.050  -0.085 -0.0171 -0.3333 -0.4535
  490ACOH    C112817   1.681   6.206  -0.269 -0.4151 -0.8024  0.0391
  490ACOH    H112818   1.634   6.303  -0.276 -1.7199 -1.6035 -2.7523
  490ACOH    H212819   1.615   6.133  -0.316  1.0307 -1.9392 -0.3053
  490ACOH    H312820   1.774   6.216  -0.325 -0.1966  2.1960  0.8741
  491ACOH    H412821   4.129   8.203   7.408  0.3782  2.7416  0.1790
  491ACOH    O212822   4.207   8.179   7.461  0.0440  0.3907 -0.3206
  491ACOH    C212823   4.241   8.278   7.540 -0.2169 -1.5115  0.1513
  491ACOH    O112824   4.185   8.384   7.559 -0.7288 -0.1971  0.2184
  491ACOH    C112825   4.372   8.244   7.610  0.3745 -0.1479 -0.0234
  491ACOH    H112826   4.361   8.252   7.718 -0.6662  3.2628 -0.3445
  491ACOH    H212827   4.448   8.319   7.588 -1.2999  1.8231  0.7262
  491ACOH    H312828   4.409   8.144   7.585 -0.3156 -0.6436  0.8948
  492ACOH    H412829   3.920   1.026   1.831  2.1604  0.4873  0.9866
  492ACOH    O212830   3.935   1.102   1.772 -0.1210  0.1750 -0.0579
  492ACOH    C212831   3.904   1.074   1.648  0.9404 -0.0100  0.0167
  492ACOH    O112832   3.919   0.967   1.596  0.0496 -0.2059 -0.1076
  492ACOH    C112833   3.907   1.205   1.581  0.4137 -0.8047  0.1572
  492ACOH    H112834   3.990   1.260   1.625 -0.8419  1.2057  0.1023
  492ACOH    H212835   3.811   1.250   1.608  0.4715 -0.3134 -0.4376
  492ACOH    H312836   3.913   1.200   1.472  2.0643  1.3527  0.1183
  493ACOH    H412837   2.832   9.997   4.271 -0.4487 -0.9807  0.6391
  493ACOH    O212838   2.867  10.047   4.347 -0.1219 -0.4424  0.1335
  493ACOH    C212839   3.004  10.040   4.360  0.1158  0.3038  0.3537
  493ACOH    O112840   3.072   9.967   4.290  0.4923 -0.3436 -0.1913
  493ACOH    C112841   3.051  10.106   4.485 -0.0296  0.1871  0.0295
  493ACOH    H112842   3.087  10.026   4.551  1.3968  1.6393  1.0597
  493ACOH    H212843   2.969  10.162   4.529  0.2707  1.5516 -1.1115
  493ACOH    H312844   3.128  10.177   4.453 -1.0568  0.9034 -0.8589
  494ACOH    H412845   7.206   6.408   1.270 -1.3356 -1.8910  0.8765
  494ACOH    O212846   7.121   6.456   1.268 -0.5008 -0.4248 -0.2631
  494ACOH    C212847   7.037   6.364   1.214  0.4867  0.2502 -0.2457
  494ACOH    O112848   7.074   6.274   1.144  0.0026 -0.4754 -0.0724
  494ACOH    C112849   6.891   6.398   1.230  0.2150  0.6046  0.2655
  494ACOH    H112850   6.846   6.304   1.262  1.3660 -0.6767 -1.7699
  494ACOH    H212851   6.856   6.423   1.130 -1.1941  0.4166  0.7007
  494ACOH    H312852   6.861   6.475   1.302 -1.5687  1.4975 -1.3985
  495ACOH    H412853   9.301   0.365   3.031 -1.5395 -2.7040 -1.2211
  495ACOH    O212854   9.242   0.354   3.108  0.1515 -0.4488  0.4368
  495ACOH    C212855   9.166   0.244   3.089 -0.2123 -0.0834  0.4891
  495ACOH    O112856   9.204   0.140   3.040  0.2169  0.6364 -0.4616
  495ACOH    C112857   9.044   0.264   3.174 -0.8114  0.0271 -0.1125
  495ACOH    H112858   9.005   0.366   3.173 -2.3436 -0.5548 -0.8588
  495ACOH    H212859   9.078   0.240   3.274 -1.2886 -0.8053 -0.1453
  495ACOH    H312860   8.962   0.197   3.149 -2.5626  1.8016  0.7481
  496ACOH    H412861   5.056   8.432   0.799 -0.0285 -1.3416  0.1855
  496ACOH    O212862   5.041   8.427   0.704 -0.0283  0.3447  0.0701
  496ACOH    C212863   4.938   8.509   0.668  0.1346 -0.7162  0.2237
  496ACOH    O112864   4.904   8.618   0.713  0.3586 -0.1493 -0.3248
  496ACOH    C112865   4.883   8.463   0.543  0.1702 -0.5338  0.0720
  496ACOH    H112866   4.881   8.539   0.465 -1.0276 -0.1482  0.4743
  496ACOH    H212867   4.792   8.406   0.563  0.0751 -1.0393 -1.6846
  496ACOH    H312868   4.949   8.386   0.502  0.6716  0.3592 -0.7962
  497ACOH    H412869   7.668   9.635   3.708  1.4068 -0.6360  0.6357
  497ACOH    O212870   7.713   9.711   3.748  0.5202  0.1541  0.1642
  497ACOH    C212871   7.631   9.818   3.748  0.2928 -0.0374 -0.1815
  497ACOH    O112872   7.513   9.817   3.713 -0.4585  0.3455 -0.7849
  497ACOH    C112873   7.700   9.951   3.785 -0.2977 -0.0704 -0.1916
  497ACOH    H112874   7.797   9.950   3.735  0.0613 -0.7402  0.5019
  497ACOH    H212875   7.721   9.968   3.890  0.2131  0.3622 -0.3580
  497ACOH    H312876   7.643  10.038   3.751 -0.0332  0.5372  0.9021
  498ACOH    H412877   0.478   7.146   3.694 -2.0248 -0.9421  0.8336
  498ACOH    O212878   0.502   7.053   3.678  0.0520 -0.2531 -0.2232
  498ACOH    C212879   0.445   6.989   3.778 -0.4504 -0.3932 -0.2882
  498ACOH    O112880   0.434   7.031   3.892  1.1775  0.9503  0.1193
  498ACOH    C112881   0.431   6.846   3.736  0.0377 -0.5728 -1.4664
  498ACOH    H112882   0.405   6.836   3.630  0.4649  3.3386 -1.9842
  498ACOH    H212883   0.352   6.796   3.791  0.9828 -0.9140 -0.3871
  498ACOH    H312884   0.526   6.795   3.754 -0.6053 -0.7671  1.5318
  499ACOH    H412885   5.874   6.192   1.866 -0.7286 -1.2389  2.2485
  499ACOH    O212886   5.821   6.266   1.901 -0.6808  0.2306 -0.5762
  499ACOH    C212887   5.686   6.238   1.892 -0.6459 -0.5440 -0.9057
  499ACOH    O112888   5.630   6.136   1.847 -0.5691 -0.0617 -0.6489
  499ACOH    C112889   5.615   6.336   1.979 -0.5288  0.0311  0.1590
  499ACOH    H112890   5.508   6.319   1.981 -0.2968 -1.3623  1.6287
  499ACOH    H212891   5.631   6.438   1.945 -3.1690  0.8891  1.4102
  499ACOH    H312892   5.641   6.331   2.085  0.5917 -0.0073 -0.1087
  500ACOH    H412893   5.824   9.515   1.117  0.8387  1.2033 -2.3679
  500ACOH    O212894   5.914   9.479   1.117  0.2771 -0.2649 -0.5825
  500ACOH    C212895   6.008   9.569   1.071 -0.4004 -0.2145 -0.1121
  500ACOH    O112896   5.987   9.669   1.001 -0.2859  0.0201  0.2355
  500ACOH    C112897   6.150   9.522   1.107 -0.2636 -0.1511 -0.1412
  500ACOH    H112898   6.193   9.568   1.196 -2.5874 -1.0459  1.5049
  500ACOH    H212899   6.211   9.537   1.018  1.9760 -0.2838  1.3539
  500ACOH    H312900   6.151   9.413   1.104  0.0675 -0.1258 -1.6037
  501ACOH    H412901   0.665   7.705   5.736  1.1544  1.4785 -0.0997
  501ACOH    O212902   0.683   7.700   5.640  0.5153  0.8071 -0.1918
  501ACOH    C212903   0.761   7.803   5.604  0.1528 -0.2145  1.4932
  501ACOH    O112904   0.810   7.896   5.671  0.4984 -0.0534 -0.2202
  501ACOH    C112905   0.777   7.804   5.463 -0.5347 -0.0558  0.2730
  501ACOH    H112906   0.882   7.815   5.434  0.0120 -0.0656  2.2301
  501ACOH    H212907   0.709   7.877   5.417  0.2631  0.9499  0.6648
  501ACOH    H312908   0.744   7.712   5.416  0.1241 -1.3497  2.3181
  502ACOH    H412909   6.237   2.484   4.593  1.7257  2.7800 -1.2141
  502ACOH    O212910   6.206   2.551   4.656 -0.0117  0.7533  0.1701
  502ACOH    C212911   6.233   2.673   4.623 -0.2166 -0.0601  0.2948
  502ACOH    O112912   6.315   2.714   4.545 -0.7863  0.0791 -0.0250
  502ACOH    C112913   6.156   2.769   4.709 -0.5094  1.0355 -0.1337
  502ACOH    H112914   6.222   2.823   4.776 -0.0861  0.0243  0.2757
  502ACOH    H212915   6.077   2.713   4.758 -0.1587 -1.0117 -1.8424
  502ACOH    H312916   6.105   2.851   4.659  0.1386  1.2401 -0.4606
  503ACOH    H412917   7.778   9.689   0.429 -1.2720  1.2836  1.6702
  503ACOH    O212918   7.695   9.703   0.381 -0.5855  0.1212  0.1095
  503ACOH    C212919   7.625   9.792   0.455  0.7798  1.0068  0.1555
  503ACOH    O112920   7.660   9.839   0.561  0.1092 -0.0040  0.5757
  503ACOH    C112921   7.505   9.827   0.383  0.2825  0.0761 -0.4546
  503ACOH    H112922   7.525   9.886   0.294  0.9896 -2.2349 -1.8798
  503ACOH    H212923   7.443   9.883   0.453  0.1065 -1.0906  0.3344
  503ACOH    H312924   7.450   9.737   0.355  0.7223  0.5444 -2.8992
  504ACOH    H412925   3.071   8.558   7.711  2.3334 -0.4565 -1.0666
  504ACOH    O212926   3.077   8.645   7.754 -0.2624 -0.7936  0.0956
  504ACOH    C212927   3.020   8.742   7.678 -0.2915  0.8275 -0.0302
  504ACOH    O112928   2.973   8.737   7.565 -0.0549 -0.1031 -0.0966
  504ACOH    C112929   3.033   8.872   7.736 -0.0571  0.4469 -0.7006
  504ACOH    H112930   2.936   8.919   7.749 -1.3371 -2.1448 -0.4900
  504ACOH    H212931   3.101   8.929   7.673  1.7241 -0.2849  0.5175
  504ACOH    H312932   3.081   8.866   7.833 -1.6962 -1.1918  0.0446
  505ACOH    H412933   6.766   8.065   8.304  0.4572 -0.8275  2.1855
  505ACOH    O212934   6.706   7.994   8.275  0.3829  0.2218 -0.3611
  505ACOH    C212935   6.602   8.046   8.203 -0.1546  1.1213  0.6616
  505ACOH    O112936   6.603   8.151   8.140 -0.1784 -0.4512 -0.2774
  505ACOH    C112937   6.491   7.947   8.208 -0.4293  0.2676  1.2311
  505ACOH    H112938   6.504   7.900   8.306  0.6544 -0.3553  0.7993
  505ACOH    H212939   6.496   7.861   8.142 -0.6856  0.3706  1.0781
  505ACOH    H312940   6.396   8.000   8.216 -0.0631  0.4982  5.1107
  506ACOH    H412941   1.996   2.876   2.921 -1.3275  2.6203 -1.1428
  506ACOH    O212942   1.930   2.808   2.897  0.3719  0.5598 -0.1606
  506ACOH    C212943   1.810   2.873   2.897 -0.4304  0.9513  0.4228
  506ACOH    O112944   1.786   2.986   2.916 -0.2948  0.3396  0.1538
  506ACOH    C112945   1.703   2.771   2.865 -0.2429 -0.0924  0.3745
  506ACOH    H112946   1.644   2.799   2.779 -2.5602 -2.9774  0.9440
  506ACOH    H212947   1.641   2.749   2.952 -0.3279  0.7126  0.5195
  506ACOH    H312948   1.751   2.678   2.834 -0.2308 -0.7591  2.3333
  507ACOH    H412949   9.913   4.724   2.585 -0.3653 -0.8279 -0.7384
  507ACOH    O212950   9.956   4.774   2.514 -0.0073 -0.2674 -0.1225
  507ACOH    C212951  10.059   4.702   2.465 -0.1037  0.1923 -0.1740
  507ACOH    O112952  10.081   4.586   2.498  0.0593  0.1600  0.3749
  507ACOH    C112953  10.132   4.779   2.369 -0.2656 -0.5057  0.5216
  507ACOH    H112954  10.076   4.772   2.275 -1.3474  1.4517  0.9772
  507ACOH    H212955  10.237   4.755   2.354  0.3165  1.5305  1.1388
  507ACOH    H312956  10.128   4.884   2.399 -1.7536 -0.7771  1.3187
  508ACOH    H412957   8.846   6.924   7.807 -1.9978 -1.1324  0.8495
  508ACOH    O212958   8.907   6.878   7.867 -0.0715  0.4073  0.1247
  508ACOH    C212959   8.840   6.774   7.915 -0.0519 -0.0855  0.2545
  508ACOH    O112960   8.721   6.777   7.944  0.2982 -0.1408  0.7411
  508ACOH    C112961   8.928   6.668   7.975  0.1366  0.4447 -0.7087
  508ACOH    H112962   8.952   6.699   8.077 -0.9070  0.4056 -0.4467
  508ACOH    H212963   9.022   6.667   7.920 -0.4767 -1.7671 -1.7582
  508ACOH    H312964   8.881   6.570   7.968 -1.9644  1.4891 -1.6270
  509ACOH    H412965   5.260   8.630   6.809 -1.3745  0.6434  0.1606
  509ACOH    O212966   5.284   8.683   6.731  0.0597  0.1877  0.2802
  509ACOH    C212967   5.403   8.742   6.754 -0.4470  0.4765  0.7215
  509ACOH    O112968   5.457   8.750   6.860 -0.0019 -0.3768 -0.7964
  509ACOH    C112969   5.451   8.811   6.628  0.2576  0.3857  0.1937
  509ACOH    H112970   5.460   8.733   6.553  1.3347  1.2402 -0.5760
  509ACOH    H212971   5.541   8.871   6.637  0.6593 -0.3508  1.2168
  509ACOH    H312972   5.367   8.874   6.597 -1.1631 -0.6437  1.8434
  510ACOH    H412973   8.068   3.825   5.994  0.8010  1.3069 -0.6843
  510ACOH    O212974   8.159   3.795   5.975  0.3169 -0.2637 -0.5612
  510ACOH    C212975   8.234   3.858   6.072 -0.2570  0.2957 -0.0222
  510ACOH    O112976   8.189   3.909   6.174 -0.0302  0.6294 -0.3185
  510ACOH    C112977   8.379   3.862   6.054  0.0320  0.4266  0.0871
  510ACOH    H112978   8.420   3.796   6.130 -2.1559 -1.4290 -0.2695
  510ACOH    H212979   8.427   3.954   6.088  0.2743 -0.3469  1.8566
  510ACOH    H312980   8.408   3.822   5.957  1.5293  0.7968  0.3700
  511ACOH    H412981   2.826   2.545   8.028 -0.4220  0.6878  0.4020
  511ACOH    O212982   2.804   2.477   8.094  0.8313  0.4593  0.5896
  511ACOH    C212983   2.672   2.481   8.108 -0.3112 -0.3283 -0.7033
  511ACOH    O112984   2.594   2.525   8.025 -0.4447 -0.1329  0.3074
  511ACOH    C112985   2.628   2.395   8.222  0.1966  0.1371  0.0776
  511ACOH    H112986   2.686   2.303   8.215  0.8822  0.4285  1.7679
  511ACOH    H212987   2.521   2.376   8.229  0.6645 -1.5757  3.1346
  511ACOH    H312988   2.665   2.445   8.311  2.3315  2.7314 -2.1612
  512ACOH    H412989   9.793   6.123   0.079  0.8346 -0.7521 -0.1872
  512ACOH    O212990   9.732   6.084   0.014  0.0054 -0.1822  0.2366
  512ACOH    C212991   9.608   6.100   0.067 -0.6468 -0.3871 -0.8739
  512ACOH    O112992   9.580   6.127   0.182  0.0437  0.0260 -0.0253
  512ACOH    C112993   9.512   6.049  -0.035  0.7533 -0.2375  0.0462
  512ACOH    H112994   9.549   6.021  -0.133 -0.3475  1.5175 -0.8919
  512ACOH    H212995   9.445   6.133  -0.054  2.3821  0.6589 -1.8556
  512ACOH    H312996   9.442   5.976   0.007  0.9879 -0.3414  0.2598
  513ACOH    H412997   5.366   3.331   2.034  0.2671  0.4457  0.2810
  513ACOH    O212998   5.379   3.264   2.104 -0.2076 -0.1289 -0.1799
  513ACOH    C212999   5.512   3.263   2.118  0.2563  0.3056  0.1225
  513ACOH    O113000   5.596   3.338   2.072  0.2745 -0.1680 -0.2203
  513ACOH    C113001   5.558   3.169   2.230 -0.0198  0.2784 -0.1500
  513ACOH    H113002   5.483   3.092   2.244 -0.4434  0.8052  0.5193
  513ACOH    H213003   5.567   3.223   2.324  0.5518  0.2669 -0.1927
  513ACOH    H313004   5.649   3.116   2.203  0.4881  0.6058  0.8717
  514ACOH    H413005   5.654   0.343   1.158  0.2150  0.8850  0.1915
  514ACOH    O213006   5.666   0.325   1.064  0.3442 -0.3529  0.4299
  514ACOH    C213007   5.697   0.438   1.003  0.0967 -0.3529  0.0198
  514ACOH    O113008   5.723   0.548   1.056  0.8677  0.3066 -0.1607
  514ACOH    C113009   5.695   0.435   0.856  0.3104 -0.6954 -0.0381
  514ACOH    H113010   5.795   0.466   0.823  1.4185 -0.9443  2.8888
  514ACOH    H213011   5.626   0.508   0.814  1.0770 -0.7338 -1.4065
  514ACOH    H313012   5.671   0.337   0.816 -1.2742 -0.0705 -0.6379
  515ACOH    H413013   9.505   0.926   1.558  0.0455 -1.0058  0.3330
  515ACOH    O213014   9.600   0.936   1.579  0.0658  0.3935 -0.4029
  515ACOH    C213015   9.672   0.837   1.522  1.0443 -0.4094  0.1528
  515ACOH    O113016   9.632   0.734   1.466  0.6271 -0.4310  0.1179
  515ACOH    C113017   9.815   0.861   1.553  0.0644 -0.3479 -0.3625
  515ACOH    H113018   9.864   0.764   1.546 -1.0492 -1.0181  0.8172
  515ACOH    H213019   9.830   0.907   1.651  2.3687 -0.6757 -0.5297
  515ACOH    H313020   9.853   0.935   1.483  1.6976  0.8689  1.7520
  516ACOH    H413021   8.977   5.018   3.567 -0.5733 -0.5611 -3.4846
  516ACOH    O213022   9.041   4.945   3.558 -0.0308 -0.5673 -0.1102
  516ACOH    C213023   9.127   4.947   3.662 -0.3180 -0.2703  0.0389
  516ACOH    O113024   9.142   5.038   3.743  0.3804  0.1776  0.2583
  516ACOH    C113025   9.176   4.806   3.672 -0.1423  0.2270  0.5336
  516ACOH    H113026   9.252   4.802   3.750 -1.1511  2.2187  1.6451
  516ACOH    H213027   9.213   4.771   3.576  1.8801  2.0100  0.6378
  516ACOH    H313028   9.096   4.737   3.698  1.0008 -1.5316 -0.4705
  517ACOH    H413029   2.225   0.173   3.968  1.9192 -1.0091  1.6651
  517ACOH    O213030   2.165   0.186   4.043  0.6881  0.1170  0.4978
  517ACOH    C213031   2.232   0.146   4.153 -0.0552  0.2654  0.3361
  517ACOH    O113032   2.330   0.073   4.159 -0.0387  0.3099  0.3754
  517ACOH    C113033   2.185   0.240   4.260  0.9754 -0.5124  0.0217
  517ACOH    H113034   2.084   0.273   4.235  0.7608 -0.2391  1.1972
  517ACOH    H213035   2.247   0.328   4.270  0.9171 -0.4334 -0.3185
  517ACOH    H313036   2.188   0.188   4.356 -3.3133 -0.9954 -0.0127
  518ACOH    H413037   3.452   4.232   7.295 -0.7350  0.0337 -3.0416
  518ACOH    O213038   3.534   4.282   7.282 -0.1541 -0.0030  0.0884
  518ACOH    C213039   3.588   4.241   7.161 -0.3501  0.2710  0.8313
  518ACOH    O113040   3.575   4.129   7.123  0.3491 -0.7628  0.3168
  518ACOH    C113041   3.696   4.316   7.098  0.4584  0.2108 -0.3198
  518ACOH    H113042   3.715   4.416   7.137  3.3255  0.8405 -3.0910
  518ACOH    H213043   3.673   4.324   6.992 -0.1220 -0.4884 -0.2499
  518ACOH    H313044   3.794   4.268   7.107  0.9321  1.3079  0.4119
  519ACOH    H413045   4.596   3.295   2.767 -1.8565  0.8211  0.8885
  519ACOH    O213046   4.597   3.275   2.862  0.1393 -1.1866  0.4954
  519ACOH    C213047   4.517   3.170   2.879 -0.6690 -0.1553  0.0121
  519ACOH    O113048   4.452   3.116   2.796  0.5870 -0.7236 -0.2912
  519ACOH    C113049   4.519   3.122   3.018 -0.4106 -0.3147 -0.1933
  519ACOH    H113050   4.619   3.089   3.047 -1.1979 -1.7586  0.9623
  519ACOH    H213051   4.457   3.033   3.031 -0.7392 -0.0397  0.1288
  519ACOH    H313052   4.484   3.190   3.096 -3.0497 -0.8477 -0.8378
  520ACOH    H413053   7.964   8.016   4.595  1.3809  1.1470 -0.7410
  520ACOH    O213054   7.967   8.015   4.692 -0.3374 -0.2108 -0.6812
  520ACOH    C213055   7.840   7.974   4.733 -0.3894 -0.2259 -0.9161
  520ACOH    O113056   7.735   7.992   4.680  0.1372  0.4070  0.6186
  520ACOH    C113057   7.841   7.929   4.872  0.4001  0.1110 -1.0565
  520ACOH    H113058   7.778   7.841   4.882 -0.9786  1.1769 -0.3181
  520ACOH    H213059   7.800   8.009   4.933  1.3445  0.6825 -1.1528
  520ACOH    H313060   7.945   7.916   4.902 -0.1681 -0.9959  0.4928
  521ACOH    H413061   7.669   4.491   5.698 -0.7303 -0.5182  1.0298
  521ACOH    O213062   7.619   4.494   5.615  0.3977  0.2042  0.3652
  521ACOH    C213063   7.547   4.378   5.622 -0.8125  0.0545  0.1521
  521ACOH    O113064   7.575   4.276   5.679  0.1905 -0.0744  0.1365
  521ACOH    C113065   7.436   4.388   5.530  0.7958 -0.5657  0.2672
  521ACOH    H113066   7.451   4.311   5.454  1.4490 -0.0419 -0.1486
  521ACOH    H213067   7.421   4.486   5.485  0.5043 -1.6555 -2.0855
  521ACOH    H313068   7.345   4.367   5.585  2.3428  0.7537  3.4675
  522ACOH    H413069   6.974   6.943   2.881 -0.4095  0.2308 -0.5283
  522ACOH    O213070   6.982   6.848   2.859  0.3848  0.0554  0.4559
  522ACOH    C213071   6.894   6.841   2.756  0.7265 -0.1648  0.1158
  522ACOH    O113072   6.831   6.927   2.697  0.5294  0.2319  0.6389
  522ACOH    C113073   6.892   6.706   2.703 -0.1239 -0.1046  0.3772
  522ACOH    H113074   6.942   6.633   2.767  2.4847  0.0764 -1.3316
  522ACOH    H213075   6.941   6.698   2.605  1.2380 -1.3823  1.1359
  522ACOH    H313076   6.788   6.678   2.688  0.1103 -1.4487  1.1504
  523ACOH    H413077   5.592   6.513   1.346 -0.0366 -0.7425 -0.2109
  523ACOH    O213078   5.651   6.590   1.342 -0.1603 -0.6233  0.3817
  523ACOH    C213079   5.770   6.550   1.294  0.5170  0.3925  0.2049
  523ACOH    O113080   5.809   6.437   1.262  0.1113 -0.5587 -0.3394
  523ACOH    C113081   5.859   6.663   1.291 -0.4703  0.7365 -0.3299
  523ACOH    H113082   5.879   6.715   1.385  1.2662  0.5227 -0.5779
  523ACOH    H213083   5.808   6.738   1.231  0.2005  0.8274 -0.7850
  523ACOH    H313084   5.951   6.647   1.236 -0.6560  0.7001 -0.6331
  524ACOH    H413085   3.880   6.962   6.969  0.9709 -0.5985 -2.3227
  524ACOH    O213086   3.971   6.955   7.002  0.1659  0.2072  0.1700
  524ACOH    C213087   4.040   7.040   6.925 -1.1780 -0.4183 -0.1760
  524ACOH    O113088   3.994   7.109   6.833 -0.3576  0.5007  0.0298
  524ACOH    C113089   4.186   7.013   6.934  0.1228 -0.2312 -0.1982
  524ACOH    H113090   4.249   7.099   6.911 -2.2890  1.1829 -1.6779
  524ACOH    H213091   4.211   6.939   6.858 -0.7174 -0.5395 -0.1813
  524ACOH    H313092   4.226   6.968   7.025 -0.7725 -1.6695 -0.5061
  525ACOH    H413093   8.073   7.570   4.051 -2.0492  0.8193  1.2287
  525ACOH    O213094   8.116   7.558   4.138 -0.2444  0.2294  0.2878
  525ACOH    C213095   8.048   7.619   4.237  0.2549  0.1086  0.0485
  525ACOH    O113096   7.934   7.663   4.236 -0.0160 -0.1277 -0.2546
  525ACOH    C113097   8.124   7.614   4.361 -0.3020  0.3647 -0.2315
  525ACOH    H113098   8.229   7.599   4.337 -0.8114 -2.1549 -0.9569
  525ACOH    H213099   8.101   7.532   4.430 -0.4510  0.9357  0.4049
  525ACOH    H313100   8.119   7.714   4.404  1.9288  0.5570 -0.3689
  526ACOH    H413101   7.721   4.637   3.941  0.5602 -0.0597 -0.1507
  526ACOH    O213102   7.710   4.722   3.986  0.5093 -0.2305  0.1677
  526ACOH    C213103   7.634   4.694   4.092 -0.0978 -0.1443  0.6651
  526ACOH    O113104   7.591   4.583   4.122  0.4471  0.2900 -0.0120
  526ACOH    C113105   7.597   4.812   4.166  0.3581 -0.0343  0.3973
  526ACOH    H113106   7.530   4.790   4.248 -1.1879  0.5947 -0.6605
  526ACOH    H213107   7.550   4.884   4.098 -0.3749 -0.2016  0.7365
  526ACOH    H313108   7.688   4.859   4.205 -0.4155  2.1194 -0.2894
  527ACOH    H413109   7.053   8.226   1.798  0.9774 -1.5037  0.4498
  527ACOH    O213110   6.970   8.193   1.836 -0.0879 -0.0162 -0.5097
  527ACOH    C213111   6.965   8.057   1.838 -0.3080 -0.2505 -0.5308
  527ACOH    O113112   7.056   7.982   1.812 -0.0390 -0.7651  0.1335
  527ACOH    C113113   6.832   8.006   1.879  0.4529 -0.9472  0.3240
  527ACOH    H113114   6.802   7.924   1.815  1.1135  1.4187 -3.2009
  527ACOH    H213115   6.753   8.081   1.876  2.9261  1.7768  0.8185
  527ACOH    H313116   6.825   7.979   1.985 -0.0538 -0.7801  0.3375
  528ACOH    H413117   2.017   8.070   7.195 -1.2116  0.2092 -1.2824
  528ACOH    O213118   2.023   8.163   7.223 -0.2422 -0.3444  0.4178
  528ACOH    C213119   2.091   8.218   7.129  0.2583  0.3569 -0.2538
  528ACOH    O113120   2.140   8.174   7.025 -0.3262 -0.0505 -0.4011
  528ACOH    C113121   2.110   8.359   7.166  0.4877  0.3564  0.5863
  528ACOH    H113122   2.175   8.372   7.253  0.3640  1.6417  0.4970
  528ACOH    H213123   2.019   8.412   7.193  0.2284  0.3431 -0.2599
  528ACOH    H313124   2.162   8.409   7.084 -1.0093  0.6055 -0.2090
  529ACOH    H413125   5.155   1.734   4.272  0.2689 -1.2882 -2.5540
  529ACOH    O213126   5.105   1.804   4.226  0.0895  0.4131  0.1023
  529ACOH    C213127   5.033   1.744   4.123  0.0106 -0.1440 -0.0690
  529ACOH    O113128   5.035   1.627   4.091  0.1011  0.0368 -0.1477
  529ACOH    C113129   4.951   1.843   4.042 -0.2632 -0.4062  0.0465
  529ACOH    H113130   4.845   1.822   4.058 -0.1001 -0.3659  1.1855
  529ACOH    H213131   4.978   1.829   3.937  0.2020  0.4755  0.0393
  529ACOH    H313132   4.979   1.942   4.079 -1.1586  0.1575 -0.7531
  530ACOH    H413133   6.176   7.453   7.241  0.8049 -0.0447  0.1087
  530ACOH    O213134   6.160   7.361   7.215  0.1345  0.1008  0.0033
  530ACOH    C213135   6.025   7.333   7.220  0.7129 -0.2657  0.1656
  530ACOH    O113136   5.938   7.415   7.203  0.7327 -0.5051  0.4458
  530ACOH    C113137   5.998   7.189   7.199 -0.5265 -0.2821  0.1257
  530ACOH    H113138   5.976   7.135   7.291 -1.7477 -1.4067 -0.8053
  530ACOH    H213139   6.085   7.143   7.152  0.6750  0.5712  1.4604
  530ACOH    H313140   5.915   7.171   7.131 -1.1029 -0.4282  0.8604
  531ACOH    H413141   7.935   3.508   6.647 -0.3958 -0.5237  2.1305
  531ACOH    O213142   7.881   3.588   6.657  0.1721  0.1459  0.0263
  531ACOH    C213143   7.751   3.541   6.660  0.0391 -0.0186 -0.4450
  531ACOH    O113144   7.730   3.427   6.624  0.2378  0.3231  0.1070
  531ACOH    C113145   7.655   3.647   6.694 -0.6638 -0.8306  0.1826
  531ACOH    H113146   7.574   3.598   6.748  1.3333 -0.5589  3.5251
  531ACOH    H213147   7.613   3.682   6.599  1.3548 -0.0128 -0.4325
  531ACOH    H313148   7.686   3.734   6.752  2.3879 -1.3277 -0.6205
  532ACOH    H413149   7.236   2.703   6.355  3.5506  0.2242  0.8476
  532ACOH    O213150   7.209   2.736   6.442 -0.0791  0.2188 -0.1897
  532ACOH    C213151   7.186   2.624   6.513  0.0405 -0.0567 -0.2662
  532ACOH    O113152   7.157   2.511   6.472 -0.5313  0.4077 -0.0791
  532ACOH    C113153   7.185   2.669   6.659  0.1289 -0.1402  0.6329
  532ACOH    H113154   7.263   2.744   6.675 -0.4112  0.5726 -0.0177
  532ACOH    H213155   7.198   2.579   6.720 -0.8467 -0.2226  0.7326
  532ACOH    H313156   7.087   2.709   6.687 -0.4103  0.3234 -1.7724
  533ACOH    H413157   3.859   1.985   3.608 -1.2292 -1.6245 -0.0354
  533ACOH    O213158   3.893   1.936   3.685  0.3520  0.1944  0.4538
  533ACOH    C213159   4.002   1.874   3.633  0.2279  0.3492 -0.1283
  533ACOH    O113160   4.081   1.932   3.563 -0.3977 -0.3202  0.0366
  533ACOH    C113161   4.053   1.770   3.723  0.2590 -0.3339 -0.0509
  533ACOH    H113162   4.116   1.690   3.686 -0.8231  0.7309 -4.4648
  533ACOH    H213163   3.965   1.728   3.770 -1.3448  3.0441  0.1407
  533ACOH    H313164   4.107   1.821   3.804  1.1802 -2.0147  0.4222
  534ACOH    H413165   8.361   2.413   5.785 -2.9534 -1.1835 -1.1139
  534ACOH    O213166   8.393   2.433   5.695  0.2091  0.1354  0.2402
  534ACOH    C213167   8.455   2.322   5.657 -0.1762  0.5792 -0.2311
  534ACOH    O113168   8.506   2.244   5.732 -0.4553  0.3324  0.5709
  534ACOH    C113169   8.481   2.317   5.513 -0.8086  0.1254 -0.5005
  534ACOH    H113170   8.409   2.375   5.454 -1.9084 -1.0082 -0.2976
  534ACOH    H213171   8.466   2.214   5.481 -4.6541  0.5265 -0.2210
  534ACOH    H313172   8.584   2.349   5.496 -0.8098  0.4525  0.1035
  535ACOH    H413173   3.871   1.726   3.354  1.0598  3.1425  0.9761
  535ACOH    O213174   3.833   1.689   3.435  0.3991  0.3137 -0.5700
  535ACOH    C213175   3.698   1.691   3.418  0.0594  0.4867 -0.3902
  535ACOH    O113176   3.636   1.711   3.316  0.3717 -0.6755  0.0744
  535ACOH    C113177   3.624   1.659   3.542 -0.0446 -0.3943 -0.4620
  535ACOH    H113178   3.672   1.693   3.634 -2.0548  0.5810  0.2438
  535ACOH    H213179   3.626   1.550   3.546  0.2958 -0.3260  1.8559
  535ACOH    H313180   3.519   1.688   3.543 -0.4510 -1.8438 -0.3693
  536ACOH    H413181   1.920   8.592   1.347 -1.0322  0.7828  0.6626
  536ACOH    O213182   1.934   8.559   1.437  0.4715  0.4456  0.3211
  536ACOH    C213183   1.818   8.568   1.506  0.1259 -0.4096 -0.4415
  536ACOH    O113184   1.711   8.602   1.465  0.2891  0.3191 -0.2405
  536ACOH    C113185   1.842   8.550   1.653  0.2331  0.5335  0.6616
  536ACOH    H113186   1.776   8.475   1.696  1.8898 -0.4938  1.4599
  536ACOH    H213187   1.806   8.632   1.715 -1.3956 -0.4594  1.0509
  536ACOH    H313188   1.948   8.532   1.671  0.3271 -0.6025 -0.8728
  537ACOH    H413189   9.232   4.814   7.683 -1.1352  0.5875  1.7699
  537ACOH    O213190   9.240   4.719   7.701 -0.5437  0.1960 -0.4085
  537ACOH    C213191   9.123   4.656   7.686  0.3296 -0.2803 -1.0237
  537ACOH    O113192   9.016   4.700   7.657 -0.7914  0.2181 -0.2517
  537ACOH    C113193   9.136   4.506   7.694  0.0259  0.1567  0.3109
  537ACOH    H113194   9.055   4.468   7.757 -0.7542  0.2208 -0.6419
  537ACOH    H213195   9.232   4.482   7.740 -0.8885 -0.1203  2.1053
  537ACOH    H313196   9.133   4.462   7.594 -2.3856  2.1743 -0.5476
  538ACOH    H413197   3.237   5.883   5.755  1.3356  0.3071  0.7286
  538ACOH    O213198   3.208   5.974   5.740  0.2186 -0.1765 -0.1029
  538ACOH    C213199   3.284   6.019   5.636 -0.1781  0.5087  0.4312
  538ACOH    O113200   3.359   5.959   5.557  0.3193  0.1620  0.2353
  538ACOH    C113201   3.271   6.167   5.629  0.3130  0.0096  0.0750
  538ACOH    H113202   3.200   6.188   5.549  0.3883 -2.5752 -0.6891
  538ACOH    H213203   3.373   6.206   5.620  1.8515 -3.4709  1.3517
  538ACOH    H313204   3.220   6.203   5.718 -0.8260 -0.7462 -0.2673
  539ACOH    H413205   4.532   4.735   5.025 -2.2238 -1.0062  1.2790
  539ACOH    O213206   4.569   4.648   5.048  0.3996 -0.3857 -0.4022
  539ACOH    C213207   4.681   4.630   4.974 -0.0454 -0.5457  0.0581
  539ACOH    O113208   4.733   4.722   4.910 -0.1452 -0.4740  0.0463
  539ACOH    C113209   4.751   4.500   4.987  0.4223  0.1150 -0.3865
  539ACOH    H113210   4.852   4.519   5.023  0.7703 -0.4652 -1.0607
  539ACOH    H213211   4.766   4.456   4.889  1.4716  1.2711 -0.7614
  539ACOH    H313212   4.702   4.432   5.057  0.8361 -1.7135 -1.8377
  540ACOH    H413213   4.400   6.419   0.013 -1.6329  0.9933  0.8665
  540ACOH    O213214   4.392   6.474  -0.066 -0.0862 -0.3037 -0.2375
  540ACOH    C213215   4.494   6.428  -0.145 -0.2862 -0.0456 -0.7148
  540ACOH    O113216   4.547   6.317  -0.139 -0.4295 -0.3041 -0.0074
  540ACOH    C113217   4.523   6.523  -0.248  0.5302 -0.1286  0.0314
  540ACOH    H113218   4.439   6.528  -0.318  1.3481 -0.9726 -1.0434
  540ACOH    H213219   4.604   6.497  -0.317  0.1283 -2.0553  0.2803
  540ACOH    H313220   4.547   6.625  -0.217 -1.7860  0.4821 -0.0374
  541ACOH    H413221   5.450   6.846   3.122  1.3495  1.5015 -1.1309
  541ACOH    O213222   5.458   6.784   3.048 -0.9437 -0.4226  0.1641
  541ACOH    C213223   5.534   6.850   2.961  0.1430  0.8698  0.1504
  541ACOH    O113224   5.616   6.932   2.991  0.2170  0.3289 -0.9422
  541ACOH    C113225   5.510   6.803   2.825  0.5795  0.2787  0.2780
  541ACOH    H113226   5.545   6.873   2.748  2.1668 -1.5630 -0.7362
  541ACOH    H213227   5.403   6.795   2.805  0.7273 -0.0913 -0.3932
  541ACOH    H313228   5.561   6.707   2.812  2.4435  1.4182 -1.1974
  542ACOH    H413229   3.737   5.375   6.441 -1.2668  3.2897 -1.6355
  542ACOH    O213230   3.826   5.397   6.475 -0.9502 -0.1995  0.0112
  542ACOH    C213231   3.808   5.470   6.588  0.0201 -0.3178  0.1471
  542ACOH    O113232   3.750   5.432   6.687  0.4588 -0.0323 -0.7813
  542ACOH    C113233   3.900   5.595   6.585 -0.6797  0.7520  0.8518
  542ACOH    H113234   3.989   5.586   6.648  2.0778  1.0749 -2.8609
  542ACOH    H213235   3.845   5.679   6.628 -0.6150  1.5472 -0.5792
  542ACOH    H313236   3.931   5.615   6.483  3.7595  2.1323  2.3521
  543ACOH    H413237   0.524   2.637   0.985  1.1542  0.5847  2.3245
  543ACOH    O213238   0.549   2.723   0.947  0.1658 -0.1297 -0.0613
  543ACOH    C213239   0.593   2.799   1.051 -0.3171  0.1925  0.1972
  543ACOH    O113240   0.589   2.753   1.164  0.7392  0.5249  0.2280
  543ACOH    C113241   0.643   2.937   1.021  0.1389 -0.1742 -0.0724
  543ACOH    H113242   0.594   3.020   1.071  0.4993  1.4870 -2.4078
  543ACOH    H213243   0.643   2.956   0.913 -1.9351 -1.4633 -0.3127
  543ACOH    H313244   0.747   2.937   1.053  0.8696  1.9075 -2.2489
  544ACOH    H413245   3.403   7.135   1.747 -0.7802  0.2556 -1.4347
  544ACOH    O213246   3.464   7.111   1.674  0.3346 -0.1282 -0.3958
  544ACOH    C213247   3.390   7.084   1.564 -0.6145 -0.3757 -0.9075
  544ACOH    O113248   3.272   7.114   1.545 -0.5074 -0.1990 -0.5278
  544ACOH    C113249   3.466   7.020   1.459  0.1360 -0.1736  0.6930
  544ACOH    H113250   3.492   7.090   1.380 -0.7764 -0.7448 -0.1178
  544ACOH    H213251   3.406   6.937   1.422  0.5758 -0.0636 -0.2853
  544ACOH    H313252   3.559   6.979   1.497  2.1597  3.2847 -0.2915
  545ACOH    H413253   7.264   9.051   5.597  0.6072 -1.7377  1.7456
  545ACOH    O213254   7.232   9.112   5.665 -0.2601 -0.4863  0.2431
  545ACOH    C213255   7.180   9.216   5.603 -0.4111 -0.2615  0.4224
  545ACOH    O113256   7.181   9.227   5.478 -0.1263  0.2878 -0.8332
  545ACOH    C113257   7.122   9.309   5.708 -0.8213 -0.3711 -0.2441
  545ACOH    H113258   7.205   9.369   5.747 -1.4777 -0.8212  1.8449
  545ACOH    H213259   7.090   9.252   5.795  2.4791 -1.7133  0.1715
  545ACOH    H313260   7.044   9.376   5.670 -0.4643  0.6193  0.7197
  546ACOH    H413261   6.694   6.648   5.237 -0.3154  1.7265 -1.0187
  546ACOH    O213262   6.689   6.602   5.151  0.0090 -0.0086 -0.1281
  546ACOH    C213263   6.765   6.491   5.165 -0.1936 -1.1666 -0.9650
  546ACOH    O113264   6.834   6.465   5.260 -0.1077  0.3257  0.0286
  546ACOH    C113265   6.747   6.404   5.047  0.7096  0.5786  0.5847
  546ACOH    H113266   6.643   6.373   5.036  0.8778  0.3497 -0.4415
  546ACOH    H213267   6.818   6.323   5.065  1.8669  1.2632 -0.7703
  546ACOH    H313268   6.778   6.461   4.960 -1.0333  0.2950 -0.2410
  547ACOH    H413269   6.991   9.504   1.062 -1.1969 -1.0398  0.9201
  547ACOH    O213270   6.908   9.550   1.042 -0.5165 -0.3617 -0.4107
  547ACOH    C213271   6.809   9.493   1.116 -0.0251 -0.5172  0.0584
  547ACOH    O113272   6.826   9.446   1.228 -0.0681  0.0358  0.0358
  547ACOH    C113273   6.678   9.513   1.054  0.3980  0.1233 -0.0531
  547ACOH    H113274   6.597   9.522   1.125  0.7916 -2.1717  0.7318
  547ACOH    H213275   6.659   9.438   0.977  1.7646  1.6415 -1.9317
  547ACOH    H313276   6.678   9.611   1.006 -1.3529  0.4539  0.5896
  548ACOH    H413277   5.626   5.222   6.196 -0.6033  1.4043  0.0092
  548ACOH    O213278   5.709   5.214   6.146 -0.1781 -0.3176  0.9390
  548ACOH    C213279   5.730   5.086   6.122 -0.4454 -0.3585  0.5436
  548ACOH    O113280   5.634   5.011   6.110  0.0561  0.3118  0.5432
  548ACOH    C113281   5.857   5.058   6.046 -0.0317  0.8837 -0.3049
  548ACOH    H113282   5.841   5.024   5.944  0.2262  0.5425 -0.2339
  548ACOH    H213283   5.899   4.979   6.109  1.5258  0.7442 -1.4724
  548ACOH    H313284   5.918   5.149   6.056  0.5336  0.4869 -0.1270
  549ACOH    H413285   1.036   0.452   9.977 -0.5224  0.2840  1.5568
  549ACOH    O213286   1.027   0.548   9.964  0.5383  0.1399 -0.6305
  549ACOH    C213287   1.133   0.626   9.978 -0.3858 -0.4571  0.2057
  549ACOH    O113288   1.248   0.594   9.972 -0.1033 -0.7279 -0.7396
  549ACOH    C113289   1.094   0.771   9.996  0.1124 -0.9662  0.0191
  549ACOH    H113290   1.016   0.795   9.923 -1.1629 -1.1407  1.3058
  549ACOH    H213291   1.190   0.819   9.979  1.1011 -2.5119  1.0347
  549ACOH    H313292   1.045   0.785  10.092 -0.0305  0.0094 -0.1902
  550ACOH    H413293   6.283   3.500  10.034  1.9481 -0.9942 -0.2384
  550ACOH    O213294   6.237   3.428   9.987 -0.1967  0.1620  0.0270
  550ACOH    C213295   6.116   3.483   9.952 -0.3111  0.1321 -0.5867
  550ACOH    O113296   6.073   3.594   9.970 -0.1579 -0.0604  0.2992
  550ACOH    C113297   6.034   3.377   9.886  0.4009  0.3794  0.4224
  550ACOH    H113298   6.095   3.316   9.819  0.5122 -0.0318  0.8988
  550ACOH    H213299   5.956   3.421   9.824 -1.0307 -1.2725  1.0530
  550ACOH    H313300   5.991   3.313   9.963 -0.6601 -0.8446 -1.1647
  551ACOH    H413301   5.772   1.234   0.456 -1.2681 -4.1223 -0.2762
  551ACOH    O213302   5.862   1.224   0.419 -0.4669 -0.0757  0.3666
  551ACOH    C213303   5.911   1.112   0.471  0.1051  0.2671 -0.4858
  551ACOH    O113304   5.859   1.033   0.546 -0.0897  0.6305 -0.5904
  551ACOH    C113305   6.045   1.084   0.417  0.3090  0.1065 -0.4568
  551ACOH    H113306   6.116   1.122   0.490 -0.2740 -1.3200  0.8794
  551ACOH    H213307   6.053   1.125   0.316 -1.0146  0.4376 -0.4438
  551ACOH    H313308   6.058   0.976   0.406 -1.5140 -0.1405 -0.4327
  552SOL     OW13309   1.709   1.731   6.951 -0.5877  0.1048  0.2879
  552SOL    HW113310   1.625   1.715   6.899 -0.3321  1.5564 -0.5771
  552SOL    HW213311   1.702   1.817   7.001  0.0033 -0.2564  1.0058
  553SOL     OW13312   4.147   4.292   4.881  0.1115 -0.1607  0.5159
  553SOL    HW113313   4.170   4.312   4.977  0.2181  0.6593  0.3220
  553SOL    HW213314   4.199   4.353   4.822 -2.1491  1.3325  0.0382
  554SOL     OW13315   2.225   4.823   2.603  0.1545 -0.3194  0.6756
  554SOL    HW113316   2.308   4.839   2.551 -0.1224 -1.4358 -0.1386
  554SOL    HW213317   2.216   4.725   2.622  0.0119  0.0092  2.4261
  555SOL     OW13318   7.747   9.252   1.687  0.0141  0.3428 -0.5765
  555SOL    HW113319   7.824   9.270   1.747 -0.5399 -2.1214  0.9772
  555SOL    HW213320   7.766   9.171   1.632 -1.2187  0.0435 -0.5838
  556SOL     OW13321   1.988   6.492   4.989 -0.3974  0.0734  0.4561
  556SOL    HW113322   1.986   6.503   5.088 -1.0240  0.4349  0.4073
  556SOL    HW213323   2.064   6.433   4.963 -1.2994 -1.5015  1.3017
  557SOL     OW13324   4.636   6.336   0.595  0.2551 -0.4673 -0.3928
  557SOL    HW113325   4.689   6.253   0.583  1.1597 -0.3637  2.4409
  557SOL    HW213326   4.646   6.369   0.689 -2.9369  0.8761 -0.4357
  558SOL     OW13327   6.618   1.631   7.280  0.0608 -0.3057 -0.0853
  558SOL    HW113328   6.598   1.729   7.285 -0.4811 -0.3749 -0.8237
  558SOL    HW213329   6.533   1.581   7.262  0.3598 -0.8997  0.1535
  559SOL     OW13330   2.531   9.677   3.206 -0.5687 -0.2611 -0.1523
  559SOL    HW113331   2.431   9.684   3.205 -0.5689 -0.1122 -1.7686
  559SOL    HW213332   2.571   9.768   3.194 -0.2961 -0.5814 -1.8765
  560SOL     OW13333   5.389   0.841   7.370  0.1446 -0.1492  0.7248
  560SOL    HW113334   5.428   0.916   7.316 -1.3926  0.6422  0.6709
  560SOL    HW213335   5.437   0.756   7.349  0.4407  0.3958 -0.9117
  561SOL     OW13336   3.709   5.570   4.871  0.7310  0.2156 -0.4582
  561SOL    HW113337   3.629   5.510   4.867 -1.0893  2.2387  3.1193
  561SOL    HW213338   3.746   5.570   4.964  3.8772  0.6163 -1.6692
  562SOL     OW13339   9.338   3.088   7.302 -0.1799 -0.5851 -0.2403
  562SOL    HW113340   9.374   3.130   7.385  1.8214  0.2042 -1.4742
  562SOL    HW213341   9.362   3.144   7.223 -4.2706  0.0293 -1.1547
  563SOL     OW13342   0.164   2.404   5.381  0.0072 -0.3333 -0.2406
  563SOL    HW113343   0.113   2.462   5.319 -0.9733 -2.9377 -1.9438
  563SOL    HW213344   0.125   2.410   5.473 -1.1271  0.3984 -0.7697
  564SOL     OW13345   2.043   8.167   2.545 -0.2255  0.3168 -0.4292
  564SOL    HW113346   1.986   8.241   2.509 -0.5159  0.5398  0.4649
  564SOL    HW213347   2.138   8.184   2.522 -0.2348  1.2113  0.1608
  565SOL     OW13348   4.277   6.621   2.432 -0.1265  0.0910 -0.0037
  565SOL    HW113349   4.283   6.537   2.487  0.0925  0.4397  0.5028
  565SOL    HW213350   4.332   6.610   2.349 -0.7130 -0.5580 -0.3163
  566SOL     OW13351   4.307   4.532   3.286  0.2954  0.5839 -0.0287
  566SOL    HW113352   4.331   4.616   3.334  0.1450  0.2929  0.5548
  566SOL    HW213353   4.383   4.504   3.227  0.7536  0.5589  0.5669
  567SOL     OW13354   1.709   3.346   2.064  0.5287  0.0628 -0.2649
  567SOL    HW113355   1.803   3.356   2.030  0.7101  1.4788  0.6162
  567SOL    HW213356   1.679   3.432   2.106 -0.1289 -1.2286  2.0068
  568SOL     OW13357   6.333   1.613   1.160 -0.2300  0.6518 -0.0260
  568SOL    HW113358   6.284   1.627   1.074 -1.0623  2.1952  0.6984
  568SOL    HW213359   6.405   1.682   1.170  0.5260 -0.1352  0.0521
  569SOL     OW13360   1.907   2.273   6.867  0.0716 -0.0458  0.2441
  569SOL    HW113361   1.936   2.187   6.908 -1.1556 -0.2461  0.7194
  569SOL    HW213362   1.987   2.329   6.846  0.8164 -0.8275  0.9823
  570SOL     OW13363   4.061   5.847   4.692  0.2073  0.7358 -0.2301
  570SOL    HW113364   3.984   5.857   4.755  0.2879 -0.8278  0.1488
  570SOL    HW213365   4.143   5.822   4.743  0.6465  1.0537 -0.7752
  571SOL     OW13366   1.040   9.622   7.603 -0.1880  0.0173 -0.3535
  571SOL    HW113367   0.960   9.678   7.624 -0.1768 -0.3339  0.6671
  571SOL    HW213368   1.123   9.671   7.632  0.0158  0.6010 -1.8757
  572SOL     OW13369   9.139   5.074   0.102 -0.2768  0.1331 -0.0706
  572SOL    HW113370   9.179   5.008   0.038  0.9269  0.7261  0.0601
  572SOL    HW213371   9.159   5.047   0.196 -1.1905 -0.1935  0.0399
  573SOL     OW13372   9.016   9.740   3.236 -0.1733 -0.2758  0.7657
  573SOL    HW113373   9.033   9.673   3.309 -1.8518 -0.1524  1.2893
  573SOL    HW213374   9.037   9.832   3.269  1.7662 -0.4979  0.1707
  574SOL     OW13375   2.064   0.535   3.890  0.2032  0.2550  0.2437
  574SOL    HW113376   1.967   0.557   3.877  0.2312 -0.3259 -1.0065
  574SOL    HW213377   2.080   0.440   3.862  0.9898  0.1085  1.1773
  575SOL     OW13378   0.251   8.963   4.086 -0.3740  0.3019  0.0542
  575SOL    HW113379   0.169   9.021   4.080  0.1101  1.0124  0.2305
  575SOL    HW213380   0.293   8.956   3.996 -1.8887 -1.9418 -0.5350
  576SOL     OW13381   9.866   7.082   7.467 -0.2246 -0.2937  0.3385
  576SOL    HW113382   9.957   7.046   7.449  0.5882  2.0954 -0.5459
  576SOL    HW213383   9.814   7.088   7.382 -0.4885  0.2067  0.5289
  577SOL     OW13384   0.482   8.221   3.085 -0.8164 -0.1604 -0.4782
  577SOL    HW113385   0.523   8.310   3.104  0.1099 -1.1181  2.2636
  577SOL    HW213386   0.436   8.187   3.167  1.0134 -3.2927 -0.6598
  578SOL     OW13387   1.412   1.015   2.943  0.1987  0.1365  0.0958
  578SOL    HW113388   1.436   1.077   2.869 -0.3752  0.0415 -0.1717
  578SOL    HW213389   1.403   1.066   3.028  3.0920 -0.0600  0.5917
  579SOL     OW13390   3.436   1.281   1.913  0.0958 -0.0715 -0.6876
  579SOL    HW113391   3.425   1.222   1.993 -2.1900 -1.1727 -1.7581
  579SOL    HW213392   3.522   1.259   1.867  0.6429 -0.5572  0.5518
  580SOL     OW13393   6.722   4.328   0.013  0.1969  0.4971  0.0779
  580SOL    HW113394   6.788   4.316   0.087  1.0184 -0.7757 -0.8671
  580SOL    HW213395   6.630   4.338   0.053  1.0067  2.9911  1.4171
  581SOL     OW13396   6.769   1.579   4.557  0.2838 -0.3762 -0.0535
  581SOL    HW113397   6.759   1.569   4.459  0.9307 -1.5952  0.0004
  581SOL    HW213398   6.852   1.533   4.588  0.8389  1.1924  0.8694
  582SOL     OW13399   2.419   3.233   2.961  0.3100 -0.4614 -0.2992
  582SOL    HW113400   2.401   3.167   2.888  0.8567 -1.3686  0.3803
  582SOL    HW213401   2.361   3.314   2.948  1.2193 -0.0943 -2.3996
  583SOL     OW13402   7.749   3.773   0.346  0.1153 -0.3048 -0.2938
  583SOL    HW113403   7.666   3.719   0.332 -0.1514  0.6040 -2.4166
  583SOL    HW213404   7.736   3.834   0.424 -0.5130 -1.5003  0.5479
  584SOL     OW13405   3.927   0.406   3.729  0.1258 -0.5903  0.1950
  584SOL    HW113406   3.918   0.482   3.794  1.4201 -0.2887  0.0365
  584SOL    HW213407   3.859   0.336   3.750  1.5235 -1.2169  2.8902
  585SOL     OW13408   2.030   7.436   4.023 -0.1021  0.3474  0.2331
  585SOL    HW113409   1.931   7.430   4.035 -0.1149  1.8687  1.0889
  585SOL    HW213410   2.050   7.488   3.939 -0.0564  1.8842  1.1714
  586SOL     OW13411   1.097   8.168   5.769  0.2034 -0.0372 -0.1143
  586SOL    HW113412   1.147   8.098   5.820 -0.1003 -0.4359 -0.3697
  586SOL    HW213413   1.084   8.248   5.828  0.0833 -0.3944  0.3504
  587SOL     OW13414   7.512   5.821   6.910  0.2845 -0.1958 -0.0928
  587SOL    HW113415   7.451   5.806   6.833 -1.9598  1.0232  1.4104
  587SOL    HW213416   7.589   5.878   6.881 -0.2047 -0.2698 -1.5623
  588SOL     OW13417   3.293   4.020   0.397 -0.6235  0.3720 -0.2268
  588SOL    HW113418   3.386   4.057   0.392 -1.1753  1.8744  0.3791
  588SOL    HW213419   3.263   4.017   0.492 -0.8226 -1.1024 -0.3200
  589SOL     OW13420   9.649   3.218   1.811  0.4414  0.0501 -0.4333
  589SOL    HW113421   9.715   3.145   1.793  2.3763  1.4304  0.9736
  589SOL    HW213422   9.565   3.178   1.848  0.5847 -1.6837 -1.9129
  590SOL     OW13423   3.400   2.802   4.491 -0.4726 -0.4360 -0.2161
  590SOL    HW113424   3.347   2.735   4.543  1.3000 -0.6046  1.4212
  590SOL    HW213425   3.383   2.893   4.528  0.6450 -0.5342  0.5702
  591SOL     OW13426   9.250   1.468   7.342 -0.0079 -0.4165  0.1828
  591SOL    HW113427   9.162   1.498   7.305 -0.1890 -1.3960 -0.2096
  591SOL    HW213428   9.236   1.384   7.395  0.8402 -1.1193 -0.6943
  592SOL     OW13429   1.468   3.471   5.882 -0.3734 -0.4986  0.5552
  592SOL    HW113430   1.378   3.483   5.840  1.4615 -0.0337 -3.4750
  592SOL    HW213431   1.510   3.560   5.898 -0.9503 -0.6808  3.3103
  593SOL     OW13432   1.973   9.666   3.464  0.1741  0.1714 -0.5754
  593SOL    HW113433   2.071   9.656   3.482  0.2270  1.2803 -0.2396
  593SOL    HW213434   1.937   9.580   3.428  1.2019 -0.3480 -0.3757
  594SOL     OW13435   9.679   9.071   6.582 -0.0203  0.8432 -0.0166
  594SOL    HW113436   9.628   8.997   6.625  1.2000 -1.1024 -1.7902
  594SOL    HW213437   9.700   9.141   6.649  0.6643 -1.4461  2.2422
  595SOL     OW13438   7.238   0.576   1.396  0.2524  0.2517 -0.4597
  595SOL    HW113439   7.325   0.528   1.379 -0.8645 -1.4933 -1.3844
  595SOL    HW213440   7.173   0.554   1.324 -1.0581  1.3216  0.3757
  596SOL     OW13441   0.105   6.917   7.447 -0.1227  0.0287 -0.1588
  596SOL    HW113442   0.186   6.875   7.406 -0.7221 -1.2641 -0.0738
  596SOL    HW213443   0.032   6.849   7.451 -2.3972  2.1325 -3.5454
  597SOL     OW13444   1.086   3.935   4.321 -0.4227 -0.1008  0.0463
  597SOL    HW113445   1.014   4.003   4.305  1.6227  1.5410 -2.5852
  597SOL    HW213446   1.163   3.979   4.366 -0.0441 -1.2441  0.5185
  598SOL     OW13447   0.986   2.521   4.489  0.0109  0.2453 -0.2773
  598SOL    HW113448   0.942   2.539   4.577 -0.2306  1.3881 -0.6266
  598SOL    HW213449   0.937   2.570   4.417  0.5435 -0.2411 -0.9741
  599SOL     OW13450   2.205   3.952   6.249 -0.3618 -0.4756 -0.1030
  599SOL    HW113451   2.146   3.876   6.223 -1.5938  0.2490  0.5117
  599SOL    HW213452   2.182   4.033   6.194 -1.2811  0.3569  1.4669
  600SOL     OW13453   1.595   6.434   0.912  0.2455  0.3366  0.2265
  600SOL    HW113454   1.632   6.349   0.951 -1.1749 -0.8288 -0.9286
  600SOL    HW213455   1.574   6.497   0.987 -2.9936 -2.1008  1.5158
  601SOL     OW13456   4.068   8.654   5.889  0.5899  0.1153 -0.2434
  601SOL    HW113457   3.998   8.672   5.959  1.7071  1.6125  0.5318
  601SOL    HW213458   4.159   8.669   5.929  1.2921 -0.3560 -1.6498
  602SOL     OW13459   1.995   4.215   0.470 -0.0090  0.9234  0.3435
  602SOL    HW113460   2.051   4.152   0.525  0.5921  2.0981  1.1050
  602SOL    HW213461   2.045   4.301   0.458  0.1586  0.4880 -2.5917
  603SOL     OW13462   0.354   1.126   6.784  0.2767 -0.2775  0.1281
  603SOL    HW113463   0.422   1.184   6.828  1.2247 -0.2640 -1.3218
  603SOL    HW213464   0.356   1.035   6.827 -0.7191  0.5267  1.9209
  604SOL     OW13465   1.681   0.619   6.305  0.2539  0.4170  0.2843
  604SOL    HW113466   1.589   0.591   6.333 -0.4768  1.9884 -0.4723
  604SOL    HW213467   1.674   0.677   6.224  1.8542  1.2998  0.7743
  605SOL     OW13468   4.789   4.652   9.943  0.7447 -0.0946 -0.3841
  605SOL    HW113469   4.858   4.684  10.008 -1.4158  1.9324  0.9463
  605SOL    HW213470   4.789   4.711   9.862  1.4120 -0.8626 -0.9572
  606SOL     OW13471   8.388   7.173   1.150  0.4275 -0.1269 -0.1581
  606SOL    HW113472   8.458   7.146   1.217  1.2002 -1.1752 -1.3620
  606SOL    HW213473   8.361   7.267   1.167 -0.7446 -0.9132  2.7872
  607SOL     OW13474   2.407   9.250   6.609  0.1539  0.5171  0.0610
  607SOL    HW113475   2.327   9.267   6.553  0.0232 -0.3358 -0.0223
  607SOL    HW213476   2.443   9.158   6.590 -0.2531 -0.0270  1.7910
  608SOL     OW13477   6.538   8.427   5.729  0.5726  0.0363  0.0613
  608SOL    HW113478   6.538   8.520   5.767  0.5621  0.5961 -1.2502
  608SOL    HW213479   6.617   8.417   5.668  2.5449 -1.9656  2.8414
  609SOL     OW13480   8.081   7.787   7.377  0.1026 -0.1908 -0.4525
  609SOL    HW113481   8.081   7.887   7.376 -0.9030 -0.1816 -0.5502
  609SOL    HW213482   8.125   7.752   7.294 -0.4235  0.1788 -0.8892
  610SOL     OW13483   8.951   0.478   1.830  0.0490 -0.3220  0.6920
  610SOL    HW113484   8.870   0.523   1.793  1.5732  0.9203 -1.1956
  610SOL    HW213485   8.926   0.387   1.865 -1.6930 -1.0404 -2.2798
  611SOL     OW13486   4.695   3.267   0.417  0.6456  0.2836 -0.3487
  611SOL    HW113487   4.643   3.255   0.333  0.1394 -1.2047  0.1579
  611SOL    HW213488   4.725   3.178   0.450  1.7463  0.9530  0.4790
  612SOL     OW13489   4.417   6.537   1.542 -0.5912  0.7311  0.1331
  612SOL    HW113490   4.384   6.508   1.631 -1.2126 -1.5315 -0.7745
  612SOL    HW213491   4.504   6.585   1.552 -0.5773  0.3558  1.9399
  613SOL     OW13492   9.438   4.589   0.537  0.0765  0.0094  0.0499
  613SOL    HW113493   9.476   4.655   0.472  1.9519  0.4230  1.5156
  613SOL    HW213494   9.513   4.547   0.588 -1.1169 -2.8741 -0.4748
  614SOL     OW13495   4.520   6.327   1.866  0.5592  0.5629 -0.2385
  614SOL    HW113496   4.579   6.342   1.786 -1.0999 -1.2063 -1.8304
  614SOL    HW213497   4.496   6.230   1.873 -0.8241  0.9929  1.3534
  615SOL     OW13498   1.220   2.883   4.220 -0.2220 -0.1786 -0.3029
  615SOL    HW113499   1.200   2.855   4.314 -0.8323 -0.5973 -0.5554
  615SOL    HW213500   1.285   2.960   4.221 -1.4050  0.8326  0.5095
  616SOL     OW13501   7.158   7.218   6.124  0.4361 -0.7354  0.0871
  616SOL    HW113502   7.198   7.264   6.203 -0.0092 -0.7395  0.3181
  616SOL    HW213503   7.205   7.248   6.040 -0.4593  0.8588  0.1345
  617SOL     OW13504   9.297   6.879   3.047  0.2613  0.0996  0.0064
  617SOL    HW113505   9.214   6.844   3.003 -0.5564  1.1014  0.7090
  617SOL    HW213506   9.371   6.882   2.981 -0.7688  0.9440 -1.1437
  618SOL     OW13507   7.855   8.980   3.035 -0.7727  0.1587 -0.7053
  618SOL    HW113508   7.954   8.983   3.029 -0.8729  0.9412 -2.3480
  618SOL    HW213509   7.821   8.898   2.989 -0.8710 -0.2274  0.0580
  619SOL     OW13510   0.242   9.922   4.290  0.0170 -0.4839  0.0221
  619SOL    HW113511   0.149   9.902   4.322  0.3524 -0.5028  1.0077
  619SOL    HW213512   0.282   9.994   4.347  0.8292 -0.8988 -0.0259
  620SOL     OW13513   7.810   5.361   1.444  0.0837 -0.3124 -0.1848
  620SOL    HW113514   7.842   5.267   1.439  2.1056  0.3789 -0.7061
  620SOL    HW213515   7.831   5.398   1.535 -3.3247 -1.2395  1.0571
  621SOL     OW13516   9.763   2.660   7.117 -0.5633 -0.7107  0.5349
  621SOL    HW113517   9.837   2.632   7.056 -1.0871 -0.8388 -0.0479
  621SOL    HW213518   9.802   2.695   7.202  0.2392  0.8408 -0.4369
  622SOL     OW13519   9.743   7.836   3.978 -0.0406  0.0626 -0.7158
  622SOL    HW113520   9.693   7.915   3.941 -1.1203  0.1500  0.8999
  622SOL    HW213521   9.756   7.768   3.905 -2.2412  0.1916 -1.2765
  623SOL     OW13522   1.604   9.469  10.067  0.4695 -0.1289  0.3336
  623SOL    HW113523   1.653   9.406  10.127  0.6472  0.7849  1.1733
  623SOL    HW213524   1.669   9.535  10.029  0.1849 -0.0451 -0.0093
  624SOL     OW13525   7.843   6.030   7.054  0.8986  0.8701  0.2771
  624SOL    HW113526   7.858   5.996   6.961 -0.0451 -0.2835  0.5430
  624SOL    HW213527   7.794   6.117   7.050 -1.5385 -0.4756 -0.2395
  625SOL     OW13528   2.063   9.732   6.609  0.2266  0.0731  0.6037
  625SOL    HW113529   1.984   9.789   6.633  0.7620  1.1612 -0.1777
  625SOL    HW213530   2.144   9.789   6.603  0.9594 -0.9460  0.7791
  626SOL     OW13531   2.196   8.538   2.685 -0.3214 -0.0332  0.0797
  626SOL    HW113532   2.159   8.558   2.595 -3.5374  2.4161  1.8788
  626SOL    HW213533   2.143   8.464   2.728  0.2931 -0.2048  0.5652
  627SOL     OW13534   4.747   4.895   3.493  0.6624 -0.0633 -0.2409
  627SOL    HW113535   4.651   4.902   3.464  0.7920  0.3221 -0.5911
  627SOL    HW213536   4.795   4.978   3.467  1.3470 -0.6951 -1.0299
  628SOL     OW13537   1.722   0.143  10.065 -1.0043  0.1389 -0.2105
  628SOL    HW113538   1.663   0.169   9.988  0.2069  0.2592 -1.1228
  628SOL    HW213539   1.691   0.189  10.148 -0.9178  1.8486 -1.1158
  629SOL     OW13540   7.478   3.394   0.540  0.4722  0.3158  0.1239
  629SOL    HW113541   7.501   3.375   0.445  0.4393  0.0381  0.1704
  629SOL    HW213542   7.386   3.433   0.545 -0.0667 -0.9158  0.1488
  630SOL     OW13543   9.204   5.037   5.770 -0.2959 -0.1947  0.4434
  630SOL    HW113544   9.163   4.949   5.791 -2.0204  0.0575 -1.7727
  630SOL    HW213545   9.156   5.080   5.693  1.3496  2.0799  0.6194
  631SOL     OW13546   2.824   4.112   3.110 -0.1290 -0.0022 -0.7716
  631SOL    HW113547   2.780   4.125   3.199  1.6395 -1.4365  0.3515
  631SOL    HW213548   2.796   4.186   3.049 -2.8295 -0.0185  0.3659
  632SOL     OW13549   0.572   6.109   6.856  0.4405 -0.0655  0.1009
  632SOL    HW113550   0.591   6.055   6.774  1.9818 -1.2776  1.2205
  632SOL    HW213551   0.586   6.206   6.836  1.7300 -0.4256 -0.8275
  633SOL     OW13552   5.877   0.779   3.354 -1.1300  0.2524 -0.4264
  633SOL    HW113553   5.842   0.686   3.339  0.1773 -0.1045 -1.3441
  633SOL    HW213554   5.885   0.826   3.267  2.4643 -0.3407 -0.5139
  634SOL     OW13555   8.835   2.451   6.759  0.0972  0.3158  0.0758
  634SOL    HW113556   8.749   2.456   6.809 -0.7217  0.2195 -1.3130
  634SOL    HW213557   8.900   2.516   6.797 -0.0054 -0.8022  2.2317
  635SOL     OW13558   0.241   6.805   5.118 -0.2043 -0.4918  0.1079
  635SOL    HW113559   0.304   6.759   5.055 -1.7536 -0.7022 -1.2975
  635SOL    HW213560   0.162   6.747   5.134 -0.7532  0.4133  0.7143
  636SOL     OW13561   8.817   3.174   0.116  0.2023 -0.0513  0.1012
  636SOL    HW113562   8.912   3.141   0.118 -0.1750 -1.1870 -0.3512
  636SOL    HW213563   8.770   3.146   0.200  0.1512  0.1816  0.1514
  637SOL     OW13564   3.546   8.288   7.161 -0.2317  0.9338  0.3310
  637SOL    HW113565   3.539   8.205   7.217 -1.4436  1.0801  0.4028
  637SOL    HW213566   3.622   8.278   7.097 -1.1410 -0.7443 -0.5153
  638SOL     OW13567   9.980   6.961   3.293  0.4687 -0.2204 -0.5344
  638SOL    HW113568   9.976   7.059   3.272  0.8567  0.3201  1.7757
  638SOL    HW213569   9.889   6.921   3.283  0.0264  0.6785 -0.2002
  639SOL     OW13570   4.755   9.550   7.794 -0.0741  0.8885  0.4541
  639SOL    HW113571   4.836   9.498   7.766 -2.2757 -2.5428  0.0556
  639SOL    HW213572   4.746   9.547   7.893  0.1078  0.9043  0.4699
  640SOL     OW13573   7.736   0.685   7.790 -0.4797  0.4181 -0.0181
  640SOL    HW113574   7.645   0.714   7.823  0.4519  2.7125  0.6433
  640SOL    HW213575   7.765   0.604   7.841 -1.9326 -0.0276  0.1287
  641SOL     OW13576   9.314   3.283   5.801  0.2473  0.1938 -0.1042
  641SOL    HW113577   9.360   3.358   5.847 -0.1767 -0.3801  1.2820
  641SOL    HW213578   9.379   3.208   5.787 -0.5888 -1.3075  3.4105
  642SOL     OW13579   2.509   8.764   4.096  0.6409 -0.1709 -0.1404
  642SOL    HW113580   2.597   8.784   4.139  0.4229  2.9811 -1.0376
  642SOL    HW213581   2.515   8.784   3.999 -0.6028 -1.6058 -0.5262
  643SOL     OW13582   7.640   2.265   3.479 -0.0518 -0.3021 -0.8978
  643SOL    HW113583   7.715   2.209   3.514 -0.9236 -1.0154 -0.1452
  643SOL    HW213584   7.637   2.352   3.529 -0.2957 -0.6587 -0.2757
  644SOL     OW13585   9.911   0.495   3.553  0.5640  0.3767  0.0451
  644SOL    HW113586   9.883   0.575   3.501 -0.1495 -0.9139 -1.6075
  644SOL    HW213587   9.844   0.421   3.539  1.9066 -0.9505  0.4740
  645SOL     OW13588   5.554   0.947   2.491  0.3333  0.3728  0.0068
  645SOL    HW113589   5.511   1.036   2.507  0.6732  0.3309  1.2597
  645SOL    HW213590   5.653   0.954   2.507  0.7343  0.3416 -2.3280
  646SOL     OW13591   2.288   1.582   7.043  0.3316  0.2650 -0.0196
  646SOL    HW113592   2.353   1.540   6.979 -0.1433  1.4396 -1.2887
  646SOL    HW213593   2.199   1.540   7.033 -0.1143  1.4461 -1.2055
  647SOL     OW13594   7.538   8.560   6.651  0.3503 -0.0224  0.0085
  647SOL    HW113595   7.508   8.654   6.667  1.3693  0.5207 -1.2101
  647SOL    HW213596   7.520   8.535   6.556 -0.5424 -1.3015  0.5021
  648SOL     OW13597   9.930   1.973   5.307 -0.0690 -0.1545  0.1154
  648SOL    HW113598   9.985   1.938   5.231 -0.5007 -0.5420 -0.0225
  648SOL    HW213599   9.987   1.984   5.388  0.0393 -1.3162  0.2016
  649SOL     OW13600   1.042   2.224   5.987 -0.5497  0.4522 -0.5652
  649SOL    HW113601   0.980   2.146   5.980 -1.2919  1.0347 -0.6123
  649SOL    HW213602   0.990   2.306   6.013  0.1432  1.0292 -0.9709
  650SOL     OW13603   3.540   5.684   0.201  0.1391 -0.0216 -0.0637
  650SOL    HW113604   3.559   5.588   0.221 -1.1262 -0.7446 -2.0478
  650SOL    HW213605   3.625   5.734   0.187  0.8105 -0.8009  1.2206
  651SOL     OW13606   4.762   0.316   4.826 -0.1799  0.2288 -0.1598
  651SOL    HW113607   4.771   0.393   4.764 -1.6999 -0.3788 -1.1550
  651SOL    HW213608   4.678   0.266   4.806  0.4453 -1.3000  0.9000
  652SOL     OW13609   2.925   1.936   5.398  0.0074  0.1954  0.1250
  652SOL    HW113610   2.926   1.875   5.319 -1.9830  0.5980 -0.2357
  652SOL    HW213611   2.977   2.019   5.377 -0.8470  0.4780 -0.9043
  653SOL     OW13612   1.703   8.345   4.780  0.0243  0.3550  0.0870
  653SOL    HW113613   1.792   8.363   4.821  0.9382 -2.2054 -0.7282
  653SOL    HW213614   1.713   8.334   4.681 -1.1524 -0.2145  0.0179
  654SOL     OW13615   1.585   2.656   5.841  0.1579 -0.0487  0.2856
  654SOL    HW113616   1.544   2.567   5.821 -0.9287  0.8657 -1.6664
  654SOL    HW213617   1.520   2.710   5.895  0.5259 -0.1548  0.8406
  655SOL     OW13618   7.835   9.016   1.572 -0.0654  0.2692  0.2207
  655SOL    HW113619   7.767   8.942   1.575  0.5389 -0.3118 -0.1434
  655SOL    HW213620   7.909   8.990   1.510  0.6356  0.7743  0.8414
  656SOL     OW13621   5.857   7.451   4.165  0.0124  0.2455  0.0037
  656SOL    HW113622   5.831   7.355   4.178  1.6600 -0.2844 -0.4684
  656SOL    HW213623   5.786   7.499   4.115 -1.2737 -0.4810  1.0981
  657SOL     OW13624   6.011   8.427   4.063 -0.1408  0.1591 -0.0257
  657SOL    HW113625   5.978   8.335   4.040  1.4038  0.0216 -1.7754
  657SOL    HW213626   6.053   8.425   4.154 -1.1565 -0.5835  0.4426
  658SOL     OW13627   1.631   0.594   3.121  0.1159 -0.3317  0.0269
  658SOL    HW113628   1.594   0.501   3.130  0.6675 -0.4999  0.5737
  658SOL    HW213629   1.557   0.660   3.132 -0.6014 -0.7446 -2.1277
  659SOL     OW13630   7.234   0.540   7.296  0.3131 -0.2491  0.0300
  659SOL    HW113631   7.304   0.509   7.361 -1.3363 -3.7112  0.2689
  659SOL    HW213632   7.277   0.557   7.207  1.8678  0.1469  0.8435
  660SOL     OW13633   6.065   1.399   6.817  0.4501  0.5686  0.0263
  660SOL    HW113634   6.073   1.362   6.909  0.5429 -0.6925 -0.4871
  660SOL    HW213635   5.970   1.396   6.787  0.3960  1.1240  0.1430
  661SOL     OW13636   8.842   8.119   3.378 -0.8234 -0.0837 -0.1120
  661SOL    HW113637   8.891   8.032   3.378  1.3304  0.9675 -4.6640
  661SOL    HW213638   8.745   8.103   3.361 -0.5018 -1.6326 -0.5734
  662SOL     OW13639   6.360   3.935   2.062 -0.2568 -0.1659  0.5046
  662SOL    HW113640   6.323   3.844   2.045 -0.4877  0.1100 -0.5160
  662SOL    HW213641   6.406   3.937   2.151 -0.2575 -1.2691  0.5294
  663SOL     OW13642   6.133   7.313   5.193  0.1543 -0.4810  0.5262
  663SOL    HW113643   6.091   7.252   5.125 -1.3631  1.3095 -0.1837
  663SOL    HW213644   6.147   7.403   5.152 -0.9406  0.6823  2.6369
  664SOL     OW13645   3.303   3.677   2.057 -0.0002  0.3893  0.7804
  664SOL    HW113646   3.277   3.769   2.086 -1.5200  0.2872 -0.2060
  664SOL    HW213647   3.320   3.677   1.958 -0.8211 -0.5708  0.6400
  665SOL     OW13648   2.737   2.058   2.347 -0.1592 -0.0251 -0.7327
  665SOL    HW113649   2.837   2.067   2.341  0.0325 -1.0549  0.6182
  665SOL    HW213650   2.696   2.083   2.259  1.2152  1.2882 -1.0251
  666SOL     OW13651   2.925   2.525   5.985 -0.6054  0.4545 -0.3367
  666SOL    HW113652   2.914   2.609   5.932 -1.8746  0.6605  0.2229
  666SOL    HW213653   2.978   2.543   6.068 -0.4546  0.5898 -0.4636
  667SOL     OW13654   9.596   4.423   6.260  0.3902 -0.0266  0.1319
  667SOL    HW113655   9.501   4.394   6.244  0.3152  0.7455 -0.8616
  667SOL    HW213656   9.643   4.353   6.314 -0.7157 -0.4583  0.5599
  668SOL     OW13657   9.294   5.772   2.330 -0.1014  0.1997  0.7986
  668SOL    HW113658   9.215   5.830   2.351  0.5411  1.5853 -0.4723
  668SOL    HW213659   9.265   5.695   2.274 -0.7144  0.1388  1.1915
  669SOL     OW13660   3.380   1.673   5.038  0.4477 -0.3811 -0.7593
  669SOL    HW113661   3.395   1.646   4.943 -0.5268 -0.1384 -0.9824
  669SOL    HW213662   3.458   1.727   5.070  0.0744  0.8594 -1.9160
  670SOL     OW13663   5.955   0.254   5.120  0.3561  0.4958  0.2724
  670SOL    HW113664   5.995   0.272   5.210  0.2501  1.1149  0.2009
  670SOL    HW213665   6.027   0.257   5.051  0.7120 -1.6003  0.5182
  671SOL     OW13666   2.384   5.052   7.349  0.3798  0.2268 -0.2680
  671SOL    HW113667   2.290   5.061   7.383  1.4509  0.6949  2.6963
  671SOL    HW213668   2.427   5.142   7.345  1.0734 -0.1117 -0.5645
  672SOL     OW13669   4.944   6.084   4.028  0.3736 -0.8066 -0.4346
  672SOL    HW113670   5.026   6.080   3.971  0.2301 -1.2460 -0.6107
  672SOL    HW213671   4.945   6.010   4.095  0.4709 -0.3792  0.0387
  673SOL     OW13672   1.252   5.997   0.876  0.2962  0.3627  0.1221
  673SOL    HW113673   1.302   6.033   0.798 -0.4101 -0.3547 -0.6673
  673SOL    HW213674   1.286   5.905   0.897 -0.6316 -0.0910 -0.3610
  674SOL     OW13675   8.545   6.747   3.194  0.3219  0.3552  0.4123
  674SOL    HW113676   8.589   6.732   3.283 -0.8377  0.6874  1.0560
  674SOL    HW213677   8.609   6.794   3.133  1.7844 -1.5871  0.4276
  675SOL     OW13678   4.151   6.786   5.324 -0.0481 -0.4412 -0.1257
  675SOL    HW113679   4.194   6.798   5.414  0.0208 -0.0485 -0.2097
  675SOL    HW213680   4.052   6.795   5.333 -0.0431 -0.4278 -0.0856
  676SOL     OW13681   1.272   1.985   0.502 -0.2273  0.1648  0.2668
  676SOL    HW113682   1.346   1.925   0.474  0.1395  0.3141  0.9207
  676SOL    HW213683   1.269   1.992   0.602 -2.8070 -1.9624  0.3936
  677SOL     OW13684   8.961   5.876   3.773  0.0284 -0.1625  0.3616
  677SOL    HW113685   8.997   5.791   3.811  2.4988  1.5374  1.9474
  677SOL    HW213686   8.959   5.946   3.843  0.3008  1.7836 -1.5307
  678SOL     OW13687   9.408   6.381   1.210  0.0206  0.5672  0.2178
  678SOL    HW113688   9.334   6.447   1.222 -0.4179  0.0311  0.4894
  678SOL    HW213689   9.451   6.363   1.298  0.8285  1.2772 -0.0232
  679SOL     OW13690   7.771   5.788   7.685  0.3614 -0.3561  0.0706
  679SOL    HW113691   7.748   5.781   7.782  0.7543  0.2346  0.2096
  679SOL    HW213692   7.701   5.742   7.631 -1.0808  1.2713  0.5054
  680SOL     OW13693   8.829   7.319   2.711 -0.6048  0.3331 -0.6808
  680SOL    HW113694   8.806   7.221   2.713  2.1479 -0.3313  1.5986
  680SOL    HW213695   8.879   7.339   2.627  0.5675 -0.6803 -0.2471
  681SOL     OW13696   6.034   0.612   5.306 -0.3777 -0.2823 -1.0133
  681SOL    HW113697   5.934   0.614   5.297 -0.3219  0.9540 -1.4593
  681SOL    HW213698   6.072   0.699   5.275  0.7315 -0.2072  0.4882
  682SOL     OW13699   4.796   1.546   6.841 -0.0715 -0.3189 -0.7906
  682SOL    HW113700   4.815   1.595   6.926 -0.5164 -0.0464 -0.8439
  682SOL    HW213701   4.697   1.531   6.833  0.1198 -1.8926 -0.4066
  683SOL     OW13702   4.606   3.948   6.394  0.1804  0.3684  0.2453
  683SOL    HW113703   4.666   3.915   6.467  1.1197  0.1735 -0.6006
  683SOL    HW213704   4.563   3.870   6.349  0.3449  0.4318 -0.0243
  684SOL     OW13705   2.668   1.804   2.830  0.0319 -0.0741  0.1631
  684SOL    HW113706   2.641   1.754   2.912 -1.7261  0.1031 -0.2957
  684SOL    HW213707   2.664   1.743   2.751  0.7538  0.0251  0.0437
  685SOL     OW13708   0.964   6.074   6.833 -0.6040  0.4252 -0.3485
  685SOL    HW113709   1.019   6.039   6.908 -2.1554 -1.6749 -0.1410
  685SOL    HW213710   0.970   6.174   6.831  2.6826  0.2663  0.0105
  686SOL     OW13711   3.464   0.117   1.875 -0.2261 -0.3170 -0.1172
  686SOL    HW113712   3.407   0.183   1.924  1.4252 -0.5073  2.1548
  686SOL    HW213713   3.420   0.027   1.878  0.5414 -0.6336  2.3180
  687SOL     OW13714   0.270   0.231   6.419  0.2138  0.2951  0.1879
  687SOL    HW113715   0.217   0.315   6.428 -1.9992 -0.8589 -1.4991
  687SOL    HW213716   0.236   0.164   6.485  0.1089 -0.1851 -0.3553
  688SOL     OW13717   9.838   9.700   3.912  0.6158  0.1889 -0.1425
  688SOL    HW113718   9.823   9.726   3.817  0.0921 -2.0344 -0.6809
  688SOL    HW213719   9.919   9.747   3.947  0.9578  0.8134 -1.7492
  689SOL     OW13720   4.447   7.200   2.661  0.4566 -0.0826  0.5920
  689SOL    HW113721   4.397   7.192   2.575  0.6641 -1.1281  0.5584
  689SOL    HW213722   4.545   7.207   2.641  0.4750  0.0388  0.7290
  690SOL     OW13723   8.176   2.603   7.202 -0.2050  0.1936  0.7498
  690SOL    HW113724   8.252   2.589   7.265  1.3475  1.8571 -0.7057
  690SOL    HW213725   8.193   2.684   7.146 -2.8052  0.2884  0.0239
  691SOL     OW13726   2.158   6.615   1.696 -0.1854  0.3235  0.4507
  691SOL    HW113727   2.132   6.693   1.752 -0.2534 -0.4986  1.5808
  691SOL    HW213728   2.225   6.643   1.628  0.3321  1.2053  1.3262
  692SOL     OW13729   4.378   9.935   5.752  0.4054  0.2096 -0.1543
  692SOL    HW113730   4.435  10.009   5.717  1.5828 -0.0139  1.2362
  692SOL    HW213731   4.431   9.880   5.817 -1.3628 -0.0655  1.0997
  693SOL     OW13732   2.700   8.428   7.279  0.2571  0.1328 -0.3275
  693SOL    HW113733   2.618   8.383   7.315  0.7202 -0.6857 -0.3079
  693SOL    HW213734   2.676   8.479   7.196 -0.3413  0.1851 -0.1286
  694SOL     OW13735   4.597   2.757   7.165  0.5236  0.1094  0.4679
  694SOL    HW113736   4.629   2.840   7.120  0.4430 -0.1990 -0.1689
  694SOL    HW213737   4.604   2.680   7.102 -3.3345  0.3616 -0.3914
  695SOL     OW13738   3.415   8.111   4.213 -0.7255 -0.4741 -0.7304
  695SOL    HW113739   3.446   8.091   4.306  0.7398  3.2016 -0.3114
  695SOL    HW213740   3.493   8.106   4.151 -1.0802  0.0311 -1.2174
  696SOL     OW13741   1.300   0.472   4.540 -0.0707  0.0729  0.2121
  696SOL    HW113742   1.300   0.540   4.613 -1.0788 -0.0779  0.3535
  696SOL    HW213743   1.225   0.491   4.476  1.9626  1.3767 -1.8892
  697SOL     OW13744   9.814   5.853   1.506 -0.5729 -0.0927 -0.1210
  697SOL    HW113745   9.721   5.884   1.525 -1.2281 -2.0862  0.0923
  697SOL    HW213746   9.810   5.772   1.447  1.1183  1.0526 -1.8894
  698SOL     OW13747   8.868   8.912   4.486 -0.3781 -0.7203  0.3314
  698SOL    HW113748   8.940   8.855   4.526  0.3549  0.4596  0.7181
  698SOL    HW213749   8.799   8.853   4.443  0.4701 -1.8854  0.5326
  699SOL     OW13750   1.544   4.189   3.090  0.7303  0.7147 -0.1220
  699SOL    HW113751   1.522   4.218   2.997  1.0437  1.8579  0.1552
  699SOL    HW213752   1.479   4.118   3.119  1.4874 -0.6552 -1.7087
  700SOL     OW13753   8.365   7.776   0.883  0.2609  0.5451 -0.3670
  700SOL    HW113754   8.425   7.722   0.942  0.5653 -0.4773 -1.6005
  700SOL    HW213755   8.399   7.773   0.789 -0.8344  1.2650 -0.7933
  701SOL     OW13756   5.637   1.028   5.044 -0.3615  0.1869 -0.3717
  701SOL    HW113757   5.599   0.974   4.969  0.2996  1.9460 -2.0215
  701SOL    HW213758   5.594   1.118   5.046 -1.3142 -0.2955  2.2283
  702SOL     OW13759   0.616   3.099   7.307 -0.0703  0.5627  0.3638
  702SOL    HW113760   0.599   3.134   7.215 -0.7720  2.9259  1.3638
  702SOL    HW213761   0.712   3.069   7.313 -0.4900 -1.2764 -1.6301
  703SOL     OW13762   9.650   5.868   1.256 -0.6828 -0.5622  0.4128
  703SOL    HW113763   9.565   5.872   1.205 -0.4416 -1.4404 -0.0749
  703SOL    HW213764   9.672   5.772   1.277  0.4185 -0.3812  0.1323
  704SOL     OW13765   9.978   1.561   1.300  0.2142 -0.1503 -0.1409
  704SOL    HW113766   9.996   1.615   1.217  1.1970  0.0047  0.1649
  704SOL    HW213767   9.957   1.623   1.376  0.2673 -0.2446 -0.0495
  705SOL     OW13768   0.938   9.422   4.232 -0.3920 -0.0285  0.5404
  705SOL    HW113769   0.936   9.332   4.276  1.2274 -0.1787  0.3734
  705SOL    HW213770   0.849   9.465   4.239 -1.9107 -2.7016 -1.5404
  706SOL     OW13771   4.076   7.940   4.829  0.0675 -1.2380  0.2857
  706SOL    HW113772   4.044   8.025   4.870  0.4102 -2.5891  3.5010
  706SOL    HW213773   4.176   7.939   4.827  0.1000 -2.2051  1.7356
  707SOL     OW13774   4.011   3.996   6.175  0.1631  0.1890  0.3397
  707SOL    HW113775   4.001   3.920   6.111  0.7865  0.8841 -0.5946
  707SOL    HW213776   4.101   3.991   6.218 -0.3395 -0.4064  1.3557
  708SOL     OW13777   1.573   1.922   5.034  0.2003 -0.1105 -0.1831
  708SOL    HW113778   1.658   1.881   5.070  0.6592 -1.0237 -2.2434
  708SOL    HW213779   1.596   2.000   4.977 -0.4705  0.7098  0.6566
  709SOL     OW13780   3.394   6.591   1.224 -0.3984 -0.0973  0.0882
  709SOL    HW113781   3.468   6.617   1.162 -1.3409  2.4966  0.0100
  709SOL    HW213782   3.412   6.627   1.316 -0.4997 -1.3624  0.6299
  710SOL     OW13783   2.004   1.594   6.028  0.8451  0.0315  0.2595
  710SOL    HW113784   2.045   1.503   6.034  2.0866  0.7247  3.2334
  710SOL    HW213785   1.915   1.594   6.073  1.0632  0.4138  0.6910
  711SOL     OW13786   4.080   8.422   2.253  0.4284  0.0868 -0.4129
  711SOL    HW113787   4.044   8.488   2.186  0.6483 -0.2407 -0.8589
  711SOL    HW213788   4.072   8.330   2.215  1.6364 -0.0048 -0.4664
  712SOL     OW13789   8.732   8.290   3.009 -0.1666  0.6318  0.5573
  712SOL    HW113790   8.817   8.266   3.054 -0.7425  1.4501  2.0935
  712SOL    HW213791   8.707   8.384   3.031 -0.5672  0.9902 -1.2986
  713SOL     OW13792   0.416   5.508   0.171  0.2599 -0.2700  0.3242
  713SOL    HW113793   0.474   5.571   0.119  0.8188 -1.9180 -1.1234
  713SOL    HW213794   0.450   5.501   0.265  1.2085  0.2970  0.0355
  714SOL     OW13795   8.100   2.321   3.913  0.3092  0.0589 -0.0265
  714SOL    HW113796   8.189   2.295   3.950 -0.7733 -0.5636  2.2466
  714SOL    HW213797   8.087   2.420   3.925  0.7163  0.1675 -0.4496
  715SOL     OW13798   4.465   4.003   2.953  0.3820 -0.6775 -0.3578
  715SOL    HW113799   4.433   4.017   3.047 -0.7165  1.1507 -0.9736
  715SOL    HW213800   4.500   3.910   2.943  2.0581 -0.3737  2.3050
  716SOL     OW13801   1.539   7.787   3.835  0.1068  0.4204 -0.1146
  716SOL    HW113802   1.578   7.864   3.886 -0.1523  0.3027  0.2628
  716SOL    HW213803   1.608   7.750   3.772  0.2982  0.8239 -0.1450
  717SOL     OW13804   7.819   0.319   6.602 -0.3496  0.0048  0.1040
  717SOL    HW113805   7.867   0.403   6.630 -0.8733 -0.1940  1.6475
  717SOL    HW213806   7.882   0.260   6.552 -0.1694  1.6396 -1.6777
  718SOL     OW13807   9.702   1.652   1.672 -0.4610 -0.0915 -0.6474
  718SOL    HW113808   9.681   1.726   1.736 -0.3389  1.3092 -2.2082
  718SOL    HW213809   9.735   1.572   1.723 -1.9558  0.4121  1.1735
  719SOL     OW13810   4.287   5.868   4.870 -0.2974 -0.0619 -0.2447
  719SOL    HW113811   4.335   5.785   4.899  1.8250  1.3774  0.3985
  719SOL    HW213812   4.220   5.894   4.939  1.1111  0.4123  0.9649
  720SOL     OW13813   3.836   6.620   9.864 -0.1969 -0.1458  0.1627
  720SOL    HW113814   3.853   6.525   9.890 -1.9568 -0.4163  0.4289
  720SOL    HW213815   3.922   6.669   9.855  0.7097 -1.7014  0.2961
  721SOL     OW13816   6.169   0.472   4.942  0.2650  0.2038 -0.4617
  721SOL    HW113817   6.113   0.522   5.007  1.6961  0.8866  0.2720
  721SOL    HW213818   6.111   0.414   4.885 -0.7812 -2.5885  3.2973
  722SOL     OW13819   2.903   5.282   2.804  0.0355 -0.2599  0.4798
  722SOL    HW113820   2.893   5.377   2.774  0.0816 -0.7518 -1.1743
  722SOL    HW213821   2.992   5.247   2.773 -0.4829 -1.1930  0.0194
  723SOL     OW13822   7.586   8.614   4.945 -0.0206 -0.0554  0.2333
  723SOL    HW113823   7.592   8.692   5.008 -1.7373  0.0405  0.3117
  723SOL    HW213824   7.670   8.608   4.891 -0.1649  2.3386 -0.3385
  724SOL     OW13825   7.283   2.475   1.219 -0.2703  0.1976 -0.6230
  724SOL    HW113826   7.298   2.451   1.124 -0.8365  0.2282 -0.7250
  724SOL    HW213827   7.264   2.573   1.227  0.5433  0.3401 -0.3860
  725SOL     OW13828   4.725   3.285   1.265  0.1332 -0.2969  0.0311
  725SOL    HW113829   4.663   3.360   1.287 -0.7465 -1.0642  0.2083
  725SOL    HW213830   4.750   3.237   1.349 -0.9329 -1.4566 -0.3111
  726SOL     OW13831   2.029   9.560   2.722  0.0025  0.5731 -0.5349
  726SOL    HW113832   1.950   9.503   2.745 -0.4949  1.1326 -0.8425
  726SOL    HW213833   2.058   9.542   2.629  1.6873 -1.3027  0.3200
  727SOL     OW13834   2.909   8.249   0.389  0.3885  0.4074  0.5403
  727SOL    HW113835   2.861   8.337   0.390 -2.0530 -0.8392 -1.7011
  727SOL    HW213836   2.979   8.249   0.460 -2.6202  2.4665  3.6864
  728SOL     OW13837   0.975   6.795   2.161 -0.0977  0.2785  0.2345
  728SOL    HW113838   0.928   6.881   2.179 -1.4846 -0.3001 -0.5799
  728SOL    HW213839   0.952   6.762   2.070 -0.4385 -1.5143  0.9497
  729SOL     OW13840   4.778   7.248   2.794  0.5077  0.2634  0.7299
  729SOL    HW113841   4.827   7.227   2.710 -0.6681  0.7070 -0.0813
  729SOL    HW213842   4.719   7.327   2.779 -0.4730 -0.2770  1.6752
  730SOL     OW13843   4.820   9.248   1.650  0.3000  0.1354 -0.0187
  730SOL    HW113844   4.862   9.173   1.599 -1.0811 -0.8651  0.2824
  730SOL    HW213845   4.739   9.214   1.698 -1.3734  2.2236 -1.3040
  731SOL     OW13846   2.604   0.847   5.304  0.1917 -0.3281 -0.1295
  731SOL    HW113847   2.694   0.878   5.337  0.0844  0.0674 -0.2056
  731SOL    HW213848   2.617   0.792   5.222  0.3455 -0.0457 -0.2965
  732SOL     OW13849   2.286   1.435   1.624  0.1610  0.4084 -0.3071
  732SOL    HW113850   2.265   1.399   1.533 -1.4740  2.4744 -0.7878
  732SOL    HW213851   2.383   1.458   1.630 -0.0254  1.7473 -2.0740
  733SOL     OW13852   1.298   4.898   6.375 -0.1133  0.1766 -0.3055
  733SOL    HW113853   1.306   4.856   6.285 -1.7570 -0.2017 -0.2965
  733SOL    HW213854   1.388   4.901   6.419  0.6358  0.0116 -1.7895
  734SOL     OW13855   2.106   6.747   9.946 -0.2675  0.2684  0.1782
  734SOL    HW113856   2.052   6.663   9.946  1.5175 -0.9186  2.7235
  734SOL    HW213857   2.172   6.744   9.872 -1.2927  0.1724 -0.7502
  735SOL     OW13858   8.846   7.147   1.807  0.2991  0.4262  0.1162
  735SOL    HW113859   8.776   7.115   1.871 -0.4563  1.7611 -0.0148
  735SOL    HW213860   8.802   7.173   1.720  1.3091 -1.3822 -0.9809
  736SOL     OW13861   8.144   0.754   2.123 -0.5828 -0.0928  0.0966
  736SOL    HW113862   8.236   0.771   2.157  0.5684 -1.0013 -2.4427
  736SOL    HW213863   8.095   0.694   2.187 -0.3440  2.4436  2.7371
  737SOL     OW13864   9.097   5.601   4.235  0.1508  0.6040  0.9504
  737SOL    HW113865   9.089   5.701   4.242 -1.9425  0.6653 -1.4638
  737SOL    HW213866   9.159   5.578   4.160 -0.0514  0.0939  0.9399
  738SOL     OW13867   3.287   7.472   1.012  0.1524 -0.3552  0.0627
  738SOL    HW113868   3.279   7.530   1.093 -0.6936  0.3700 -0.5198
  738SOL    HW213869   3.266   7.378   1.036 -0.9592  0.0016  0.5140
  739SOL     OW13870   6.380   6.877   5.577  0.0833  0.1143  0.0280
  739SOL    HW113871   6.472   6.840   5.591 -0.3095 -0.1766  1.9403
  739SOL    HW213872   6.331   6.880   5.665 -2.0584 -0.6071 -1.1053
  740SOL     OW13873   8.024   1.625   6.687  0.2405 -0.8472 -0.0467
  740SOL    HW113874   8.056   1.687   6.758 -1.5696  1.3558 -1.1013
  740SOL    HW213875   8.019   1.532   6.724  3.3285 -0.4999  1.4465
  741SOL     OW13876   1.765   8.270   5.985  0.3947  0.2060  0.5757
  741SOL    HW113877   1.847   8.320   5.957  0.4046 -0.0613  0.1172
  741SOL    HW213878   1.780   8.172   5.974  0.2105  0.1264  1.0234
  742SOL     OW13879   4.971   1.370   4.578 -0.0910 -0.2742  0.4951
  742SOL    HW113880   5.021   1.283   4.577 -0.9310 -0.7625  0.7900
  742SOL    HW213881   5.007   1.428   4.651  1.8837  0.4700 -1.0239
  743SOL     OW13882   3.200   6.023   0.233 -0.0100 -0.0075 -0.3527
  743SOL    HW113883   3.217   5.974   0.318 -1.0951 -0.2960 -0.3001
  743SOL    HW213884   3.107   6.006   0.202 -0.5460  2.3439 -0.1176
  744SOL     OW13885   8.784   4.081   3.220 -0.1976 -0.1076 -0.5928
  744SOL    HW113886   8.735   4.013   3.275  1.4098 -1.0668 -0.2987
  744SOL    HW213887   8.792   4.049   3.126 -0.2601  0.0948 -0.6661
  745SOL     OW13888   7.360   2.998   1.478  0.1918  0.4814  0.4025
  745SOL    HW113889   7.290   3.035   1.417 -0.0815  1.7881  1.4880
  745SOL    HW213890   7.317   2.962   1.561  0.6385 -0.4813  0.2271
  746SOL     OW13891   8.655   0.135   0.780  0.6019 -0.0543 -0.2535
  746SOL    HW113892   8.709   0.083   0.714  0.4835 -1.2212  0.5655
  746SOL    HW213893   8.711   0.207   0.820  1.2790 -0.6705 -0.0882
  747SOL     OW13894   4.939   2.892   0.763  0.9194  0.5400  0.1133
  747SOL    HW113895   5.030   2.887   0.723  0.2763  1.7174 -1.5474
  747SOL    HW213896   4.923   2.983   0.801  0.4642  0.3050  0.5025
  748SOL     OW13897   3.480   0.210   7.809 -0.9236  0.4699 -0.7676
  748SOL    HW113898   3.478   0.165   7.720 -0.0045  1.8137 -1.4785
  748SOL    HW213899   3.568   0.256   7.822 -0.2906 -1.3300  1.6488
  749SOL     OW13900   0.356   9.457   0.611  0.3652 -0.0159  0.4974
  749SOL    HW113901   0.344   9.365   0.646 -0.2527  0.7495  2.3260
  749SOL    HW213902   0.417   9.509   0.671  0.4182  0.8899 -0.3123
  750SOL     OW13903   7.195   7.456   8.305 -0.2521  0.1095  0.3827
  750SOL    HW113904   7.275   7.397   8.308  0.8981  1.5158 -1.2637
  750SOL    HW213905   7.170   7.474   8.209 -0.6563  2.1464  0.8389
  751SOL     OW13906   1.700   4.878   0.824 -0.2129  0.8654  0.1895
  751SOL    HW113907   1.608   4.852   0.854  0.4061 -0.4917  0.9802
  751SOL    HW213908   1.757   4.893   0.904  0.9991 -1.0827 -0.2769
  752SOL     OW13909   4.765   8.375   5.237  0.3194  0.2010 -0.2671
  752SOL    HW113910   4.787   8.285   5.198 -1.1647  0.2044 -1.1068
  752SOL    HW213911   4.672   8.374   5.274 -0.4526  2.0062 -2.1099
  753SOL     OW13912   3.605   7.451   6.090 -0.2818  0.0100 -0.0161
  753SOL    HW113913   3.536   7.417   6.026 -0.6164 -1.8345  1.2805
  753SOL    HW213914   3.632   7.377   6.151  1.4643  1.2353  0.7155
  754SOL     OW13915   7.411   1.293   2.158 -0.1063  0.8204 -0.0637
  754SOL    HW113916   7.431   1.360   2.229 -1.8490  0.5033  0.7699
  754SOL    HW213917   7.335   1.325   2.102  1.2453  1.0584 -1.7973
  755SOL     OW13918   6.695   1.501   5.793  0.2364  0.0993  0.2112
  755SOL    HW113919   6.731   1.542   5.877  0.0827  0.6552  0.0026
  755SOL    HW213920   6.769   1.452   5.746  1.1400  2.5760 -1.0391
  756SOL     OW13921   2.473   6.877   4.159 -0.5007  0.5606 -0.2011
  756SOL    HW113922   2.548   6.907   4.218 -0.8325 -0.5373  0.7958
  756SOL    HW213923   2.385   6.903   4.200 -0.7292 -0.0660 -0.2803
  757SOL     OW13924   0.511   9.982   2.218 -0.2145  0.0050  0.0788
  757SOL    HW113925   0.597   9.981   2.269  0.3124 -1.3859 -0.8071
  757SOL    HW213926   0.446  10.043   2.264  0.9395  0.3961  1.2398
  758SOL     OW13927   4.342   1.904   0.983 -0.6068  0.3188  0.4206
  758SOL    HW113928   4.376   1.965   0.911  1.1500 -0.1616  0.8238
  758SOL    HW213929   4.388   1.816   0.977 -2.3244 -0.6028  0.5467
  759SOL     OW13930   8.452   8.527   5.470  0.0996 -0.0242 -0.1944
  759SOL    HW113931   8.550   8.512   5.455  0.5508  1.0907  1.4567
  759SOL    HW213932   8.420   8.465   5.542 -0.2472  0.0761 -0.2614
  760SOL     OW13933   3.821   2.137   3.526 -0.8804 -0.6173 -0.3094
  760SOL    HW113934   3.869   2.219   3.496  1.7383 -1.7115  0.7586
  760SOL    HW213935   3.743   2.163   3.583 -0.7761  1.1459 -0.9517
  761SOL     OW13936   4.580   7.342   1.660  0.6778  0.6028  0.3653
  761SOL    HW113937   4.500   7.381   1.615  0.8577  0.8278  0.2370
  761SOL    HW213938   4.583   7.244   1.645 -0.0387  0.4637  1.0840
  762SOL     OW13939   7.667   6.572   3.672 -0.2183 -0.2179 -0.2185
  762SOL    HW113940   7.699   6.499   3.732 -0.0489  1.2888  1.5719
  762SOL    HW213941   7.568   6.569   3.665 -0.1475 -1.1934 -0.9354
  763SOL     OW13942   3.170   9.876   7.746  0.5745 -0.2199 -0.3820
  763SOL    HW113943   3.114   9.957   7.734 -0.3140 -0.7021  0.4076
  763SOL    HW213944   3.267   9.901   7.747  0.3142  0.7775 -0.4448
  764SOL     OW13945   9.245   0.341   4.624 -0.0623  0.5349  0.2500
  764SOL    HW113946   9.263   0.257   4.573 -2.1568  0.7288 -0.8835
  764SOL    HW213947   9.243   0.418   4.561 -0.5416  1.0918  0.9389
  765SOL     OW13948   1.182   2.617   2.039 -0.1118  0.5256 -0.2968
  765SOL    HW113949   1.101   2.559   2.046 -0.2874  0.7536 -0.4397
  765SOL    HW213950   1.230   2.618   2.127  0.0374 -0.0478 -0.3655
  766SOL     OW13951   7.035   9.882   5.857 -0.0165 -0.2817 -0.3583
  766SOL    HW113952   7.000   9.833   5.937 -0.1261 -0.7245 -0.6732
  766SOL    HW213953   6.988   9.970   5.848  1.6241  0.8068  1.3981
  767SOL     OW13954   2.840   4.949   0.257 -0.0226  0.2186  0.0148
  767SOL    HW113955   2.895   4.984   0.182  0.0006  2.4150  1.0020
  767SOL    HW213956   2.792   4.867   0.228  0.3685  0.7478 -2.2258
  768SOL     OW13957   2.996   3.623   2.820  0.6826  0.2352 -0.2784
  768SOL    HW113958   2.994   3.709   2.769  1.1390  0.0416 -0.6227
  768SOL    HW213959   2.986   3.642   2.918  1.3822  0.7274 -0.2984
  769SOL     OW13960   0.634   8.526   4.963 -0.2421  0.1942 -0.1253
  769SOL    HW113961   0.716   8.487   5.004  0.8230  0.8533 -1.6185
  769SOL    HW213962   0.659   8.595   4.895 -2.0279  0.4314 -0.5831
  770SOL     OW13963   2.459   4.486   5.166  0.1347 -0.2275 -0.0015
  770SOL    HW113964   2.504   4.539   5.237  1.0566 -1.2610  0.1902
  770SOL    HW213965   2.419   4.549   5.098  3.3420  0.7265 -1.1119
  771SOL     OW13966   2.987   7.890   0.058  0.6280  0.3899 -0.0149
  771SOL    HW113967   3.041   7.956   0.111  0.5519 -0.8075  1.5750
  771SOL    HW213968   3.049   7.827   0.012  0.7122  1.7013 -1.7598
  772SOL     OW13969   6.755   9.930   3.276  0.0424 -0.2358 -0.0083
  772SOL    HW113970   6.822   9.861   3.303  1.2516  0.9896  0.1642
  772SOL    HW213971   6.667   9.885   3.258  0.3479 -1.6006  1.7544
  773SOL     OW13972   9.940   9.459   0.213  0.4167  0.0188  0.3757
  773SOL    HW113973   9.962   9.371   0.256  0.4248 -0.0499  0.2317
  773SOL    HW213974   9.840   9.469   0.208  0.4088 -0.9209 -1.5221
  774SOL     OW13975   8.362   6.184   7.556 -0.0956  0.2528  0.0458
  774SOL    HW113976   8.393   6.091   7.574 -1.3188 -0.4544 -1.3820
  774SOL    HW213977   8.439   6.240   7.526  0.6212 -0.3248  0.7783
  775SOL     OW13978   0.707   5.247   4.363 -0.1711  0.1435 -0.0110
  775SOL    HW113979   0.767   5.272   4.288 -0.9948  0.0529 -0.7031
  775SOL    HW213980   0.685   5.150   4.358 -1.2777  0.4048 -0.4178
  776SOL     OW13981   7.865   2.302   2.917 -0.1904 -0.3450  0.0873
  776SOL    HW113982   7.807   2.380   2.940 -1.7397 -0.9991 -1.4774
  776SOL    HW213983   7.870   2.239   2.994 -1.1911 -0.0595  0.3834
  777SOL     OW13984   8.903   7.916   4.266 -0.0774 -0.3570 -0.5422
  777SOL    HW113985   8.948   7.867   4.191 -0.6609  0.4732 -1.4453
  777SOL    HW213986   8.836   7.855   4.310 -0.3182 -0.5823 -1.2215
  778SOL     OW13987   8.156   6.509   7.411  0.5074 -0.0343  0.6053
  778SOL    HW113988   8.155   6.497   7.312 -0.2259 -1.1370  0.7507
  778SOL    HW213989   8.096   6.585   7.436  0.4054  0.0068  0.2382
  779SOL     OW13990   0.643   9.858   0.200 -0.2586  0.0440  0.2745
  779SOL    HW113991   0.585   9.866   0.282  0.6032 -0.6856  0.9698
  779SOL    HW213992   0.711   9.787   0.215 -0.4916 -0.5205 -1.3454
  780SOL     OW13993   0.685   8.842   2.850  0.3506 -0.2326  0.0221
  780SOL    HW113994   0.775   8.826   2.888  0.2236 -2.3629 -0.5287
  780SOL    HW213995   0.631   8.898   2.914  1.5534 -0.1913  1.0117
  781SOL     OW13996   6.475   3.371   1.234 -0.0129  0.3655  0.0260
  781SOL    HW113997   6.515   3.460   1.214  1.2783 -0.0596  0.6445
  781SOL    HW213998   6.527   3.300   1.186 -0.7335 -0.0873 -0.0791
  782SOL     OW13999   2.440   1.631   6.330 -1.4120  0.3572  0.6330
  782SOL    HW114000   2.398   1.601   6.416 -2.5445  0.5781  0.1640
  782SOL    HW214001   2.385   1.705   6.290 -0.3793  0.8947  0.1823
  783SOL     OW14002   3.453   3.725   4.178 -0.4772  0.1159  0.3838
  783SOL    HW114003   3.427   3.811   4.221 -1.3886 -0.2703  0.6066
  783SOL    HW214004   3.552   3.724   4.163 -0.6086  1.7155 -0.7357
  784SOL     OW14005   6.358   9.353   2.879  0.1627  0.6785 -0.1529
  784SOL    HW114006   6.417   9.275   2.901  0.1172  0.0174 -2.2076
  784SOL    HW214007   6.373   9.426   2.945 -0.3325 -1.3258  2.2908
  785SOL     OW14008   7.539   0.117   1.233 -0.3336  0.3023 -0.1084
  785SOL    HW114009   7.509   0.087   1.324 -2.1626  0.2410 -0.7167
  785SOL    HW214010   7.534   0.216   1.228 -3.6173  0.1383 -1.2497
  786SOL     OW14011   3.818   0.638   1.176  0.3080  0.0617 -0.0258
  786SOL    HW114012   3.867   0.603   1.256  1.4586  0.3906 -0.5684
  786SOL    HW214013   3.831   0.737   1.170 -0.1690  0.1048 -0.3507
  787SOL     OW14014   4.405   5.910   1.191 -0.8201  0.0233 -0.2840
  787SOL    HW114015   4.440   5.894   1.283 -1.8852 -0.1392  0.1079
  787SOL    HW214016   4.451   5.849   1.126  0.9436  1.1347 -0.1002
  788SOL     OW14017   5.187   7.867   6.136  0.1437 -0.2377  0.2964
  788SOL    HW114018   5.118   7.925   6.179 -0.2555  0.5878 -1.4071
  788SOL    HW214019   5.194   7.890   6.039  3.3443  0.2042  0.5907
  789SOL     OW14020   3.516   3.845   1.670  0.0589 -0.2378  0.0588
  789SOL    HW114021   3.587   3.784   1.706 -0.8266 -0.8291  0.8341
  789SOL    HW214022   3.557   3.933   1.646  1.1180 -0.6882  0.1782
  790SOL     OW14023   4.698   0.206   1.023  0.2058  0.2473  0.3093
  790SOL    HW114024   4.778   0.224   0.965  0.1734 -1.0864 -0.1632
  790SOL    HW214025   4.725   0.153   1.103  0.0846  1.2890  1.0562
  791SOL     OW14026   3.619   6.862   6.310  0.3673 -0.4313 -0.3508
  791SOL    HW114027   3.590   6.917   6.231 -1.0246 -0.4488  0.1267
  791SOL    HW214028   3.716   6.877   6.328  0.2473  1.0212 -0.8937
  792SOL     OW14029   0.920   8.289   4.678  0.0931  0.6482 -0.4544
  792SOL    HW114030   0.877   8.268   4.766  0.8881 -1.1416 -0.4791
  792SOL    HW214031   0.967   8.377   4.685  1.5265 -0.2313  1.4421
  793SOL     OW14032   6.043   3.999   1.660 -0.4310  0.6040 -0.0987
  793SOL    HW114033   6.077   4.079   1.709 -0.0626  0.3538  0.0598
  793SOL    HW214034   6.010   4.026   1.570 -1.7627  1.1783  0.5465
  794SOL     OW14035   4.917   9.613   6.236  0.5673  0.2516  0.0793
  794SOL    HW114036   4.826   9.648   6.258  0.2960 -1.2125  1.4478
  794SOL    HW214037   4.910   9.516   6.214  1.7043  0.3155 -0.5684
  795SOL     OW14038   0.691   4.256   0.012  0.0554 -0.3993 -0.2744
  795SOL    HW114039   0.705   4.205  -0.072  4.0904 -0.1256  0.1177
  795SOL    HW214040   0.690   4.354  -0.008 -3.3312 -0.4330 -0.4858
  796SOL     OW14041   1.642   8.498   2.647 -0.2820 -0.3027 -0.7507
  796SOL    HW114042   1.715   8.540   2.701  0.4225 -0.2537 -1.7296
  796SOL    HW214043   1.647   8.532   2.553 -2.0156  0.2530 -0.6577
  797SOL     OW14044   5.141   9.791   7.902 -0.4368 -0.5998  0.1606
  797SOL    HW114045   5.079   9.820   7.828  0.7378  1.0331 -0.2088
  797SOL    HW214046   5.234   9.818   7.880  0.3152 -2.3570  1.0867
  798SOL     OW14047   3.954   0.905   1.957 -0.0396 -0.1430 -0.3043
  798SOL    HW114048   4.048   0.889   1.987 -0.0310 -1.0451 -0.7762
  798SOL    HW214049   3.930   0.837   1.887 -0.7437  0.6333 -0.8214
  799SOL     OW14050   8.100   6.913   3.574 -0.0070 -0.5071 -0.0609
  799SOL    HW114051   8.113   6.818   3.545  1.1565 -0.2381 -0.4574
  799SOL    HW214052   8.189   6.959   3.579 -0.6240  0.7878 -0.6397
  800SOL     OW14053   5.464   9.747   2.078  0.5316 -0.2867 -0.5157
  800SOL    HW114054   5.392   9.735   2.010  0.4270 -0.0274 -0.4526
  800SOL    HW214055   5.538   9.802   2.040  1.8155 -2.5467 -1.3861
  801SOL     OW14056   9.410   7.242   1.316 -0.2758  0.0592 -0.2528
  801SOL    HW114057   9.322   7.250   1.362 -0.5261 -1.6406 -0.4198
  801SOL    HW214058   9.453   7.155   1.341  0.8236  0.3632 -1.0723
  802SOL     OW14059   0.909   0.207   3.343  0.3484 -0.3062 -0.3031
  802SOL    HW114060   0.824   0.155   3.330  0.3242 -0.1374 -0.8211
  802SOL    HW214061   0.980   0.146   3.380 -0.3273 -0.1784  1.2351
  803SOL     OW14062   1.293   4.584   1.739 -0.5354  0.4344 -0.3152
  803SOL    HW114063   1.211   4.553   1.690 -0.9957  0.2654  0.5504
  803SOL    HW214064   1.363   4.513   1.736 -1.0221 -0.0723  0.3428
  804SOL     OW14065   3.935   1.274   0.571 -0.5405  0.2102 -0.0846
  804SOL    HW114066   3.971   1.344   0.508  0.4652  0.0213  0.2705
  804SOL    HW214067   4.011   1.220   0.606 -1.1316  0.1468  1.0997
  805SOL     OW14068   3.078   0.569   5.887 -0.1996 -0.1268  0.0995
  805SOL    HW114069   3.066   0.612   5.797  0.8382  0.4701  0.2350
  805SOL    HW214070   2.992   0.527   5.916 -0.1800 -1.5285 -1.7918
  806SOL     OW14071   9.852   1.763   1.452 -0.0148 -0.4684 -0.2511
  806SOL    HW114072   9.805   1.732   1.370 -1.9419  1.2393  0.1524
  806SOL    HW214073   9.798   1.740   1.533 -0.4734  1.9692  0.1932
  807SOL     OW14074   9.131   9.347   7.708  0.5535  0.0802 -0.2384
  807SOL    HW114075   9.072   9.267   7.700  0.5930  0.0055  0.2110
  807SOL    HW214076   9.082   9.419   7.757  0.4884  0.3564 -0.7110
  808SOL     OW14077   5.893   3.540   2.692  0.2685  0.6871 -0.2304
  808SOL    HW114078   5.844   3.506   2.611  0.1145 -0.1867  0.2180
  808SOL    HW214079   5.959   3.610   2.665  1.0860 -0.4750 -1.2791
  809SOL     OW14080   5.966   4.330   0.321  0.0811  0.2730 -0.2022
  809SOL    HW114081   5.951   4.324   0.419 -0.9734 -0.0972 -0.3708
  809SOL    HW214082   5.877   4.339   0.274  0.5452  0.1239 -1.1341
  810SOL     OW14083   4.238   4.218   6.951 -0.2120  0.3989  0.3605
  810SOL    HW114084   4.145   4.188   6.928  0.3876  0.1909 -1.9379
  810SOL    HW214085   4.242   4.317   6.949 -0.3714  0.4062  0.3874
  811SOL     OW14086   7.478   0.993   6.104  0.4395 -0.1705  0.3474
  811SOL    HW114087   7.444   1.068   6.047  0.2568 -0.1551  0.4769
  811SOL    HW214088   7.411   0.971   6.174 -0.1686 -1.4569 -0.6153
  812SOL     OW14089   3.718   8.603   4.646 -0.1473 -0.1101 -0.0839
  812SOL    HW114090   3.621   8.577   4.652  0.4515 -1.6864  4.3756
  812SOL    HW214091   3.774   8.520   4.637  1.0597  0.4870  1.8131
  813SOL     OW14092   1.639   5.573   4.181  0.5715 -0.3718  0.0187
  813SOL    HW114093   1.657   5.614   4.092 -0.3948  0.8209  0.3681
  813SOL    HW214094   1.726   5.546   4.223  1.0665 -0.4937 -1.0588
  814SOL     OW14095   2.922   3.749   2.320  0.2500 -0.4768 -0.6497
  814SOL    HW114096   2.996   3.815   2.312  0.5149 -0.7104 -0.1266
  814SOL    HW214097   2.895   3.741   2.416 -0.3690 -0.4816 -0.8235
  815SOL     OW14098   9.043   3.939   2.560 -0.2960  0.6657  0.5239
  815SOL    HW114099   8.961   3.882   2.550 -0.3832  1.0756 -1.3488
  815SOL    HW214100   9.018   4.035   2.548  0.6417  0.6929 -1.3642
  816SOL     OW14101   9.986   5.584   2.277  0.2031 -0.5061  0.2806
  816SOL    HW114102   9.903   5.544   2.317  0.2656 -0.9858 -0.0679
  816SOL    HW214103   9.978   5.585   2.177  0.3823 -0.0374  0.2722
  817SOL     OW14104   0.689   4.508   3.536  0.0289 -0.1671 -0.5485
  817SOL    HW114105   0.777   4.463   3.552  0.4088  0.1978 -1.5346
  817SOL    HW214106   0.688   4.547   3.443 -0.2456  1.9734  0.3215
  818SOL     OW14107   9.807   2.751   7.368 -0.2147 -0.1004  0.3237
  818SOL    HW114108   9.751   2.797   7.437 -0.6324  0.2180 -0.2261
  818SOL    HW214109   9.850   2.670   7.408 -0.6330 -0.0379  0.8982
  819SOL     OW14110   3.286   4.189   0.875  0.1484 -0.3287 -0.0370
  819SOL    HW114111   3.352   4.130   0.829 -1.2973 -1.0767 -1.2281
  819SOL    HW214112   3.326   4.227   0.958  1.5557 -1.9708  0.0572
  820SOL     OW14113   7.756   1.115   1.683  0.0328  0.7959  0.0813
  820SOL    HW114114   7.834   1.160   1.726  0.0645  0.7993  0.0206
  820SOL    HW214115   7.708   1.059   1.750  1.5979 -1.2729 -0.4744
  821SOL     OW14116   3.781   4.896   6.517 -0.1322 -0.4117 -0.0829
  821SOL    HW114117   3.821   4.856   6.599  3.1950  1.4612 -0.7050
  821SOL    HW214118   3.752   4.990   6.536 -0.0939 -0.2450 -0.8140
  822SOL     OW14119   7.889   3.828   3.903  0.4164  0.0550  0.0941
  822SOL    HW114120   7.914   3.747   3.850 -1.6680 -1.6715  1.6253
  822SOL    HW214121   7.970   3.884   3.919  1.3995 -0.2909 -3.3210
  823SOL     OW14122   4.404   1.342   1.302  0.0360  0.5183  0.3998
  823SOL    HW114123   4.503   1.353   1.297 -0.1775  1.7712 -1.4761
  823SOL    HW214124   4.372   1.286   1.225 -0.7282  0.1559  0.9688
  824SOL     OW14125   0.458   8.968   2.070 -0.4628 -0.2661 -0.6555
  824SOL    HW114126   0.391   8.911   2.118 -1.4508  0.3681 -1.2481
  824SOL    HW214127   0.434   9.065   2.083  0.7771 -0.0077 -0.2554
  825SOL     OW14128   2.836   4.596   2.966 -0.3705 -0.0096  0.2025
  825SOL    HW114129   2.792   4.514   3.003 -0.8250  0.1711  0.0736
  825SOL    HW214130   2.776   4.675   2.980 -0.6146  0.0415 -1.0210
  826SOL     OW14131   0.454   1.113   1.602  0.5268 -0.9925 -0.2963
  826SOL    HW114132   0.386   1.129   1.530  0.0789  2.7126  0.8833
  826SOL    HW214133   0.544   1.103   1.560  0.4797  2.4877 -1.3761
  827SOL     OW14134   0.444   6.494   1.123  0.2242  0.2607  0.2191
  827SOL    HW114135   0.417   6.574   1.176  1.9230  0.0093  1.5215
  827SOL    HW214136   0.444   6.517   1.026 -1.8785  1.0470  0.3804
  828SOL     OW14137   7.761   7.251   1.508  0.2634  0.3635  0.0945
  828SOL    HW114138   7.741   7.202   1.593 -2.5202  1.1774 -0.0303
  828SOL    HW214139   7.842   7.308   1.520 -0.8906  1.5266  2.6410
  829SOL     OW14140   1.301   5.408   7.418  0.5607  0.1109 -0.2841
  829SOL    HW114141   1.328   5.323   7.464 -0.4619 -0.4680 -0.7416
  829SOL    HW214142   1.299   5.483   7.484  0.7142 -0.3773  0.2752
  830SOL     OW14143   3.053   0.116   7.650  0.3611 -0.7362  0.4602
  830SOL    HW114144   3.105   0.200   7.666  1.2634 -1.4375  1.2472
  830SOL    HW214145   2.962   0.125   7.691  0.8123 -0.5158  1.4218
  831SOL     OW14146   0.478   4.573   7.666  0.1981  0.4089 -0.1925
  831SOL    HW114147   0.511   4.538   7.579  0.2193  0.0734 -0.0496
  831SOL    HW214148   0.429   4.659   7.651 -0.6909 -0.1791 -0.6552
  832SOL     OW14149   7.643   0.170   6.279  0.6129  0.8510  0.0539
  832SOL    HW114150   7.657   0.242   6.212  0.9667  0.5846 -0.1636
  832SOL    HW214151   7.732   0.140   6.315  0.5336 -0.1343 -0.5560
  833SOL     OW14152   7.137   5.135   7.089  0.1276 -0.2301 -0.0110
  833SOL    HW114153   7.101   5.106   7.000 -2.5582  2.0911  0.2421
  833SOL    HW214154   7.147   5.234   7.090  0.6281 -0.2881  2.1164
  834SOL     OW14155   4.616   2.985   1.624 -0.7002  0.1391 -0.9914
  834SOL    HW114156   4.612   3.077   1.662 -0.8526  0.2693 -1.3165
  834SOL    HW214157   4.528   2.939   1.639 -0.5036 -0.0784 -0.5172
  835SOL     OW14158   9.827   3.246   3.399 -0.5607 -0.3218 -0.0478
  835SOL    HW114159   9.779   3.232   3.486 -0.9386  0.2490 -0.1670
  835SOL    HW214160   9.892   3.171   3.385 -2.0363 -1.5750 -0.3032
  836SOL     OW14161   1.888   4.296   7.661  0.4904 -0.0426 -0.3280
  836SOL    HW114162   1.968   4.251   7.699  0.2547 -0.8578 -0.7713
  836SOL    HW214163   1.908   4.392   7.643  0.1786  0.7204  3.1374
  837SOL     OW14164   0.258   9.822   1.474  0.3268 -0.4896  0.4567
  837SOL    HW114165   0.331   9.857   1.416  0.9558 -0.3567  1.3253
  837SOL    HW214166   0.274   9.848   1.569 -0.7183 -0.6685  0.6956
  838SOL     OW14167   4.336   4.146   1.431 -0.7968 -0.0058 -0.0193
  838SOL    HW114168   4.271   4.136   1.507  0.2719 -1.0981  0.7706
  838SOL    HW214169   4.337   4.062   1.377  0.8653 -0.4900  0.7197
  839SOL     OW14170   0.653   1.406   0.333  0.1635  0.3874  0.3292
  839SOL    HW114171   0.616   1.319   0.301 -1.1319  1.4526 -1.2044
  839SOL    HW214172   0.734   1.390   0.388  0.9902 -1.6971 -1.4318
  840SOL     OW14173   9.537   0.934   2.825  0.0926  0.3421 -0.2658
  840SOL    HW114174   9.468   0.984   2.773 -1.0286  0.5732  1.4075
  840SOL    HW214175   9.525   0.836   2.811  0.5279  0.4368 -1.3458
  841SOL     OW14176   9.533   6.981   1.350 -0.1201  0.0798 -0.8123
  841SOL    HW114177   9.450   6.933   1.377 -0.1732 -0.1660 -1.4178
  841SOL    HW214178   9.613   6.935   1.389 -0.2972  0.6697  0.2843
  842SOL     OW14179   3.216   9.753   7.519 -0.1279  0.1200  0.0752
  842SOL    HW114180   3.198   9.784   7.612  0.8594  0.8203  0.0429
  842SOL    HW214181   3.168   9.811   7.454 -0.9464 -0.4671  0.1447
  843SOL     OW14182   2.872   0.508   6.860  0.3219 -0.7043 -0.2107
  843SOL    HW114183   2.962   0.467   6.869  0.3250 -0.4679  0.9179
  843SOL    HW214184   2.826   0.508   6.949 -0.6785 -0.5736 -0.7160
  844SOL     OW14185   5.681   8.556   5.044 -0.0302 -0.1250  0.1171
  844SOL    HW114186   5.586   8.574   5.070  0.0878  1.0000 -0.1793
  844SOL    HW214187   5.734   8.530   5.124 -0.2481  0.7746  0.5565
  845SOL     OW14188   3.864   9.831   0.820  0.1479 -0.0077  0.5862
  845SOL    HW114189   3.937   9.882   0.775 -0.0524  0.3155  0.6272
  845SOL    HW214190   3.857   9.859   0.916 -1.0271  1.0603  0.2054
  846SOL     OW14191   8.762   1.294   4.259 -0.1707  0.6455 -0.1392
  846SOL    HW114192   8.685   1.332   4.208 -0.8069  1.4066  1.3603
  846SOL    HW214193   8.807   1.223   4.205 -1.7034  0.4597 -1.1671
  847SOL     OW14194   6.773   1.380   5.131  0.2518 -0.1425 -0.2905
  847SOL    HW114195   6.792   1.372   5.229  0.1678 -0.2590 -0.2833
  847SOL    HW214196   6.744   1.291   5.096 -1.5620  0.3322 -0.0298
  848SOL     OW14197   1.956   1.220   3.138  0.2751 -0.2882  0.1984
  848SOL    HW114198   2.001   1.301   3.176 -1.1648 -1.1717  4.1174
  848SOL    HW214199   1.915   1.243   3.050 -0.5159  3.4455  1.4235
  849SOL     OW14200   1.328   1.847   1.461  0.1032 -0.4639  0.2981
  849SOL    HW114201   1.272   1.807   1.534 -1.2234 -0.5947 -0.7805
  849SOL    HW214202   1.423   1.852   1.492 -0.6846  0.9876  2.6689
  850SOL     OW14203   1.305   7.401   7.769  0.2973 -0.4403 -0.4202
  850SOL    HW114204   1.211   7.384   7.798 -0.6226 -0.8729 -3.4269
  850SOL    HW214205   1.364   7.326   7.799 -0.5893 -0.8705  0.2563
  851SOL     OW14206   0.070   0.992   7.640  0.8006 -0.4649  0.1656
  851SOL    HW114207   0.002   1.065   7.646  1.5720  0.1664  1.3601
  851SOL    HW214208   0.052   0.925   7.712  2.4904  0.6202  1.6361
  852SOL     OW14209   3.350   1.186   2.385  0.4396 -0.4521 -0.2945
  852SOL    HW114210   3.335   1.279   2.420 -0.5260 -0.9294  0.5816
  852SOL    HW214211   3.377   1.192   2.288  0.2452  0.7344 -0.2930
  853SOL     OW14212   9.387   7.699   5.496  0.0932 -0.3679 -0.0730
  853SOL    HW114213   9.414   7.792   5.473 -1.3805 -0.3232 -1.7768
  853SOL    HW214214   9.319   7.667   5.430 -1.7746 -1.5222  2.3317
  854SOL     OW14215   6.756   0.900   5.298  0.8787  0.4146 -0.0477
  854SOL    HW114216   6.840   0.950   5.281  0.8472  0.6865  0.5829
  854SOL    HW214217   6.720   0.924   5.388  1.2258 -1.2461  0.5509
  855SOL     OW14218   1.094   8.712   0.678 -0.2693 -0.3931 -0.1741
  855SOL    HW114219   1.099   8.801   0.631  0.8430 -0.1900  0.3171
  855SOL    HW214220   1.165   8.707   0.748  0.1992 -1.9732 -0.7207
  856SOL     OW14221   7.706   2.526   5.063 -0.0788 -0.2240 -0.5191
  856SOL    HW114222   7.614   2.496   5.039 -0.7913  1.0944  0.5699
  856SOL    HW214223   7.706   2.623   5.084  1.4006 -0.3885  0.3186
  857SOL     OW14224   6.807   2.912   0.547 -0.5213 -0.2536 -0.4407
  857SOL    HW114225   6.739   2.839   0.548 -0.7914  0.0131  0.8834
  857SOL    HW214226   6.782   2.981   0.479 -2.0576  0.3039  0.6791
  858SOL     OW14227   2.348   9.126   5.885  0.2989 -0.3097 -0.0468
  858SOL    HW114228   2.417   9.183   5.840  0.3722 -1.2094 -1.1054
  858SOL    HW214229   2.389   9.082   5.966  0.4385  0.5777  0.3659
  859SOL     OW14230   2.986   3.517   7.586  0.0243 -0.2159 -0.2454
  859SOL    HW114231   2.962   3.542   7.493  0.4232 -0.2993 -0.3727
  859SOL    HW214232   3.009   3.600   7.638 -2.1037  0.0237  0.3353
  860SOL     OW14233   8.024   0.495   4.778 -0.4176  0.7200  0.6146
  860SOL    HW114234   8.064   0.505   4.869 -0.7550  0.5791  0.7752
  860SOL    HW214235   7.950   0.429   4.780  0.0430  0.1734  0.0891
  861SOL     OW14236   6.789   1.333   6.894 -0.0791 -0.2174 -0.1627
  861SOL    HW114237   6.785   1.297   6.988  2.5043  0.6849  0.3412
  861SOL    HW214238   6.878   1.311   6.854  0.7676  3.6506 -0.6221
  862SOL     OW14239   5.955   9.355   8.290  0.1892  0.6839 -0.2439
  862SOL    HW114240   5.938   9.354   8.389  0.9153  2.9899 -0.0662
  862SOL    HW214241   5.991   9.266   8.262  1.1887  0.4140  1.7967
  863SOL     OW14242   1.811   4.361   3.504 -0.0545  0.4278  0.9226
  863SOL    HW114243   1.866   4.355   3.587  1.3083  0.2920  0.0174
  863SOL    HW214244   1.779   4.455   3.492 -0.7423  0.3297  1.8970
  864SOL     OW14245   3.773   1.426   5.521  1.0527  0.3809 -0.1521
  864SOL    HW114246   3.754   1.353   5.587  0.5014  0.0417 -0.6842
  864SOL    HW214247   3.820   1.501   5.568  0.5004  0.2297  0.6668
  865SOL     OW14248   9.978   9.983   2.859 -0.0660 -0.3571 -0.4002
  865SOL    HW114249  10.005   9.886   2.854 -0.8725 -0.6295  0.3928
  865SOL    HW214250   9.964  10.008   2.954  0.1532  0.5546 -0.6076
  866SOL     OW14251   1.792   3.510   0.095  0.0835 -0.4332 -0.5668
  866SOL    HW114252   1.881   3.469   0.078  0.6827  1.1725 -1.3155
  866SOL    HW214253   1.771   3.503   0.193  0.9166 -1.0117 -0.4196
  867SOL     OW14254   0.608   3.926   5.211 -0.2906  0.4387  0.2096
  867SOL    HW114255   0.558   3.909   5.126  0.9815  2.4918 -0.9777
  867SOL    HW214256   0.543   3.954   5.282 -1.2304 -0.1321 -0.4092
  868SOL     OW14257   8.767   3.720   6.632  0.5534 -0.3251 -0.0648
  868SOL    HW114258   8.704   3.687   6.562 -1.4194  0.1800  1.4354
  868SOL    HW214259   8.854   3.746   6.589 -0.8000  0.4829 -2.3964
  869SOL     OW14260   1.943   2.543   3.158 -0.0523  0.1961 -0.5155
  869SOL    HW114261   1.852   2.530   3.118  0.7648  0.7246 -2.6189
  869SOL    HW214262   2.009   2.487   3.108  1.1301  1.4201 -0.3327
  870SOL     OW14263   4.106   9.382   2.771  0.0149  0.0409 -0.3137
  870SOL    HW114264   4.145   9.459   2.722  2.1605 -0.1516  1.0083
  870SOL    HW214265   4.151   9.373   2.860 -1.0233 -1.9944  0.0425
  871SOL     OW14266   3.041   5.704   1.307 -0.7124 -0.4652 -0.1579
  871SOL    HW114267   2.947   5.675   1.323 -0.8515 -0.3604 -0.8162
  871SOL    HW214268   3.047   5.803   1.309 -0.4544 -0.4924  0.7998
  872SOL     OW14269   0.112   5.322   1.538 -0.0284  0.7377 -0.3780
  872SOL    HW114270   0.173   5.245   1.525 -0.3087  0.5409 -0.5444
  872SOL    HW214271   0.018   5.294   1.517 -0.3600  0.6896  1.1164
  873SOL     OW14272   1.755   9.064   0.614  0.3205 -0.0311 -0.5320
  873SOL    HW114273   1.662   9.044   0.582 -0.0962  1.4825 -0.2966
  873SOL    HW214274   1.751   9.122   0.695  1.4302 -2.0187  0.9887
  874SOL     OW14275   3.684   7.425   0.881  0.0336  0.0552  0.8565
  874SOL    HW114276   3.634   7.512   0.884  1.3858  0.8318  1.1746
  874SOL    HW214277   3.666   7.379   0.793  0.7150  1.5008 -0.0576
  875SOL     OW14278   1.329   9.884   1.013 -0.2194 -0.0860  0.5785
  875SOL    HW114279   1.314   9.811   0.947 -1.3715  0.6824 -0.0416
  875SOL    HW214280   1.407   9.940   0.983  1.1467 -1.4838  1.4584
  876SOL     OW14281   0.727   2.643   0.232  0.4636  0.2518  0.5189
  876SOL    HW114282   0.807   2.584   0.216  0.4496 -0.0437  1.5228
  876SOL    HW214283   0.757   2.731   0.269  0.4319  0.6740 -0.4261
  877SOL     OW14284   3.809   2.168   4.711 -0.3769  0.3577  0.1085
  877SOL    HW114285   3.772   2.198   4.799  0.4074  1.1131  0.1915
  877SOL    HW214286   3.823   2.247   4.652 -0.6551 -0.1201 -0.6011
  878SOL     OW14287   3.326   8.351   4.865 -0.2227  0.3211  0.2713
  878SOL    HW114288   3.330   8.398   4.953  1.2867  0.2655  0.2386
  878SOL    HW214289   3.257   8.395   4.807 -0.9268  0.6188  1.3181
  879SOL     OW14290   4.282   7.567   4.599 -0.0162 -0.4000  0.1258
  879SOL    HW114291   4.350   7.513   4.549 -1.0715 -2.6188  1.0232
  879SOL    HW214292   4.315   7.583   4.692  0.3644  0.6839 -0.1837
  880SOL     OW14293   6.745   1.118   1.055  0.3152  0.4234 -0.0094
  880SOL    HW114294   6.751   1.203   1.003  2.8982 -1.0275 -2.1467
  880SOL    HW214295   6.693   1.050   1.003 -0.7833  0.3175  1.2023
  881SOL     OW14296   9.610   4.727   2.633  0.2527 -0.0303 -0.2120
  881SOL    HW114297   9.696   4.678   2.651 -1.5212 -3.3549 -0.3834
  881SOL    HW214298   9.621   4.782   2.550  1.9452 -1.1223 -0.7427
  882SOL     OW14299   9.719   9.049   4.571 -0.2866  0.3020  0.6509
  882SOL    HW114300   9.675   8.997   4.498 -2.2530 -0.8327  2.6002
  882SOL    HW214301   9.801   9.093   4.535 -0.7282 -0.9457 -2.0142
  883SOL     OW14302   9.459   9.464   5.239  0.1217  0.1375 -0.1827
  883SOL    HW114303   9.462   9.537   5.171 -1.1145  1.1104  0.7667
  883SOL    HW214304   9.383   9.402   5.217  2.0392 -1.7034 -1.7909
  884SOL     OW14305   8.094   8.572   3.925 -0.1463 -0.2380  0.0880
  884SOL    HW114306   8.082   8.489   3.872  0.3751  0.1773 -0.6983
  884SOL    HW214307   8.005   8.610   3.950 -0.4791  1.0943 -2.9298
  885SOL     OW14308   2.253   7.510   2.662  0.0953  0.3024  0.5648
  885SOL    HW114309   2.172   7.507   2.603 -0.0953 -1.3953  0.8948
  885SOL    HW214310   2.334   7.488   2.608  0.1214  0.2607  0.6222
  886SOL     OW14311   6.319   1.739   0.715  0.2679 -0.5384  0.1295
  886SOL    HW114312   6.338   1.647   0.680  0.0061 -0.5593  0.0376
  886SOL    HW214313   6.245   1.734   0.783 -1.0887 -0.1479 -1.2878
  887SOL     OW14314   3.904   8.628   5.107 -0.5064 -0.1601 -0.5550
  887SOL    HW114315   3.925   8.723   5.127 -0.8006 -0.3055  0.4815
  887SOL    HW214316   3.931   8.570   5.184  0.5516 -1.0369 -1.5666
  888SOL     OW14317   0.269   8.630   6.634 -0.3655  0.0919 -0.4717
  888SOL    HW114318   0.291   8.714   6.684 -0.3864 -0.8214  1.0691
  888SOL    HW214319   0.343   8.611   6.569 -0.7834  1.7798 -1.5039
  889SOL     OW14320   8.200   6.487   2.871  0.1459  0.2323  0.4834
  889SOL    HW114321   8.262   6.517   2.943 -0.4405  0.5620  0.8560
  889SOL    HW214322   8.119   6.444   2.912  0.4447 -0.8265 -0.0134
  890SOL     OW14323   2.839   1.734   0.018 -0.0924 -0.3592  0.1944
  890SOL    HW114324   2.769   1.782  -0.034 -1.8427 -1.6261  1.3359
  890SOL    HW214325   2.838   1.637  -0.005 -0.5030 -0.8311  2.1162
  891SOL     OW14326   8.508   5.779   6.131 -0.9338 -0.2856 -0.2570
  891SOL    HW114327   8.605   5.790   6.152 -1.5308  1.2941  1.7661
  891SOL    HW214328   8.464   5.727   6.204 -1.9911  0.6965 -0.1861
  892SOL     OW14329   1.353   2.242   1.309 -0.0505 -0.4634  0.6983
  892SOL    HW114330   1.349   2.249   1.409  1.0399 -0.4586  0.7524
  892SOL    HW214331   1.430   2.296   1.275  0.0548 -1.0804 -0.0702
  893SOL     OW14332   4.382   2.253   6.868 -0.3020  0.0132  0.2888
  893SOL    HW114333   4.349   2.224   6.778 -1.1555 -0.2298  0.6699
  893SOL    HW214334   4.382   2.174   6.930 -0.6363  0.3783  0.7585
  894SOL     OW14335   7.950   2.735   5.390  0.2538 -0.5735  0.3465
  894SOL    HW114336   7.901   2.820   5.406 -0.9651 -0.5730 -3.0508
  894SOL    HW214337   7.892   2.658   5.415  0.6064 -0.4815  1.4936
  895SOL     OW14338   2.908   1.623   1.235  0.5649  0.8653  0.3452
  895SOL    HW114339   2.979   1.558   1.261 -0.1143  0.2170  0.5793
  895SOL    HW214340   2.880   1.607   1.140  0.1818  0.6174  0.4992
  896SOL     OW14341   0.343   3.635   1.066 -0.3345  0.6473 -0.0367
  896SOL    HW114342   0.267   3.650   1.003  0.4542 -2.0299 -1.7054
  896SOL    HW214343   0.308   3.633   1.160 -2.3617 -0.5995 -0.7812
  897SOL     OW14344   1.668   0.059   6.582  0.8641 -0.1673  0.3775
  897SOL    HW114345   1.687  -0.017   6.519 -0.2280 -1.0663  1.0997
  897SOL    HW214346   1.672   0.145   6.532 -0.8836 -0.9312 -1.1652
  898SOL     OW14347   1.735   0.889   6.140  0.5375  0.1316 -0.1409
  898SOL    HW114348   1.679   0.913   6.062  0.8512  0.2142 -0.3436
  898SOL    HW214349   1.796   0.965   6.163 -0.8069  0.7941  1.3130
  899SOL     OW14350   3.210   2.429   3.189 -0.0493 -0.0285 -0.0951
  899SOL    HW114351   3.127   2.384   3.155 -0.6187 -0.2908  1.6158
  899SOL    HW214352   3.291   2.382   3.152 -0.6554 -1.2734  0.1272
  900SOL     OW14353   8.604   6.413   3.029  0.1970  0.2439 -0.2921
  900SOL    HW114354   8.657   6.391   3.111 -2.3924 -0.5877  1.2268
  900SOL    HW214355   8.585   6.330   2.978  1.9620  0.7856 -1.8792
  901SOL     OW14356   0.228   7.852   4.327  0.3358 -0.4047 -0.4148
  901SOL    HW114357   0.211   7.900   4.241 -1.1232  0.8578  0.5495
  901SOL    HW214358   0.312   7.888   4.369  0.6628 -0.5294 -0.9539
  902SOL     OW14359   9.891   1.748   3.879 -0.2783 -0.7551 -0.0456
  902SOL    HW114360   9.961   1.817   3.859  0.8446 -2.4230 -2.0966
  902SOL    HW214361   9.912   1.704   3.966  0.4463 -0.2752  0.0342
  903SOL     OW14362   3.231   3.710   7.213  0.6466 -0.3831  0.5486
  903SOL    HW114363   3.160   3.694   7.145  1.5666 -0.9883 -0.2802
  903SOL    HW214364   3.264   3.623   7.248  0.2879 -0.0756  1.6568
  904SOL     OW14365   1.700   4.370   6.247  0.1475  0.6128 -0.1936
  904SOL    HW114366   1.750   4.451   6.277 -1.1026  1.8540 -1.3772
  904SOL    HW214367   1.612   4.398   6.208 -0.3058 -1.3249 -0.6135
  905SOL     OW14368   3.352   7.678   3.033  0.7583  0.0213  0.1589
  905SOL    HW114369   3.352   7.707   2.937  0.2061 -1.3128 -0.2538
  905SOL    HW214370   3.318   7.584   3.040 -0.3370  0.5049  1.7813
  906SOL     OW14371   7.685   2.291   0.310  0.2663  0.1530  0.0720
  906SOL    HW114372   7.743   2.212   0.290 -0.4027 -0.1524 -0.6627
  906SOL    HW214373   7.726   2.373   0.269  0.3976  0.0088 -0.0875
  907SOL     OW14374   6.177   0.255   1.476 -0.6189  0.1231  0.0537
  907SOL    HW114375   6.223   0.238   1.389 -1.4721  0.4007 -0.4571
  907SOL    HW214376   6.217   0.196   1.547  2.1388  2.0231  0.1664
  908SOL     OW14377   3.219   1.594   3.988 -0.0596 -0.6850 -0.0588
  908SOL    HW114378   3.224   1.601   3.888 -1.3945 -0.8830 -0.1500
  908SOL    HW214379   3.129   1.626   4.019  0.2921 -0.7650  1.0688
  909SOL     OW14380   2.772   0.572   2.115  0.9208  0.3410 -0.2784
  909SOL    HW114381   2.718   0.499   2.156 -1.1817  2.3525  0.5899
  909SOL    HW214382   2.868   0.561   2.143  0.5891 -1.8646  0.1169
  910SOL     OW14383   2.947   6.666   5.568 -0.2266  0.1129  0.6216
  910SOL    HW114384   2.971   6.759   5.596 -0.0539  0.7847 -1.6614
  910SOL    HW214385   3.025   6.624   5.520 -1.8529  0.5456 -2.5280
  911SOL     OW14386   6.797   7.406   6.789  0.3301  0.2496  0.0457
  911SOL    HW114387   6.866   7.478   6.791  0.8827 -0.2876  0.5618
  911SOL    HW214388   6.842   7.317   6.779 -0.3794  0.0158 -1.2530
  912SOL     OW14389   0.899   9.670   2.098 -0.2175  0.4403 -0.3060
  912SOL    HW114390   0.854   9.695   2.012  0.0187  0.2966 -0.4715
  912SOL    HW214391   0.846   9.598   2.144 -0.6697  0.9432 -0.0353
  913SOL     OW14392   0.921   8.864   1.878  0.1278 -0.5455 -0.3750
  913SOL    HW114393   0.914   8.819   1.789 -1.8133  1.7072 -1.4212
  913SOL    HW214394   0.844   8.836   1.935 -0.2066  0.2190 -0.4516
  914SOL     OW14395   8.734   0.521   1.077  0.0451 -0.2643  0.0973
  914SOL    HW114396   8.800   0.582   1.120  0.6788 -0.3327 -0.7721
  914SOL    HW214397   8.651   0.571   1.054 -0.0717 -0.1010  0.8814
  915SOL     OW14398   3.972   4.542   6.615 -0.7792 -0.8715  0.0086
  915SOL    HW114399   4.006   4.583   6.530  1.8724 -0.1036  1.3760
  915SOL    HW214400   4.022   4.458   6.633 -2.0229 -1.5497  0.3077
  916SOL     OW14401   5.657   8.871   7.991 -0.5811 -0.3476  0.5672
  916SOL    HW114402   5.647   8.909   7.900 -1.0286 -0.6847  0.4699
  916SOL    HW214403   5.718   8.792   7.988 -1.7628 -1.2684  0.2869
  917SOL     OW14404   6.066   0.879   6.118 -0.5180  0.1330 -0.2375
  917SOL    HW114405   6.086   0.969   6.156  0.3803  0.7098 -2.0158
  917SOL    HW214406   6.129   0.811   6.156  0.8966  0.8491 -1.2568
  918SOL     OW14407   1.429   4.819   2.437  0.3229 -0.3480 -0.5794
  918SOL    HW114408   1.517   4.811   2.484  0.4591 -1.2890 -0.9874
  918SOL    HW214409   1.364   4.755   2.477 -0.2404  0.4782 -0.1546
  919SOL     OW14410   8.119   8.836   3.257  0.3950 -1.2629 -0.2996
  919SOL    HW114411   8.042   8.875   3.309  3.4602  1.6086  2.3227
  919SOL    HW214412   8.120   8.876   3.165 -1.6915 -1.9678 -0.6622
  920SOL     OW14413   8.580   9.378   5.347 -0.0429 -0.7701  0.6058
  920SOL    HW114414   8.583   9.426   5.259 -2.0157  0.1619  1.0414
  920SOL    HW214415   8.669   9.389   5.393 -0.2160  1.9075  0.3962
  921SOL     OW14416   0.137   7.082   3.961 -0.0521  0.1523 -0.0391
  921SOL    HW114417   0.236   7.072   3.951  0.0918 -1.2132  2.2698
  921SOL    HW214418   0.108   7.034   4.044 -2.2389  2.9869  0.9092
  922SOL     OW14419   2.450   5.081   4.885 -0.4518  0.7331 -0.1458
  922SOL    HW114420   2.393   5.003   4.858  0.0923  0.2362  0.1311
  922SOL    HW214421   2.522   5.050   4.947  0.2050  1.3356 -0.5973
  923SOL     OW14422   4.445   3.679   5.384  0.9791 -0.6251 -0.2893
  923SOL    HW114423   4.418   3.632   5.469 -0.1143 -1.4643 -1.0825
  923SOL    HW214424   4.485   3.613   5.321 -1.6831 -0.7890 -1.8930
  924SOL     OW14425   6.129   9.787   1.341  0.4141  0.4664  0.5998
  924SOL    HW114426   6.138   9.855   1.268 -0.2087  0.9601  0.9806
  924SOL    HW214427   6.034   9.783   1.372  0.2675 -1.2418 -0.0454
  925SOL     OW14428   0.562   8.703   3.654  0.6559 -0.3168  0.2108
  925SOL    HW114429   0.464   8.715   3.670  0.7235  1.1821 -0.3842
  925SOL    HW214430   0.577   8.676   3.558  1.0139  2.9705 -0.7262
  926SOL     OW14431   6.676   4.042   1.441 -0.0795 -0.1118 -0.2743
  926SOL    HW114432   6.629   4.075   1.359 -1.9724  0.0275  0.8434
  926SOL    HW214433   6.656   4.103   1.517  1.6349 -0.2750  0.3331
  927SOL     OW14434   0.626   6.720   6.326  0.5516  0.3149 -0.1224
  927SOL    HW114435   0.637   6.743   6.229  1.9409  1.2557  0.2530
  927SOL    HW214436   0.557   6.647   6.335  1.6291 -0.9691 -1.9395
  928SOL     OW14437   9.185   3.371   6.615 -0.6673 -0.4445 -0.4249
  928SOL    HW114438   9.113   3.302   6.601  0.0879 -0.8938 -2.2133
  928SOL    HW214439   9.165   3.451   6.560 -0.6430  0.1046  0.3541
  929SOL     OW14440   1.905   3.065   6.311  0.0544 -0.4188 -0.8071
  929SOL    HW114441   1.849   3.104   6.385 -1.5773 -2.1129 -1.0992
  929SOL    HW214442   1.845   3.033   6.238  1.4562 -1.7273 -1.4083
  930SOL     OW14443   2.538   1.434   6.840 -0.5051  0.2101 -0.1097
  930SOL    HW114444   2.558   1.439   6.938 -0.2156  1.4416 -0.2263
  930SOL    HW214445   2.453   1.482   6.820  1.2914  3.1268 -0.9757
  931SOL     OW14446   4.269   8.516   0.598 -0.0830  0.0709  0.0980
  931SOL    HW114447   4.258   8.424   0.637 -1.4634  0.1527 -0.0659
  931SOL    HW214448   4.343   8.515   0.530  0.5226 -0.6966  0.7587
  932SOL     OW14449   5.928   0.635   2.415  0.5534 -0.3499  0.4033
  932SOL    HW114450   5.977   0.660   2.498  1.3427 -1.1312  0.1850
  932SOL    HW214451   5.862   0.563   2.435  1.5708 -1.3673  0.1340
  933SOL     OW14452   8.834   4.784   0.756 -0.1210 -0.1397 -0.0115
  933SOL    HW114453   8.769   4.824   0.692 -0.1232 -1.0954 -0.6153
  933SOL    HW214454   8.856   4.850   0.828  1.7494  1.8404 -2.3365
  934SOL     OW14455   4.060   7.370   4.628 -0.1813 -0.1617  0.1209
  934SOL    HW114456   3.985   7.436   4.628 -0.4587 -0.4742 -0.8069
  934SOL    HW214457   4.140   7.411   4.584 -0.4035 -0.4874 -0.6021
  935SOL     OW14458   8.796   2.616   3.297 -0.2938 -0.6850 -0.2917
  935SOL    HW114459   8.848   2.700   3.315 -1.0729 -0.2470 -0.0443
  935SOL    HW214460   8.853   2.537   3.316  0.1059 -0.2103  0.5162
  936SOL     OW14461   2.831   5.965   5.002 -0.4483 -0.2169 -0.9502
  936SOL    HW114462   2.866   5.878   4.966  1.1052 -0.2197  0.5485
  936SOL    HW214463   2.845   6.037   4.934 -0.3927 -0.8496 -1.6139
  937SOL     OW14464   3.566   9.284   1.993  0.1684  0.3125  0.2769
  937SOL    HW114465   3.497   9.342   1.951  1.2491  0.1423 -1.8329
  937SOL    HW214466   3.626   9.340   2.051 -0.3190  0.8680  0.2445
  938SOL     OW14467   2.424   8.124   5.934  0.3431  0.4929 -0.3793
  938SOL    HW114468   2.340   8.136   5.881  0.2085 -0.6634 -0.4457
  938SOL    HW214469   2.440   8.204   5.990 -0.5234  0.9454 -0.7701
  939SOL     OW14470   4.874   5.890   2.401  0.2605 -0.0960 -0.7357
  939SOL    HW114471   4.821   5.889   2.316  0.3678  0.6906 -0.8149
  939SOL    HW214472   4.966   5.922   2.383  0.2425  0.2179 -0.2996
  940SOL     OW14473   4.700   9.903   5.340  0.1766 -0.2255  0.0611
  940SOL    HW114474   4.737   9.897   5.247  0.7016  2.8359  0.0257
  940SOL    HW214475   4.631   9.975   5.344  1.3862  0.8627  2.4142
  941SOL     OW14476   9.756   9.980   0.444 -0.9252  0.1873 -0.5683
  941SOL    HW114477   9.838   9.926   0.462  0.2429  0.5460 -4.3363
  941SOL    HW214478   9.771  10.074   0.476 -0.7443 -0.2998  0.7936
  942SOL     OW14479   1.315   7.823   3.479  0.4695 -0.0300 -0.3289
  942SOL    HW114480   1.381   7.897   3.488  1.6543 -1.2318  1.2336
  942SOL    HW214481   1.341   7.747   3.539 -0.3212 -2.0142 -2.3998
  943SOL     OW14482   4.896   6.859   2.306  0.0568  0.4050 -0.1846
  943SOL    HW114483   4.870   6.844   2.401 -1.5941  0.8510 -0.5536
  943SOL    HW214484   4.978   6.916   2.303  1.1196 -1.0064  0.9956
  944SOL     OW14485   0.547   3.787   6.940  0.0007 -0.2988 -0.0362
  944SOL    HW114486   0.506   3.849   7.008  2.5324  1.1076  0.2516
  944SOL    HW214487   0.566   3.699   6.983  0.1089  0.0544  0.6432
  945SOL     OW14488   3.208   5.598   3.253 -0.5224  0.3201 -0.5347
  945SOL    HW114489   3.220   5.528   3.182 -0.7042 -0.0516 -0.1980
  945SOL    HW214490   3.132   5.573   3.312 -0.4649  0.7092 -0.2947
  946SOL     OW14491   7.073   6.771   5.688  0.5721 -0.0013 -0.1067
  946SOL    HW114492   7.129   6.692   5.663 -0.1055 -0.5040 -0.0705
  946SOL    HW214493   7.060   6.774   5.787 -0.2714 -0.4498 -0.1987
  947SOL     OW14494   9.342   2.389   3.460  0.2059 -0.2252 -0.0706
  947SOL    HW114495   9.293   2.386   3.373 -0.0555 -1.6342  0.1258
  947SOL    HW214496   9.366   2.296   3.489  1.8753  0.3521  0.4690
  948SOL     OW14497   2.695   6.635   5.434 -0.3087 -0.4587  0.4221
  948SOL    HW114498   2.785   6.636   5.478  0.0329 -0.6685 -0.2603
  948SOL    HW214499   2.638   6.566   5.479  0.0151 -0.6339  0.5744
  949SOL     OW14500   6.067   0.764   1.912 -0.4386 -0.7212  0.3631
  949SOL    HW114501   6.117   0.739   1.830 -0.3231 -0.4938  0.3642
  949SOL    HW214502   6.049   0.863   1.912  0.2783 -0.5818  1.0034
  950SOL     OW14503   3.195   7.483   1.323  0.2696  0.1033  0.2283
  950SOL    HW114504   3.268   7.550   1.329 -0.8754  1.3748  0.3163
  950SOL    HW214505   3.185   7.435   1.410 -1.7437  2.9051  1.6307
  951SOL     OW14506   4.037   7.779   1.762  0.5870  0.0817  0.5202
  951SOL    HW114507   4.008   7.832   1.682  0.6457 -0.7488 -0.0530
  951SOL    HW214508   4.135   7.791   1.776  0.8451 -0.8944 -0.3825
  952SOL     OW14509   2.948   8.732   4.095 -0.2937  0.0743  0.7299
  952SOL    HW114510   3.045   8.711   4.105 -0.0117  1.5644  1.2522
  952SOL    HW214511   2.930   8.826   4.126 -1.5810  0.4479 -1.0248
  953SOL     OW14512   1.803   8.116   1.352  0.1543 -0.5220  0.1678
  953SOL    HW114513   1.895   8.121   1.390  0.6855  0.5238 -1.2017
  953SOL    HW214514   1.745   8.183   1.398  0.0844 -1.1549  1.0044
  954SOL     OW14515   2.583   1.453   3.534  0.4006  0.4846 -0.2480
  954SOL    HW114516   2.668   1.403   3.521  0.0521 -0.4444  0.9854
  954SOL    HW214517   2.509   1.405   3.487  0.4333  0.9431 -0.7737
  955SOL     OW14518   8.969   1.678   2.772 -0.4958  0.3739 -0.0639
  955SOL    HW114519   8.968   1.714   2.865 -2.5955 -0.3054  0.2092
  955SOL    HW214520   8.885   1.627   2.755  0.7155 -1.1344 -1.7147
  956SOL     OW14521   4.545   6.770   2.798  0.1967  0.1155 -0.3701
  956SOL    HW114522   4.596   6.836   2.853  1.0448 -0.4244 -0.4933
  956SOL    HW214523   4.584   6.766   2.706  0.1577 -0.5600 -0.3588
  957SOL     OW14524   5.287   7.288   6.671 -0.3320  0.0748  0.1828
  957SOL    HW114525   5.371   7.342   6.671 -0.6895  0.6514 -0.8246
  957SOL    HW214526   5.232   7.311   6.591  0.2876 -3.0305 -1.2204
  958SOL     OW14527   8.541   5.634   2.874 -0.0642  0.4803 -0.3516
  958SOL    HW114528   8.446   5.608   2.889 -0.3795  1.4262 -0.7252
  958SOL    HW214529   8.595   5.552   2.854 -1.0690  0.1140 -1.5718
  959SOL     OW14530   6.402   2.339   0.927  0.1107 -0.0061 -0.6148
  959SOL    HW114531   6.411   2.343   1.027 -1.0215 -1.3582 -0.4476
  959SOL    HW214532   6.480   2.386   0.885 -0.0548  1.7145  0.9068
  960SOL     OW14533   1.123   2.601   3.701 -0.4101 -0.3794  0.1535
  960SOL    HW114534   1.155   2.518   3.654  1.1502  0.0019  0.5378
  960SOL    HW214535   1.200   2.662   3.717 -1.2175  0.2455  1.7245
  961SOL     OW14536   3.933   0.149   7.930  0.0579  0.4499  0.2793
  961SOL    HW114537   3.999   0.089   7.883 -1.0630 -2.0911  1.8478
  961SOL    HW214538   3.983   0.212   7.990  1.1090 -1.0599  1.0205
  962SOL     OW14539   3.228   0.672   5.215 -0.3334 -0.1130 -0.1205
  962SOL    HW114540   3.281   0.750   5.182  2.0481 -1.7876 -0.3911
  962SOL    HW214541   3.231   0.669   5.315 -0.5952  0.2412 -0.1003
  963SOL     OW14542   3.535   5.719   4.023  0.1606  0.8433  0.1219
  963SOL    HW114543   3.612   5.754   3.970 -0.5022  1.1438 -0.6490
  963SOL    HW214544   3.469   5.676   3.962 -0.9558  1.8214  0.6018
  964SOL     OW14545   9.058   5.339   7.832  0.4573  0.0705 -0.0864
  964SOL    HW114546   9.033   5.269   7.766 -0.8305  0.9326 -0.5374
  964SOL    HW214547   9.156   5.335   7.850  0.7037 -0.6146 -1.5197
  965SOL     OW14548   2.686   1.692   6.209  0.4737  0.0562  0.1319
  965SOL    HW114549   2.740   1.608   6.197 -0.4853 -0.1227 -3.3415
  965SOL    HW214550   2.601   1.670   6.258  0.3402 -0.9698 -0.5465
  966SOL     OW14551   8.905   4.626   6.150  0.3976  0.8419 -1.0034
  966SOL    HW114552   8.973   4.635   6.077  2.6521  0.4047  0.9960
  966SOL    HW214553   8.949   4.637   6.239 -2.2624  1.0986  0.3320
  967SOL     OW14554   1.606   4.117   0.849 -0.7242  0.3549 -0.0711
  967SOL    HW114555   1.605   4.017   0.841 -0.7143  0.3610 -0.1528
  967SOL    HW214556   1.686   4.153   0.802 -1.4495  0.5069 -1.1905
  968SOL     OW14557   1.153   7.093   7.207  0.2922 -0.4499 -0.0810
  968SOL    HW114558   1.075   7.156   7.213  0.9126  0.4303 -1.1242
  968SOL    HW214559   1.122   7.000   7.229 -0.4897  0.3097  2.1213
  969SOL     OW14560   6.305   7.846   3.712 -0.1347 -0.0922 -0.1188
  969SOL    HW114561   6.326   7.942   3.733 -0.2510  0.2457 -1.5060
  969SOL    HW214562   6.356   7.818   3.631 -1.3509 -0.7115 -0.6730
  970SOL     OW14563   9.887   0.803   1.910  0.2158 -0.6078  0.0836
  970SOL    HW114564   9.924   0.893   1.886 -0.6907 -0.4682 -0.8573
  970SOL    HW214565   9.877   0.796   2.009 -0.3489  0.5851  0.1205
  971SOL     OW14566   6.683   9.338   5.045 -0.2373 -0.0965 -0.3728
  971SOL    HW114567   6.624   9.387   4.980 -2.4474  1.1155  2.4462
  971SOL    HW214568   6.713   9.401   5.116 -1.9915 -2.4130  2.5610
  972SOL     OW14569   2.320   5.340   4.182  0.0957  0.0297  0.1283
  972SOL    HW114570   2.279   5.294   4.103  1.0798 -0.0468 -0.3429
  972SOL    HW214571   2.406   5.296   4.206 -0.4838 -0.3154  1.6258
  973SOL     OW14572   9.326   8.831   0.298 -0.2768 -0.1573  0.2302
  973SOL    HW114573   9.381   8.888   0.237  0.9175 -0.3860  1.0711
  973SOL    HW214574   9.246   8.882   0.328 -0.5924  0.1492 -1.0881
  974SOL     OW14575   9.014   2.228   4.756 -0.1050  0.5106 -0.2910
  974SOL    HW114576   9.053   2.139   4.732 -2.3402 -0.9881  1.4190
  974SOL    HW214577   9.065   2.267   4.833 -0.3478 -0.2541  0.2694
  975SOL     OW14578   9.007   6.507   4.454  0.5016  0.4390 -0.0527
  975SOL    HW114579   9.034   6.576   4.386 -1.0239 -0.1434 -1.2528
  975SOL    HW214580   9.030   6.416   4.420 -0.7377  0.1093 -0.0043
  976SOL     OW14581   4.659   0.917   2.206 -0.3065  0.2712  0.2485
  976SOL    HW114582   4.591   0.912   2.279 -1.7928  0.3196 -1.0943
  976SOL    HW214583   4.619   0.963   2.127  0.3207 -2.3658 -1.6450
  977SOL     OW14584   8.482   4.853   0.888  0.3203 -0.1420 -0.2103
  977SOL    HW114585   8.484   4.942   0.843  2.6990  0.2695  0.6096
  977SOL    HW214586   8.488   4.781   0.820 -0.0718  0.3763 -0.7942
  978SOL     OW14587   8.144   7.391   7.852 -0.3964  0.4540 -0.2803
  978SOL    HW114588   8.057   7.428   7.818 -0.2596 -1.5845 -3.1593
  978SOL    HW214589   8.204   7.374   7.774  1.1408 -1.6626  1.3242
  979SOL     OW14590   0.389   0.550   0.093 -0.3358 -0.3700 -0.1070
  979SOL    HW114591   0.299   0.554   0.136 -0.4686  1.6128 -0.5228
  979SOL    HW214592   0.449   0.618   0.135  0.6972 -1.0884 -0.4189
  980SOL     OW14593   3.656   1.124   5.147 -0.0217 -0.2404 -0.5969
  980SOL    HW114594   3.717   1.203   5.158 -0.2053 -0.0088 -1.2414
  980SOL    HW214595   3.562   1.155   5.133 -0.2171 -0.5897 -0.0874
  981SOL     OW14596   2.689   4.109   4.367  0.2714  0.4202  0.1380
  981SOL    HW114597   2.619   4.088   4.298  1.8966 -1.6946 -0.9417
  981SOL    HW214598   2.761   4.165   4.325  1.5701 -1.3805 -0.0985
  982SOL     OW14599   2.492   3.758   2.386 -0.7616 -0.6381  0.0713
  982SOL    HW114600   2.511   3.713   2.299 -1.5363 -0.6801 -0.0762
  982SOL    HW214601   2.394   3.771   2.397 -0.6984 -0.9614  1.1054
  983SOL     OW14602   8.748   5.982   0.906  0.4607 -0.2397  0.2836
  983SOL    HW114603   8.817   6.054   0.903  0.9082 -0.6155  1.3811
  983SOL    HW214604   8.660   6.022   0.932  0.3278  0.1911 -0.8232
  984SOL     OW14605   6.696   4.926   0.183 -0.3336  0.0824 -0.7443
  984SOL    HW114606   6.683   4.833   0.151 -1.0476 -0.5164  1.2089
  984SOL    HW214607   6.644   4.989   0.127 -0.6691 -0.8093 -1.4365
  985SOL     OW14608   6.552   4.111   1.708  0.1653 -0.1574 -0.0046
  985SOL    HW114609   6.459   4.147   1.715  0.1192 -0.5130  1.3741
  985SOL    HW214610   6.618   4.185   1.722  0.0706 -0.3155  1.4206
  986SOL     OW14611   3.546   9.087   7.608  0.1048 -0.3907  0.4772
  986SOL    HW114612   3.479   9.136   7.664 -1.0551 -0.3558 -0.8890
  986SOL    HW214613   3.638   9.121   7.627 -0.5348  1.3399  0.5663
  987SOL     OW14614   8.825   3.029   5.857 -0.8802 -0.2785  0.1582
  987SOL    HW114615   8.909   3.054   5.810 -0.1909 -0.7421  1.1167
  987SOL    HW214616   8.800   2.934   5.834 -2.5658  0.6667 -2.1459
  988SOL     OW14617   2.046   6.203   4.769  0.8257  0.4992  0.5650
  988SOL    HW114618   1.986   6.135   4.811  0.6928  0.6756  0.6630
  988SOL    HW214619   2.124   6.221   4.829  0.4244  1.0513  0.9247
  989SOL     OW14620   8.809   1.432   6.109  0.6587 -0.5347  0.3285
  989SOL    HW114621   8.784   1.352   6.054  0.6210  0.1994 -0.7376
  989SOL    HW214622   8.880   1.484   6.062 -1.7206  1.9318 -0.6846
  990SOL     OW14623   1.172   7.913   1.823 -0.5043 -0.1460 -0.4443
  990SOL    HW114624   1.219   8.001   1.825 -1.2023  0.2944 -2.8058
  990SOL    HW214625   1.074   7.928   1.828 -0.5922 -0.8518  0.0154
  991SOL     OW14626   9.388   2.179   5.230  0.2386  0.2004  0.0111
  991SOL    HW114627   9.467   2.236   5.252  1.7390 -2.5310  2.0382
  991SOL    HW214628   9.400   2.138   5.140  0.8220  0.3021  0.0422
  992SOL     OW14629   3.904   7.357   6.592  0.1471  0.3986 -0.0093
  992SOL    HW114630   3.938   7.434   6.647 -1.1065  0.6483  0.4182
  992SOL    HW214631   3.910   7.380   6.495 -4.0578  2.7257  0.1710
  993SOL     OW14632   4.184   6.805   1.952 -0.3951  0.0312 -0.0081
  993SOL    HW114633   4.228   6.789   1.864 -1.3969  2.0461 -0.8965
  993SOL    HW214634   4.170   6.903   1.966 -0.6261 -0.2849  2.2170
  994SOL     OW14635   5.284   8.630   2.414 -0.1310 -0.0850 -0.0075
  994SOL    HW114636   5.351   8.601   2.482  0.5748 -1.1003 -1.1118
  994SOL    HW214637   5.204   8.570   2.418 -0.7199  0.7525  0.9021
  995SOL     OW14638   8.034   1.911   4.060  0.4228 -0.0441  0.0510
  995SOL    HW114639   7.963   1.878   3.997  0.0654 -0.3581  0.6084
  995SOL    HW214640   8.020   2.009   4.077  1.8984  0.5665 -2.1443
  996SOL     OW14641   1.813   8.377   4.215 -0.0882 -0.6695 -0.0216
  996SOL    HW114642   1.812   8.364   4.116  0.4474  0.2598 -0.1583
  996SOL    HW214643   1.755   8.455   4.239  1.2683  0.2933  0.1995
  997SOL     OW14644   3.151   4.407   6.796  0.0766 -0.5787 -0.2906
  997SOL    HW114645   3.202   4.352   6.863  0.2390 -1.6187 -1.2601
  997SOL    HW214646   3.206   4.417   6.713 -1.3975 -1.8851 -1.4309
  998SOL     OW14647   1.501   1.547   0.676  0.1678 -0.4571  0.0167
  998SOL    HW114648   1.432   1.525   0.607 -1.6418 -1.1039  1.9458
  998SOL    HW214649   1.526   1.643   0.669 -1.9816  0.1297  0.1533
  999SOL     OW14650   3.862   5.902   2.176  0.4132  0.0690 -0.3070
  999SOL    HW114651   3.864   5.964   2.098 -1.0699 -0.0445 -0.4532
  999SOL    HW214652   3.805   5.823   2.153 -1.2691  0.7481  1.4166
 1000SOL     OW14653   3.606   7.656   1.742  0.2614  0.2787 -0.7137
 1000SOL    HW114654   3.671   7.671   1.817 -0.3344  1.7061 -0.4714
 1000SOL    HW214655   3.608   7.560   1.716 -1.2521 -0.7952  2.7812
 1001SOL     OW14656   4.387   1.077   0.355  0.0840 -0.1049 -0.3606
 1001SOL    HW114657   4.451   1.008   0.324  3.6359  2.6088  0.5799
 1001SOL    HW214658   4.380   1.150   0.287  0.8955  1.4225  1.1517
 1002SOL     OW14659   7.386   1.084   1.390 -0.0340 -0.1469 -0.0640
 1002SOL    HW114660   7.326   1.066   1.312 -1.6845 -0.0255  1.1455
 1002SOL    HW214661   7.459   1.146   1.362 -1.1977  0.7137 -1.2712
 1003SOL     OW14662   8.674   6.369   6.737  0.2424 -0.5786 -0.2158
 1003SOL    HW114663   8.713   6.451   6.696 -0.8486  0.2202  0.3373
 1003SOL    HW214664   8.617   6.322   6.670 -0.2312 -0.1487 -0.1173
 1004SOL     OW14665   2.919   8.110   2.460  0.0536  0.8437  0.3539
 1004SOL    HW114666   2.826   8.104   2.423  1.0237 -0.6498 -1.9889
 1004SOL    HW214667   2.974   8.168   2.400  1.1500  0.0655  0.5987
 1005SOL     OW14668   0.845   4.158   4.376  0.4891 -0.4993  0.5723
 1005SOL    HW114669   0.840   4.103   4.459 -2.4982  0.6972  1.2400
 1005SOL    HW214670   0.778   4.125   4.310 -0.8133  1.8071  0.6890
 1006SOL     OW14671   3.007   7.491   3.169  0.1239  0.2941 -0.9146
 1006SOL    HW114672   2.977   7.424   3.238  2.4641  0.6471  0.5270
 1006SOL    HW214673   2.986   7.583   3.201  0.9250  0.4423 -0.8034
 1007SOL     OW14674   2.443   4.203   4.798 -0.1347 -0.7408  0.1904
 1007SOL    HW114675   2.368   4.256   4.757  0.6925 -0.8387 -1.4814
 1007SOL    HW214676   2.446   4.221   4.896  0.3090  2.6029 -0.3484
 1008SOL     OW14677   1.720   7.356   0.510 -0.0277 -0.2350  0.0477
 1008SOL    HW114678   1.723   7.257   0.525  0.3938 -0.4406 -1.3487
 1008SOL    HW214679   1.813   7.391   0.499 -0.0790  0.5408  1.8330
 1009SOL     OW14680   0.599   0.960   4.263  0.2526  0.0964  0.2827
 1009SOL    HW114681   0.668   0.931   4.197 -1.5580 -1.2804 -1.0718
 1009SOL    HW214682   0.637   0.957   4.355  1.8238 -1.2115 -0.3790
 1010SOL     OW14683   2.201   6.615   2.231 -0.2009 -0.2025  0.1424
 1010SOL    HW114684   2.154   6.680   2.291  0.6576 -0.3304  0.9657
 1010SOL    HW214685   2.144   6.534   2.218  0.2275 -0.8628  2.0636
 1011SOL     OW14686   0.568   8.803   6.960  0.4478  0.1930 -0.3202
 1011SOL    HW114687   0.569   8.766   7.053 -0.3280 -1.0357 -0.7957
 1011SOL    HW214688   0.604   8.735   6.897 -2.7249 -0.5280 -1.4619
 1012SOL     OW14689   1.527   6.118   6.448 -0.3152  0.1746 -0.1997
 1012SOL    HW114690   1.600   6.185   6.462 -0.8126  0.4593  1.1409
 1012SOL    HW214691   1.476   6.142   6.365 -0.7771  1.7489  0.5227
 1013SOL     OW14692   5.188   8.483   6.882  0.6506 -0.0939 -0.5565
 1013SOL    HW114693   5.212   8.441   6.969 -2.9569 -0.3359  0.4055
 1013SOL    HW214694   5.147   8.414   6.822 -1.4525  1.0682 -0.5206
 1014SOL     OW14695   8.944   1.582   4.028 -0.0716 -0.4609 -0.8377
 1014SOL    HW114696   8.882   1.511   3.994  0.6193 -1.5279  0.0901
 1014SOL    HW214697   8.984   1.631   3.951 -1.7026 -0.0820 -1.4506
 1015SOL     OW14698   4.845   0.231   3.229  0.1465  0.3373 -0.3188
 1015SOL    HW114699   4.879   0.200   3.140  2.3328  0.5273  0.4236
 1015SOL    HW214700   4.898   0.189   3.302 -0.8959  1.0496  0.8751
 1016SOL     OW14701   2.655   4.251   3.328 -0.3642  0.4888 -0.0470
 1016SOL    HW114702   2.595   4.296   3.393 -2.3867 -0.0912 -1.4758
 1016SOL    HW214703   2.701   4.174   3.374  1.1842  2.4129  1.6955
 1017SOL     OW14704   5.143   3.328   7.228  0.2700  0.0014 -0.2580
 1017SOL    HW114705   5.141   3.413   7.280 -0.1615  0.4889 -1.0714
 1017SOL    HW214706   5.139   3.348   7.131  0.1297 -0.9535 -0.4548
 1018SOL     OW14707   9.859   8.591   1.922  0.0914  0.4178 -0.4641
 1018SOL    HW114708   9.892   8.497   1.915 -1.0735 -0.1734  1.5736
 1018SOL    HW214709   9.805   8.613   1.840 -0.5068 -1.0369 -0.4778
 1019SOL     OW14710   1.602   3.150   1.890  0.7646 -0.4957  0.4644
 1019SOL    HW114711   1.609   3.191   1.799 -0.1851 -1.1583  0.0885
 1019SOL    HW214712   1.648   3.210   1.956 -0.2987  1.0342 -0.1325
 1020SOL     OW14713   8.359   9.250   2.832 -0.7615  0.1659 -0.1912
 1020SOL    HW114714   8.439   9.194   2.855 -0.4848  1.3555  1.8331
 1020SOL    HW214715   8.310   9.207   2.756 -0.1696 -2.4679  0.8439
 1021SOL     OW14716   7.842   1.741   2.151  0.3697  0.0462 -0.1744
 1021SOL    HW114717   7.904   1.789   2.089  0.8786 -1.5682 -0.9624
 1021SOL    HW214718   7.876   1.746   2.244 -0.1654  2.1237 -0.0650
 1022SOL     OW14719   4.232   0.358   6.103  0.3893 -0.2861  0.4980
 1022SOL    HW114720   4.309   0.352   6.168 -0.3006  0.3638  1.3851
 1022SOL    HW214721   4.192   0.267   6.091  0.7109 -0.4634  0.7561
 1023SOL     OW14722   0.805   7.598   1.603  0.4425 -0.0578  0.4218
 1023SOL    HW114723   0.851   7.674   1.558  0.5334 -0.2126  0.2518
 1023SOL    HW214724   0.708   7.619   1.614  0.6201  0.4177  1.1047
 1024SOL     OW14725   5.246   8.327   7.102 -0.2701 -0.6239 -0.2152
 1024SOL    HW114726   5.160   8.313   7.151  0.2767 -1.7769  0.4264
 1024SOL    HW214727   5.312   8.257   7.129  0.9847  0.4449 -0.4588
 1025SOL     OW14728   4.445   3.834   1.686 -0.6032  0.1450  0.0689
 1025SOL    HW114729   4.501   3.906   1.645 -1.1991 -0.3752 -1.7295
 1025SOL    HW214730   4.477   3.815   1.779 -0.2278  2.4615  0.4325
 1026SOL     OW14731   7.533   4.893   3.115 -0.4725  0.1100 -0.7539
 1026SOL    HW114732   7.629   4.916   3.102  0.0692 -2.2483 -1.1395
 1026SOL    HW214733   7.482   4.975   3.143  2.0295  0.9609  1.5269
 1027SOL     OW14734   2.565   7.818   6.691  0.4237  0.3258 -0.3406
 1027SOL    HW114735   2.559   7.773   6.780  0.3590  1.5980  0.3093
 1027SOL    HW214736   2.480   7.866   6.672  0.0307 -0.8320 -1.5920
 1028SOL     OW14737   6.933   7.099   2.930  0.5209  0.0176  0.4315
 1028SOL    HW114738   6.923   7.174   2.995  0.1057  0.4842 -0.1658
 1028SOL    HW214739   6.901   7.128   2.839 -0.9426 -1.3146  0.4952
 1029SOL     OW14740   7.238   1.994   3.304  0.1636  0.2179  0.0784
 1029SOL    HW114741   7.153   1.959   3.344 -0.0180  1.7209  1.0111
 1029SOL    HW214742   7.231   2.092   3.289  0.7597 -0.0604 -2.3675
 1030SOL     OW14743   2.253   8.359   1.600  0.1359  0.0614 -0.7019
 1030SOL    HW114744   2.253   8.442   1.545 -0.6749 -0.1307 -1.0028
 1030SOL    HW214745   2.161   8.320   1.601  0.6563 -1.1861 -1.0978
 1031SOL     OW14746   2.731   6.405   5.036  0.0764  1.4012 -0.4230
 1031SOL    HW114747   2.715   6.380   5.132  0.0673  1.5779 -0.3775
 1031SOL    HW214748   2.813   6.357   5.003 -0.4041  0.6775 -0.5850
 1032SOL     OW14749   0.371   8.276   3.988  0.0659  0.1594  0.0731
 1032SOL    HW114750   0.308   8.231   3.924  0.8402 -1.4621  0.4253
 1032SOL    HW214751   0.462   8.235   3.979  0.4880  0.8235  1.2886
 1033SOL     OW14752   3.100   6.185   7.036 -0.4530  0.4897 -0.3080
 1033SOL    HW114753   3.035   6.191   7.111  1.0140 -1.5400  1.1855
 1033SOL    HW214754   3.184   6.234   7.059  0.3787 -0.9576 -0.1801
 1034SOL     OW14755   4.899   0.546   4.923 -0.0647  0.0214  0.3776
 1034SOL    HW114756   4.840   0.466   4.937  0.2730 -0.1637  0.7355
 1034SOL    HW214757   4.988   0.529   4.964  0.3277  0.2021 -0.4025
 1035SOL     OW14758   6.467   9.162   1.864 -0.4928 -0.3322 -0.3715
 1035SOL    HW114759   6.532   9.086   1.871  0.9201  0.8657 -0.2689
 1035SOL    HW214760   6.513   9.242   1.825 -1.3888  1.1037  1.4502
 1036SOL     OW14761   4.326   2.081   1.744  0.7677  0.3076 -0.0579
 1036SOL    HW114762   4.304   2.047   1.653  2.8649  1.6037 -1.1086
 1036SOL    HW214763   4.424   2.070   1.761  0.2648 -0.6424  2.3721
 1037SOL     OW14764   9.427   6.232   2.099  0.8077 -0.5448  0.1964
 1037SOL    HW114765   9.457   6.322   2.132 -0.8447  0.3720 -0.7490
 1037SOL    HW214766   9.359   6.195   2.163  0.5587 -0.5508 -0.0719
 1038SOL     OW14767   0.585   0.768   6.058  0.6028 -1.3072  0.1025
 1038SOL    HW114768   0.672   0.738   6.019  0.2458 -1.2193 -0.7792
 1038SOL    HW214769   0.517   0.696   6.044 -0.6593  0.4797 -3.3954
 1039SOL     OW14770   7.793   0.796   4.047  0.2639  0.0931 -0.5485
 1039SOL    HW114771   7.781   0.895   4.057 -0.8546 -0.0818 -0.0443
 1039SOL    HW214772   7.786   0.771   3.951  1.3036  0.5930 -0.7601
 1040SOL     OW14773   9.156   6.415   6.332  0.2408  0.4794  0.6656
 1040SOL    HW114774   9.199   6.391   6.245  2.1590 -0.7752  1.9311
 1040SOL    HW214775   9.213   6.480   6.382  0.3280 -0.6018  2.0176
 1041SOL     OW14776   9.999   8.021   0.217 -0.6552 -0.4122  0.2970
 1041SOL    HW114777  10.011   7.994   0.313  0.8337 -0.2910  0.1520
 1041SOL    HW214778  10.082   8.065   0.184 -2.2434  2.3472 -0.1703
 1042SOL     OW14779   2.073   6.251   0.356  0.7230 -0.3538 -0.1409
 1042SOL    HW114780   2.166   6.284   0.372  0.7982 -0.6505  0.0429
 1042SOL    HW214781   2.074   6.152   0.349  0.3099 -0.4209  0.6489
 1043SOL     OW14782   5.521   7.624   2.545  0.0542  0.1478  0.1975
 1043SOL    HW114783   5.447   7.656   2.486  0.1176  0.6253  0.3771
 1043SOL    HW214784   5.564   7.702   2.591  1.4274  0.0097 -0.8047
 1044SOL     OW14785   4.000   3.031   4.710 -0.0332  0.1004 -0.4180
 1044SOL    HW114786   3.950   3.027   4.796 -1.6439 -0.7192 -1.3509
 1044SOL    HW214787   4.091   2.992   4.722 -0.7275 -1.2467  0.6149
 1045SOL     OW14788   0.222   7.302   3.446  0.4536 -0.1556 -0.2437
 1045SOL    HW114789   0.222   7.324   3.544  1.5148 -1.2517  0.0126
 1045SOL    HW214790   0.277   7.220   3.430 -0.1815 -0.3172 -1.6940
 1046SOL     OW14791   7.854   4.901   3.251  0.1889 -0.2986  0.0176
 1046SOL    HW114792   7.824   4.985   3.295 -0.0272 -0.7696  0.7790
 1046SOL    HW214793   7.936   4.866   3.298  0.6944 -0.1365 -0.7375
 1047SOL     OW14794   2.099   9.300   7.610 -0.5296  0.3130  0.1364
 1047SOL    HW114795   2.183   9.346   7.640  0.3217 -0.1059 -1.5249
 1047SOL    HW214796   2.123   9.222   7.552 -2.0966  0.6829 -1.0428
 1048SOL     OW14797   7.907   9.771   7.690 -0.0550 -0.5010 -0.1007
 1048SOL    HW114798   7.807   9.773   7.689 -0.0937 -1.6109  0.4368
 1048SOL    HW214799   7.942   9.836   7.756 -0.4441 -0.5330  0.1348
 1049SOL     OW14800   6.509   4.952   2.518  0.0264 -0.2557 -0.3255
 1049SOL    HW114801   6.454   4.925   2.597  1.5648 -2.1883  0.1274
 1049SOL    HW214802   6.476   4.903   2.437  0.8159 -1.1561 -0.1189
 1050SOL     OW14803   6.984   4.018   1.950 -0.4773 -0.4841 -0.2124
 1050SOL    HW114804   6.978   3.918   1.961 -1.3392 -0.5971 -1.5859
 1050SOL    HW214805   7.014   4.039   1.857 -2.1555  0.5633 -0.5307
 1051SOL     OW14806   7.378   0.079   1.742  0.0469 -0.1721 -0.8309
 1051SOL    HW114807   7.359   0.124   1.656  0.3419  1.3576 -0.1095
 1051SOL    HW214808   7.380   0.147   1.816 -0.1096 -1.4389  0.3628
 1052SOL     OW14809   8.263   3.961   1.012  0.2251  0.4148 -0.0288
 1052SOL    HW114810   8.179   3.976   1.064  0.8231  1.9273  0.5165
 1052SOL    HW214811   8.260   3.870   0.971 -1.1737  0.0057  0.9238
 1053SOL     OW14812   2.205   5.353   7.190  0.1642  0.5057 -0.0889
 1053SOL    HW114813   2.105   5.355   7.193  0.1295 -1.0355 -0.0478
 1053SOL    HW214814   2.236   5.319   7.101  0.6440  0.6712  0.0113
 1054SOL     OW14815   8.503   6.498   5.310 -0.3601  0.5836 -0.1833
 1054SOL    HW114816   8.518   6.595   5.328  1.2563  0.3033  0.0841
 1054SOL    HW214817   8.590   6.450   5.315 -1.0466 -0.7698 -1.0298
 1055SOL     OW14818   8.328   2.940   0.483  0.0653 -0.3201 -0.3090
 1055SOL    HW114819   8.384   3.023   0.488 -0.8808  0.2845  0.2283
 1055SOL    HW214820   8.310   2.906   0.575 -0.4106 -0.5438 -0.4816
 1056SOL     OW14821   6.582   3.275   2.462  0.0826  0.0052 -0.1500
 1056SOL    HW114822   6.576   3.223   2.547 -1.0375 -0.4650 -0.5186
 1056SOL    HW214823   6.553   3.369   2.479  1.0651  0.2480  0.2627
 1057SOL     OW14824   7.562   0.631   5.834  0.6524 -0.0095 -0.9270
 1057SOL    HW114825   7.521   0.712   5.874  2.3486  0.3533  0.1403
 1057SOL    HW214826   7.612   0.656   5.751 -0.4220 -0.2842 -1.6629
 1058SOL     OW14827   5.129   7.239   4.887  0.3831 -0.2235 -0.3192
 1058SOL    HW114828   5.143   7.162   4.824  1.1572 -0.7956  0.5368
 1058SOL    HW214829   5.218   7.268   4.923 -0.0731 -0.0388  0.6607
 1059SOL     OW14830   1.994   4.978   0.500 -0.4290 -0.3387  0.4134
 1059SOL    HW114831   1.955   4.900   0.549  0.4091 -0.9434  0.1369
 1059SOL    HW214832   2.066   4.946   0.438  0.6950  0.7755  1.1156
 1060SOL     OW14833   1.834   2.962   6.987  0.0867  0.1906  0.2988
 1060SOL    HW114834   1.796   3.053   7.000 -0.0115 -0.1569  2.7608
 1060SOL    HW214835   1.762   2.893   7.001  1.0661 -0.3910  2.7404
 1061SOL     OW14836   2.934   8.850   3.417  0.1003 -0.4088 -0.1513
 1061SOL    HW114837   2.914   8.754   3.435 -1.3355  0.1460  1.3081
 1061SOL    HW214838   2.894   8.876   3.329  0.4342 -1.1050 -0.5180
 1062SOL     OW14839   4.336   2.546   6.740  0.0683  0.0854  0.2638
 1062SOL    HW114840   4.380   2.464   6.776  0.0637 -0.3491 -0.7253
 1062SOL    HW214841   4.401   2.621   6.738  0.4148 -0.2246 -0.0150
 1063SOL     OW14842   1.968   2.939   4.541 -0.2604 -0.2979  0.2581
 1063SOL    HW114843   1.951   3.030   4.578 -0.3017 -0.7571  1.3856
 1063SOL    HW214844   2.059   2.908   4.567 -0.0139 -0.3300 -0.6381
 1064SOL     OW14845   8.129   2.073   7.010 -0.1150 -0.3894 -0.1158
 1064SOL    HW114846   8.100   1.986   6.969 -2.0941  0.2795 -0.1725
 1064SOL    HW214847   8.052   2.136   7.013  1.2261  1.2848  0.1959
 1065SOL     OW14848   0.370   6.040   5.906  0.0381  0.0438 -0.0507
 1065SOL    HW114849   0.280   6.084   5.912  0.8151  1.5850  0.6336
 1065SOL    HW214850   0.442   6.109   5.914  1.3026 -0.9866 -2.0999
 1066SOL     OW14851   1.720   3.185   9.910  0.5807  0.4374  0.0252
 1066SOL    HW114852   1.696   3.207   9.816 -1.0170 -1.1692  0.0477
 1066SOL    HW214853   1.765   3.096   9.914  0.9988  0.6717  0.7313
 1067SOL     OW14854   0.937   5.370   1.214 -0.0619 -0.6584  0.0252
 1067SOL    HW114855   0.866   5.318   1.167  0.2166 -1.9215  0.9968
 1067SOL    HW214856   0.898   5.456   1.248 -0.7314 -0.6286 -0.8001
 1068SOL     OW14857   4.153   0.785   4.352 -0.5464  0.2779 -0.6850
 1068SOL    HW114858   4.199   0.869   4.323 -2.3719  1.7151  0.4555
 1068SOL    HW214859   4.071   0.771   4.297 -0.4351 -0.5540 -0.6372
 1069SOL     OW14860   3.075   5.580   1.627 -0.7779 -0.0228 -0.5541
 1069SOL    HW114861   3.040   5.660   1.579 -3.3808  0.0948  1.4009
 1069SOL    HW214862   3.010   5.504   1.616  1.8496 -2.0335 -2.7255
 1070SOL     OW14863   9.201   5.811   6.536 -0.5047 -0.1212 -0.4870
 1070SOL    HW114864   9.267   5.750   6.580 -1.3603 -0.3725  0.4685
 1070SOL    HW214865   9.152   5.863   6.606 -1.7934 -0.4351 -1.1394
 1071SOL     OW14866   8.449   0.294   0.736 -0.5405 -0.3337  0.0474
 1071SOL    HW114867   8.504   0.227   0.786  0.1714 -0.8411 -1.3695
 1071SOL    HW214868   8.364   0.312   0.786 -0.5753 -2.0192  0.6249
 1072SOL     OW14869   0.180   5.086   7.829 -0.4638  0.1164  0.5508
 1072SOL    HW114870   0.137   5.158   7.883  0.2199 -1.1350  2.8514
 1072SOL    HW214871   0.280   5.095   7.836 -0.3629  0.1974 -0.8901
 1073SOL     OW14872   1.128   7.994   7.532  0.1276 -0.3055 -0.2303
 1073SOL    HW114873   1.181   7.913   7.558 -0.8025 -1.0024 -0.4810
 1073SOL    HW214874   1.187   8.059   7.484  1.2602 -0.1342  1.3397
 1074SOL     OW14875   3.551   7.268   2.959 -0.3552 -0.0382  0.4716
 1074SOL    HW114876   3.538   7.173   2.933 -1.6208  0.5666 -1.2350
 1074SOL    HW214877   3.580   7.321   2.879 -0.9549  1.2312  1.0704
 1075SOL     OW14878   2.620   7.356   3.609 -0.0678  0.5997  0.0350
 1075SOL    HW114879   2.541   7.323   3.662  0.0508  1.1957  0.5878
 1075SOL    HW214880   2.701   7.354   3.667  0.6426 -1.4842 -0.9914
 1076SOL     OW14881   8.083   8.758   5.882 -0.2857  0.0877  0.3340
 1076SOL    HW114882   8.135   8.674   5.867  0.1911  0.3811  0.3329
 1076SOL    HW214883   7.985   8.739   5.874 -0.1792 -0.4821  0.4073
 1077SOL     OW14884   7.517   6.080   3.192  0.5937 -0.4486 -0.6564
 1077SOL    HW114885   7.554   6.171   3.172 -1.2567  0.9588  1.8709
 1077SOL    HW214886   7.428   6.071   3.147  1.0409 -1.2553 -1.3847
 1078SOL     OW14887   4.917   5.539   3.224 -0.6301  0.5863 -0.0354
 1078SOL    HW114888   4.843   5.540   3.157 -0.2979 -0.6243 -0.4194
 1078SOL    HW214889   5.002   5.567   3.180 -0.4865  0.1566 -0.0280
 1079SOL     OW14890   3.100   9.663   0.778  0.1043  0.1251  0.2855
 1079SOL    HW114891   3.153   9.654   0.862  0.6333 -3.1240 -0.3469
 1079SOL    HW214892   3.009   9.624   0.792  0.7775 -2.0461 -1.1063
 1080SOL     OW14893   1.263   6.911   1.963  0.3094  0.6497 -0.4759
 1080SOL    HW114894   1.210   6.830   1.990  0.4001  0.5064 -0.7304
 1080SOL    HW214895   1.204   6.992   1.968 -0.1109  0.4070 -1.3445
 1081SOL     OW14896   1.419   1.570   0.973 -0.3906  0.4284  0.1535
 1081SOL    HW114897   1.479   1.644   1.002 -1.6625  1.9042 -0.8472
 1081SOL    HW214898   1.453   1.531   0.887  0.8188 -0.8171  1.1910
 1082SOL     OW14899   2.574   3.127   3.850  0.8551 -0.5001 -0.0844
 1082SOL    HW114900   2.580   3.030   3.826  1.8619 -0.6146  0.6113
 1082SOL    HW214901   2.482   3.160   3.831 -0.2830 -2.2533  2.1561
 1083SOL     OW14902   1.702   9.868   0.332  0.1283  0.0216 -0.6616
 1083SOL    HW114903   1.627   9.807   0.357  0.7445 -0.6444 -0.4099
 1083SOL    HW214904   1.784   9.813   0.314  0.8186  0.8056  0.0560
 1084SOL     OW14905   1.711   1.055   7.750 -0.4353 -0.4739 -0.1397
 1084SOL    HW114906   1.653   1.024   7.825  0.3130 -3.0499 -0.5687
 1084SOL    HW214907   1.667   1.131   7.703 -2.4002 -0.9151  0.9351
 1085SOL     OW14908   3.639   2.356   6.375  0.2208  0.2891  0.7384
 1085SOL    HW114909   3.681   2.411   6.447  1.3626 -0.4799  0.6655
 1085SOL    HW214910   3.680   2.379   6.286 -0.5728  0.6139  0.4476
 1086SOL     OW14911   7.784   6.533   2.821 -0.0108 -0.4130 -0.2200
 1086SOL    HW114912   7.817   6.557   2.912  0.6561 -1.9435 -0.0354
 1086SOL    HW214913   7.751   6.615   2.774  1.0434  0.6268  0.8257
 1087SOL     OW14914   3.720   2.701   7.250  0.1500 -0.5354 -0.8421
 1087SOL    HW114915   3.706   2.674   7.155  0.8052  2.5885 -1.9122
 1087SOL    HW214916   3.637   2.746   7.284  0.7779  0.6475 -0.8239
 1088SOL     OW14917   7.307   4.462   1.506 -0.2456 -0.5318 -0.1535
 1088SOL    HW114918   7.272   4.410   1.585  3.8137 -1.6236  1.0379
 1088SOL    HW214919   7.309   4.402   1.426  2.3169 -1.6509  0.6879
 1089SOL     OW14920   2.182   1.008   1.773  0.0147 -0.3472 -0.1184
 1089SOL    HW114921   2.231   0.926   1.745 -0.2703 -0.5301 -0.0814
 1089SOL    HW214922   2.183   1.015   1.873 -0.3716 -0.5582 -0.1001
 1090SOL     OW14923   1.697   1.249   7.202  0.0352 -0.6268  0.1069
 1090SOL    HW114924   1.759   1.213   7.271  2.2065 -0.9676 -1.9591
 1090SOL    HW214925   1.712   1.347   7.190  0.6431 -0.8234 -0.8286
 1091SOL     OW14926   8.991   8.412   1.372  0.8434 -0.2554  0.4112
 1091SOL    HW114927   8.914   8.417   1.437  1.4971  0.5389  1.1229
 1091SOL    HW214928   8.969   8.465   1.290  0.6687  0.0359  0.6472
 1092SOL     OW14929   4.771   6.957   2.835  0.3539  0.5859  0.4479
 1092SOL    HW114930   4.835   6.912   2.897  0.8125  1.1520  0.3826
 1092SOL    HW214931   4.787   7.055   2.835  0.9809  0.4972 -1.2814
 1093SOL     OW14932   4.708   6.799   1.254 -0.6256 -0.2915  0.9321
 1093SOL    HW114933   4.623   6.792   1.202  0.6869  1.5374 -1.5414
 1093SOL    HW214934   4.728   6.896   1.273  2.9904 -0.3425 -2.1354
 1094SOL     OW14935   9.587   8.827   7.042 -0.4643  0.2122 -0.0242
 1094SOL    HW114936   9.651   8.878   7.099 -0.9888  0.5126  0.3044
 1094SOL    HW214937   9.582   8.868   6.951  0.2041 -0.1288 -0.2163
 1095SOL     OW14938   9.130   3.904   2.995  0.2435 -0.2939 -0.1150
 1095SOL    HW114939   9.189   3.954   2.932  2.0290 -0.0086  1.7265
 1095SOL    HW214940   9.149   3.933   3.088 -2.2821 -0.7862  0.5786
 1096SOL     OW14941   9.004   0.033   6.921 -0.3050  0.2253  0.0096
 1096SOL    HW114942   8.909   0.057   6.901 -0.7315 -1.4851 -0.0445
 1096SOL    HW214943   9.014  -0.066   6.923  1.9130  0.3661 -2.0810
 1097SOL     OW14944   0.714   5.174   6.919 -0.7133 -0.3699  0.1247
 1097SOL    HW114945   0.733   5.078   6.902 -0.4648 -0.1331 -0.9925
 1097SOL    HW214946   0.787   5.230   6.881 -1.7222  0.3443 -0.8069
 1098SOL     OW14947   3.643   6.557   5.287 -0.7622 -0.1976  0.2415
 1098SOL    HW114948   3.719   6.603   5.333 -0.2926 -1.4276  0.7167
 1098SOL    HW214949   3.631   6.466   5.326 -1.7008 -0.4700 -0.6664
 1099SOL     OW14950   8.472   1.967   0.575 -0.4882 -0.3177 -0.1845
 1099SOL    HW114951   8.415   2.031   0.627 -2.5548 -1.5617 -0.8627
 1099SOL    HW214952   8.515   1.902   0.637 -0.0885  0.3963  0.2967
 1100SOL     OW14953   0.017   8.924   4.995  0.0331  0.3317  0.1657
 1100SOL    HW114954  -0.055   8.965   4.938 -0.0061 -0.0375 -0.0545
 1100SOL    HW214955   0.010   8.824   4.990 -0.2674  0.3015  1.2117
 1101SOL     OW14956   6.903   0.851   0.933 -0.1604  0.2751 -0.4706
 1101SOL    HW114957   6.992   0.809   0.945 -0.1661 -0.0594 -1.5708
 1101SOL    HW214958   6.913   0.935   0.880 -0.4820  0.3543 -0.4080
 1102SOL     OW14959   5.025   4.259   2.202 -0.2754  0.3037  0.4241
 1102SOL    HW114960   5.087   4.297   2.272 -0.0557 -0.1167  0.4611
 1102SOL    HW214961   5.065   4.174   2.165 -0.7608  0.1087  0.3464
 1103SOL     OW14962   3.768   3.065   2.896 -0.2508 -0.3570 -0.5590
 1103SOL    HW114963   3.855   3.019   2.884 -0.2316 -0.1123 -1.4002
 1103SOL    HW214964   3.718   3.065   2.810 -1.6694 -1.6616  0.2209
 1104SOL     OW14965   6.974   0.656   1.925 -0.4749  0.3393  0.2878
 1104SOL    HW114966   6.945   0.605   2.006  0.3631 -1.5414 -0.5775
 1104SOL    HW214967   6.928   0.619   1.844  0.6151  0.5391 -0.4269
 1105SOL     OW14968   0.158   7.813   3.584 -0.1459 -0.2118  0.0276
 1105SOL    HW114969   0.256   7.799   3.595 -0.0917  0.2132  0.0979
 1105SOL    HW214970   0.140   7.911   3.572 -0.6053 -0.2396  0.4780
 1106SOL     OW14971   0.222   1.459   6.654  0.2313 -0.0098 -0.1341
 1106SOL    HW114972   0.197   1.375   6.700 -2.2019  0.3983 -0.6647
 1106SOL    HW214973   0.215   1.536   6.718  0.3460  0.0801 -0.2284
 1107SOL     OW14974   3.603   6.608   2.823 -0.7821  0.5163  0.2620
 1107SOL    HW114975   3.587   6.515   2.789 -0.6575 -1.0075  4.1896
 1107SOL    HW214976   3.518   6.644   2.861 -0.3964  1.3329  0.3584
 1108SOL     OW14977   9.278   2.917   1.078 -0.4227  0.0786  0.0835
 1108SOL    HW114978   9.286   2.833   1.024  0.0417  1.1933 -1.6116
 1108SOL    HW214979   9.354   2.921   1.143 -1.1826 -1.4433  1.1121
 1109SOL     OW14980   9.310   5.462   1.040  0.1299 -0.0377 -0.1890
 1109SOL    HW114981   9.363   5.547   1.031 -0.4879  0.3460 -0.3010
 1109SOL    HW214982   9.219   5.484   1.075  0.6734 -0.9031  1.8166
 1110SOL     OW14983   6.923   2.885   1.574 -0.5182 -0.5301  0.1435
 1110SOL    HW114984   6.893   2.960   1.515 -1.4215 -1.8833 -1.1301
 1110SOL    HW214985   6.865   2.882   1.656 -1.5839 -0.9000 -0.6167
 1111SOL     OW14986   1.338   7.728   6.815  0.1955 -0.1468  0.2643
 1111SOL    HW114987   1.393   7.763   6.739 -0.5816  2.3507  0.8291
 1111SOL    HW214988   1.263   7.673   6.778  0.0404  0.7385 -0.7410
 1112SOL     OW14989   9.161   5.864   7.041 -0.3651 -0.3773 -0.1377
 1112SOL    HW114990   9.117   5.821   7.120  0.6645  1.3126  1.4032
 1112SOL    HW214991   9.221   5.798   6.996 -1.1611 -1.4317  0.3228
 1113SOL     OW14992   6.914   7.196   3.599 -0.0532 -0.4637  0.0747
 1113SOL    HW114993   7.009   7.192   3.630 -0.5698 -0.3056  1.7556
 1113SOL    HW214994   6.887   7.291   3.586 -0.2326 -0.4671  0.4166
 1114SOL     OW14995   6.991   8.578   7.266  0.0966 -0.1046 -0.3700
 1114SOL    HW114996   6.922   8.523   7.313  0.4000  0.0703  0.2872
 1114SOL    HW214997   6.958   8.600   7.174 -2.3798  3.0795  1.1650
 1115SOL     OW14998   1.257   7.119   6.431 -0.0243  0.1750  0.1807
 1115SOL    HW114999   1.275   7.099   6.335  1.0882 -0.4708  0.5236
 1115SOL    HW215000   1.171   7.077   6.459  0.3900 -0.8891 -0.1405
 1116SOL     OW15001   9.371   1.814   4.061  0.2023 -0.2587 -0.0890
 1116SOL    HW115002   9.429   1.735   4.040 -0.1570 -0.1877 -1.3947
 1116SOL    HW215003   9.333   1.804   4.153 -0.8814 -2.2435 -0.7241
 1117SOL     OW15004   0.969   3.399   4.828 -0.0771  0.2015  0.1846
 1117SOL    HW115005   0.880   3.443   4.815 -0.4194 -0.0020  1.7697
 1117SOL    HW215006   1.000   3.361   4.741 -1.6382  0.0944 -0.3476
 1118SOL     OW15007   5.087   4.135   5.833  0.3083  0.0912 -0.1561
 1118SOL    HW115008   5.096   4.067   5.760 -0.6676 -0.2221  0.0069
 1118SOL    HW215009   5.109   4.093   5.921 -2.0538 -0.5226  0.1711
 1119SOL     OW15010   1.589   7.967   1.788 -0.5478 -0.4286  0.3113
 1119SOL    HW115011   1.584   7.892   1.854 -1.9241 -1.5103 -1.0096
 1119SOL    HW215012   1.511   8.029   1.802 -0.9894 -0.8071 -0.4763
 1120SOL     OW15013   7.195   1.143   2.855  0.4151 -0.0955 -0.2253
 1120SOL    HW115014   7.167   1.127   2.950 -0.6962  1.0376 -0.3464
 1120SOL    HW215015   7.294   1.154   2.850  0.6487 -1.6277  0.5846
 1121SOL     OW15016   2.122   5.521   0.001  0.1729 -0.0274  0.2341
 1121SOL    HW115017   2.047   5.467  -0.037  1.2462 -0.7019 -1.0091
 1121SOL    HW215018   2.176   5.463   0.062 -0.3837  0.4890  1.2191
 1122SOL     OW15019   8.100   4.789   5.622  0.9097  0.0294 -0.6813
 1122SOL    HW115020   8.053   4.739   5.695  1.3286  1.4434  0.5852
 1122SOL    HW215021   8.066   4.758   5.534  0.1992 -1.5247  0.1153
 1123SOL     OW15022   0.193   6.075   1.508  0.0244  0.1197  0.0856
 1123SOL    HW115023   0.210   6.030   1.595  0.3862 -0.1429 -0.1174
 1123SOL    HW215024   0.097   6.101   1.502 -0.1871 -0.6244  0.2103
 1124SOL     OW15025   7.241   0.487   6.652 -0.1191  0.2336  0.3687
 1124SOL    HW115026   7.146   0.454   6.657 -0.0509 -0.5716 -2.5648
 1124SOL    HW215027   7.303   0.409   6.663  0.1624  0.3980 -0.0752
 1125SOL     OW15028   4.940   0.429   8.169  0.3258  0.1108 -0.0671
 1125SOL    HW115029   4.891   0.353   8.126  2.1736 -1.0673 -0.1701
 1125SOL    HW215030   4.885   0.466   8.244 -2.0833  0.9419 -2.1679
 1126SOL     OW15031   7.713   9.627   3.081 -0.2343  0.5928  0.4013
 1126SOL    HW115032   7.784   9.561   3.106 -0.8129 -0.9564 -1.8728
 1126SOL    HW215033   7.756   9.710   3.045  0.4580 -0.3304 -0.9504
 1127SOL     OW15034   5.091   7.595   5.748 -0.1078  0.2994  0.2467
 1127SOL    HW115035   5.133   7.613   5.659  1.0461  0.6048  0.8413
 1127SOL    HW215036   4.995   7.570   5.735  0.5508 -1.6033 -1.2300
 1128SOL     OW15037   3.905   8.037   4.226 -0.0740 -0.2389 -0.3526
 1128SOL    HW115038   3.888   7.938   4.236 -0.4610 -0.2418 -1.0077
 1128SOL    HW215039   3.826   8.079   4.181 -1.0581  0.8063  2.2733
 1129SOL     OW15040   3.444   7.553   7.024  0.6370 -0.2170 -0.1189
 1129SOL    HW115041   3.463   7.636   7.077  0.3100 -0.4447  0.3535
 1129SOL    HW215042   3.512   7.544   6.951  1.3705 -0.1490  0.5453
 1130SOL     OW15043   5.023   4.209   0.396  0.2459  0.4726 -0.0145
 1130SOL    HW115044   5.036   4.304   0.369  0.2165  0.4555 -0.0865
 1130SOL    HW215045   4.928   4.193   0.421  0.3725  0.6041  0.5540
 1131SOL     OW15046   1.095   2.536   7.274  0.0988 -0.0840  0.5995
 1131SOL    HW115047   1.152   2.573   7.201  0.1486  0.7165  1.0372
 1131SOL    HW215048   1.122   2.575   7.362 -1.4715  0.7487  0.7403
 1132SOL     OW15049   5.837   0.710   3.040  0.1569  0.3399 -0.5888
 1132SOL    HW115050   5.882   0.797   3.022 -1.7632  1.2019 -1.3431
 1132SOL    HW215051   5.770   0.691   2.969 -1.8524 -0.0983  1.3547
 1133SOL     OW15052   0.522   3.606   0.701  0.0208 -0.0708  0.5894
 1133SOL    HW115053   0.434   3.570   0.669 -0.0642 -0.1825  0.9398
 1133SOL    HW215054   0.542   3.568   0.792  0.3660  0.0611  0.5695
 1134SOL     OW15055   5.348   7.636   5.829  0.5992  0.4527 -0.1517
 1134SOL    HW115056   5.394   7.597   5.749  0.5024  0.9145 -0.4328
 1134SOL    HW215057   5.249   7.618   5.822  0.5653  0.6696 -0.2366
 1135SOL     OW15058   7.458   4.079   3.991 -0.4678 -0.1606 -0.4130
 1135SOL    HW115059   7.427   4.019   3.918 -2.2693 -0.8914  0.9380
 1135SOL    HW215060   7.413   4.168   3.983 -0.4489 -0.1441 -0.3368
 1136SOL     OW15061   5.375   8.215   4.632 -0.1138 -0.1464  0.2148
 1136SOL    HW115062   5.436   8.156   4.580  0.5507  1.1126 -0.4651
 1136SOL    HW215063   5.414   8.232   4.722 -0.5235 -1.0942  0.5750
 1137SOL     OW15064   5.885   5.196   1.715  0.2289  0.1540  0.6629
 1137SOL    HW115065   5.826   5.146   1.778  2.1343 -1.1280  1.4788
 1137SOL    HW215066   5.879   5.154   1.624 -0.0654 -0.0184  0.7606
 1138SOL     OW15067   0.942   1.963   7.156  0.0233 -0.4281  0.5422
 1138SOL    HW115068   0.959   1.932   7.063 -1.4215  0.3177  0.0129
 1138SOL    HW215069   0.985   2.052   7.171 -0.4503 -0.1622  0.3216
 1139SOL     OW15070   7.101   0.163   4.915 -0.0495  0.0402 -0.1332
 1139SOL    HW115071   7.078   0.249   4.959  0.8001  0.8577 -1.2652
 1139SOL    HW215072   7.016   0.116   4.888 -0.5169  0.4156  0.6625
 1140SOL     OW15073   7.097   3.166   1.460 -0.6920  0.0545  0.1463
 1140SOL    HW115074   7.083   3.257   1.422 -0.0777 -0.2877 -0.9386
 1140SOL    HW215075   7.170   3.169   1.528 -1.8696  0.6955  1.3931
 1141SOL     OW15076   9.629   7.115   2.825  0.2645  0.0498  0.0171
 1141SOL    HW115077   9.700   7.178   2.792  0.3138  0.0018  0.0315
 1141SOL    HW215078   9.668   7.054   2.893 -0.0216  0.6240  0.6982
 1142SOL     OW15079   1.987   1.446   1.671  0.5979  0.0368  0.1605
 1142SOL    HW115080   2.084   1.434   1.651  0.9475 -1.1083  2.4519
 1142SOL    HW215081   1.933   1.397   1.603  1.5445  1.9249 -2.0252
 1143SOL     OW15082   6.448   3.495   1.898 -0.0479  0.1056  0.3416
 1143SOL    HW115083   6.404   3.437   1.831 -0.9802 -2.0589  2.7364
 1143SOL    HW215084   6.500   3.566   1.852  0.6667 -2.2805 -2.6842
 1144SOL     OW15085   1.422   2.744   0.248 -0.7701  0.3480 -0.1766
 1144SOL    HW115086   1.462   2.679   0.312  0.6010  0.8313 -0.5268
 1144SOL    HW215087   1.340   2.704   0.207  0.6079 -1.5755 -1.1283
 1145SOL     OW15088   7.563   1.649   1.714  0.0615 -0.9109  0.0152
 1145SOL    HW115089   7.495   1.581   1.741 -0.1506  0.1116  2.2182
 1145SOL    HW215090   7.522   1.715   1.652 -1.0593 -0.1405  1.5538
 1146SOL     OW15091   0.035   4.095   1.770  0.6912 -0.0289  0.5377
 1146SOL    HW115092  -0.055   4.097   1.725  0.8063  1.7207  0.3771
 1146SOL    HW215093   0.061   4.187   1.797  2.4071 -0.5394  0.6812
 1147SOL     OW15094   9.836   2.175   1.722 -0.3370 -0.2459  0.1024
 1147SOL    HW115095   9.887   2.161   1.637 -2.0120  1.4469 -1.2301
 1147SOL    HW215096   9.879   2.123   1.796  1.9708 -0.6184 -1.4576
 1148SOL     OW15097   3.253   2.169   2.280 -0.2175  0.3690 -0.1864
 1148SOL    HW115098   3.295   2.127   2.361 -0.1540  2.7406  1.0745
 1148SOL    HW215099   3.322   2.181   2.209 -0.5026 -2.7139 -1.0521
 1149SOL     OW15100   2.430   7.607   2.205  0.0708  0.2632  0.4719
 1149SOL    HW115101   2.487   7.683   2.176  0.0504  0.1025 -0.0019
 1149SOL    HW215102   2.352   7.598   2.142 -0.1475  0.1106  0.7639
 1150SOL     OW15103   0.877   7.379   5.426 -0.0135  0.2797  0.2392
 1150SOL    HW115104   0.779   7.358   5.424 -0.2271  1.2948  0.1325
 1150SOL    HW215105   0.917   7.343   5.510 -0.1599 -1.5126 -0.4263
 1151SOL     OW15106   5.807   9.883   5.386  0.8479  0.5494  0.2502
 1151SOL    HW115107   5.835   9.942   5.311  1.2933 -0.7602 -0.6336
 1151SOL    HW215108   5.716   9.910   5.418 -0.1654 -0.0539 -2.0283
 1152SOL     OW15109   0.863   5.980   6.599  0.5014 -0.1155 -0.3064
 1152SOL    HW115110   0.905   5.896   6.564  2.8874  1.2796 -0.9420
 1152SOL    HW215111   0.876   5.984   6.698 -0.9633 -1.2015 -0.0570
 1153SOL     OW15112   1.088   9.663   9.641  0.6923  0.1105 -0.0675
 1153SOL    HW115113   1.017   9.729   9.663 -0.7807 -1.1103 -1.0930
 1153SOL    HW215114   1.155   9.704   9.578 -1.7478 -0.2277 -2.9703
 1154SOL     OW15115   2.446   1.737   7.688  0.3222  0.4567  0.1971
 1154SOL    HW115116   2.480   1.762   7.597 -1.1030 -0.6726 -0.6780
 1154SOL    HW215117   2.484   1.649   7.715 -0.5920 -0.0311 -0.0752
 1155SOL     OW15118   1.097   0.016   3.469 -0.5426  0.6639  0.2955
 1155SOL    HW115119   1.155   0.095   3.489 -1.2070  1.6448 -1.5280
 1155SOL    HW215120   1.154  -0.060   3.437  0.0280  0.6222  1.3995
 1156SOL     OW15121   7.701   4.223   2.646  0.4027 -0.2829  0.6766
 1156SOL    HW115122   7.707   4.265   2.555  0.8663 -1.8205 -0.0205
 1156SOL    HW215123   7.618   4.167   2.651  1.3392 -1.7182  0.5202
 1157SOL     OW15124   0.655   6.449   4.458 -0.3218  0.0891 -0.2706
 1157SOL    HW115125   0.678   6.539   4.495 -3.3158  0.6735  0.2966
 1157SOL    HW215126   0.665   6.380   4.530 -0.1686  0.2857 -0.1014
 1158SOL     OW15127   6.194   9.379   7.267 -0.4783  0.0275  0.3734
 1158SOL    HW115128   6.108   9.381   7.217 -0.2293 -1.4065 -0.1177
 1158SOL    HW215129   6.271   9.387   7.204 -0.1559 -1.9973  0.4673
 1159SOL     OW15130   1.354   2.047   3.176  0.0920 -0.1825  0.1486
 1159SOL    HW115131   1.360   2.117   3.106 -0.5782 -0.2129  0.0619
 1159SOL    HW215132   1.291   1.975   3.147  0.5546 -0.6791  0.3601
 1160SOL     OW15133   0.687   4.694   1.092 -0.3026 -0.6634 -0.2535
 1160SOL    HW115134   0.751   4.752   1.143  0.0035 -0.3145 -1.0301
 1160SOL    HW215135   0.733   4.609   1.067 -1.1798 -1.8739  2.1153
 1161SOL     OW15136   5.817   5.440   0.302 -0.2519  0.2121 -0.0601
 1161SOL    HW115137   5.798   5.537   0.283 -3.3597 -0.7619 -2.1796
 1161SOL    HW215138   5.862   5.399   0.223 -0.2317 -0.4370  0.2865
 1162SOL     OW15139   4.535   8.884   6.279  0.0939  0.7225  0.0216
 1162SOL    HW115140   4.541   8.930   6.190  0.0803 -0.8473 -0.8183
 1162SOL    HW215141   4.566   8.790   6.269 -2.5043 -0.3004  1.0773
 1163SOL     OW15142   7.565   4.162   3.035 -0.2054  0.1423  0.2060
 1163SOL    HW115143   7.522   4.150   3.125  1.1279 -0.1117  0.8165
 1163SOL    HW215144   7.538   4.086   2.976  0.5863 -0.8191  1.0560
 1164SOL     OW15145   6.160   8.337   4.795 -0.1693  0.2068 -0.1771
 1164SOL    HW115146   6.234   8.343   4.728  1.6417 -0.3917  1.7373
 1164SOL    HW215147   6.198   8.337   4.887 -2.3968 -2.2418  0.8008
 1165SOL     OW15148   9.528   9.376   0.669 -0.1289  0.4534  0.2244
 1165SOL    HW115149   9.480   9.434   0.603 -0.9081  0.2612  0.6170
 1165SOL    HW215150   9.545   9.428   0.752 -1.1865  0.0054  0.7289
 1166SOL     OW15151   3.787   9.358   4.219  0.3698  0.2207 -0.1366
 1166SOL    HW115152   3.871   9.304   4.216 -0.3002 -0.9266  1.1065
 1166SOL    HW215153   3.714   9.303   4.259 -0.0825  2.3803  2.1496
 1167SOL     OW15154   1.714   9.317   6.855  0.5453 -0.3748  0.3845
 1167SOL    HW115155   1.783   9.297   6.923  2.9425 -2.0639 -2.4137
 1167SOL    HW215156   1.715   9.415   6.833  1.3508 -0.2329  1.0512
 1168SOL     OW15157   8.065   5.251   5.194  0.1755  0.0471 -0.7520
 1168SOL    HW115158   8.152   5.275   5.237 -0.8346  0.0756  1.3309
 1168SOL    HW215159   8.065   5.154   5.171  0.1417 -0.3355  0.8010
 1169SOL     OW15160   0.187   9.176   0.816  0.0588 -0.0834  0.1384
 1169SOL    HW115161   0.150   9.105   0.756  0.2320 -0.4855  0.5148
 1169SOL    HW215162   0.117   9.204   0.881  0.6389 -1.3475  1.3148
 1170SOL     OW15163   9.929   3.358   5.838  0.4650 -0.3503 -0.3576
 1170SOL    HW115164   9.997   3.309   5.893  1.1696 -0.4229 -1.2697
 1170SOL    HW215165   9.843   3.308   5.841  1.0695 -1.4594 -0.9634
 1171SOL     OW15166   4.992   4.537   1.064 -0.2686 -0.1430  0.0968
 1171SOL    HW115167   4.944   4.449   1.064  0.6126 -0.6462  1.2870
 1171SOL    HW215168   5.086   4.523   1.034  0.3027  0.1277  1.6933
 1172SOL     OW15169   1.335   2.396   2.571  0.3254 -0.3154  0.0981
 1172SOL    HW115170   1.424   2.352   2.584  0.1453 -0.5098  0.6823
 1172SOL    HW215171   1.330   2.480   2.625  1.8819  2.2111 -3.4813
 1173SOL     OW15172   6.737   4.018   9.993  0.2998  0.3223  0.4199
 1173SOL    HW115173   6.752   4.087   9.922 -1.7682 -0.6572 -1.0007
 1173SOL    HW215174   6.813   4.022  10.059  1.5033  2.2305 -1.0086
 1174SOL     OW15175   2.315   7.004   6.841 -0.1130 -0.0234  0.5238
 1174SOL    HW115176   2.283   6.915   6.872 -2.3812  0.0939 -1.3217
 1174SOL    HW215177   2.399   6.993   6.788 -2.1841 -1.5589 -2.5993
 1175SOL     OW15178   7.392   9.951   0.768 -0.0646  0.3246 -0.1733
 1175SOL    HW115179   7.309   9.937   0.821 -0.0731  1.6983  0.1793
 1175SOL    HW215180   7.461   9.997   0.824  0.8979 -0.6857 -0.4984
 1176SOL     OW15181   4.813   0.418   6.462 -0.5474  0.8435  0.7668
 1176SOL    HW115182   4.804   0.345   6.530  0.5461 -1.4858 -1.4917
 1176SOL    HW215183   4.722   0.453   6.438 -1.2608 -1.1990  0.4146
 1177SOL     OW15184   7.633   2.350   3.208 -0.5098  0.2878  0.6670
 1177SOL    HW115185   7.589   2.321   3.123  1.6221  0.2879 -0.4813
 1177SOL    HW215186   7.622   2.279   3.278  0.2840 -1.0248 -0.5329
 1178SOL     OW15187   9.914   3.968   6.369  0.1099 -0.6663 -0.0606
 1178SOL    HW115188   9.915   3.869   6.354 -1.1356 -0.6328 -0.3858
 1178SOL    HW215189   9.965   3.989   6.452 -1.9596 -1.8601  1.5702
 1179SOL     OW15190   7.383   4.693  10.064  0.0804 -0.4986 -0.3138
 1179SOL    HW115191   7.346   4.668  10.153  2.9202 -1.1300  0.7399
 1179SOL    HW215192   7.413   4.611  10.016 -0.3355 -0.0537 -1.3591
 1180SOL     OW15193   8.807   5.170   4.643  0.0070 -0.0009 -0.5248
 1180SOL    HW115194   8.874   5.095   4.644 -1.1351 -1.0484 -1.0862
 1180SOL    HW215195   8.853   5.256   4.665  0.9364 -1.1800  2.3653
 1181SOL     OW15196   3.573   3.232   1.984 -0.6353 -0.3207 -0.1151
 1181SOL    HW115197   3.508   3.277   2.044 -0.8457  0.7311 -1.0951
 1181SOL    HW215198   3.528   3.205   1.899 -0.7095 -3.2076  0.8018
 1182SOL     OW15199   0.515   7.950   0.183 -0.0745  0.1680  0.3054
 1182SOL    HW115200   0.455   8.018   0.143 -0.5284  1.0915  2.4626
 1182SOL    HW215201   0.602   7.993   0.208  0.7991 -0.7474 -1.1408
 1183SOL     OW15202   0.554   0.764   0.203  0.2212  0.0318  0.4575
 1183SOL    HW115203   0.568   0.758   0.302  2.6373  1.6232  0.2806
 1183SOL    HW215204   0.638   0.735   0.156 -1.6211 -2.7592 -1.2247
 1184SOL     OW15205   1.597   0.247   0.199  0.2755 -0.6507 -0.4911
 1184SOL    HW115206   1.626   0.217   0.290  1.2667  0.6991 -0.3410
 1184SOL    HW215207   1.498   0.242   0.192  0.2313 -1.2780  0.4822
 1185SOL     OW15208   0.386   1.211   5.754  0.1060  0.4400 -0.0936
 1185SOL    HW115209   0.296   1.241   5.723 -0.7893 -2.6429 -0.6836
 1185SOL    HW215210   0.401   1.242   5.848 -2.0740  0.0319  0.4293
 1186SOL     OW15211   5.083   9.837   6.194  0.1685  0.9005  0.1018
 1186SOL    HW115212   5.041   9.746   6.190  1.6979  0.0991  1.5036
 1186SOL    HW215213   5.070   9.883   6.107 -1.3020 -0.3490 -0.3789
 1187SOL     OW15214   0.510   5.603   0.949 -0.2273 -0.1196 -0.0467
 1187SOL    HW115215   0.481   5.522   1.000 -0.9150 -0.4006 -0.8553
 1187SOL    HW215216   0.495   5.587   0.851 -1.1418  1.3017 -0.1559
 1188SOL     OW15217   6.179   9.926   7.097 -0.2668 -0.4321 -0.4137
 1188SOL    HW115218   6.097   9.927   7.154 -0.2706 -0.4213 -0.4196
 1188SOL    HW215219   6.192  10.016   7.055 -0.5339 -0.5825 -0.8155
 1189SOL     OW15220   9.726   2.922   5.567  0.0401 -0.1504  0.6368
 1189SOL    HW115221   9.761   3.016   5.560 -0.4863  0.1009  1.3403
 1189SOL    HW215222   9.626   2.924   5.566  0.0365 -0.7442  0.1518
 1190SOL     OW15223   6.176   9.577   5.873  0.1993 -0.0713  0.0018
 1190SOL    HW115224   6.138   9.595   5.964  0.4485 -0.4787  0.1877
 1190SOL    HW215225   6.248   9.508   5.880 -0.8511 -1.2534 -0.7353
 1191SOL     OW15226   0.412   2.717   2.512 -0.4849  0.0726 -0.1952
 1191SOL    HW115227   0.354   2.768   2.448  0.5106  0.6070 -0.6882
 1191SOL    HW215228   0.414   2.621   2.485 -2.2865 -0.2255  0.6731
 1192SOL     OW15229   2.358   1.116   7.561 -0.3157  0.2221  0.1720
 1192SOL    HW115230   2.303   1.061   7.497 -0.2666  2.1074 -1.5399
 1192SOL    HW215231   2.300   1.148   7.635 -1.1565  0.7821 -0.7153
 1193SOL     OW15232   5.124   8.673   5.424 -0.6738  0.3327  0.4177
 1193SOL    HW115233   5.122   8.766   5.461 -0.1571  0.6237 -0.2518
 1193SOL    HW215234   5.040   8.625   5.446 -0.0224  0.1988  2.7145
 1194SOL     OW15235   1.920   9.696   5.449  0.3485 -0.9895 -0.2207
 1194SOL    HW115236   2.008   9.724   5.411  1.2178 -1.6915  1.2095
 1194SOL    HW215237   1.936   9.642   5.532 -1.4676 -0.3013  0.5941
 1195SOL     OW15238   2.395   7.522   0.256 -0.1026  0.3644 -0.1055
 1195SOL    HW115239   2.385   7.482   0.165  0.5205 -0.2185  0.0796
 1195SOL    HW215240   2.393   7.622   0.250  0.0694  0.3246 -0.7638
 1196SOL     OW15241   0.358   4.438   2.219 -0.2645  0.1795  0.6649
 1196SOL    HW115242   0.397   4.515   2.270  0.4396 -0.6084  1.3315
 1196SOL    HW215243   0.295   4.473   2.150  0.4118  1.3913  0.6352
 1197SOL     OW15244   8.388   2.423   1.063  0.4918 -0.0929  0.0741
 1197SOL    HW115245   8.310   2.417   1.126 -0.1619 -1.0013 -0.8065
 1197SOL    HW215246   8.359   2.397   0.971  1.8772 -0.6179 -0.2341
 1198SOL     OW15247   3.497   7.665   6.259 -0.5979  0.1409 -0.9146
 1198SOL    HW115248   3.419   7.620   6.302  0.7714 -1.9605 -0.5886
 1198SOL    HW215249   3.540   7.603   6.193 -0.0287  1.7779 -2.1301
 1199SOL     OW15250   2.485   1.594   5.852  0.2072  0.4266 -0.0636
 1199SOL    HW115251   2.475   1.619   5.755 -3.5873 -1.3340 -0.2047
 1199SOL    HW215252   2.453   1.670   5.909 -0.7256  0.1822 -0.2613
 1200SOL     OW15253   0.756   0.494   7.532  0.0866  0.2159  0.0545
 1200SOL    HW115254   0.681   0.453   7.480 -0.7185 -1.3614  2.3844
 1200SOL    HW215255   0.722   0.573   7.584  0.1390 -0.1572  0.6687
 1201SOL     OW15256   1.165   5.977   5.295 -0.2037  0.2954 -0.0593
 1201SOL    HW115257   1.091   6.029   5.339 -0.8716  0.2381 -1.0883
 1201SOL    HW215258   1.170   6.003   5.199  0.5461 -0.3537 -0.1953
 1202SOL     OW15259   7.100   8.136   4.195 -0.3560  0.4969 -0.4073
 1202SOL    HW115260   7.188   8.172   4.227 -0.4546  2.1014 -1.8805
 1202SOL    HW215261   7.116   8.060   4.132 -0.1217 -1.1678  1.5682
 1203SOL     OW15262   7.196   5.897   2.107  0.1005  0.0138  0.0551
 1203SOL    HW115263   7.101   5.875   2.133  0.0991  0.6375  0.6100
 1203SOL    HW215264   7.196   5.942   2.018 -0.2367  0.9954  0.5412
 1204SOL     OW15265   1.412   2.711   7.987  0.1772  0.0509  0.1225
 1204SOL    HW115266   1.454   2.718   8.077  0.3294  0.4485  0.0195
 1204SOL    HW215267   1.348   2.786   7.973  1.9448  1.3848 -1.0400
 1205SOL     OW15268   5.033   6.452   2.401  0.3790  0.2614 -0.0415
 1205SOL    HW115269   5.095   6.373   2.407  0.2022  0.1666  0.5397
 1205SOL    HW215270   4.947   6.430   2.447  0.5649  1.0292  0.6825
 1206SOL     OW15271   0.691   2.982   7.802 -0.4493 -0.8151  0.1508
 1206SOL    HW115272   0.610   2.925   7.784 -1.3420  0.7850 -1.0321
 1206SOL    HW215273   0.661   3.071   7.837  0.7536  0.1128 -1.1605
 1207SOL     OW15274   4.018   0.154   3.059 -0.2000 -0.7137  0.4400
 1207SOL    HW115275   4.079   0.178   3.135  1.4321 -0.0062 -1.0501
 1207SOL    HW215276   4.035   0.215   2.982 -0.0108 -2.9950 -1.3990
 1208SOL     OW15277   0.208   0.514   5.321  0.3512 -0.9764 -0.1558
 1208SOL    HW115278   0.155   0.598   5.308  0.1554 -1.0127  0.3963
 1208SOL    HW215279   0.209   0.462   5.235  0.1529 -0.5989 -0.3902
 1209SOL     OW15280   9.590   2.916   7.274 -0.0877 -0.4190 -0.3765
 1209SOL    HW115281   9.627   2.826   7.252 -0.5489 -0.9005  0.7752
 1209SOL    HW215282   9.490   2.914   7.264 -0.2985 -0.6192  1.6015
 1210SOL     OW15283   1.482   1.259   4.159  0.1934  0.0090 -1.0790
 1210SOL    HW115284   1.577   1.276   4.134  1.0088 -1.1727  1.1097
 1210SOL    HW215285   1.475   1.170   4.205 -1.9809  0.0395 -1.3123
 1211SOL     OW15286   8.357   8.256   3.628  0.9591  0.1563 -0.0017
 1211SOL    HW115287   8.336   8.341   3.676  1.6399  0.5367 -0.3716
 1211SOL    HW215288   8.279   8.230   3.571  0.4655  0.1355  0.6891
 1212SOL     OW15289   9.604   2.092   3.310 -0.3493  0.0581 -0.7728
 1212SOL    HW115290   9.660   2.164   3.270  1.3712 -0.5905  0.4226
 1212SOL    HW215291   9.532   2.133   3.367  1.6851  0.8360  1.3061
 1213SOL     OW15292   7.941   3.972   2.476  0.0697 -0.2407 -0.4173
 1213SOL    HW115293   7.854   3.998   2.434  0.7287  0.7462 -1.2014
 1213SOL    HW215294   7.994   3.917   2.412  1.3495  1.8033 -1.1568
 1214SOL     OW15295   8.181   8.738   1.684 -0.4130 -0.0092  0.0163
 1214SOL    HW115296   8.277   8.713   1.694 -0.7502 -1.7745 -0.8930
 1214SOL    HW215297   8.154   8.800   1.759  0.2906 -3.0265  2.9015
 1215SOL     OW15298   4.466   8.334   4.862 -0.8354  0.0731  0.9282
 1215SOL    HW115299   4.427   8.418   4.823 -1.4409  0.0427  1.4537
 1215SOL    HW215300   4.441   8.256   4.804  1.1969  0.4722 -0.5166
 1216SOL     OW15301   4.756   2.799   5.490 -0.1480 -0.1257 -0.6057
 1216SOL    HW115302   4.808   2.805   5.405  1.6807 -0.3124  0.4695
 1216SOL    HW215303   4.762   2.886   5.539 -0.1510 -0.4132 -0.0882
 1217SOL     OW15304   4.551   0.256   2.952  0.4052 -0.0478  0.4602
 1217SOL    HW115305   4.621   0.190   2.924  0.7865 -0.0228  1.3623
 1217SOL    HW215306   4.533   0.247   3.050  0.3440  1.0747  0.5616
 1218SOL     OW15307   0.380   3.038   6.341 -0.3114  0.1646 -0.3986
 1218SOL    HW115308   0.394   2.953   6.392 -1.4808  0.1315 -0.1166
 1218SOL    HW215309   0.466   3.089   6.338 -0.1030 -0.0525  1.2208
 1219SOL     OW15310   9.459   0.114   7.602 -0.3895 -0.1541 -0.6748
 1219SOL    HW115311   9.437   0.068   7.515  2.5956 -1.9482 -0.5466
 1219SOL    HW215312   9.499   0.203   7.583  1.2153 -0.9626 -1.2350
 1220SOL     OW15313   5.096   7.538   1.402 -0.0618  0.3358  0.5067
 1220SOL    HW115314   5.089   7.605   1.329  1.0534 -1.0882 -0.9564
 1220SOL    HW215315   5.144   7.457   1.368 -2.4946 -1.7511  1.8225
 1221SOL     OW15316   1.597   4.329   2.503  0.5194 -0.5074  0.8243
 1221SOL    HW115317   1.576   4.368   2.413  1.2038  1.1174  1.3474
 1221SOL    HW215318   1.639   4.239   2.491  1.0273 -0.1084 -0.4951
 1222SOL     OW15319   8.581   4.840   7.379  0.5387  0.6776  0.0418
 1222SOL    HW115320   8.679   4.819   7.388  0.9277  3.1162  2.1492
 1222SOL    HW215321   8.570   4.936   7.352 -1.2531  0.0905 -1.3427
 1223SOL     OW15322   1.033   5.670   2.473 -0.3921 -0.5442 -0.1612
 1223SOL    HW115323   1.097   5.624   2.411  0.8398 -0.8217  1.2682
 1223SOL    HW215324   0.939   5.649   2.446  0.1386 -1.8353 -1.0622
 1224SOL     OW15325   9.654   6.643   7.498  0.4196  0.1766 -0.0852
 1224SOL    HW115326   9.714   6.623   7.576  0.7948 -0.1174 -0.4541
 1224SOL    HW215327   9.631   6.558   7.450 -0.8749  0.1863  0.4738
 1225SOL     OW15328   7.704   7.210   2.532 -0.2990 -0.0261 -0.2639
 1225SOL    HW115329   7.643   7.223   2.454 -0.7214 -0.6066 -0.0388
 1225SOL    HW215330   7.798   7.230   2.504 -0.5291  0.4125 -0.7407
 1226SOL     OW15331   2.906   8.902   6.316 -0.1676 -0.3898 -0.1137
 1226SOL    HW115332   2.839   8.885   6.244 -0.6051  0.1233  0.1748
 1226SOL    HW215333   2.912   8.822   6.376 -0.8784 -0.2449  0.1509
 1227SOL     OW15334   8.298   9.441   3.354  0.2061  0.0543 -0.2626
 1227SOL    HW115335   8.287   9.541   3.352 -1.0642 -0.0687  0.2225
 1227SOL    HW215336   8.262   9.402   3.269  0.0940 -0.0470 -0.1688
 1228SOL     OW15337   5.508   8.248   6.048 -0.1790 -0.0281  0.1698
 1228SOL    HW115338   5.530   8.151   6.041 -0.5993 -0.2965  2.2737
 1228SOL    HW215339   5.475   8.281   5.959  1.8586 -1.2983 -1.1018
 1229SOL     OW15340   6.339   0.314   2.895 -0.0194 -0.2291  0.0883
 1229SOL    HW115341   6.398   0.290   2.819  0.4137 -0.6807  0.5650
 1229SOL    HW215342   6.390   0.368   2.962 -1.0275  2.2271 -1.0547
 1230SOL     OW15343   0.240   1.145   0.826  0.0134  0.1729 -0.5391
 1230SOL    HW115344   0.311   1.148   0.754 -0.1967 -1.3362 -0.8275
 1230SOL    HW215345   0.190   1.232   0.826 -0.9479 -0.3311 -3.2140
 1231SOL     OW15346   4.032   3.213   7.237  0.5531  0.0414  0.1185
 1231SOL    HW115347   3.984   3.126   7.223  0.6888 -0.3430  1.8488
 1231SOL    HW215348   4.124   3.207   7.197  0.4392 -0.4964 -0.0715
 1232SOL     OW15349   2.107   2.370   3.031  0.4750  0.4297 -0.7664
 1232SOL    HW115350   2.068   2.319   2.955 -0.1126  0.8720 -0.7672
 1232SOL    HW215351   2.152   2.307   3.094 -0.0992 -0.0714 -0.8532
 1233SOL     OW15352   5.084   0.655   3.039 -0.1626  0.3578  0.6232
 1233SOL    HW115353   5.078   0.734   3.100 -4.0234  0.4988  0.1953
 1233SOL    HW215354   5.082   0.571   3.093  0.9811  0.5181  0.9200
 1234SOL     OW15355   1.736   5.317   0.309 -0.0143 -0.3682 -0.3107
 1234SOL    HW115356   1.691   5.370   0.237  2.4478  1.2345 -0.7121
 1234SOL    HW215357   1.704   5.350   0.398 -1.6676 -1.0958 -0.6215
 1235SOL     OW15358   3.870   3.230   0.892  0.4930  0.1431 -0.3327
 1235SOL    HW115359   3.772   3.236   0.915  0.8865  0.7690  1.2429
 1235SOL    HW215360   3.921   3.200   0.972  1.4677 -1.3888 -1.4912
 1236SOL     OW15361   9.591   7.526   0.989 -0.8325 -0.1073 -0.0041
 1236SOL    HW115362   9.647   7.505   1.069  0.5762 -1.4089 -1.3022
 1236SOL    HW215363   9.497   7.497   1.005 -1.0058  1.4147  1.9077
 1237SOL     OW15364   9.218   7.658   0.366 -0.7958 -0.0865  0.5150
 1237SOL    HW115365   9.253   7.565   0.365 -0.4769  0.0374  0.1663
 1237SOL    HW215366   9.288   7.721   0.333 -2.2789 -0.1892 -3.0745
 1238SOL     OW15367   6.606   9.930   5.335 -0.1518 -0.0040  0.0317
 1238SOL    HW115368   6.559  10.006   5.381  1.0862 -1.1302  3.2019
 1238SOL    HW215369   6.583   9.844   5.380  3.4279 -0.8030  0.4301
 1239SOL     OW15370   1.023   6.867   6.309 -0.2347 -0.0038  0.0475
 1239SOL    HW115371   1.098   6.820   6.263 -2.2206 -2.3272 -0.9798
 1239SOL    HW215372   0.976   6.927   6.243 -1.2264 -1.0316 -0.2073
 1240SOL     OW15373   1.260   5.672   4.624  0.4817 -0.0993 -0.3858
 1240SOL    HW115374   1.279   5.678   4.722 -0.0285 -0.4487 -0.2680
 1240SOL    HW215375   1.162   5.679   4.608  0.7751  3.1610 -1.1241
 1241SOL     OW15376   1.392   8.256   0.721  0.3925 -0.0771  0.2843
 1241SOL    HW115377   1.310   8.304   0.752  1.0046  1.1660  0.0139
 1241SOL    HW215378   1.396   8.166   0.765 -1.9235 -0.7953 -0.8982
 1242SOL     OW15379   7.466   4.352   3.970 -0.2665  0.5428  0.7528
 1242SOL    HW115380   7.501   4.436   4.012 -0.5185  1.2382 -0.3864
 1242SOL    HW215381   7.476   4.359   3.870  1.1036 -1.4211  0.7373
 1243SOL     OW15382   2.728   7.282   0.206  0.1597 -0.3502  0.1020
 1243SOL    HW115383   2.791   7.337   0.152 -0.2284  0.1140  0.1262
 1243SOL    HW215384   2.668   7.230   0.145  0.5883 -0.8285  0.0782
 1244SOL     OW15385   5.290   3.982   1.126  0.4781 -0.5456  0.2729
 1244SOL    HW115386   5.275   3.917   1.052  0.6125 -0.5214  0.2254
 1244SOL    HW215387   5.386   3.983   1.152  0.2632 -1.2580  1.1102
 1245SOL     OW15388   4.142   6.384   1.301 -0.6199  0.4554  0.4018
 1245SOL    HW115389   4.205   6.462   1.300 -0.7636  0.5937  1.6860
 1245SOL    HW215390   4.194   6.300   1.284 -0.0786  0.5781  1.3884
 1246SOL     OW15391   3.661   1.221   0.612 -0.0475 -0.2128  0.5448
 1246SOL    HW115392   3.623   1.300   0.565  1.1956 -0.1957 -0.4440
 1246SOL    HW215393   3.761   1.222   0.604 -0.0073 -1.7174  0.7889
 1247SOL     OW15394   0.702   7.690   2.562  0.3103  0.5514  0.1581
 1247SOL    HW115395   0.789   7.699   2.514  0.8193  0.4336  1.0405
 1247SOL    HW215396   0.628   7.682   2.496  1.0702 -0.3322 -0.6023
 1248SOL     OW15397   0.413   9.270   5.743  0.3182  0.5035  0.2201
 1248SOL    HW115398   0.391   9.351   5.689  0.3132  0.8129  0.6838
 1248SOL    HW215399   0.331   9.239   5.792 -0.3364 -1.2673 -1.8912
 1249SOL     OW15400   0.193   6.429   4.266  0.6645  0.8259  0.3475
 1249SOL    HW115401   0.128   6.354   4.266  0.8395  0.6730  0.5546
 1249SOL    HW215402   0.286   6.393   4.264  0.7491  1.0366  0.3875
 1250SOL     OW15403   9.384   7.261   2.878  0.3335  0.4425 -0.3074
 1250SOL    HW115404   9.467   7.207   2.863 -0.1330 -1.4269  3.2572
 1250SOL    HW215405   9.304   7.206   2.854  0.0179  1.5895 -1.9761
 1251SOL     OW15406   5.757   9.152   4.377 -0.8600  0.4419 -0.4336
 1251SOL    HW115407   5.666   9.194   4.376 -0.1801  1.9823  0.7636
 1251SOL    HW215408   5.825   9.219   4.348 -0.1237 -0.7745 -1.5343
 1252SOL     OW15409   8.540   3.960   0.701  0.1224  0.1149 -0.0782
 1252SOL    HW115410   8.470   4.032   0.695  1.1236  1.0897 -0.2505
 1252SOL    HW215411   8.610   3.977   0.632  1.0415 -0.3009  0.7526
 1253SOL     OW15412   8.141   0.536   0.878 -0.4746  0.4524 -0.1886
 1253SOL    HW115413   8.158   0.467   0.948 -1.7360 -0.8683 -1.1449
 1253SOL    HW215414   8.047   0.570   0.887 -0.1700  1.3274 -0.3288
 1254SOL     OW15415   8.468   3.643   5.702 -0.1724  0.4730 -0.8691
 1254SOL    HW115416   8.551   3.667   5.752 -1.6941  2.9686  0.5522
 1254SOL    HW215417   8.433   3.723   5.652 -3.6064  0.4858  1.3616
 1255SOL     OW15418   3.200   6.544   0.722  0.1884  0.4457 -0.1750
 1255SOL    HW115419   3.250   6.616   0.770 -2.8978  3.2043 -0.9505
 1255SOL    HW215420   3.140   6.496   0.787 -1.3334  1.8107 -0.5480
 1256SOL     OW15421   4.373   4.674   5.935 -0.5084  0.3805  0.1837
 1256SOL    HW115422   4.285   4.720   5.951  0.1707  1.8175 -0.1548
 1256SOL    HW215423   4.356   4.587   5.888 -1.7261  0.8107 -0.2151
 1257SOL     OW15424   9.808   9.289   0.786 -0.2651  0.6739 -0.1895
 1257SOL    HW115425   9.812   9.327   0.694 -0.9191 -0.7578 -0.8266
 1257SOL    HW215426   9.888   9.318   0.838 -2.1389  5.3292  0.3500
 1258SOL     OW15427   8.198   6.480   7.135 -0.5110  0.6499 -0.1641
 1258SOL    HW115428   8.149   6.447   7.054 -0.3700 -0.6502  0.2666
 1258SOL    HW215429   8.257   6.557   7.110 -3.5264  2.9267 -0.4861
 1259SOL     OW15430   8.585   0.647   3.193  0.1324 -0.2243 -0.2327
 1259SOL    HW115431   8.543   0.696   3.117 -0.7533  0.4940  0.7028
 1259SOL    HW215432   8.639   0.571   3.158 -0.7848 -0.2855 -1.5478
 1260SOL     OW15433   0.905   3.624   2.614 -0.0382 -0.5185  0.0607
 1260SOL    HW115434   0.811   3.592   2.603 -0.3470  0.2785  0.3058
 1260SOL    HW215435   0.928   3.688   2.541  0.0528 -0.1300  0.4225
 1261SOL     OW15436   1.254   5.702   4.939 -0.4068  0.2474 -0.1161
 1261SOL    HW115437   1.203   5.618   4.960 -0.5356 -0.5028 -3.1719
 1261SOL    HW215438   1.343   5.699   4.984 -0.2874 -1.6680 -0.4400
 1262SOL     OW15439   1.643   8.673   6.377 -0.3013 -0.0403 -0.2111
 1262SOL    HW115440   1.675   8.609   6.307 -1.2354 -1.5439  0.7181
 1262SOL    HW215441   1.683   8.764   6.360  2.3712 -1.2449 -0.5572
 1263SOL     OW15442   2.519   3.666   1.468  0.1216 -0.1260  0.1675
 1263SOL    HW115443   2.546   3.615   1.387  0.0314  2.5452 -1.6176
 1263SOL    HW215444   2.600   3.685   1.524  0.4968 -0.2877 -0.3167
 1264SOL     OW15445   8.587   8.287   5.710 -0.4218 -0.4130  0.2963
 1264SOL    HW115446   8.625   8.379   5.721  0.4500 -0.6506 -0.6676
 1264SOL    HW215447   8.503   8.292   5.656 -1.3558  0.0217  1.7610
 1265SOL     OW15448   0.308   4.438   0.646 -0.4094 -0.4986  0.4030
 1265SOL    HW115449   0.291   4.341   0.630 -0.1785 -0.5835  0.6689
 1265SOL    HW215450   0.360   4.449   0.731  0.3667 -0.2056 -0.1072
 1266SOL     OW15451   1.483   0.364   6.708  0.3426  0.1209 -0.1080
 1266SOL    HW115452   1.423   0.285   6.722  1.2604 -0.6487 -0.4466
 1266SOL    HW215453   1.486   0.386   6.610 -0.5905  1.1282  0.0786
 1267SOL     OW15454   5.446   1.369   4.069  0.0501 -0.2230  0.1151
 1267SOL    HW115455   5.475   1.274   4.062  1.8590  0.4232 -1.3066
 1267SOL    HW215456   5.351   1.377   4.037 -0.5244 -1.7068  1.3396
 1268SOL     OW15457   6.602   8.797   6.428  0.2859  0.2226 -0.4354
 1268SOL    HW115458   6.610   8.763   6.522  0.0743 -0.3572 -0.6276
 1268SOL    HW215459   6.515   8.846   6.418  0.2792  0.2293 -0.3458
 1269SOL     OW15460   7.428   8.520   5.855  0.0235  0.6482  0.1619
 1269SOL    HW115461   7.338   8.477   5.852  0.3516  0.0405 -1.6289
 1269SOL    HW215462   7.449   8.547   5.949 -2.1179  1.0199  0.5608
 1270SOL     OW15463   6.271   1.106   0.882  0.0605 -0.0943  1.0872
 1270SOL    HW115464   6.200   1.174   0.897  0.4443  0.2774  1.2383
 1270SOL    HW215465   6.231   1.014   0.885 -0.8530  0.1878 -1.3480
 1271SOL     OW15466   8.352   2.153   2.796 -0.8145  0.4753 -0.2045
 1271SOL    HW115467   8.343   2.252   2.808  0.6693  0.7793 -1.3162
 1271SOL    HW215468   8.440   2.133   2.753 -0.2310 -1.4824  1.7784
 1272SOL     OW15469   2.092   4.157   7.789  0.6287  0.0702  0.0853
 1272SOL    HW115470   2.068   4.176   7.884 -0.8409 -0.3234 -0.1985
 1272SOL    HW215471   2.143   4.071   7.784 -0.1379 -0.4080  0.4147
 1273SOL     OW15472   4.645   3.719   0.570  0.3549 -0.6764 -0.3196
 1273SOL    HW115473   4.571   3.769   0.615 -0.4655 -0.7680 -1.5233
 1273SOL    HW215474   4.700   3.783   0.516  1.0049 -0.6515  0.3621
 1274SOL     OW15475   1.992   2.721   0.213 -0.0296 -0.0488  0.2517
 1274SOL    HW115476   2.057   2.775   0.265 -0.9107  0.3612  0.9469
 1274SOL    HW215477   1.910   2.776   0.195 -0.1381 -0.5151 -0.7130
 1275SOL     OW15478   8.383   9.665   2.962 -0.0720 -0.4510 -0.4171
 1275SOL    HW115479   8.331   9.628   2.885 -0.1862  0.6266 -0.8572
 1275SOL    HW215480   8.469   9.705   2.928 -0.3433  0.4482 -0.0450
 1276SOL     OW15481   8.775   0.210   7.583  0.7215 -0.2630  0.7934
 1276SOL    HW115482   8.750   0.236   7.490  2.7499  1.3334  0.6463
 1276SOL    HW215483   8.711   0.251   7.648  2.0160  2.6194  0.3528
 1277SOL     OW15484   1.111   2.672   6.983  0.0968  0.0704  0.6071
 1277SOL    HW115485   1.075   2.579   6.971 -0.2124  0.0826  1.4207
 1277SOL    HW215486   1.209   2.672   6.965  0.6682 -1.0222  3.5420
 1278SOL     OW15487   0.041   3.917   5.742 -0.3024  0.0527 -0.4300
 1278SOL    HW115488  -0.018   3.997   5.741 -0.0522  0.2720  0.8909
 1278SOL    HW215489   0.078   3.901   5.651 -1.7437  0.3913 -1.0862
 1279SOL     OW15490   1.207   4.428   6.409  0.4828 -0.2620 -0.1169
 1279SOL    HW115491   1.146   4.473   6.474  1.7039  1.0466  0.1226
 1279SOL    HW215492   1.165   4.430   6.318 -0.6920 -1.0690  0.3954
 1280SOL     OW15493   3.821   9.910   1.082 -0.4417 -0.5625 -0.1311
 1280SOL    HW115494   3.825   9.935   1.179 -0.9740 -1.3023  0.0831
 1280SOL    HW215495   3.732   9.870   1.061  0.9301 -3.7820 -0.0936
 1281SOL     OW15496   0.275   3.289   1.111 -0.4308 -0.3870 -0.3406
 1281SOL    HW115497   0.217   3.330   1.181 -0.8228 -0.1047 -0.8271
 1281SOL    HW215498   0.356   3.346   1.097 -0.4515 -0.3386 -0.2595
 1282SOL     OW15499   7.567   7.177   2.024  0.0531 -0.3290  0.3976
 1282SOL    HW115500   7.514   7.252   2.063  0.3643 -0.7726  1.6997
 1282SOL    HW215501   7.506   7.113   1.979 -0.1588  0.9990 -1.2423
 1283SOL     OW15502   5.319   5.852   0.774  0.1389 -0.3001  0.4271
 1283SOL    HW115503   5.314   5.919   0.700 -1.9007 -0.5609  0.2923
 1283SOL    HW215504   5.269   5.886   0.853  0.7340 -0.8364  1.0424
 1284SOL     OW15505   3.947   9.451   2.530  0.2742  0.2764  0.5535
 1284SOL    HW115506   3.948   9.378   2.598  1.0435  0.9073  1.2399
 1284SOL    HW215507   3.889   9.526   2.563 -1.0170 -0.2784 -0.4286
 1285SOL     OW15508   4.362   4.643   0.292  0.1037  0.8549  0.4927
 1285SOL    HW115509   4.354   4.566   0.355 -1.3260 -1.6355 -2.6157
 1285SOL    HW215510   4.459   4.666   0.280  0.5198 -0.2095  1.7018
 1286SOL     OW15511   0.336   0.529   0.519  0.1555 -0.6815  0.5295
 1286SOL    HW115512   0.237   0.535   0.533  0.2099 -1.0441  1.0775
 1286SOL    HW215513   0.363   0.433   0.515  0.2401 -0.5951 -1.3922
 1287SOL     OW15514   1.485   3.172   0.846  0.7099  0.1386 -0.5281
 1287SOL    HW115515   1.570   3.121   0.832  2.1260  2.4153 -0.6040
 1287SOL    HW215516   1.448   3.151   0.936  0.1910 -2.4421 -1.2889
 1288SOL     OW15517   6.596   9.268   4.378  0.0520 -0.0463 -0.5079
 1288SOL    HW115518   6.645   9.184   4.353 -0.0262 -0.0392 -0.6792
 1288SOL    HW215519   6.530   9.247   4.451 -1.1625 -0.4788 -1.7180
 1289SOL     OW15520   7.902   8.766   7.972 -0.1021 -0.1113  0.3549
 1289SOL    HW115521   7.925   8.669   7.982  0.8295  0.0577 -0.1042
 1289SOL    HW215522   7.920   8.795   7.879  1.3024  0.9265  0.9306
 1290SOL     OW15523   5.803   3.483   1.622  0.2531  0.0858 -0.7872
 1290SOL    HW115524   5.766   3.500   1.531  0.6211  2.2733 -0.5481
 1290SOL    HW215525   5.745   3.527   1.691  0.1254 -1.3261  0.0382
 1291SOL     OW15526   8.525   5.698   3.830 -0.5134  0.2978 -0.1229
 1291SOL    HW115527   8.573   5.637   3.767  2.2575  1.6383  0.6202
 1291SOL    HW215528   8.459   5.645   3.884 -0.5962 -1.4128 -1.8368
 1292SOL     OW15529   1.996   6.491   1.984  1.1234  0.6483 -0.5724
 1292SOL    HW115530   1.976   6.510   2.080  1.4373  0.1987 -0.4149
 1292SOL    HW215531   2.000   6.577   1.933  0.1273  0.8371 -0.3478
 1293SOL     OW15532   2.663   3.903   0.295  0.1973 -0.2221 -0.2482
 1293SOL    HW115533   2.635   3.879   0.203 -2.3478  1.9504 -0.1270
 1293SOL    HW215534   2.743   3.963   0.291 -0.2349  0.3087 -1.0730
 1294SOL     OW15535   6.597   9.866   2.146 -0.4249 -0.0461 -0.2524
 1294SOL    HW115536   6.513   9.902   2.107 -0.4824  0.4332  0.2971
 1294SOL    HW215537   6.579   9.828   2.237  0.3968  2.5093  1.0562
 1295SOL     OW15538   7.967   1.436   2.468  0.2958 -0.1747 -0.1121
 1295SOL    HW115539   7.886   1.434   2.408  0.0398 -1.4654  0.2757
 1295SOL    HW215540   7.938   1.430   2.563  0.7514  1.1931  0.1295
 1296SOL     OW15541   9.232   9.437   1.196 -0.9841  0.1031 -0.0706
 1296SOL    HW115542   9.239   9.385   1.282 -3.8927 -1.3000 -0.6316
 1296SOL    HW215543   9.283   9.522   1.205  0.5928 -1.0346  2.2756
 1297SOL     OW15544   0.076   4.198   8.109  0.2141 -0.7769  0.2118
 1297SOL    HW115545   0.092   4.277   8.050  0.5907 -0.5270  0.6510
 1297SOL    HW215546   0.114   4.216   8.199  0.0462 -1.3468  0.3960
 1298SOL     OW15547   5.407   6.448   0.131  0.0783  0.2846 -0.7623
 1298SOL    HW115548   5.321   6.414   0.168 -0.2009  1.6117 -0.1673
 1298SOL    HW215549   5.418   6.416   0.037 -0.7944 -0.3516 -0.6516
 1299SOL     OW15550   3.019   2.888   7.927  0.0403 -0.5896  0.2841
 1299SOL    HW115551   3.106   2.886   7.878  0.2487 -0.5314  0.6453
 1299SOL    HW215552   2.963   2.964   7.893 -1.3091 -2.7137 -2.3741
 1300SOL     OW15553   9.632   4.309   7.143 -0.2431  0.7208 -0.2810
 1300SOL    HW115554   9.556   4.370   7.122  1.1632  2.4019 -0.5900
 1300SOL    HW215555   9.651   4.313   7.241  0.4535  1.4968 -0.4474
 1301SOL     OW15556   1.281   6.809   1.409 -0.5274  0.2969  0.5975
 1301SOL    HW115557   1.348   6.803   1.335  1.3246 -0.0696  2.2395
 1301SOL    HW215558   1.190   6.822   1.371  0.1097 -1.8832 -1.8210
 1302SOL     OW15559   7.411   8.593   7.526 -1.0846  0.7600 -0.3026
 1302SOL    HW115560   7.500   8.624   7.494 -0.0339 -0.0521  1.7215
 1302SOL    HW215561   7.340   8.623   7.462  0.6039  1.5753 -1.8412
 1303SOL     OW15562   5.182   0.726   2.297  0.8239  0.1759 -0.0085
 1303SOL    HW115563   5.099   0.740   2.243  0.0967  1.2526  1.3721
 1303SOL    HW215564   5.262   0.750   2.241  0.1739 -0.0138 -1.0462
 1304SOL     OW15565   8.878   6.173   5.375  0.4355 -0.3838  0.1702
 1304SOL    HW115566   8.977   6.185   5.365  0.2825 -1.6209 -3.4867
 1304SOL    HW215567   8.833   6.262   5.366  1.0817 -0.1044 -0.3771
 1305SOL     OW15568   4.859   6.148   1.433 -0.3842 -0.3518 -0.4734
 1305SOL    HW115569   4.831   6.236   1.395 -0.6586 -0.1025  0.2943
 1305SOL    HW215570   4.848   6.076   1.364  1.4774  0.4773 -1.6728
 1306SOL     OW15571   2.277   0.510   3.053  0.6888 -0.0709  0.2631
 1306SOL    HW115572   2.337   0.587   3.073 -0.0970  0.6151  0.0316
 1306SOL    HW215573   2.183   0.543   3.041  0.2633 -1.1227  0.6180
 1307SOL     OW15574   2.538   8.410   2.316 -0.1796  0.8175 -0.6696
 1307SOL    HW115575   2.602   8.352   2.265 -0.6211  0.6583 -1.0479
 1307SOL    HW215576   2.474   8.452   2.252  0.1448  1.7330 -0.3967
 1308SOL     OW15577   3.421   2.339   7.405 -0.0874  0.1953  0.2611
 1308SOL    HW115578   3.382   2.430   7.422 -0.8574 -0.2012  0.6553
 1308SOL    HW215579   3.501   2.348   7.346 -1.5413  0.9126 -1.6803
 1309SOL     OW15580   4.174   1.310   2.960  0.1423 -0.7922  0.0808
 1309SOL    HW115581   4.204   1.215   2.955  0.1494 -0.7798 -0.1360
 1309SOL    HW215582   4.177   1.341   3.054  1.0693 -0.7041  0.0229
 1310SOL     OW15583   8.146   7.251   3.369  0.0487  1.0907  0.3760
 1310SOL    HW115584   8.097   7.333   3.399 -0.5003  0.7349  0.4676
 1310SOL    HW215585   8.101   7.213   3.288  0.4143  0.9882  0.2195
 1311SOL     OW15586   8.051   8.938   2.763 -0.2292  0.1415  0.5605
 1311SOL    HW115587   7.955   8.944   2.737 -0.4193 -0.5599  1.0643
 1311SOL    HW215588   8.078   8.842   2.770  0.8061  0.3286 -0.6178
 1312SOL     OW15589   5.620   3.164   0.401  0.4866  0.6421 -0.1182
 1312SOL    HW115590   5.582   3.094   0.342  0.0735  1.1277 -0.4333
 1312SOL    HW215591   5.553   3.238   0.412 -0.3824 -0.5095  2.8234
 1313SOL     OW15592   2.469   7.327   0.969  0.4813  0.3458 -0.1587
 1313SOL    HW115593   2.546   7.282   0.925 -0.6418 -0.9179 -0.8868
 1313SOL    HW215594   2.389   7.322   0.909 -0.3937  0.8707  0.9441
 1314SOL     OW15595   3.436   6.105   5.981  0.4508  0.4529  0.6891
 1314SOL    HW115596   3.474   6.120   6.073  0.1667  1.3546  0.6627
 1314SOL    HW215597   3.342   6.072   5.989 -0.1625  2.1408  0.7215
 1315SOL     OW15598   3.136   1.879   6.276  0.0579 -0.2292 -0.0961
 1315SOL    HW115599   3.130   1.947   6.203 -0.8155  0.6085  0.7481
 1315SOL    HW215600   3.227   1.884   6.318 -0.1283  0.6881  0.2104
 1316SOL     OW15601   1.447   4.308   6.505 -0.1276  0.0237 -0.2864
 1316SOL    HW115602   1.486   4.222   6.471  0.2293 -0.4609  1.3326
 1316SOL    HW215603   1.378   4.341   6.440 -0.1475 -1.3970 -1.0010
 1317SOL     OW15604   0.166   0.496   2.364 -0.7956  0.1647  0.4602
 1317SOL    HW115605   0.130   0.569   2.422  0.9485  0.0358  1.7405
 1317SOL    HW215606   0.133   0.407   2.397  1.0693  0.0071  1.9458
 1318SOL     OW15607   0.365   4.980   4.458 -0.0684 -0.0883  0.1885
 1318SOL    HW115608   0.459   4.994   4.428  0.0467  0.3970  0.7562
 1318SOL    HW215609   0.353   4.885   4.486 -0.2684 -0.6299 -1.6696
 1319SOL     OW15610   9.290   7.023   6.198 -0.4382  0.8030 -0.0210
 1319SOL    HW115611   9.315   7.058   6.288  0.0776  0.0079  0.1470
 1319SOL    HW215612   9.359   7.051   6.130  0.4132 -0.5457  0.2611
 1320SOL     OW15613   9.267   8.260   0.254  0.0928 -0.2705  0.3372
 1320SOL    HW115614   9.353   8.219   0.283  1.1689  0.2126 -2.0997
 1320SOL    HW215615   9.279   8.359   0.241 -0.8929 -0.1561  0.2362
 1321SOL     OW15616   9.339   8.677   5.312 -0.5346  0.5718  0.2157
 1321SOL    HW115617   9.301   8.767   5.290  0.4028  0.6734 -0.9691
 1321SOL    HW215618   9.334   8.617   5.232 -2.6896 -0.9905  1.4517
 1322SOL     OW15619   9.146   8.259   7.122  0.0732  1.0632  0.2801
 1322SOL    HW115620   9.171   8.162   7.118  0.3136  1.1651 -1.0510
 1322SOL    HW215621   9.072   8.272   7.187 -1.2800 -0.3144 -0.9433
 1323SOL     OW15622   8.372   6.386   4.020 -0.2751  0.1391  0.0861
 1323SOL    HW115623   8.381   6.326   3.941  1.8423 -0.4166  0.7164
 1323SOL    HW215624   8.348   6.331   4.101 -0.0713  0.3731  0.3064
 1324SOL     OW15625   8.526   2.996   0.240 -0.4928 -0.3795 -0.2732
 1324SOL    HW115626   8.608   3.026   0.289 -0.9412 -0.6244  0.6523
 1324SOL    HW215627   8.479   2.926   0.294 -2.4391  1.2546  0.2003
 1325SOL     OW15628   5.309   9.507   3.860 -0.0586  0.4849 -0.6576
 1325SOL    HW115629   5.388   9.495   3.920 -0.7165 -0.1094  0.1074
 1325SOL    HW215630   5.314   9.596   3.815  0.5145  0.8810  0.1748
 1326SOL     OW15631   7.433   9.805   5.050 -0.3738  0.1684 -0.3432
 1326SOL    HW115632   7.486   9.741   4.995 -0.4142 -0.3306  0.1965
 1326SOL    HW215633   7.495   9.864   5.102 -0.3435  0.2475 -0.4681
 1327SOL     OW15634   3.495   6.376   5.958 -0.4772 -0.4144  0.1377
 1327SOL    HW115635   3.514   6.278   5.971  0.1315 -0.3085  0.0548
 1327SOL    HW215636   3.539   6.407   5.874 -2.4897 -0.5735 -1.0147
 1328SOL     OW15637   8.326   2.232   4.049  0.4032  0.2326 -0.0082
 1328SOL    HW115638   8.369   2.278   4.127  0.3665 -0.2071  0.2714
 1328SOL    HW215639   8.395   2.187   3.994  0.5384  1.3900 -0.7927
 1329SOL     OW15640   2.878   0.869   3.923 -0.1349 -0.2546  0.3693
 1329SOL    HW115641   2.832   0.845   3.838  0.0191 -0.2341  0.2794
 1329SOL    HW215642   2.811   0.883   3.995 -0.2813 -0.0267  0.1902
 1330SOL     OW15643   9.505   1.502   2.963 -0.7823  0.2110 -0.2742
 1330SOL    HW115644   9.531   1.519   3.058 -0.6452 -1.6896  0.0519
 1330SOL    HW215645   9.411   1.531   2.949 -1.1972 -0.5674  0.7745
 1331SOL     OW15646   1.586   6.794   5.455  0.3753 -0.0082  0.0123
 1331SOL    HW115647   1.499   6.821   5.413  0.3087  0.1522  0.2546
 1331SOL    HW215648   1.660   6.851   5.418  0.3222  0.1055  0.0790
 1332SOL     OW15649   4.037   9.350   1.675  0.5263  0.3583 -0.0614
 1332SOL    HW115650   4.027   9.358   1.576  3.6153 -0.7731 -0.5342
 1332SOL    HW215651   4.104   9.417   1.707  0.4136 -0.0797  1.1023
 1333SOL     OW15652   8.771   9.228   2.655 -0.4205 -0.3948  1.0999
 1333SOL    HW115653   8.851   9.281   2.626 -2.0678  1.5632  0.0564
 1333SOL    HW215654   8.756   9.152   2.592 -0.2770  0.1251  0.4404
 1334SOL     OW15655   1.876   5.385   2.018 -0.3612 -0.1048 -0.3809
 1334SOL    HW115656   1.894   5.369   2.116  0.0541 -0.4837 -0.5146
 1334SOL    HW215657   1.823   5.469   2.007  0.0941  0.2556  0.1356
 1335SOL     OW15658   4.635   9.928   1.719  0.0714 -0.2898  0.4565
 1335SOL    HW115659   4.639   9.857   1.789 -1.9787 -1.6717 -0.7852
 1335SOL    HW215660   4.576  10.003   1.752 -0.7652 -0.8652  0.2721
 1336SOL     OW15661   8.310   3.083   1.715 -0.0351  0.5053  0.1627
 1336SOL    HW115662   8.306   3.047   1.808 -1.4912  0.3240  0.0428
 1336SOL    HW215663   8.218   3.111   1.686 -0.1927 -2.1996 -2.2813
 1337SOL     OW15664   1.884   5.106   4.066  0.4157 -0.1404  0.1287
 1337SOL    HW115665   1.847   5.195   4.040  1.2770 -0.1757 -1.2727
 1337SOL    HW215666   1.880   5.096   4.166 -1.2751  0.7481  0.1617
 1338SOL     OW15667   1.682   6.998   4.578  0.2505 -0.1853 -0.0551
 1338SOL    HW115668   1.773   6.986   4.618  0.1030 -1.7239 -0.1626
 1338SOL    HW215669   1.659   6.917   4.523 -0.4127  0.9846 -1.5489
 1339SOL     OW15670   2.300   3.284   6.768  0.0887 -0.1650 -0.8534
 1339SOL    HW115671   2.395   3.306   6.750  0.0054  0.8507 -0.0996
 1339SOL    HW215672   2.260   3.238   6.688  1.0715 -0.1628 -1.3444
 1340SOL     OW15673   0.145   2.507   4.174  0.0132 -0.1432 -0.3229
 1340SOL    HW115674   0.125   2.570   4.098 -0.4128  0.9612  0.6919
 1340SOL    HW215675   0.126   2.413   4.145 -0.7486  0.3256 -1.3833
 1341SOL     OW15676   0.912   3.058   1.961 -0.3585 -0.1238  0.0119
 1341SOL    HW115677   0.881   2.999   2.036 -0.3493 -0.5894 -0.3517
 1341SOL    HW215678   1.005   3.087   1.979 -0.6947  0.5602  0.6691
 1342SOL     OW15679   8.903   1.940   3.958 -0.2251 -0.0551 -0.7645
 1342SOL    HW115680   8.832   1.882   3.998 -1.5585  2.2115  0.2005
 1342SOL    HW215681   8.973   1.959   4.027  2.7404 -4.3033 -2.3633
 1343SOL     OW15682   7.050   8.993   4.698  0.4321 -0.0083  0.3666
 1343SOL    HW115683   7.093   9.035   4.619  1.1268 -1.3551  0.0194
 1343SOL    HW215684   7.094   8.905   4.718 -0.0551  0.0814  1.9396
 1344SOL     OW15685   7.501   2.568   4.706 -0.0180  0.0936 -0.7162
 1344SOL    HW115686   7.516   2.503   4.631  1.4943  0.5728 -0.8554
 1344SOL    HW215687   7.491   2.518   4.792  1.4858 -0.3335 -0.7687
 1345SOL     OW15688   4.363   9.228   1.225 -0.5255  0.2951  0.2590
 1345SOL    HW115689   4.305   9.309   1.224 -1.5015 -0.3956 -1.3626
 1345SOL    HW215690   4.389   9.204   1.132 -0.2094 -1.2385  0.7281
 1346SOL     OW15691   1.517   3.943   3.393 -0.0757  0.1127 -0.2837
 1346SOL    HW115692   1.503   4.041   3.407  0.7801  0.4216 -1.4876
 1346SOL    HW215693   1.613   3.926   3.370 -0.7081 -0.7395 -2.3650
 1347SOL     OW15694   4.204   1.775   4.139  0.7059 -0.5043  0.1918
 1347SOL    HW115695   4.106   1.757   4.149  0.8010 -1.8657 -1.2345
 1347SOL    HW215696   4.255   1.690   4.149  1.6925  0.0726  0.1600
 1348SOL     OW15697   4.252   5.177   4.075 -0.7565  0.1155 -0.1803
 1348SOL    HW115698   4.307   5.094   4.065  0.5362  0.6506  2.2196
 1348SOL    HW215699   4.155   5.152   4.072 -0.3896 -1.5312  0.6091
 1349SOL     OW15700   5.362   3.760   6.943  0.5938  0.2332  0.2241
 1349SOL    HW115701   5.442   3.747   7.002 -0.0504  0.5359  1.1677
 1349SOL    HW215702   5.288   3.803   6.995  0.0357  0.5561 -0.8200
 1350SOL     OW15703   2.792   1.355   6.084  0.1532 -0.3189 -0.3580
 1350SOL    HW115704   2.784   1.307   6.172  0.8748  0.6979  0.2711
 1350SOL    HW215705   2.700   1.379   6.051 -0.0625  0.5346  0.8159
 1351SOL     OW15706   0.062   8.798   6.283  0.5553  0.2289 -0.4909
 1351SOL    HW115707   0.126   8.839   6.348  1.2750  0.4285 -1.3034
 1351SOL    HW215708  -0.032   8.818   6.310  0.8592  0.5967  0.2927
 1352SOL     OW15709   5.679   9.570   1.080 -0.7396  0.6378  0.9636
 1352SOL    HW115710   5.583   9.560   1.104 -1.2079  0.4995 -0.8934
 1352SOL    HW215711   5.692   9.654   1.027 -0.2066 -0.4344 -0.6205
 1353SOL     OW15712   9.177   6.451   1.756  0.1154 -0.1959  0.1161
 1353SOL    HW115713   9.179   6.359   1.796  1.2325 -0.6441 -0.9286
 1353SOL    HW215714   9.083   6.476   1.734 -0.4128 -0.3124  2.1514
 1354SOL     OW15715   2.435   2.833   5.344 -0.1144 -0.7097 -0.1334
 1354SOL    HW115716   2.406   2.886   5.265 -1.5196 -1.5094 -0.1624
 1354SOL    HW215717   2.516   2.876   5.384 -1.1776  1.4212 -0.1786
 1355SOL     OW15718   9.828   0.678   5.176 -0.5108  0.3395  0.2502
 1355SOL    HW115719   9.733   0.686   5.144 -0.6915 -1.1489  0.3889
 1355SOL    HW215720   9.853   0.582   5.181  1.0089  0.7320  0.2492
 1356SOL     OW15721   4.135   7.261   4.934  0.0708 -0.3089  0.1778
 1356SOL    HW115722   4.134   7.305   4.844  1.5331 -0.4767  0.0702
 1356SOL    HW215723   4.044   7.223   4.953 -0.2479 -0.3064 -1.2495
 1357SOL     OW15724   1.914   3.117   8.129  0.2810 -0.0960 -0.1324
 1357SOL    HW115725   1.996   3.086   8.080 -0.1085  0.4787 -1.1520
 1357SOL    HW215726   1.839   3.127   8.065 -0.2819  0.5185  0.6153
 1358SOL     OW15727   3.864   2.848   0.182 -0.1781  0.5222  0.3385
 1358SOL    HW115728   3.774   2.848   0.139  0.2408  1.3511 -0.5866
 1358SOL    HW215729   3.864   2.787   0.261 -1.6090  0.7014  0.4900
 1359SOL     OW15730   7.592   9.862   6.650  0.3912  0.8668 -0.6196
 1359SOL    HW115731   7.601   9.917   6.733 -0.0251  0.7369 -0.4901
 1359SOL    HW215732   7.496   9.840   6.635  0.7616 -1.7800  0.5907
 1360SOL     OW15733   9.146   5.623   3.528  0.6359 -0.1499 -0.3861
 1360SOL    HW115734   9.175   5.616   3.624 -0.5053 -0.6387 -0.0668
 1360SOL    HW215735   9.149   5.719   3.499  1.5758 -0.0707 -0.0557
 1361SOL     OW15736   9.212   1.303   6.501  0.1316 -0.1807 -0.2540
 1361SOL    HW115737   9.267   1.378   6.537 -0.3745  0.6385 -1.1528
 1361SOL    HW215738   9.121   1.337   6.478 -1.2755 -1.8350  2.5989
 1362SOL     OW15739   8.704   5.858   7.021  0.0515  0.3323 -0.0252
 1362SOL    HW115740   8.650   5.803   6.957 -2.1816 -1.0658  2.9964
 1362SOL    HW215741   8.649   5.935   7.053  0.6163  0.1726  1.3538
 1363SOL     OW15742   2.855   7.624   4.947 -1.1684  0.2787  0.4262
 1363SOL    HW115743   2.930   7.558   4.939 -1.0119  0.6871 -2.0295
 1363SOL    HW215744   2.880   7.695   5.013  0.1246 -0.2296  0.5012
 1364SOL     OW15745   8.534   8.839   6.228 -0.3468  0.7869 -0.4322
 1364SOL    HW115746   8.492   8.832   6.319 -0.1223 -0.9946 -0.4604
 1364SOL    HW215747   8.564   8.934   6.213  1.2722  0.7220  2.0756
 1365SOL     OW15748   0.694   2.021   0.337 -0.1384 -0.3057  0.3438
 1365SOL    HW115749   0.598   2.011   0.365 -0.7543  0.1793 -1.5267
 1365SOL    HW215750   0.723   2.116   0.350 -0.5313 -0.0002 -0.9361
 1366SOL     OW15751   1.196   6.568   0.226 -0.8439 -0.1080  0.2371
 1366SOL    HW115752   1.281   6.517   0.238  1.3257  3.3501  0.1995
 1366SOL    HW215753   1.161   6.596   0.315 -1.5743 -0.8451  0.1978
 1367SOL     OW15754   3.376   4.191   1.138 -0.2403  0.0776 -0.4550
 1367SOL    HW115755   3.435   4.271   1.131  0.9148 -0.8354 -1.2551
 1367SOL    HW215756   3.422   4.119   1.191 -0.9593 -0.3535 -0.3958
 1368SOL     OW15757   0.306   7.862   7.771  0.3996 -0.2357  0.0205
 1368SOL    HW115758   0.252   7.884   7.691  0.3126  2.4067  0.7539
 1368SOL    HW215759   0.358   7.778   7.754 -1.5562 -1.1266 -1.8043
 1369SOL     OW15760   1.384   4.467   7.387 -0.4228  0.2285 -0.8285
 1369SOL    HW115761   1.436   4.395   7.433 -1.3566 -1.4388 -2.2969
 1369SOL    HW215762   1.308   4.496   7.445 -0.6492 -0.7172 -0.6428
 1370SOL     OW15763   9.659   9.039   2.400 -0.3439  0.3001 -0.3559
 1370SOL    HW115764   9.717   8.965   2.434  1.8287  2.3200  0.4264
 1370SOL    HW215765   9.564   9.008   2.398  0.6851 -3.0258 -1.5440
 1371SOL     OW15766   6.481   1.295   7.792 -0.1918  0.8756  0.0130
 1371SOL    HW115767   6.385   1.311   7.769 -0.4609 -0.2098  0.3144
 1371SOL    HW215768   6.536   1.298   7.709 -1.0068 -2.0237 -0.6890
 1372SOL     OW15769   0.714   2.641   6.418  0.0005  0.1746 -0.9881
 1372SOL    HW115770   0.803   2.603   6.443 -1.0632 -1.7768  0.0091
 1372SOL    HW215771   0.697   2.725   6.469  1.5782  0.9708 -1.7509
 1373SOL     OW15772   8.410   1.367   3.471 -0.3680 -0.0145 -0.1886
 1373SOL    HW115773   8.387   1.270   3.480 -0.0136 -0.0338  0.5858
 1373SOL    HW215774   8.401   1.412   3.560  2.3586  0.0113  0.1119
 1374SOL     OW15775   5.884   2.704   5.896 -0.0615 -0.0810  0.2427
 1374SOL    HW115776   5.956   2.742   5.838  0.4460 -0.2887  0.7310
 1374SOL    HW215777   5.911   2.613   5.928 -1.0548 -0.6572 -0.5233
 1375SOL     OW15778   4.084   8.970   1.055  0.0219  0.5041 -0.3345
 1375SOL    HW115779   4.117   8.995   1.146  1.9569 -0.7666 -0.6450
 1375SOL    HW215780   4.065   9.052   1.002 -1.6417  1.2563  1.3792
 1376SOL     OW15781   3.530   1.075   7.235 -0.3035  0.4252  0.1552
 1376SOL    HW115782   3.528   0.995   7.294  0.8968 -0.0126 -0.3628
 1376SOL    HW215783   3.591   1.145   7.274  0.9497 -0.0941 -0.8086
 1377SOL     OW15784   9.695   4.535   5.746  0.8607 -0.8349 -0.1688
 1377SOL    HW115785   9.780   4.587   5.746  0.4726 -0.1499 -1.3087
 1377SOL    HW215786   9.683   4.489   5.833  2.2120 -0.6347  0.1326
 1378SOL     OW15787   3.055   0.800   4.353 -0.5709 -0.3703 -0.4930
 1378SOL    HW115788   2.959   0.818   4.335 -1.4621 -2.6983  1.6703
 1378SOL    HW215789   3.071   0.702   4.356  1.7537 -0.0167 -0.1388
 1379SOL     OW15790   7.133   3.041   2.303  0.2868 -0.3312  0.1238
 1379SOL    HW115791   7.181   3.125   2.280  1.0192 -0.9356 -0.5830
 1379SOL    HW215792   7.150   3.018   2.399  1.8466 -0.8066 -0.2459
 1380SOL     OW15793   3.893   0.980   5.036 -0.3896  0.2257  0.6319
 1380SOL    HW115794   3.912   0.882   5.027  0.8235  0.4926  0.2806
 1380SOL    HW215795   3.805   0.992   5.083  0.4300 -1.0076  2.5233
 1381SOL     OW15796   1.597   8.537   7.461 -0.3891  0.4103  0.1995
 1381SOL    HW115797   1.615   8.535   7.362 -0.9005  1.2732  0.0871
 1381SOL    HW215798   1.585   8.443   7.494  1.3695  0.0061 -0.2526
 1382SOL     OW15799   8.913   0.585   5.511  0.2073 -0.1676  0.0003
 1382SOL    HW115800   8.926   0.548   5.603 -0.3717 -2.2026 -0.7097
 1382SOL    HW215801   8.826   0.633   5.506 -1.0698 -2.4042 -0.1667
 1383SOL     OW15802   2.421   1.606   9.996 -1.1249 -0.5577 -0.5970
 1383SOL    HW115803   2.468   1.528   9.953  0.0255 -0.3354  0.2400
 1383SOL    HW215804   2.322   1.593   9.988 -0.9359 -1.3902 -1.7460
 1384SOL     OW15805   0.770   3.450   3.510  0.6516  0.5788 -0.6630
 1384SOL    HW115806   0.731   3.361   3.530  0.5792  0.6961 -0.2581
 1384SOL    HW215807   0.858   3.439   3.464  0.5344  0.3043 -0.8187
 1385SOL     OW15808   8.282   3.070   6.198 -0.3483  0.4947 -0.6161
 1385SOL    HW115809   8.294   2.995   6.132 -0.2583  1.3822 -1.6239
 1385SOL    HW215810   8.185   3.096   6.201 -0.4616  0.0191  0.1019
 1386SOL     OW15811   3.700   7.982   1.997 -0.0632 -0.2250 -0.3663
 1386SOL    HW115812   3.700   7.978   1.897 -0.7125 -1.1480 -0.3417
 1386SOL    HW215813   3.792   8.006   2.030 -0.3421  2.0779 -1.2328
 1387SOL     OW15814   7.448   9.583   3.096 -0.5718  0.1906 -0.6585
 1387SOL    HW115815   7.538   9.626   3.095 -1.2028  1.5377 -0.9910
 1387SOL    HW215816   7.454   9.491   3.057  0.9587 -0.3663  0.8481
 1388SOL     OW15817   5.700   2.598   0.964  0.3317 -0.4984  0.5652
 1388SOL    HW115818   5.726   2.675   0.906 -0.9926  2.0980  3.2972
 1388SOL    HW215819   5.775   2.578   1.028 -0.7053  0.9086  2.2484
 1389SOL     OW15820   1.494   8.918   7.702 -0.6151  0.4673 -0.6866
 1389SOL    HW115821   1.574   8.867   7.671  0.6338  0.6137  2.1647
 1389SOL    HW215822   1.471   8.989   7.635  1.9052  0.7093 -1.3282
 1390SOL     OW15823   9.692   2.005   0.421 -0.1685  0.2743  0.6465
 1390SOL    HW115824   9.717   1.942   0.347  0.6241  0.8794  0.3835
 1390SOL    HW215825   9.754   2.084   0.419  0.3506 -0.0675  2.4260
 1391SOL     OW15826   0.017   1.505   0.272 -0.2240  0.2712  0.1285
 1391SOL    HW115827   0.026   1.597   0.310 -0.1947  0.7233 -0.9708
 1391SOL    HW215828   0.101   1.453   0.289 -0.2917  0.3974  0.8668
 1392SOL     OW15829   0.735   8.971   0.808 -0.5344  0.6073  0.1402
 1392SOL    HW115830   0.642   8.934   0.801 -0.4107  0.6017 -1.6943
 1392SOL    HW215831   0.795   8.921   0.746  0.5291  1.1649  0.7063
 1393SOL     OW15832   3.562   4.784   0.404  0.0144 -0.4343  0.3898
 1393SOL    HW115833   3.612   4.861   0.445 -1.0976  1.1492 -1.1406
 1393SOL    HW215834   3.616   4.743   0.331 -0.6400  0.8962 -0.8656
 1394SOL     OW15835   2.686   5.514   5.489  0.1775  0.6534 -0.4528
 1394SOL    HW115836   2.680   5.441   5.558 -0.9750  0.3830 -0.8358
 1394SOL    HW215837   2.594   5.541   5.461  0.6446  0.7753 -1.8793
 1395SOL     OW15838   5.161   8.131   7.417  0.4806 -0.2100 -0.3729
 1395SOL    HW115839   5.148   8.036   7.445 -0.1783  0.0955  0.3786
 1395SOL    HW215840   5.259   8.152   7.415  0.5953 -0.6803  0.2139
 1396SOL     OW15841   1.216   7.637   3.290 -0.2653  0.5845 -0.0519
 1396SOL    HW115842   1.229   7.698   3.368  0.2624  0.4655 -0.0473
 1396SOL    HW215843   1.214   7.542   3.321  3.0271  0.3054 -0.5033
 1397SOL     OW15844   8.897   8.662   0.706 -0.0474 -0.0059 -0.5241
 1397SOL    HW115845   8.940   8.648   0.616 -1.8708 -1.8606 -1.1495
 1397SOL    HW215846   8.801   8.687   0.693  0.0283  1.0716  0.9055
 1398SOL     OW15847   3.638   1.768   6.037  0.1031 -0.1893  0.8124
 1398SOL    HW115848   3.588   1.846   6.073 -0.4002 -0.1863  0.1242
 1398SOL    HW215849   3.716   1.747   6.096 -0.5074  0.0309  1.6983
 1399SOL     OW15850   5.549   7.870   3.881  0.0840  0.1614  0.2047
 1399SOL    HW115851   5.616   7.871   3.956  0.7516  0.4079 -0.3962
 1399SOL    HW215852   5.524   7.964   3.857  0.0767  0.0898 -0.0673
 1400SOL     OW15853   7.135   4.467   1.140  0.1690 -0.3529 -0.3945
 1400SOL    HW115854   7.160   4.417   1.224  0.9872  1.1359  0.2646
 1400SOL    HW215855   7.036   4.478   1.137  0.2431  1.0309  1.2432
 1401SOL     OW15856   9.995   1.759   7.115 -0.2015 -0.4768 -0.5248
 1401SOL    HW115857   9.933   1.681   7.125  0.5849 -1.1281 -0.6586
 1401SOL    HW215858  10.089   1.727   7.121  0.1136  0.8061  1.8551
 1402SOL     OW15859   4.072   1.990   4.474  0.2803 -0.1274  0.4354
 1402SOL    HW115860   4.138   1.972   4.401 -2.4516  2.7263 -2.9360
 1402SOL    HW215861   4.116   2.039   4.548  2.7817 -1.7329  0.0711
 1403SOL     OW15862   6.762   0.605   5.265  0.2629  0.3910 -0.3640
 1403SOL    HW115863   6.726   0.567   5.180  0.0763 -2.0108  0.7579
 1403SOL    HW215864   6.742   0.703   5.268  0.7906  0.6381 -3.3317
 1404SOL     OW15865   7.646   5.172   0.151 -0.4320  0.2670  0.6668
 1404SOL    HW115866   7.592   5.252   0.125 -0.2858  0.2894  0.4230
 1404SOL    HW215867   7.595   5.089   0.128 -0.8432  0.2897  1.4819
 1405SOL     OW15868   4.603   6.377   3.620 -0.7515 -0.0908 -0.1615
 1405SOL    HW115869   4.580   6.333   3.533  0.2779  0.6137 -0.8058
 1405SOL    HW215870   4.672   6.447   3.604 -1.7444  1.1722  0.9763
 1406SOL     OW15871   3.879   0.697   0.791 -0.4339  0.2238  0.2912
 1406SOL    HW115872   3.915   0.678   0.882  1.1875  0.2697 -0.3262
 1406SOL    HW215873   3.782   0.675   0.789 -0.3771 -0.2739  1.8780
 1407SOL     OW15874   0.964   0.579   7.179 -0.2583  0.1730 -0.7523
 1407SOL    HW115875   0.870   0.605   7.158 -0.5484 -1.0988 -1.0661
 1407SOL    HW215876   0.969   0.480   7.196  0.5171  0.6257  1.9844
 1408SOL     OW15877   0.123   5.860   7.995  0.2593 -0.3856 -0.3318
 1408SOL    HW115878   0.025   5.877   8.008  0.3142 -0.5068  0.2707
 1408SOL    HW215879   0.160   5.924   7.928 -0.5635 -1.3425 -1.7312
 1409SOL     OW15880   0.043   7.946   5.407  0.5108 -0.1436 -0.5395
 1409SOL    HW115881   0.036   8.027   5.347 -0.0218 -1.0688 -1.7563
 1409SOL    HW215882   0.098   7.876   5.361 -0.0542 -0.9295 -0.0135
 1410SOL     OW15883   6.853   8.914   7.249 -0.5187  0.3144 -0.2045
 1410SOL    HW115884   6.817   8.901   7.156  0.4382  1.0800 -0.6893
 1410SOL    HW215885   6.812   8.995   7.290 -0.1179  0.6089 -0.3798
 1411SOL     OW15886   2.513   0.558   5.606 -0.3712  0.2989  0.3671
 1411SOL    HW115887   2.484   0.529   5.515 -0.1001 -1.4710  0.8260
 1411SOL    HW215888   2.452   0.630   5.639  0.8790  2.5960 -2.1135
 1412SOL     OW15889   4.117   1.080   4.207 -0.2528  0.0306 -0.1180
 1412SOL    HW115890   4.057   1.160   4.215  0.4547  0.5874 -0.3600
 1412SOL    HW215891   4.156   1.077   4.115  0.2177 -0.2463  0.0883
 1413SOL     OW15892   8.354   4.134   2.447  0.5855 -0.7788  0.3046
 1413SOL    HW115893   8.349   4.096   2.355  0.0810  0.2526 -0.0955
 1413SOL    HW215894   8.270   4.185   2.467 -0.1531 -2.5962  2.0454
 1414SOL     OW15895   2.152   4.694   7.249 -0.1756 -0.0511  0.1864
 1414SOL    HW115896   2.252   4.692   7.248 -0.1716 -0.2993  0.6706
 1414SOL    HW215897   2.119   4.741   7.168  0.3244 -0.4212 -0.2352
 1415SOL     OW15898   1.208   1.726   5.816 -0.0612 -0.0855 -0.1331
 1415SOL    HW115899   1.263   1.808   5.830 -0.3399  0.0904 -0.0738
 1415SOL    HW215900   1.113   1.752   5.799 -0.4040 -0.4384  1.1734
 1416SOL     OW15901   3.866   0.001   4.919 -0.5045  0.1060 -0.5917
 1416SOL    HW115902   3.874  -0.052   4.834  1.1254 -1.8295  0.7423
 1416SOL    HW215903   3.795   0.071   4.907 -1.4523 -1.1915 -2.9895
 1417SOL     OW15904   8.778   9.860   2.308  0.1768  0.0900  0.0720
 1417SOL    HW115905   8.772   9.767   2.271 -0.8228  0.0405  0.3540
 1417SOL    HW215906   8.834   9.860   2.391  1.3246 -0.0204 -0.6751
 1418SOL     OW15907   6.945   7.881   6.933  0.2858  0.0067  0.1689
 1418SOL    HW115908   7.042   7.897   6.951  0.2731 -0.0963  0.3282
 1418SOL    HW215909   6.901   7.966   6.905  0.8547 -0.3432 -1.8638
 1419SOL     OW15910   5.770   7.445   6.964 -0.7643 -0.7716 -0.7970
 1419SOL    HW115911   5.815   7.430   7.053 -0.2137 -1.1667 -1.1379
 1419SOL    HW215912   5.673   7.463   6.979 -0.3677  0.8285  0.0017
 1420SOL     OW15913   3.265   7.909   2.155 -0.3840 -0.2601  0.5844
 1420SOL    HW115914   3.344   7.863   2.113 -1.5404 -1.9199  0.1772
 1420SOL    HW215915   3.214   7.957   2.084 -0.1001  0.2782  0.7446
 1421SOL     OW15916   0.586   6.026   6.569 -0.3445 -0.6611 -0.3774
 1421SOL    HW115917   0.676   5.994   6.597 -0.0106  1.7269  1.4136
 1421SOL    HW215918   0.581   6.031   6.469  2.2305  1.2106 -0.4361
 1422SOL     OW15919   0.400   9.943   4.881 -0.1284  0.4871 -0.6907
 1422SOL    HW115920   0.347   9.886   4.944 -0.2202 -1.2385 -2.2634
 1422SOL    HW215921   0.497   9.919   4.888 -0.2724 -0.6311 -2.0458
 1423SOL     OW15922   2.580   1.075   7.670 -0.7426 -0.0952  0.0712
 1423SOL    HW115923   2.489   1.101   7.636 -1.1825  0.2151  1.4595
 1423SOL    HW215924   2.599   0.980   7.644 -0.0448  0.8401 -3.1184
 1424SOL     OW15925   6.917   0.418   5.048  0.5542 -0.5298 -0.1981
 1424SOL    HW115926   7.013   0.438   5.068  0.7611 -0.9739 -0.7014
 1424SOL    HW215927   6.890   0.336   5.098  0.5763 -0.6744 -0.4243
 1425SOL     OW15928   1.856   2.399   2.729  0.5711  0.2088  0.1823
 1425SOL    HW115929   1.879   2.488   2.692  0.4959  0.2108  0.1431
 1425SOL    HW215930   1.940   2.346   2.742  0.6354  0.3698  0.4197
 1426SOL     OW15931   9.930   7.712   5.139 -0.5048 -0.0130 -0.1965
 1426SOL    HW115932   9.858   7.645   5.156 -1.0550  0.7281  0.4712
 1426SOL    HW215933  10.000   7.705   5.211 -0.4293 -0.0512 -0.2741
 1427SOL     OW15934   1.937   4.479   0.155 -0.0361 -0.0044 -0.1982
 1427SOL    HW115935   2.021   4.486   0.208 -0.2007 -0.4952  0.1386
 1427SOL    HW215936   1.885   4.399   0.186 -0.6749  0.3548 -0.3274
 1428SOL     OW15937   1.090   1.855   5.539  0.6349  0.0001  0.1575
 1428SOL    HW115938   1.033   1.782   5.501 -0.4838  1.0895 -0.3091
 1428SOL    HW215939   1.179   1.818   5.566 -0.5404 -1.8593  1.5224
 1429SOL     OW15940   7.547   0.473   3.255  0.2500 -0.0152  0.0928
 1429SOL    HW115941   7.507   0.559   3.226  0.9520  0.6953  1.1616
 1429SOL    HW215942   7.635   0.460   3.210  1.1703  0.9123  1.5831
 1430SOL     OW15943   3.843   8.828   0.237  0.0143  0.0664  0.4256
 1430SOL    HW115944   3.937   8.863   0.231  0.8548 -1.9897  0.9223
 1430SOL    HW215945   3.800   8.862   0.321  1.0134 -0.5135  1.1938
 1431SOL     OW15946   8.371   8.278   5.545  0.5268  0.1465 -0.7100
 1431SOL    HW115947   8.389   8.270   5.447 -0.0938 -1.9905 -0.6716
 1431SOL    HW215948   8.304   8.210   5.573 -0.0454  1.3816  1.0379
 1432SOL     OW15949   5.428   5.417   0.911 -0.5795 -0.0341 -0.5427
 1432SOL    HW115950   5.498   5.470   0.958 -0.5672  0.2789 -0.9054
 1432SOL    HW215951   5.383   5.475   0.843  0.8087 -1.0267 -2.3613
 1433SOL     OW15952   6.569   6.835   4.222  0.2740 -0.3269 -0.3446
 1433SOL    HW115953   6.626   6.872   4.148 -1.0099  1.0063 -0.6794
 1433SOL    HW215954   6.499   6.775   4.183 -0.5087  0.5107 -0.2424
 1434SOL     OW15955   2.134   5.110   3.507 -0.1843  0.0403 -0.5053
 1434SOL    HW115956   2.169   5.096   3.415  0.3750 -1.6382 -0.0529
 1434SOL    HW215957   2.182   5.187   3.549 -0.9641  1.2894 -1.8654
 1435SOL     OW15958   3.321   3.670   3.750  0.4540  0.0377 -0.0339
 1435SOL    HW115959   3.383   3.739   3.713 -0.7290  2.5647  2.5458
 1435SOL    HW215960   3.358   3.635   3.837 -0.9863  0.4550  0.7542
 1436SOL     OW15961   0.309   6.038   6.854 -0.2205 -0.5904 -0.0924
 1436SOL    HW115962   0.279   6.105   6.786 -0.8260 -1.8479 -1.0998
 1436SOL    HW215963   0.400   6.062   6.888 -0.0028  0.1680 -1.1978
 1437SOL     OW15964   2.340   6.813   9.765 -0.0620 -0.1645 -0.1285
 1437SOL    HW115965   2.353   6.908   9.791  0.5008  0.2708 -1.9233
 1437SOL    HW215966   2.414   6.757   9.802  0.3544  0.3242 -0.2307
 1438SOL     OW15967   3.333   6.859   4.006  0.2275  0.1896  0.6244
 1438SOL    HW115968   3.429   6.841   3.984 -0.0204 -0.4964  0.0765
 1438SOL    HW215969   3.291   6.776   4.042 -0.3360  0.2914  0.2131
 1439SOL     OW15970   1.049   8.520   6.164 -0.6373 -0.8655 -0.5250
 1439SOL    HW115971   0.955   8.492   6.143 -0.2591 -1.7621 -1.0909
 1439SOL    HW215972   1.063   8.615   6.135 -1.0764 -1.0555 -1.3884
 1440SOL     OW15973   9.834   5.349   7.319 -0.3456  0.0909  0.2011
 1440SOL    HW115974   9.808   5.445   7.326  1.9468  0.6636  1.7307
 1440SOL    HW215975   9.842   5.310   7.411  1.7508 -0.6710 -0.2648
 1441SOL     OW15976   4.350   6.945   0.421  0.6345  0.8355 -0.3515
 1441SOL    HW115977   4.427   7.009   0.421  1.2142  0.1502  0.3207
 1441SOL    HW215978   4.359   6.881   0.345  0.6638  0.8288 -0.3423
 1442SOL     OW15979   3.958   0.948   0.672  0.4706  0.6950 -0.0247
 1442SOL    HW115980   3.959   1.014   0.596 -0.5055  1.9383  1.0203
 1442SOL    HW215981   3.923   0.860   0.639  2.4010  0.4781 -1.5922
 1443SOL     OW15982   6.032   9.738   3.637 -0.2536  0.8335 -0.7620
 1443SOL    HW115983   6.072   9.802   3.572  2.9469 -0.0384  0.2443
 1443SOL    HW215984   6.005   9.788   3.720  1.8727  0.9784 -0.1320
 1444SOL     OW15985   0.125   7.477   7.387  0.2484  0.2303  0.0655
 1444SOL    HW115986   0.105   7.501   7.292 -1.4142 -1.5301 -0.0715
 1444SOL    HW215987   0.206   7.527   7.418 -0.6518  2.7689 -1.4688
 1445SOL     OW15988   2.882   9.254   6.594  0.5258  0.3523  0.0964
 1445SOL    HW115989   2.933   9.325   6.642 -0.6567 -0.2330  2.2743
 1445SOL    HW215990   2.791   9.245   6.634 -0.0009 -1.1194 -1.3560
 1446SOL     OW15991   4.226   5.685   2.869  0.3629 -0.1334 -0.1813
 1446SOL    HW115992   4.134   5.650   2.851  0.5140 -1.7130  2.0190
 1446SOL    HW215993   4.222   5.785   2.878 -0.5156  0.2307 -3.6791
 1447SOL     OW15994   2.276   5.349   3.589  0.0564 -0.4534  0.2856
 1447SOL    HW115995   2.356   5.364   3.648  0.9347 -0.6145 -0.8384
 1447SOL    HW215996   2.215   5.428   3.594  0.0694 -0.5107  1.4833
 1448SOL     OW15997   6.516   4.945   2.076 -0.4544 -0.4482 -1.1717
 1448SOL    HW115998   6.546   4.853   2.053 -1.9430 -1.1029 -0.5729
 1448SOL    HW215999   6.446   4.975   2.011  0.7024  0.6508 -1.9401
 1449SOL     OW16000   8.952   2.085   0.253  0.1456  0.8785  0.0062
 1449SOL    HW116001   8.963   2.159   0.320 -0.9539 -1.3535  2.7346
 1449SOL    HW216002   8.900   2.119   0.175  0.4963  3.2398  0.7450
 1450SOL     OW16003   0.779   5.990   5.990  0.1187 -0.4337 -0.2590
 1450SOL    HW116004   0.748   5.970   5.897 -2.1048 -1.5259  0.6937
 1450SOL    HW216005   0.771   6.088   6.008 -0.5639 -0.3897 -0.8178
 1451SOL     OW16006   1.753   7.662   5.719  0.7167 -0.0120 -0.2937
 1451SOL    HW116007   1.807   7.745   5.735  0.3853  0.1591 -0.0568
 1451SOL    HW216008   1.814   7.589   5.689  1.4925 -0.4973  2.2749
 1452SOL     OW16009   5.643   3.543   1.835  0.1900 -0.2035 -0.6102
 1452SOL    HW116010   5.621   3.476   1.906 -0.2644 -1.0169 -1.5057
 1452SOL    HW216011   5.639   3.636   1.873  0.4380 -0.6695  0.5386
 1453SOL     OW16012   4.027   7.122   1.163 -0.0963 -0.3919 -0.2195
 1453SOL    HW116013   4.021   7.203   1.222  1.0193  2.1048 -3.3680
 1453SOL    HW216014   3.948   7.120   1.102  1.2939 -0.0285 -2.0897
 1454SOL     OW16015   9.645   4.164   3.632  0.6617 -0.4673 -0.0555
 1454SOL    HW116016   9.693   4.185   3.548 -1.1323 -0.4735 -1.1158
 1454SOL    HW216017   9.573   4.097   3.613 -0.9743  0.9152  1.0972
 1455SOL     OW16018   5.816   4.417   1.627 -0.2616 -0.6165 -0.3951
 1455SOL    HW116019   5.795   4.491   1.691 -0.4688 -0.5155 -0.5796
 1455SOL    HW216020   5.795   4.329   1.669  0.7200 -0.6121  0.1162
 1456SOL     OW16021   1.436   0.605   4.239  0.0286 -1.4307 -0.0802
 1456SOL    HW116022   1.348   0.650   4.220  0.0509 -0.7154  1.4726
 1456SOL    HW216023   1.455   0.539   4.167 -1.4374 -1.0624 -0.8293
 1457SOL     OW16024   8.684   9.084   1.230 -0.4096 -0.2232  0.0578
 1457SOL    HW116025   8.600   9.106   1.180 -0.2760  0.5290  0.1532
 1457SOL    HW216026   8.759   9.142   1.196 -0.3462  0.3956  1.2104
 1458SOL     OW16027   8.171   9.010   7.797 -1.3902  0.4584  0.2894
 1458SOL    HW116028   8.259   9.056   7.794 -0.4770 -1.2575 -0.2461
 1458SOL    HW216029   8.139   9.005   7.892 -0.4211  0.1906  0.6085
 1459SOL     OW16030   3.136   4.995   1.695 -0.1327  0.4809 -0.0935
 1459SOL    HW116031   3.167   5.089   1.684  1.9696  0.2647  3.2086
 1459SOL    HW216032   3.206   4.933   1.659 -0.7923  0.1588 -0.8148
 1460SOL     OW16033   0.161   7.369   2.995 -0.5437  0.5132 -0.5087
 1460SOL    HW116034   0.260   7.374   2.982 -0.5030  1.2630  0.1006
 1460SOL    HW216035   0.119   7.454   2.965 -1.0393  0.0929 -1.0234
 1461SOL     OW16036   5.891   7.997   3.292  0.4599  0.3094 -0.2466
 1461SOL    HW116037   5.955   8.055   3.343  0.2538  0.7445 -0.4845
 1461SOL    HW216038   5.852   7.929   3.354  0.8479  0.2991 -0.0075
 1462SOL     OW16039   7.475   7.548   7.191  0.3996 -0.4781  0.2194
 1462SOL    HW116040   7.525   7.602   7.124 -0.0209  1.4846  1.4600
 1462SOL    HW216041   7.377   7.555   7.173  0.2483  0.5898  1.4318
 1463SOL     OW16042   6.338   7.985   5.769  0.0306 -0.4161 -0.4373
 1463SOL    HW116043   6.409   7.922   5.800  1.0333  0.2089 -1.4088
 1463SOL    HW216044   6.281   7.940   5.701  1.4716  0.0763 -1.9974
 1464SOL     OW16045   7.726   7.946   7.952  0.1228  0.3361  0.3558
 1464SOL    HW116046   7.713   7.886   8.031  1.2018  0.1258  0.3862
 1464SOL    HW216047   7.787   7.901   7.886 -1.4936  0.1240 -1.0222
 1465SOL     OW16048   0.369   0.248   0.453 -0.0957 -0.5880  0.0982
 1465SOL    HW116049   0.282   0.226   0.496 -1.0515 -0.3847 -1.6797
 1465SOL    HW216050   0.357   0.253   0.354  1.6565  0.7389 -0.0740
 1466SOL     OW16051   9.136   0.633   7.901  0.2858  0.3519  0.1208
 1466SOL    HW116052   9.052   0.580   7.892  0.5539 -0.0540  0.0299
 1466SOL    HW216053   9.135   0.709   7.836 -1.2251  1.9527  1.9287
 1467SOL     OW16054   9.820   4.548   6.471 -0.2747 -0.1238 -0.7515
 1467SOL    HW116055   9.858   4.457   6.455 -0.5450 -0.5337  0.8363
 1467SOL    HW216056   9.828   4.570   6.569 -0.3370  1.4966 -1.1123
 1468SOL     OW16057   8.512   8.603   0.659  0.0985  0.9437 -0.7342
 1468SOL    HW116058   8.432   8.658   0.635 -2.2006 -1.4554  1.0278
 1468SOL    HW216059   8.511   8.518   0.606 -0.7446 -0.8647  2.0738
 1469SOL     OW16060   3.984   5.185   4.072  0.2767  0.3243 -0.2780
 1469SOL    HW116061   3.950   5.102   4.028  2.1263 -0.5465 -0.1065
 1469SOL    HW216062   3.934   5.264   4.036 -0.5433 -0.7089 -1.4715
 1470SOL     OW16063   0.710   4.535   7.826 -0.2782 -0.3315 -0.4269
 1470SOL    HW116064   0.700   4.437   7.842  1.5276 -0.7884 -1.9066
 1470SOL    HW216065   0.624   4.572   7.792 -0.7648 -1.5429 -0.5489
 1471SOL     OW16066   8.150   0.634   2.810  0.2455 -0.3535  0.1122
 1471SOL    HW116067   8.174   0.537   2.814 -0.4415 -0.6102 -1.4273
 1471SOL    HW216068   8.192   0.676   2.730  0.5094  0.6216  0.7512
 1472SOL     OW16069   2.597   5.985   7.206  0.9769 -0.2357 -0.5853
 1472SOL    HW116070   2.513   6.037   7.191  0.8246 -0.1432  0.5502
 1472SOL    HW216071   2.628   5.946   7.119 -0.2947 -0.3575 -0.9939
 1473SOL     OW16072   3.276   3.281   1.092  0.2681  0.0272  0.2146
 1473SOL    HW116073   3.253   3.198   1.041  0.6369  0.6065 -0.9017
 1473SOL    HW216074   3.217   3.356   1.062  1.5454  0.7611 -0.4974
 1474SOL     OW16075   2.835   5.541   6.108 -0.1093  0.0246  0.0740
 1474SOL    HW116076   2.771   5.580   6.042  0.5585 -0.1570 -0.6750
 1474SOL    HW216077   2.790   5.536   6.198 -1.2374 -0.3566 -0.5026
 1475SOL     OW16078   1.517   0.506   0.276  0.0238 -0.4516 -0.0428
 1475SOL    HW116079   1.552   0.414   0.256 -0.2251 -0.4762 -0.3705
 1475SOL    HW216080   1.519   0.560   0.192 -2.2481 -0.9516 -0.4348
 1476SOL     OW16081   8.957   2.879   3.283  0.3882 -0.2445  0.0425
 1476SOL    HW116082   9.043   2.834   3.306  0.5869 -2.0186 -3.7468
 1476SOL    HW216083   8.975   2.965   3.236  0.0440  0.8622  1.9039
 1477SOL     OW16084   1.855   4.963   6.016  0.2654  0.2310  0.3631
 1477SOL    HW116085   1.918   5.038   5.997  1.3460 -0.9045 -0.5810
 1477SOL    HW216086   1.763   4.999   6.030  0.5807  1.6226 -1.1285
 1478SOL     OW16087   7.784   5.566   4.220  0.4600 -0.4637  0.0743
 1478SOL    HW116088   7.741   5.640   4.168 -0.0009 -1.2218 -0.6495
 1478SOL    HW216089   7.814   5.600   4.308 -0.0970  0.4971 -0.0989
 1479SOL     OW16090   5.552   0.452   6.402  0.2803  0.0876 -0.1398
 1479SOL    HW116091   5.606   0.446   6.485  0.8392 -0.8979 -0.5615
 1479SOL    HW216092   5.608   0.426   6.323  0.2552  2.6259 -1.0623
 1480SOL     OW16093   8.857   9.572   5.590  0.3470  0.0323  0.2914
 1480SOL    HW116094   8.796   9.612   5.658 -0.5234  0.7316 -0.8737
 1480SOL    HW216095   8.866   9.474   5.607 -0.2992  0.1081  1.0865
 1481SOL     OW16096   2.228   0.627   7.261 -0.4414 -0.0098  0.4477
 1481SOL    HW116097   2.315   0.583   7.284 -0.9690 -0.7692  1.0162
 1481SOL    HW216098   2.245   0.719   7.225  0.7718 -1.0991 -1.8905
 1482SOL     OW16099   0.619   8.175   5.636 -0.3061 -0.7648 -0.0677
 1482SOL    HW116100   0.704   8.122   5.625  0.5573  0.3835  0.9047
 1482SOL    HW216101   0.556   8.153   5.562  0.1689 -2.8931  0.1144
 1483SOL     OW16102   8.867   2.139   6.310  0.0531 -0.2337  0.4190
 1483SOL    HW116103   8.869   2.168   6.406 -3.4670  1.7696 -0.0292
 1483SOL    HW216104   8.892   2.043   6.304  2.2628  0.0851  3.1070
 1484SOL     OW16105   3.664   4.229   5.927  0.1088 -0.0513 -0.2555
 1484SOL    HW116106   3.589   4.288   5.899  0.8795  0.6353 -0.9087
 1484SOL    HW216107   3.659   4.142   5.878 -0.6713 -0.2968  0.2492
 1485SOL     OW16108   4.535   6.217   1.204 -0.2352  0.1132 -0.3446
 1485SOL    HW116109   4.477   6.174   1.135 -0.1231 -0.4765 -0.0823
 1485SOL    HW216110   4.577   6.299   1.167 -0.2800 -0.1301 -0.9374
 1486SOL     OW16111   7.014   1.241   6.805 -0.3293  0.1241 -0.0940
 1486SOL    HW116112   7.032   1.325   6.754 -1.9872  1.3968  1.3529
 1486SOL    HW216113   7.101   1.196   6.826  0.6140  1.6785 -0.5432
 1487SOL     OW16114   7.902   3.340   3.687  0.2194 -0.0158 -0.2445
 1487SOL    HW116115   7.846   3.389   3.620  0.1583 -0.4580 -0.5189
 1487SOL    HW216116   7.947   3.263   3.643  1.2594  0.4915 -0.0759
 1488SOL     OW16117   4.135   3.281   2.705  0.7633 -0.3969 -0.3527
 1488SOL    HW116118   4.138   3.259   2.802 -4.4405 -1.3472 -0.3009
 1488SOL    HW216119   4.198   3.221   2.656  2.7451 -0.5529  2.2395
 1489SOL     OW16120   9.639   9.225   5.171  0.3720  0.5387  0.9466
 1489SOL    HW116121   9.702   9.244   5.096 -0.0999 -0.5219  0.2750
 1489SOL    HW216122   9.637   9.303   5.233  0.3354  1.6552 -0.4416
 1490SOL     OW16123   3.501   2.531   0.566  0.3007  0.7398 -0.7442
 1490SOL    HW116124   3.411   2.575   0.565 -0.6672 -1.1964 -0.0517
 1490SOL    HW216125   3.519   2.488   0.477 -0.6365 -1.2119  0.0017
 1491SOL     OW16126   0.231   0.186   3.055 -0.0210  0.3012  0.8534
 1491SOL    HW116127   0.294   0.248   3.102 -0.2492  0.8729  0.4221
 1491SOL    HW216128   0.199   0.230   2.971  0.3701 -0.7033  0.1739
 1492SOL     OW16129   1.398   9.076   2.183  0.7200 -1.0095 -0.3018
 1492SOL    HW116130   1.482   9.022   2.180  1.8880  0.8352 -2.7246
 1492SOL    HW216131   1.329   9.028   2.239  2.5617 -3.6734 -0.2199
 1493SOL     OW16132   2.265   1.909   1.570  0.3769  0.0817  0.0042
 1493SOL    HW116133   2.350   1.898   1.518  1.7467 -2.7012  2.6722
 1493SOL    HW216134   2.281   1.971   1.647 -0.3871  0.6280 -0.2761
 1494SOL     OW16135   9.870   3.182   5.170  0.1310  0.8862  0.0723
 1494SOL    HW116136   9.856   3.086   5.150  0.0084  0.4396  2.1639
 1494SOL    HW216137   9.891   3.232   5.085 -0.7667 -0.7869 -1.1505
 1495SOL     OW16138   3.828   2.026   3.281 -0.1355  0.0199  0.2071
 1495SOL    HW116139   3.733   2.026   3.250 -0.9270 -1.5833  2.5450
 1495SOL    HW216140   3.833   2.053   3.377  1.6097 -1.3227  0.5281
 1496SOL     OW16141   4.093   2.813   7.022  0.2401  0.5397 -0.1886
 1496SOL    HW116142   4.094   2.749   6.945 -1.1276 -0.2049  0.4009
 1496SOL    HW216143   4.185   2.850   7.036  0.5052  0.7048 -2.1894
 1497SOL     OW16144   1.145   7.658   4.055  0.0559 -0.4697 -0.2840
 1497SOL    HW116145   1.209   7.645   4.131 -1.2615 -1.5576  0.6562
 1497SOL    HW216146   1.054   7.677   4.090  0.0178  2.0661 -1.6264
 1498SOL     OW16147   7.478   4.715   1.303  0.8166  0.0651  0.4046
 1498SOL    HW116148   7.562   4.723   1.358  0.1717 -0.3978  1.4844
 1498SOL    HW216149   7.485   4.636   1.244  1.0646 -0.0840  0.6299
 1499SOL     OW16150   9.848   6.159   5.345  0.0386 -0.0339 -0.1272
 1499SOL    HW116151   9.840   6.145   5.247 -0.6520 -1.4772  0.1180
 1499SOL    HW216152   9.761   6.137   5.389  0.9960 -1.5287  1.0474
 1500SOL     OW16153   6.620   0.298   7.308  0.2404 -0.5068  0.6882
 1500SOL    HW116154   6.568   0.316   7.391 -0.7931  1.4715 -0.3537
 1500SOL    HW216155   6.700   0.358   7.306  0.3140 -0.6199  0.3139
 1501SOL     OW16156   5.992   5.222   2.647  0.0420  0.4226 -0.1567
 1501SOL    HW116157   5.995   5.310   2.601 -2.2210  1.1880  1.0662
 1501SOL    HW216158   6.084   5.195   2.675  1.2608  0.5970 -3.8060
 1502SOL     OW16159   3.418   1.408   5.486  0.0518  0.1057 -0.3621
 1502SOL    HW116160   3.513   1.385   5.463  0.3533  1.2654 -0.3257
 1502SOL    HW216161   3.383   1.475   5.420 -0.5296  0.1743  0.0121
 1503SOL     OW16162   1.215   7.646   7.331 -0.3096 -0.6514 -0.9654
 1503SOL    HW116163   1.232   7.558   7.376  1.5682 -0.4125 -1.1661
 1503SOL    HW216164   1.234   7.638   7.233 -2.4698 -0.6400 -1.4060
 1504SOL     OW16165   2.690   7.247   5.259 -0.0895  0.3566 -0.1477
 1504SOL    HW116166   2.713   7.151   5.269  1.4088  0.8506  1.4266
 1504SOL    HW216167   2.620   7.258   5.188 -0.0035 -1.8288 -0.5916
 1505SOL     OW16168   7.116   7.961   2.515 -0.7449 -0.6524  0.0910
 1505SOL    HW116169   7.085   8.056   2.504  0.5122 -0.3670 -1.1477
 1505SOL    HW216170   7.108   7.935   2.612 -4.0199 -0.3489 -0.0596
 1506SOL     OW16171   4.010   4.749   0.435  0.2071 -0.1601  0.2629
 1506SOL    HW116172   4.019   4.679   0.364 -2.9628  0.9048 -1.2626
 1506SOL    HW216173   3.982   4.835   0.394 -0.1529  0.8948  2.6490
 1507SOL     OW16174   8.555   1.885   6.200 -0.3323 -0.2603 -0.0066
 1507SOL    HW116175   8.505   1.971   6.188 -0.9853 -0.4669  1.1758
 1507SOL    HW216176   8.560   1.837   6.112  2.1041  2.0907 -1.2262
 1508SOL     OW16177   5.066   5.590   1.784  0.2194 -0.4954 -0.0708
 1508SOL    HW116178   4.968   5.574   1.787  0.1743 -0.2291 -0.1263
 1508SOL    HW216179   5.098   5.615   1.876  0.1474 -0.0729 -0.1578
 1509SOL     OW16180   5.158   6.739   0.954  0.2864 -0.1374  0.1588
 1509SOL    HW116181   5.152   6.837   0.969 -1.2142 -0.0909 -0.6987
 1509SOL    HW216182   5.244   6.705   0.992  2.7995  2.1783 -3.1802
 1510SOL     OW16183   8.152   1.227   5.283  0.3388  0.1072 -0.0757
 1510SOL    HW116184   8.227   1.292   5.282  1.6886 -1.3730  1.8121
 1510SOL    HW216185   8.099   1.237   5.367 -0.8142  0.2685 -0.8052
 1511SOL     OW16186   3.863   1.276   6.849 -0.1527  0.0414  0.2686
 1511SOL    HW116187   3.787   1.239   6.903 -1.0047  0.4883 -0.5908
 1511SOL    HW216188   3.831   1.357   6.799  0.7245 -0.1361 -0.5900
 1512SOL     OW16189   5.629   8.210   5.284 -0.0045  0.2448  0.8677
 1512SOL    HW116190   5.589   8.153   5.356 -0.5275  0.8393  1.0531
 1512SOL    HW216191   5.623   8.306   5.310  1.2141  0.3687  0.7257
 1513SOL     OW16192   0.259   7.794   3.167  0.3401  0.2816  0.6226
 1513SOL    HW116193   0.246   7.745   3.253 -2.0734  0.8180  0.6093
 1513SOL    HW216194   0.354   7.787   3.138  1.2047  0.1632  3.3684
 1514SOL     OW16195   9.051   4.590   7.326 -0.4162  0.0395  0.3899
 1514SOL    HW116196   9.028   4.495   7.345  0.5478 -0.1338  0.7377
 1514SOL    HW216197   8.968   4.644   7.315 -0.9598 -0.9400 -0.2769
 1515SOL     OW16198   4.991   2.148   5.575 -0.0225  0.7518  0.0881
 1515SOL    HW116199   5.019   2.112   5.664 -0.8247 -1.4529 -0.5126
 1515SOL    HW216200   4.896   2.179   5.579 -0.4653 -0.4849 -0.2665
 1516SOL     OW16201   0.687   1.292   1.201 -0.6462 -0.2389 -0.0123
 1516SOL    HW116202   0.661   1.195   1.196  0.3020 -0.5008  0.1967
 1516SOL    HW216203   0.721   1.313   1.292 -1.9345  0.5708  0.2927
 1517SOL     OW16204   0.713   3.688   0.514 -0.3119  0.4595 -0.5849
 1517SOL    HW116205   0.701   3.785   0.535 -4.4950 -0.0320 -0.4429
 1517SOL    HW216206   0.669   3.632   0.584  3.3187 -1.6551  0.1567
 1518SOL     OW16207   5.078   4.264   1.696  0.7058 -0.5132  0.7473
 1518SOL    HW116208   5.052   4.355   1.729  1.0147 -0.2030  0.1466
 1518SOL    HW216209   5.123   4.214   1.770  2.5462  0.6400  0.4317
 1519SOL     OW16210   0.186   2.659   5.759  0.4753 -0.1259 -0.9392
 1519SOL    HW116211   0.214   2.606   5.839 -0.3201  0.3008 -0.3600
 1519SOL    HW216212   0.246   2.738   5.749  0.7521 -0.3339 -0.9275
 1520SOL     OW16213   2.856   9.275   5.565  0.2706  0.2195 -0.0390
 1520SOL    HW116214   2.914   9.251   5.488  0.4542  2.9660 -0.8197
 1520SOL    HW216215   2.912   9.287   5.647  0.3504 -0.5086  0.0191
 1521SOL     OW16216   2.693   7.661   4.180 -0.3171  0.1808 -0.4509
 1521SOL    HW116217   2.783   7.678   4.220 -1.0057  1.3407  0.6324
 1521SOL    HW216218   2.635   7.740   4.194 -1.2792 -0.2534 -1.8420
 1522SOL     OW16219   9.884   5.776   5.243 -0.0833  0.1315  0.4476
 1522SOL    HW116220   9.852   5.739   5.330  2.2806  0.3923  1.4395
 1522SOL    HW216221   9.835   5.861   5.223 -0.9443 -0.1544  1.2995
 1523SOL     OW16222   7.585   1.018   6.701  0.3292  0.5105 -0.0452
 1523SOL    HW116223   7.635   0.939   6.737 -0.6181  0.2473  0.7174
 1523SOL    HW216224   7.536   0.992   6.618 -0.9412 -0.0552  0.8471
 1524SOL     OW16225   3.144   2.003   1.203 -0.4441 -0.1037  0.4651
 1524SOL    HW116226   3.221   2.017   1.141 -0.5198  1.8909  0.8044
 1524SOL    HW216227   3.103   1.913   1.186  2.1813 -1.3459  0.5287
 1525SOL     OW16228   1.676   0.583   2.715  0.2068 -0.2360 -0.0047
 1525SOL    HW116229   1.736   0.634   2.653  1.0157 -2.2888 -0.9526
 1525SOL    HW216230   1.729   0.551   2.793 -0.2711  0.2916  0.5324
 1526SOL     OW16231   3.957   8.486   1.668  0.1851 -0.1386 -0.2406
 1526SOL    HW116232   4.024   8.552   1.702  1.0071 -1.4805  0.7937
 1526SOL    HW216233   3.981   8.460   1.574  0.2482  0.5071 -0.4094
 1527SOL     OW16234   2.623   2.902   7.493  0.4763 -0.2068 -0.2280
 1527SOL    HW116235   2.524   2.892   7.483  0.6001 -1.0760 -0.5958
 1527SOL    HW216236   2.645   2.918   7.590  0.0681 -1.2324  0.0453
 1528SOL     OW16237   0.224   4.775   1.480  0.0256  0.2370  0.7184
 1528SOL    HW116238   0.220   4.694   1.539 -0.4298  1.2422  2.0917
 1528SOL    HW216239   0.315   4.816   1.487  0.0262  0.2585  0.5793
 1529SOL     OW16240   4.375   8.103   6.482  0.4782  0.1270 -0.4172
 1529SOL    HW116241   4.460   8.105   6.536  0.3115 -0.7794 -0.1030
 1529SOL    HW216242   4.349   8.196   6.457  0.1177  0.6226  1.7471
 1530SOL     OW16243   1.395   5.957   9.967 -0.4117  0.0398  0.3514
 1530SOL    HW116244   1.472   6.006  10.008 -0.3067  1.2503 -1.2922
 1530SOL    HW216245   1.314   6.015   9.969 -0.4865 -0.0117 -0.8432
 1531SOL     OW16246   0.842   8.661   2.587 -0.3956  0.3691  0.1659
 1531SOL    HW116247   0.859   8.564   2.599  2.2585  0.8580  0.7457
 1531SOL    HW216248   0.748   8.676   2.556 -1.4027 -2.2198  1.9125
 1532SOL     OW16249   8.881   5.521   2.079 -0.2006  0.6973  0.0482
 1532SOL    HW116250   8.957   5.559   2.026  1.0631 -1.7672  0.0191
 1532SOL    HW216251   8.829   5.457   2.022 -0.7273  0.3948  0.8510
 1533SOL     OW16252   0.178   5.898   4.386  0.2401  0.0024  0.2869
 1533SOL    HW116253   0.235   5.849   4.452 -0.7508 -1.4498  0.0986
 1533SOL    HW216254   0.104   5.945   4.434 -0.1059 -0.5227  0.2682
 1534SOL     OW16255   8.655   5.849   2.968  0.8350 -0.0487 -0.0839
 1534SOL    HW116256   8.618   5.764   2.930 -0.0425  0.0745  0.4886
 1534SOL    HW216257   8.754   5.851   2.952  0.9318 -1.3587  0.2133
 1535SOL     OW16258   9.025   1.255   3.932 -0.1683  0.1398  0.5054
 1535SOL    HW116259   8.949   1.319   3.940 -1.7540 -1.8367  1.6362
 1535SOL    HW216260   9.007   1.190   3.858  1.3769  0.8970 -0.5658
 1536SOL     OW16261   1.842   2.414   4.781 -0.3375 -0.1419 -0.0120
 1536SOL    HW116262   1.903   2.337   4.799  1.7139  1.4375 -0.0417
 1536SOL    HW216263   1.880   2.470   4.709  0.0416  2.8847  2.4505
 1537SOL     OW16264   3.321   6.596  10.050 -0.0256 -0.0055 -0.3227
 1537SOL    HW116265   3.411   6.599  10.007 -0.8735 -1.3047 -2.2468
 1537SOL    HW216266   3.322   6.653  10.132  2.3637  0.4842 -0.6463
 1538SOL     OW16267   5.551   8.206   1.847 -0.1516  0.2298  0.0778
 1538SOL    HW116268   5.465   8.178   1.889 -1.1334  1.1440 -1.2617
 1538SOL    HW216269   5.602   8.124   1.818 -0.8976 -0.3035  0.2575
 1539SOL     OW16270   7.784   1.181   7.125 -0.3286  0.1148  0.3090
 1539SOL    HW116271   7.723   1.116   7.081  1.9909 -2.8429  1.3149
 1539SOL    HW216272   7.849   1.217   7.058 -0.7079  0.3108  0.0480
 1540SOL     OW16273   2.930   9.127   1.740 -0.0311  0.3644 -0.3842
 1540SOL    HW116274   2.868   9.175   1.802 -0.8178 -1.3905  0.2179
 1540SOL    HW216275   2.877   9.072   1.675  0.8708 -1.2149  0.1830
 1541SOL     OW16276   5.562   1.821   7.392 -0.2466  0.2616  0.4094
 1541SOL    HW116277   5.486   1.886   7.387 -0.8576 -0.4437  0.4810
 1541SOL    HW216278   5.567   1.768   7.308 -1.5594 -1.6006  1.4602
 1542SOL     OW16279   3.968   5.563   2.827  1.2637  0.3298 -0.8167
 1542SOL    HW116280   3.900   5.600   2.764  1.8398 -1.1420 -2.3425
 1542SOL    HW216281   3.926   5.545   2.916 -0.4538 -0.9856 -1.8746
 1543SOL     OW16282   4.058   9.130   2.360  0.6907  0.1158 -0.8265
 1543SOL    HW116283   4.073   9.174   2.272 -3.1396  0.7419 -1.2500
 1543SOL    HW216284   4.044   9.032   2.347  0.3674  0.1709 -0.8864
 1544SOL     OW16285   5.587   5.555   1.077  0.3296 -0.2114  0.3094
 1544SOL    HW116286   5.541   5.566   1.165  0.8394 -3.2167  1.0122
 1544SOL    HW216287   5.627   5.642   1.050  1.5006  0.4432  3.8411
 1545SOL     OW16288   9.653   1.089   3.484  0.4451 -0.1685  0.7169
 1545SOL    HW116289   9.739   1.068   3.438 -0.7102 -0.0673 -1.5894
 1545SOL    HW216290   9.622   1.009   3.536 -0.0565 -1.6198 -1.7323
 1546SOL     OW16291   5.489   0.400   2.190 -0.3797  0.1967 -0.1174
 1546SOL    HW116292   5.547   0.480   2.207 -0.0071 -0.1259  0.1112
 1546SOL    HW216293   5.412   0.401   2.254  0.1994 -0.1984  0.5846
 1547SOL     OW16294   3.698   5.006   3.971 -0.2405  0.6785  0.3155
 1547SOL    HW116295   3.707   4.960   3.883  0.3157  0.8229  0.2957
 1547SOL    HW216296   3.681   4.938   4.042 -2.6096  0.7259 -0.1735
 1548SOL     OW16297   3.271   7.207   5.788  0.3532 -0.2481 -0.1236
 1548SOL    HW116298   3.286   7.110   5.807  3.0832  0.2555  0.4923
 1548SOL    HW216299   3.255   7.220   5.690 -1.4057 -1.4404 -0.0239
 1549SOL     OW16300   9.759   9.387   0.511  0.0461  0.1332  0.3359
 1549SOL    HW116301   9.724   9.420   0.423  0.4432 -0.0309  0.1129
 1549SOL    HW216302   9.684   9.376   0.575 -0.6095 -2.2622 -0.7817
 1550SOL     OW16303   4.406   3.516   3.802 -0.3781 -0.2142  0.7840
 1550SOL    HW116304   4.420   3.613   3.822 -0.2284 -0.2978  1.0903
 1550SOL    HW216305   4.371   3.469   3.884  2.1693 -0.9517  1.4884
 1551SOL     OW16306   2.711   9.819  10.067  0.0729  0.3326  0.3829
 1551SOL    HW116307   2.663   9.828  10.154  0.1944 -0.5654  0.5490
 1551SOL    HW216308   2.807   9.844  10.080  0.0012  0.5972  0.4107
 1552SOL     OW16309   1.979   8.573   6.638 -0.1240 -0.3933 -0.2105
 1552SOL    HW116310   2.004   8.592   6.543  2.2176 -1.8958  0.0566
 1552SOL    HW216311   2.005   8.651   6.696 -2.4942  0.9624 -0.8950
 1553SOL     OW16312   9.005   9.779   5.471  0.3058 -0.2020 -0.1264
 1553SOL    HW116313   8.966   9.699   5.516  0.3452  0.3562  0.9326
 1553SOL    HW216314   9.050   9.837   5.540  0.0275  0.8605 -0.8298
 1554SOL     OW16315   9.153   1.179   4.449  0.2755 -0.3414  0.4018
 1554SOL    HW116316   9.061   1.209   4.474 -0.0644  0.9228 -2.2077
 1554SOL    HW216317   9.213   1.184   4.529 -1.5142  0.4374  1.7218
 1555SOL     OW16318   8.263   3.210   3.008  0.4065 -0.9510 -0.0848
 1555SOL    HW116319   8.194   3.280   2.988  0.5003 -1.0291 -0.6903
 1555SOL    HW216320   8.237   3.161   3.092 -0.8550 -1.6917 -0.8738
 1556SOL     OW16321   8.119   0.445   5.021 -0.0069 -0.0551  0.3511
 1556SOL    HW116322   8.106   0.484   5.112 -1.5591 -2.1613  1.0534
 1556SOL    HW216323   8.160   0.354   5.028  0.5962  0.0843 -1.1011
 1557SOL     OW16324   4.602   8.959   7.752 -0.1188  0.1053 -0.1337
 1557SOL    HW116325   4.628   9.039   7.806 -1.3563 -0.7624  1.7942
 1557SOL    HW216326   4.683   8.901   7.738 -0.0528 -0.3852  2.0759
 1558SOL     OW16327   3.087   2.870   6.174  0.1655  0.6072 -0.3983
 1558SOL    HW116328   3.125   2.959   6.200 -1.6724  1.4131 -0.4581
 1558SOL    HW216329   2.988   2.870   6.188 -0.1399 -0.7196 -2.4218
 1559SOL     OW16330   6.959   6.626   6.135  0.2018 -0.1619  0.3719
 1559SOL    HW116331   7.016   6.545   6.151 -0.5125 -1.2235 -2.2281
 1559SOL    HW216332   7.002   6.684   6.066  0.4662  1.4690  1.8720
 1560SOL     OW16333   5.363   1.361   6.548  0.7996  0.2961  0.3752
 1560SOL    HW116334   5.399   1.349   6.641 -0.4536  0.0384  0.8310
 1560SOL    HW216335   5.263   1.366   6.551  0.7322 -0.0847 -1.0087
 1561SOL     OW16336   2.142   5.082   1.920  0.3245 -0.1538  0.4683
 1561SOL    HW116337   2.043   5.068   1.925  0.4085 -0.9141  0.1010
 1561SOL    HW216338   2.171   5.140   1.996 -0.4776  0.5249  0.2681
 1562SOL     OW16339   3.254   4.754   2.296 -0.0033  0.0684 -0.1142
 1562SOL    HW116340   3.206   4.692   2.234 -0.1771  0.2387 -0.1502
 1562SOL    HW216341   3.264   4.844   2.252  0.9615 -0.1630 -0.3864
 1563SOL     OW16342   6.943   1.714   0.995 -0.2695  0.1559  0.1921
 1563SOL    HW116343   6.944   1.792   1.058  1.1545  0.4130 -0.1316
 1563SOL    HW216344   7.021   1.720   0.933 -0.1608 -1.5031  0.1426
 1564SOL     OW16345   6.730   6.077   2.084 -0.0843  0.4376 -0.2649
 1564SOL    HW116346   6.794   6.048   2.154 -0.8611  2.0190  1.1500
 1564SOL    HW216347   6.726   6.009   2.011  1.3962 -0.8010  0.7920
 1565SOL     OW16348   8.508   5.815   2.591 -0.4120 -0.2367  0.2330
 1565SOL    HW116349   8.533   5.719   2.575  0.6183 -0.4209  2.6985
 1565SOL    HW216350   8.591   5.868   2.608 -1.0581  0.9073 -0.1811
 1566SOL     OW16351   5.262   1.005   7.048  0.3387  0.0423  0.2904
 1566SOL    HW116352   5.356   1.021   7.075  0.3240 -0.5714  0.6982
 1566SOL    HW216353   5.246   1.044   6.957  0.9930  0.1012  0.2043
 1567SOL     OW16354   8.363   7.665   7.558 -0.3008  0.7631 -0.2848
 1567SOL    HW116355   8.457   7.667   7.523  0.1959  1.0016  1.0338
 1567SOL    HW216356   8.306   7.610   7.497  1.0450 -0.7136 -0.2265
 1568SOL     OW16357   8.104   3.287   4.837  1.0238  0.7589  0.6855
 1568SOL    HW116358   8.032   3.227   4.803  0.4126  0.4419  2.4679
 1568SOL    HW216359   8.194   3.250   4.811  0.5847  0.6986 -0.7987
 1569SOL     OW16360   6.796   8.325   8.096 -0.0015 -0.0667  0.1720
 1569SOL    HW116361   6.879   8.276   8.071  0.3243  0.4081  0.3183
 1569SOL    HW216362   6.724   8.259   8.120  0.8715 -0.4624  1.7713
 1570SOL     OW16363   9.450   3.991   1.247 -0.7538  0.3211  0.0843
 1570SOL    HW116364   9.440   3.919   1.315  0.0798  1.4584  1.4451
 1570SOL    HW216365   9.392   4.068   1.271  0.6082  1.3055  0.3220
 1571SOL     OW16366   6.418   9.253   5.246  0.2691 -0.1184 -0.3451
 1571SOL    HW116367   6.319   9.268   5.251  0.3577  0.0913  0.9828
 1571SOL    HW216368   6.436   9.156   5.234 -0.1175 -0.0654 -1.3751
 1572SOL     OW16369   1.601   1.158   0.173 -0.3016 -0.2292  0.0160
 1572SOL    HW116370   1.584   1.251   0.205 -0.8293 -1.1101  2.4015
 1572SOL    HW216371   1.542   1.094   0.223 -1.7631 -1.6352 -3.3044
 1573SOL     OW16372   8.478   3.893   6.506  0.5278  0.7281  0.3256
 1573SOL    HW116373   8.435   3.848   6.584  1.2533 -1.3004 -0.4145
 1573SOL    HW216374   8.516   3.824   6.444  2.6269  2.3922 -0.3059
 1574SOL     OW16375   1.845   8.489   0.972  0.1261  0.3077 -0.5127
 1574SOL    HW116376   1.888   8.527   0.890  1.0070 -1.5479 -0.9195
 1574SOL    HW216377   1.769   8.431   0.946 -0.1256  0.3896  0.0354
 1575SOL     OW16378   5.675   2.779   1.258 -0.1845 -0.0262  0.2073
 1575SOL    HW116379   5.730   2.697   1.243  0.1396  0.2896 -0.3591
 1575SOL    HW216380   5.588   2.770   1.209 -0.8732 -0.7443  1.5173
 1576SOL     OW16381   9.945   1.709   3.215  0.1366 -0.7616 -0.5095
 1576SOL    HW116382   9.960   1.805   3.192 -1.0822 -0.8529 -1.7059
 1576SOL    HW216383  10.006   1.651   3.161  0.2600 -0.7161 -0.4192
 1577SOL     OW16384   0.389   2.770   3.047  0.1074 -0.0793 -0.2251
 1577SOL    HW116385   0.417   2.743   2.955 -0.8560  0.8487 -0.8132
 1577SOL    HW216386   0.294   2.802   3.044  0.0826 -0.0106  1.0891
 1578SOL     OW16387   5.262   9.073   7.991  0.0203  0.2878  0.0523
 1578SOL    HW116388   5.291   9.083   7.896  0.3420  1.4334  0.2693
 1578SOL    HW216389   5.182   9.013   7.995 -0.7380  1.2114 -1.0702
 1579SOL     OW16390   4.982   9.107   4.414 -0.3231 -0.0230  0.1392
 1579SOL    HW116391   5.026   9.066   4.494  2.1948  1.5857 -0.3560
 1579SOL    HW216392   4.944   9.035   4.356  1.0967 -1.4430  0.9431
 1580SOL     OW16393   7.589   8.770   5.889 -0.1051  0.6108  0.4286
 1580SOL    HW116394   7.571   8.770   5.791 -1.7151  0.7631  0.6983
 1580SOL    HW216395   7.679   8.730   5.907  0.3378  0.8860 -1.1206
 1581SOL     OW16396   1.522   7.348   7.230  0.2635 -0.0515 -0.4839
 1581SOL    HW116397   1.582   7.290   7.175  1.7133  1.2616 -0.3193
 1581SOL    HW216398   1.454   7.392   7.170 -1.5310 -2.6749 -0.4746
 1582SOL     OW16399   3.904   2.138   2.927 -0.1530  0.1652 -0.8972
 1582SOL    HW116400   3.935   2.140   3.022 -0.0640  0.8905 -0.9427
 1582SOL    HW216401   3.853   2.222   2.906  1.5849  0.9510 -2.0792
 1583SOL     OW16402   7.328   3.280   1.982  0.1512  0.2116 -0.6429
 1583SOL    HW116403   7.378   3.196   2.001 -1.2891 -0.9638 -1.9359
 1583SOL    HW216404   7.259   3.294   2.053  0.9726  0.7991  0.0594
 1584SOL     OW16405   1.431   7.007   3.838  0.3170 -0.1763  0.1241
 1584SOL    HW116406   1.470   7.037   3.751  0.0125 -0.5510 -0.1514
 1584SOL    HW216407   1.335   7.037   3.843  0.2567 -0.3822  0.2096
 1585SOL     OW16408   1.374   6.083   1.653 -0.0341  0.0407  0.6492
 1585SOL    HW116409   1.469   6.109   1.667  0.2092  0.5547 -1.7636
 1585SOL    HW216410   1.355   6.075   1.555 -2.2611 -0.8618  1.1131
 1586SOL     OW16411   9.183   8.013   2.991  0.4036  0.3704 -0.5467
 1586SOL    HW116412   9.174   8.084   2.921  1.8448  1.0930 -0.0202
 1586SOL    HW216413   9.234   8.050   3.069  1.8955 -1.4857 -0.6180
 1587SOL     OW16414   2.306   2.455   7.904 -0.0070  0.4544  0.0594
 1587SOL    HW116415   2.338   2.374   7.854 -1.0196 -2.0198  3.1969
 1587SOL    HW216416   2.381   2.493   7.958 -0.0209  0.3663  0.1418
 1588SOL     OW16417   3.999   9.750   1.179 -0.1749  0.3008  0.0247
 1588SOL    HW116418   3.978   9.653   1.168 -1.5031  0.5240  0.5017
 1588SOL    HW216419   3.928   9.804   1.133  0.6832  1.0483 -0.4422
 1589SOL     OW16420   3.783   5.253   4.704 -0.2334  0.2381  0.5306
 1589SOL    HW116421   3.774   5.269   4.606 -2.8354 -2.7312  0.2080
 1589SOL    HW216422   3.712   5.303   4.753 -0.5768 -0.3314  0.6287
 1590SOL     OW16423   8.830   1.260   1.271 -0.4740 -0.6124 -0.6533
 1590SOL    HW116424   8.914   1.212   1.297 -0.0165  0.3757 -0.3023
 1590SOL    HW216425   8.773   1.274   1.351  0.1060  0.8111 -0.4785
 1591SOL     OW16426   9.639   8.007   3.043  0.1787 -0.5911  0.1625
 1591SOL    HW116427   9.664   8.081   3.106  0.8555 -0.8327  0.1848
 1591SOL    HW216428   9.693   7.926   3.065  0.5529 -0.6192 -0.8622
 1592SOL     OW16429   7.486   5.254   7.423 -0.2779 -0.1751  0.6107
 1592SOL    HW116430   7.520   5.303   7.343 -0.3381 -0.9226  0.1270
 1592SOL    HW216431   7.437   5.172   7.394  0.2694 -0.8092  1.4365
 1593SOL     OW16432   3.615   3.285   0.975  0.3243 -0.1302 -0.0350
 1593SOL    HW116433   3.588   3.305   1.069 -1.7134 -1.2686 -0.3442
 1593SOL    HW216434   3.625   3.370   0.924 -0.9027  0.4110  0.6029
 1594SOL     OW16435   1.826   8.249   7.419 -0.7117  0.1180 -0.0544
 1594SOL    HW116436   1.895   8.212   7.358 -2.9828 -1.4583 -1.7350
 1594SOL    HW216437   1.871   8.291   7.498  2.2098  0.8502 -2.0110
 1595SOL     OW16438   1.730   6.967   1.048 -0.6024 -0.5471  0.5820
 1595SOL    HW116439   1.669   6.950   0.970 -1.9022 -1.0556  1.6867
 1595SOL    HW216440   1.757   6.880   1.088 -0.2055 -0.2715  0.9092
 1596SOL     OW16441   0.271   0.190   5.229 -0.3291  0.5830 -0.7226
 1596SOL    HW116442   0.303   0.256   5.162 -0.8301  2.2242  0.6100
 1596SOL    HW216443   0.294   0.098   5.199  2.4215  1.4756 -1.5385
 1597SOL     OW16444   1.391   4.719   6.189  0.2674  0.4871 -0.2255
 1597SOL    HW116445   1.483   4.735   6.155  0.4518  1.2296  0.6005
 1597SOL    HW216446   1.394   4.699   6.287 -0.3536 -0.5604 -0.4128
 1598SOL     OW16447   7.619   9.247   5.789  0.1978 -0.0652  0.3478
 1598SOL    HW116448   7.604   9.325   5.729 -0.6324  0.9344  1.8114
 1598SOL    HW216449   7.622   9.278   5.884 -3.4035 -2.1760  1.2294
 1599SOL     OW16450   4.991   8.931   7.947 -0.3012 -0.0857 -0.3621
 1599SOL    HW116451   5.020   8.863   8.013 -0.2988 -0.6031 -0.8916
 1599SOL    HW216452   4.979   8.888   7.857 -0.0878  0.6501 -0.7481
 1600SOL     OW16453   8.525   4.406   1.325  0.0645 -0.0884  0.3654
 1600SOL    HW116454   8.452   4.461   1.285  0.2409 -0.6464 -0.7548
 1600SOL    HW216455   8.547   4.330   1.263  1.3258 -0.1393  0.8588
 1601SOL     OW16456   2.987   3.210   3.374  0.5510  0.6048  0.0998
 1601SOL    HW116457   2.952   3.125   3.412  1.9070 -0.4006 -0.8607
 1601SOL    HW216458   2.924   3.285   3.396  0.0023 -0.4061  2.0405
 1602SOL     OW16459   7.228   3.648   1.200  1.0824  0.0731 -0.1365
 1602SOL    HW116460   7.159   3.586   1.237  1.5875 -0.5474 -0.2209
 1602SOL    HW216461   7.185   3.711   1.136  0.6181 -0.4157 -0.3116
 1603SOL     OW16462   9.211   4.829   0.036  0.1548  0.0196 -0.0154
 1603SOL    HW116463   9.310   4.826   0.019 -0.0402 -0.0320 -1.1481
 1603SOL    HW216464   9.180   4.739   0.068  0.2422 -0.3782 -1.0188
 1604SOL     OW16465   3.834   4.741   0.016 -0.0088 -0.6469  0.5331
 1604SOL    HW116466   3.816   4.838   0.028  0.0806 -0.6347  0.5675
 1604SOL    HW216467   3.897   4.727  -0.061 -0.0399 -0.6794  0.5133
 1605SOL     OW16468   1.534   5.993   3.783  0.8176  0.0403 -0.1206
 1605SOL    HW116469   1.472   6.061   3.822 -0.3868 -0.3999 -1.2264
 1605SOL    HW216470   1.628   6.025   3.791  0.2736  1.7754 -0.4675
 1606SOL     OW16471   3.929   2.020   2.083 -0.6595  0.0204  0.0942
 1606SOL    HW116472   3.991   2.092   2.117  0.3731 -0.6202 -0.3986
 1606SOL    HW216473   3.868   1.991   2.157 -0.5561  0.8596  0.5125
 1607SOL     OW16474   2.191   5.829   4.108  0.0951  0.2501  0.0521
 1607SOL    HW116475   2.200   5.880   4.194  2.6673  1.4749 -0.8789
 1607SOL    HW216476   2.129   5.878   4.047 -0.2935  0.3639  0.5391
 1608SOL     OW16477   6.732   3.208   3.220  0.5108 -0.0387 -0.1920
 1608SOL    HW116478   6.754   3.112   3.238 -1.0957 -0.1517  1.3928
 1608SOL    HW216479   6.784   3.266   3.283 -0.4832 -0.0528  0.6619
 1609SOL     OW16480   2.119   1.282   4.099 -0.3447  0.0899 -0.5941
 1609SOL    HW116481   2.075   1.352   4.156  1.2269  1.1623 -0.6749
 1609SOL    HW216482   2.051   1.242   4.037 -1.9699 -0.7681  1.6903
 1610SOL     OW16483   3.651   2.592   7.011  0.1388 -0.0349  0.4159
 1610SOL    HW116484   3.664   2.555   6.919 -2.1376  0.7372 -0.2467
 1610SOL    HW216485   3.570   2.551   7.053 -0.6014  1.8476  0.8788
 1611SOL     OW16486   5.824   1.844   0.917  0.1312 -0.4456  0.0366
 1611SOL    HW116487   5.908   1.897   0.926 -0.6069  0.5528  1.2134
 1611SOL    HW216488   5.755   1.900   0.870  0.0645 -1.1997 -0.7728
 1612SOL     OW16489   3.348   4.024   4.100  0.1533 -0.1062  0.1141
 1612SOL    HW116490   3.296   3.988   4.177  1.3497  0.0136  0.9989
 1612SOL    HW216491   3.300   4.102   4.060  0.6664  1.3382  2.2417
 1613SOL     OW16492   3.963   5.933   3.630  0.9428 -0.2827  0.0638
 1613SOL    HW116493   4.035   5.996   3.659 -0.2225  0.6330  1.0022
 1613SOL    HW216494   3.874   5.972   3.651  0.1943 -2.0966  0.3521
 1614SOL     OW16495   5.925   8.159   4.141  0.2222 -0.0265 -0.1103
 1614SOL    HW116496   5.908   8.096   4.217 -0.1791  0.3953  0.1524
 1614SOL    HW216497   5.889   8.119   4.056  1.9349 -1.1379 -0.3394
 1615SOL     OW16498   1.016   6.952   4.246 -0.1846 -0.1181 -0.1355
 1615SOL    HW116499   1.073   7.031   4.224 -0.0736  0.0027  0.5631
 1615SOL    HW216500   0.928   6.983   4.281 -0.4065 -0.3038 -0.5366
 1616SOL     OW16501   0.034   0.455   7.240 -0.0277 -0.0230  0.2315
 1616SOL    HW116502   0.076   0.437   7.329  0.9026 -1.6847 -0.5249
 1616SOL    HW216503  -0.066   0.453   7.250  0.0700 -0.7834  1.1111
 1617SOL     OW16504   3.032   8.832   5.791 -0.2442 -0.8312  0.2685
 1617SOL    HW116505   3.049   8.759   5.725 -0.5425 -0.3689 -0.3277
 1617SOL    HW216506   3.055   8.920   5.750  0.2431 -0.5996  1.0288
 1618SOL     OW16507   0.769   0.639  10.049  0.1126  0.3381  0.2402
 1618SOL    HW116508   0.685   0.598  10.012 -0.1502  0.6283  0.5054
 1618SOL    HW216509   0.849   0.597  10.007 -0.1676 -0.0446  0.0942
 1619SOL     OW16510   2.728   1.374   1.206  0.2966 -0.1490 -0.0497
 1619SOL    HW116511   2.768   1.373   1.297  0.4358  2.3514 -0.0451
 1619SOL    HW216512   2.800   1.374   1.137  0.1888 -2.5549 -0.2049
 1620SOL     OW16513   7.815   4.243   3.491  0.1030 -0.9866 -0.1548
 1620SOL    HW116514   7.888   4.232   3.559 -0.1242  0.7686  0.4110
 1620SOL    HW216515   7.847   4.303   3.417 -1.0445  0.5581  0.5682
 1621SOL     OW16516   1.330   0.746   2.898  0.2250 -0.6067  0.7728
 1621SOL    HW116517   1.356   0.686   2.822 -1.1302 -0.6836  0.3567
 1621SOL    HW216518   1.379   0.833   2.889  0.5386 -0.8429  0.1513
 1622SOL     OW16519   0.293   0.321   0.207 -0.1332 -0.1755 -0.1520
 1622SOL    HW116520   0.218   0.377   0.242  1.0057  1.2734  0.0066
 1622SOL    HW216521   0.363   0.380   0.168  1.1733 -1.4774  0.1927
 1623SOL     OW16522   0.263   1.502   2.126  0.5507 -0.0458  0.3087
 1623SOL    HW116523   0.334   1.510   2.056  0.2964 -0.9583 -0.0677
 1623SOL    HW216524   0.190   1.443   2.091  1.2916 -2.0454  2.0618
 1624SOL     OW16525   9.955   7.654   5.825  0.0976  0.4638  0.0278
 1624SOL    HW116526  10.027   7.592   5.856  0.6554  0.9161 -0.3553
 1624SOL    HW216527   9.962   7.667   5.726 -1.2076 -0.3689 -0.1960
 1625SOL     OW16528   2.610   3.681   0.024 -0.0507 -0.2060  0.2406
 1625SOL    HW116529   2.554   3.753  -0.016  1.0970  1.0372  0.8094
 1625SOL    HW216530   2.685   3.723   0.076 -0.5699 -1.7825  2.3238
 1626SOL     OW16531   6.746   9.876   4.323 -0.0299  0.3282  0.0464
 1626SOL    HW116532   6.798   9.962   4.322  1.6452 -0.6672 -0.4924
 1626SOL    HW216533   6.808   9.800   4.345 -1.3284 -0.8497 -0.3195
 1627SOL     OW16534   0.531   0.826   6.520  0.1312 -0.4039  0.1634
 1627SOL    HW116535   0.526   0.750   6.455 -0.3080 -0.0295 -0.2365
 1627SOL    HW216536   0.604   0.808   6.586  0.9790 -0.4943 -0.7901
 1628SOL     OW16537   8.803   1.609   7.191 -0.2648  0.8837  0.4738
 1628SOL    HW116538   8.719   1.619   7.136 -1.7191  0.1884  2.4953
 1628SOL    HW216539   8.801   1.675   7.266 -0.6586 -1.3853  2.5140
 1629SOL     OW16540   5.754   0.107   2.672  0.5432  0.1743 -0.3757
 1629SOL    HW116541   5.742   0.190   2.726  0.5339  1.3197 -2.0950
 1629SOL    HW216542   5.675   0.046   2.685  0.5914  0.3895  0.9494
 1630SOL     OW16543   2.424   4.450   0.726  0.0697 -0.5563  0.1125
 1630SOL    HW116544   2.402   4.417   0.818  1.1375  0.3557  0.7149
 1630SOL    HW216545   2.404   4.548   0.720 -1.1845 -0.8781 -1.0244
 1631SOL     OW16546   4.246   2.214   3.539  0.0188 -0.5167  0.0511
 1631SOL    HW116547   4.236   2.117   3.563  3.0036 -1.1417 -1.0796
 1631SOL    HW216548   4.289   2.221   3.449 -0.9075  1.8804 -0.2307
 1632SOL     OW16549   0.881   7.461   0.385 -0.0112  0.3625 -0.0474
 1632SOL    HW116550   0.866   7.460   0.286  1.0225  0.4590 -0.2149
 1632SOL    HW216551   0.971   7.501   0.404  0.5991 -1.3627  0.8120
 1633SOL     OW16552   2.437   0.755   3.453  0.4897  0.0983 -0.4207
 1633SOL    HW116553   2.512   0.692   3.433  0.8805 -0.3704  2.3829
 1633SOL    HW216554   2.358   0.732   3.395  0.7123 -2.8007  0.3474
 1634SOL     OW16555   4.117   0.135   4.120  0.4988  0.7176 -0.5159
 1634SOL    HW116556   4.150   0.113   4.028  0.5056 -2.2645  0.1493
 1634SOL    HW216557   4.026   0.097   4.133  0.4788  1.1489  0.7087
 1635SOL     OW16558   6.553   0.234   5.206 -0.2383 -0.2153  0.3437
 1635SOL    HW116559   6.615   0.227   5.128 -0.2477 -1.4585  0.4399
 1635SOL    HW216560   6.597   0.286   5.279 -0.1089  0.6873 -0.3596
 1636SOL     OW16561   7.718   9.111   2.118 -0.8799 -0.6301  0.0750
 1636SOL    HW116562   7.726   9.201   2.075 -1.3355 -0.3797  0.5149
 1636SOL    HW216563   7.642   9.061   2.076 -1.0171 -0.5722  0.2547
 1637SOL     OW16564   3.480   9.043   6.245  0.0227  0.7674 -0.2178
 1637SOL    HW116565   3.405   9.062   6.182 -1.1323 -2.7070  0.0102
 1637SOL    HW216566   3.464   9.093   6.330 -2.4713 -0.4674  0.1053
 1638SOL     OW16567   2.472   3.180   5.086  0.4428  0.6966  0.1485
 1638SOL    HW116568   2.408   3.244   5.128 -0.1203  0.2367  0.0026
 1638SOL    HW216569   2.547   3.160   5.149 -0.0842  0.4711  0.6964
 1639SOL     OW16570   0.511   7.961   1.106 -0.2828 -0.0411 -0.0318
 1639SOL    HW116571   0.572   7.960   1.185 -0.7706  0.4487  0.3501
 1639SOL    HW216572   0.565   7.949   1.022  0.1780 -1.0666  0.4031
 1640SOL     OW16573   8.232   4.230   6.693 -0.2738 -0.8294 -0.4492
 1640SOL    HW116574   8.318   4.215   6.740  0.8381  3.0339 -1.1320
 1640SOL    HW216575   8.241   4.203   6.597  0.1166 -0.6056 -0.4736
 1641SOL     OW16576   2.615   3.300   9.877 -0.2358 -0.2885  0.2346
 1641SOL    HW116577   2.637   3.397   9.876 -0.2468 -0.2819  0.8383
 1641SOL    HW216578   2.518   3.288   9.855 -0.8649  0.0073  2.7029
 1642SOL     OW16579   7.718   1.167   6.070 -0.3468  0.0108  0.5195
 1642SOL    HW116580   7.687   1.172   6.165 -1.1717  0.6521  0.2217
 1642SOL    HW216581   7.717   1.072   6.039 -2.3834  0.0637  0.3932
 1643SOL     OW16582   1.096   0.822   3.305  0.3357  0.7905  0.2058
 1643SOL    HW116583   1.074   0.850   3.212 -0.3838 -1.1785 -0.2556
 1643SOL    HW216584   1.012   0.818   3.360  0.0018 -2.8972 -0.4644
 1644SOL     OW16585   9.016   5.440   7.161  0.2236 -0.5545  0.1895
 1644SOL    HW116586   9.074   5.423   7.081  0.3761 -0.3922  0.2634
 1644SOL    HW216587   9.005   5.355   7.213 -1.8649 -1.2104 -1.3062
 1645SOL     OW16588   6.842   0.841   6.007  0.2353 -0.3543 -0.4717
 1645SOL    HW116589   6.773   0.804   5.944 -1.3036 -3.5591  2.8756
 1645SOL    HW216590   6.796   0.881   6.086  2.2030  0.1359  0.4423
 1646SOL     OW16591   0.510   5.820   2.528  0.0481  0.2791 -0.5393
 1646SOL    HW116592   0.432   5.764   2.553 -0.2779  0.0310 -2.1086
 1646SOL    HW216593   0.497   5.913   2.563 -0.6579  0.0794 -0.2743
 1647SOL     OW16594   3.308   3.721   7.802  0.0948 -0.2251  0.9881
 1647SOL    HW116595   3.288   3.750   7.708  2.2104 -0.4168  0.4437
 1647SOL    HW216596   3.226   3.680   7.842 -0.8721 -0.0522 -0.7349
 1648SOL     OW16597   7.389   1.369   0.233  0.6713 -0.4097 -0.5817
 1648SOL    HW116598   7.340   1.455   0.229  2.9869  1.0345  0.7131
 1648SOL    HW216599   7.385   1.332   0.326  2.5415  0.0580 -0.2977
 1649SOL     OW16600   0.048   6.227   5.522  1.0850 -0.3968 -0.6016
 1649SOL    HW116601  -0.030   6.211   5.462  0.4867 -2.0205  0.5603
 1649SOL    HW216602   0.016   6.257   5.612  1.9227  1.1582 -0.8110
 1650SOL     OW16603   6.299   8.503   4.019  0.1517 -0.2597  0.1962
 1650SOL    HW116604   6.200   8.490   4.019 -0.0476  1.0710 -1.5381
 1650SOL    HW216605   6.325   8.562   4.095 -0.3920 -0.6242  0.6618
 1651SOL     OW16606   1.032   9.615   0.906  0.4311 -0.4018  0.2344
 1651SOL    HW116607   0.958   9.677   0.880  2.4879  1.9914 -0.0604
 1651SOL    HW216608   0.993   9.530   0.942 -2.4645 -0.4681 -2.7998
 1652SOL     OW16609   0.980   1.433   2.344 -0.0022  0.3609 -0.4032
 1652SOL    HW116610   1.045   1.437   2.420  1.2519  1.8969 -1.5260
 1652SOL    HW216611   0.952   1.338   2.329 -0.4821  0.0762  2.1383
 1653SOL     OW16612   4.405   9.851   4.647  0.6959  0.0214  0.1616
 1653SOL    HW116613   4.350   9.799   4.581  0.1654  0.4169  0.2887
 1653SOL    HW216614   4.385   9.820   4.740  1.1710 -0.2842  0.1618
 1654SOL     OW16615   7.932   6.987   3.371 -0.8548 -0.3391 -0.1983
 1654SOL    HW116616   8.000   6.990   3.445  0.0542 -2.2332 -0.9034
 1654SOL    HW216617   7.863   6.917   3.391 -2.1297  1.0057  0.1215
 1655SOL     OW16618   8.774   6.417   5.308 -0.5265 -0.1307  0.3306
 1655SOL    HW116619   8.824   6.491   5.353 -1.1482 -0.0769  0.9440
 1655SOL    HW216620   8.753   6.443   5.214  1.1986 -0.4311 -0.1659
 1656SOL     OW16621   0.445   0.573   7.141  0.6408 -0.1201 -0.1592
 1656SOL    HW116622   0.470   0.476   7.135  0.7344 -0.0439 -0.9961
 1656SOL    HW216623   0.528   0.628   7.148  0.6460 -0.0093 -1.0052
 1657SOL     OW16624   1.007   6.904   5.728 -0.3633  0.3162  0.2493
 1657SOL    HW116625   1.087   6.964   5.731 -0.8814  0.9948  0.8911
 1657SOL    HW216626   0.947   6.932   5.653  0.1325 -0.3674 -0.4035
 1658SOL     OW16627   2.163   3.707   4.869  0.3894 -0.6390 -0.1809
 1658SOL    HW116628   2.112   3.789   4.896  1.0114  0.4556 -2.2203
 1658SOL    HW216629   2.246   3.698   4.925 -0.1574 -0.4111  0.6735
 1659SOL     OW16630   1.788   0.948   3.385 -0.3121  0.3140  0.0127
 1659SOL    HW116631   1.846   0.932   3.465  1.0004 -1.6219 -1.2904
 1659SOL    HW216632   1.694   0.966   3.415  0.1449 -0.5093  1.9985
 1660SOL     OW16633   9.749   0.657   2.621  0.2587 -0.2411 -0.4573
 1660SOL    HW116634   9.660   0.661   2.667  0.7450  0.8369  0.4186
 1660SOL    HW216635   9.787   0.565   2.630 -0.3495 -0.4568 -0.0374
 1661SOL     OW16636   8.714   7.703   4.728 -0.4665  0.4242 -0.3195
 1661SOL    HW116637   8.651   7.731   4.801  0.3901  2.9128 -0.4911
 1661SOL    HW216638   8.662   7.685   4.644 -1.0973  1.3341 -0.1353
 1662SOL     OW16639   8.752   4.359   5.340 -0.7228 -0.3853  0.6379
 1662SOL    HW116640   8.693   4.285   5.307 -0.2885  1.5782 -5.1763
 1662SOL    HW216641   8.701   4.445   5.340  0.6845  0.4731  0.4835
 1663SOL     OW16642   0.299   1.410   0.293 -0.3362 -0.0218  0.2716
 1663SOL    HW116643   0.323   1.317   0.265 -1.4473  0.8629 -3.9133
 1663SOL    HW216644   0.357   1.476   0.245 -0.4011  1.5256  2.2532
 1664SOL     OW16645   4.629   7.646   4.986 -0.6531  0.0908 -0.0307
 1664SOL    HW116646   4.537   7.622   4.956 -0.7208 -0.0411  0.2798
 1664SOL    HW216647   4.662   7.725   4.934 -0.8731  0.0323 -0.2600
 1665SOL     OW16648   3.719   8.246   7.836  0.6023  0.2097 -0.0647
 1665SOL    HW116649   3.716   8.264   7.935  2.2222  1.1146 -0.1751
 1665SOL    HW216650   3.634   8.278   7.795  0.1976  0.4588  0.9334
 1666SOL     OW16651   4.024   6.737   4.184 -0.0638  0.3150  0.2910
 1666SOL    HW116652   4.054   6.728   4.279  2.6387  1.5336 -0.3961
 1666SOL    HW216653   4.101   6.764   4.127 -1.8296  0.4207 -2.1427
 1667SOL     OW16654   0.516   8.111   1.727 -0.8049  0.0519  0.0825
 1667SOL    HW116655   0.481   8.025   1.692 -0.0720 -0.8095  1.4247
 1667SOL    HW216656   0.532   8.103   1.826 -0.5078  1.6456  0.1858
 1668SOL     OW16657   6.657   1.103   7.808 -0.0513  0.2294 -0.3705
 1668SOL    HW116658   6.634   1.196   7.837 -0.6353 -0.0611  0.0911
 1668SOL    HW216659   6.580   1.063   7.759 -0.7379 -0.9278  1.6138
 1669SOL     OW16660   2.229   4.348   5.425 -0.0159 -0.1707 -0.0286
 1669SOL    HW116661   2.277   4.376   5.508 -0.2139 -1.2094  0.4476
 1669SOL    HW216662   2.195   4.429   5.377  1.3097  0.5231  0.1652
 1670SOL     OW16663   0.362   9.604   5.796 -1.0607 -0.2082 -0.1969
 1670SOL    HW116664   0.286   9.618   5.861 -0.4438  1.0995  0.2646
 1670SOL    HW216665   0.328   9.557   5.715 -2.1229 -0.6904  0.5093
 1671SOL     OW16666   4.111   3.622   2.684  0.0907 -0.0154 -0.3055
 1671SOL    HW116667   4.192   3.602   2.739 -0.1411 -2.1432 -0.7240
 1671SOL    HW216668   4.037   3.653   2.744  1.1347  1.7799  0.0937
 1672SOL     OW16669   1.641   1.453   3.696  0.4136 -0.4206 -0.3627
 1672SOL    HW116670   1.583   1.511   3.754  0.5140 -0.1825 -0.4967
 1672SOL    HW216671   1.699   1.511   3.639  0.9267 -0.6674 -0.0860
 1673SOL     OW16672   3.474   0.515   4.570 -0.0119  0.9821 -0.6012
 1673SOL    HW116673   3.474   0.432   4.515  0.2454 -1.4028  2.8698
 1673SOL    HW216674   3.386   0.562   4.558 -0.6534 -0.4270 -1.6226
 1674SOL     OW16675   0.519   2.523   1.627 -0.5921  0.3687 -0.0509
 1674SOL    HW116676   0.502   2.620   1.608 -0.1752  0.4509 -0.0026
 1674SOL    HW216677   0.615   2.501   1.610  0.0732  0.7180  2.9785
 1675SOL     OW16678   2.355   9.302   1.100 -0.2362  0.1709 -0.4999
 1675SOL    HW116679   2.406   9.217   1.113 -0.2658  0.1003 -0.8395
 1675SOL    HW216680   2.417   9.380   1.110 -0.5689  0.1913  1.7061
 1676SOL     OW16681   8.501   7.900   4.426 -0.4555 -0.2344  0.6482
 1676SOL    HW116682   8.546   7.885   4.338  0.9447 -2.3853  1.6834
 1676SOL    HW216683   8.510   7.817   4.482 -2.3011  0.7130  2.3858
 1677SOL     OW16684   8.949   9.770   0.060  0.4731  0.4540 -0.0110
 1677SOL    HW116685   8.991   9.822   0.134  0.8618  1.2715 -0.7966
 1677SOL    HW216686   8.989   9.798  -0.027  0.3804 -0.8558 -0.4836
 1678SOL     OW16687   5.238   8.065   4.318 -0.4243  0.4340  0.9694
 1678SOL    HW116688   5.291   8.055   4.233 -1.2498 -0.7835  0.5759
 1678SOL    HW216689   5.224   8.162   4.337  1.4231  0.7610  0.7558
 1679SOL     OW16690   7.627   7.036   2.719  0.7050  0.2559 -0.5314
 1679SOL    HW116691   7.639   7.106   2.648  0.5555 -0.3931 -1.2071
 1679SOL    HW216692   7.697   7.047   2.789  1.2881  0.4697 -1.1437
 1680SOL     OW16693   2.267   2.962   7.701  0.4590  0.0375 -0.2465
 1680SOL    HW116694   2.188   2.901   7.701  0.1814  0.3541 -1.9268
 1680SOL    HW216695   2.240   3.050   7.740 -0.2602  0.3905 -1.4707
 1681SOL     OW16696   0.932   0.243   6.291 -0.6538  0.1154 -0.3430
 1681SOL    HW116697   0.982   0.255   6.377  0.9361 -2.1845 -0.8993
 1681SOL    HW216698   0.946   0.323   6.233 -1.7712  1.7105  1.5252
 1682SOL     OW16699   7.889   0.231   2.766 -0.0958  0.1352  0.4987
 1682SOL    HW116700   7.797   0.191   2.756  0.1032 -0.2987  0.3786
 1682SOL    HW216701   7.924   0.210   2.857  0.1742 -0.3197  0.2934
 1683SOL     OW16702   8.266   3.654   0.304 -0.0581  0.3310  0.2084
 1683SOL    HW116703   8.345   3.657   0.243 -1.9799  0.6746 -2.3755
 1683SOL    HW216704   8.270   3.731   0.368  0.0493  2.3236 -2.1176
 1684SOL     OW16705   5.547   9.092   3.808  0.5073  0.2725 -0.1917
 1684SOL    HW116706   5.601   9.174   3.825  1.3973 -0.1930 -0.7644
 1684SOL    HW216707   5.476   9.113   3.740 -0.4808  1.0543  1.0420
 1685SOL     OW16708   2.924   6.766   4.446  0.7250 -0.2711 -0.0262
 1685SOL    HW116709   2.990   6.840   4.430  0.1069  0.7264  1.8926
 1685SOL    HW216710   2.954   6.710   4.523 -0.2760 -0.2766  0.3677
 1686SOL     OW16711   9.967   4.779   6.504  0.1466 -0.2604 -0.4013
 1686SOL    HW116712   9.922   4.692   6.484 -0.4883  0.3617 -1.7088
 1686SOL    HW216713   9.939   4.847   6.437 -0.0764  1.2114  1.1682
 1687SOL     OW16714   5.041   2.892   5.936  0.5952  0.8098 -1.3916
 1687SOL    HW116715   5.001   2.983   5.927 -1.1408  0.2570  0.4006
 1687SOL    HW216716   5.059   2.873   6.032  1.3537 -0.5751 -1.8000
 1688SOL     OW16717   7.622   7.664   2.677 -0.0884 -0.0727 -0.2849
 1688SOL    HW116718   7.604   7.715   2.592  1.9663  0.2148 -0.5785
 1688SOL    HW216719   7.559   7.695   2.748 -0.9051  0.6987 -1.3227
 1689SOL     OW16720   3.417   4.478   1.100 -0.5603  0.6337 -0.2269
 1689SOL    HW116721   3.330   4.458   1.145 -1.8954  2.0642 -2.1215
 1689SOL    HW216722   3.401   4.538   1.022  1.8105 -1.1113 -2.1309
 1690SOL     OW16723   7.175   5.225   1.666 -0.3725  0.3934 -0.1061
 1690SOL    HW116724   7.081   5.243   1.637 -0.0508  3.2812  0.4608
 1690SOL    HW216725   7.190   5.266   1.757  0.9975 -1.3641  0.4819
 1691SOL     OW16726   4.943   9.033   6.853  0.1029  0.3477  0.0814
 1691SOL    HW116727   4.984   9.074   6.772  1.3836  0.5737  0.8362
 1691SOL    HW216728   4.981   9.075   6.935  0.3246 -1.2838  0.8450
 1692SOL     OW16729   0.106   7.643   2.995  0.0241  0.0576 -0.0818
 1692SOL    HW116730   0.120   7.672   2.901 -0.3170  0.1722 -0.0986
 1692SOL    HW216731   0.163   7.697   3.056  0.2309 -0.0042 -0.2222
 1693SOL     OW16732   8.032   8.919   1.423 -0.4057 -0.8632 -0.1574
 1693SOL    HW116733   7.996   8.827   1.406 -1.1771 -0.1937 -2.2898
 1693SOL    HW216734   8.127   8.912   1.454 -0.7292 -2.4120  0.5481
 1694SOL     OW16735   2.610   3.612   6.624  0.2084  0.2680  0.0696
 1694SOL    HW116736   2.584   3.637   6.531  0.2461  1.1919  0.3026
 1694SOL    HW216737   2.710   3.607   6.631  0.2333  0.8285  0.2068
 1695SOL     OW16738   0.033   4.195   5.563 -0.2332  0.1710  0.8620
 1695SOL    HW116739   0.123   4.176   5.601 -0.0761  0.1911  0.4957
 1695SOL    HW216740  -0.037   4.176   5.632 -0.0826 -1.7339  0.5023
 1696SOL     OW16741   9.853   0.061   3.652 -0.0221  0.2814  0.3040
 1696SOL    HW116742   9.868  -0.036   3.669  5.0712  1.1437  1.3222
 1696SOL    HW216743   9.933   0.101   3.608 -1.0757  4.5191  1.9205
 1697SOL     OW16744   7.663   0.332   6.071  0.3941 -0.4454  0.0346
 1697SOL    HW116745   7.572   0.373   6.079  0.6363 -0.1003  1.1877
 1697SOL    HW216746   7.720   0.387   6.011 -0.3403 -1.0049 -1.2046
 1698SOL     OW16747   5.032   9.488   8.218  0.0945 -0.6679  0.3973
 1698SOL    HW116748   5.109   9.437   8.179 -0.0035 -1.0443  0.6966
 1698SOL    HW216749   5.014   9.456   8.311 -1.1855 -1.4294 -0.0877
 1699SOL     OW16750   1.877   4.153   5.025 -0.2613 -0.4306  0.3033
 1699SOL    HW116751   1.960   4.189   5.067 -0.8600  0.9224  0.3650
 1699SOL    HW216752   1.877   4.175   4.927 -0.7640  0.0041  0.3980
 1700SOL     OW16753   9.140   0.277   3.964  0.1681  0.0172  0.1168
 1700SOL    HW116754   9.173   0.353   4.020  0.2061  2.3174 -2.9050
 1700SOL    HW216755   9.042   0.286   3.949  0.2323 -0.3152 -0.5413
 1701SOL     OW16756   4.255   0.925   1.128  0.2713  0.3772 -0.3308
 1701SOL    HW116757   4.306   0.873   1.060  0.4837  1.5650 -1.1057
 1701SOL    HW216758   4.160   0.894   1.129  0.9074 -1.5987  0.8669
 1702SOL     OW16759   7.569   5.095   1.566 -0.0599  0.4585  0.0446
 1702SOL    HW116760   7.551   5.001   1.597 -0.1337 -0.3476 -2.3054
 1702SOL    HW216761   7.483   5.136   1.535  0.2117  0.7807 -0.2790
 1703SOL     OW16762   0.374   1.159   7.176 -0.0519 -0.4407 -0.4033
 1703SOL    HW116763   0.293   1.212   7.150 -0.0826 -0.5202 -0.4700
 1703SOL    HW216764   0.447   1.221   7.203  0.1636 -0.3322 -1.2190
 1704SOL     OW16765   1.542   8.561   3.778 -0.1406  0.6369  0.1260
 1704SOL    HW116766   1.552   8.463   3.795 -1.8179  0.2343 -1.0728
 1704SOL    HW216767   1.454   8.593   3.814  0.9124  1.9714  1.5820
 1705SOL     OW16768   7.682   9.068   4.955  0.0360 -0.2698 -0.1626
 1705SOL    HW116769   7.685   8.976   4.993  1.5552 -0.0536  0.2562
 1705SOL    HW216770   7.698   9.135   5.028 -2.2752  0.4109 -0.2254
 1706SOL     OW16771   1.501   0.581   1.581  0.4837 -0.5991 -0.2683
 1706SOL    HW116772   1.524   0.678   1.571  0.1881 -0.3094  1.6133
 1706SOL    HW216773   1.585   0.528   1.592  0.5530 -0.2303  1.1236
 1707SOL     OW16774   2.658   6.693   1.787  0.2804  0.1527 -0.5214
 1707SOL    HW116775   2.664   6.597   1.759  0.5617  0.2441 -0.7735
 1707SOL    HW216776   2.734   6.744   1.747  0.8710  0.2221  0.6837
 1708SOL     OW16777   8.237   5.283   3.169 -0.1536 -0.4943  0.0770
 1708SOL    HW116778   8.268   5.202   3.218 -0.0501  0.3581  1.4509
 1708SOL    HW216779   8.279   5.365   3.210 -1.6689  0.4054 -0.1175
 1709SOL     OW16780   8.103   8.172   6.161 -0.0929  0.4914 -0.5292
 1709SOL    HW116781   8.131   8.155   6.067  0.4240  1.1755 -0.5045
 1709SOL    HW216782   8.184   8.178   6.219 -0.3614  1.0577 -0.2089
 1710SOL     OW16783   2.019   9.743   6.164 -0.1119  0.0846 -0.7840
 1710SOL    HW116784   2.082   9.810   6.125 -1.2279  1.2332 -0.6289
 1710SOL    HW216785   1.999   9.673   6.095  0.5260  0.2655 -1.1610
 1711SOL     OW16786   0.609   4.990   7.280 -0.0761  0.6468  0.4062
 1711SOL    HW116787   0.639   4.913   7.225  0.7538  0.9294  0.4660
 1711SOL    HW216788   0.688   5.041   7.313 -0.6202  2.8905 -1.5628
 1712SOL     OW16789   0.946   8.960   6.290  0.5811  0.0743 -0.0379
 1712SOL    HW116790   0.968   8.933   6.384  0.6216  1.2569  0.3013
 1712SOL    HW216791   0.859   9.010   6.289 -0.8777 -2.4012 -1.0228
 1713SOL     OW16792   8.239   4.797   6.799 -0.1648 -1.0515  0.4219
 1713SOL    HW116793   8.314   4.863   6.802  0.3778 -1.6758  0.7282
 1713SOL    HW216794   8.201   4.785   6.890 -0.9541 -0.3924  0.1934
 1714SOL     OW16795   6.565   8.319   7.570 -0.2858  0.6566  0.3351
 1714SOL    HW116796   6.532   8.412   7.559  0.3275  0.8760  0.2965
 1714SOL    HW216797   6.586   8.303   7.667  1.6127  1.2631  0.0499
 1715SOL     OW16798   4.640   0.447   0.955  0.0504 -0.2498  0.0302
 1715SOL    HW116799   4.553   0.456   0.907  1.1330  0.6177 -1.8144
 1715SOL    HW216800   4.655   0.351   0.980 -2.0699 -0.1928  1.6313
 1716SOL     OW16801   3.494   0.853   7.379  0.3231 -0.1324 -0.2669
 1716SOL    HW116802   3.592   0.835   7.386  0.3000 -0.0164  0.3100
 1716SOL    HW216803   3.444   0.799   7.446  0.1474  1.1429  0.6393
 1717SOL     OW16804   1.537   8.223   2.648  0.9020 -0.4010 -0.7353
 1717SOL    HW116805   1.580   8.304   2.609  1.7150 -0.7933 -0.6678
 1717SOL    HW216806   1.535   8.231   2.748  0.2470 -0.1019 -0.7714
 1718SOL     OW16807   8.170   4.745   6.431  0.8872 -0.3445  0.0383
 1718SOL    HW116808   8.258   4.697   6.428  1.6651  1.1034 -0.5235
 1718SOL    HW216809   8.115   4.708   6.506  1.7492 -1.6379  0.0522
 1719SOL     OW16810   1.831   5.342  10.002 -0.3689  0.5584 -0.0852
 1719SOL    HW116811   1.901   5.282  10.040  0.1598  1.2520  0.0352
 1719SOL    HW216812   1.743   5.294  10.002  0.0531 -0.2324 -0.0306
 1720SOL     OW16813   9.981   8.240   3.027  0.0482  0.0398 -0.1596
 1720SOL    HW116814  10.006   8.146   3.051  0.9377  0.4680  0.6252
 1720SOL    HW216815  10.062   8.289   2.995 -0.1313  0.9220  0.6958
 1721SOL     OW16816   1.094   8.966   4.513 -0.0996 -0.0220  0.3036
 1721SOL    HW116817   1.065   8.876   4.480 -0.7051  0.2920 -0.0241
 1721SOL    HW216818   1.016   9.027   4.516 -0.0478 -0.0251  2.2808
 1722SOL     OW16819   3.594   2.396   0.322  0.4073 -0.0372 -0.3338
 1722SOL    HW116820   3.616   2.316   0.266  2.5720  0.0183  0.3800
 1722SOL    HW216821   3.678   2.434   0.360 -0.6592  2.1783 -0.0892
 1723SOL     OW16822   5.712   0.466   2.445  0.7931  0.1673  0.3884
 1723SOL    HW116823   5.648   0.389   2.434  1.4090 -0.4314  0.9563
 1723SOL    HW216824   5.666   0.541   2.493  0.5121 -0.2596  0.7889
 1724SOL     OW16825   0.942   8.671   1.155 -0.3662 -0.0123  0.0268
 1724SOL    HW116826   0.915   8.594   1.097  0.5288  0.4382 -1.0228
 1724SOL    HW216827   0.877   8.746   1.144 -0.5133 -0.1394  0.0398
 1725SOL     OW16828   2.026   3.231   6.917 -0.0204 -0.5294 -0.0418
 1725SOL    HW116829   2.062   3.146   6.955 -0.2191 -0.2113  0.8865
 1725SOL    HW216830   2.089   3.267   6.849 -0.1730 -1.6808 -0.8169
 1726SOL     OW16831   4.037   3.367   1.327  0.0007  0.4106  0.0807
 1726SOL    HW116832   4.107   3.411   1.384  0.1022 -0.6200  0.7875
 1726SOL    HW216833   3.978   3.436   1.287 -1.0605  1.1146  2.7367
 1727SOL     OW16834   9.369   2.150   3.113  0.4085  0.8213 -0.2213
 1727SOL    HW116835   9.374   2.074   3.178 -2.0266  0.8959  0.0937
 1727SOL    HW216836   9.324   2.228   3.157  1.7584  2.0267 -0.9483
 1728SOL     OW16837   4.392   5.422   0.296 -0.6432 -0.0958 -0.2510
 1728SOL    HW116838   4.476   5.368   0.287 -0.6376 -0.2482  0.6712
 1728SOL    HW216839   4.325   5.371   0.349 -0.6582  0.7793  0.5758
 1729SOL     OW16840   0.189   2.912   4.020  0.0096 -0.8594  0.0476
 1729SOL    HW116841   0.262   2.883   4.082  0.4930 -1.5825 -0.8466
 1729SOL    HW216842   0.221   2.987   3.963 -0.4890 -0.0838  0.7797
 1730SOL     OW16843   8.600   1.817   3.594 -0.1969 -0.0105  0.4238
 1730SOL    HW116844   8.544   1.792   3.515  1.1444 -0.9482 -0.2593
 1730SOL    HW216845   8.574   1.907   3.628 -0.5908  0.5177 -1.2682
 1731SOL     OW16846   0.927   2.774   6.086 -0.6489 -0.0388  0.0580
 1731SOL    HW116847   0.827   2.773   6.086 -0.6680 -2.8913  0.7303
 1731SOL    HW216848   0.959   2.857   6.132 -2.6440  2.1483 -2.3076
 1732SOL     OW16849   1.791   9.743   4.127  0.5322  0.2103 -0.2199
 1732SOL    HW116850   1.859   9.785   4.067  0.2099 -0.9533 -1.4192
 1732SOL    HW216851   1.706   9.796   4.121  0.8326  0.7366  0.0668
 1733SOL     OW16852   2.657   1.435   3.913 -0.2910 -0.0264 -0.5089
 1733SOL    HW116853   2.632   1.514   3.969  0.4550 -0.1983  0.0852
 1733SOL    HW216854   2.694   1.363   3.973  0.2893 -0.3043 -1.1948
 1734SOL     OW16855   1.826   7.527   2.670  0.1572 -0.2268 -0.0410
 1734SOL    HW116856   1.731   7.498   2.659  0.6246 -1.2437 -1.5678
 1734SOL    HW216857   1.831   7.604   2.734 -1.5099 -1.2428  1.3475
 1735SOL     OW16858   2.472   6.704   3.709  0.0156 -0.5735 -0.7323
 1735SOL    HW116859   2.424   6.706   3.796 -0.1253 -1.3032 -0.7878
 1735SOL    HW216860   2.420   6.754   3.640  0.6164  0.8674 -0.1593
 1736SOL     OW16861   3.379   7.686   4.680  0.1498 -0.1213  0.3939
 1736SOL    HW116862   3.386   7.587   4.675 -0.4845 -0.2799  2.0024
 1736SOL    HW216863   3.305   7.710   4.744  1.7200  1.3671  1.7034
 1737SOL     OW16864   8.346   6.815   3.909 -0.1449  0.0119  0.5122
 1737SOL    HW116865   8.347   6.790   4.006  1.4964 -0.5663  0.3629
 1737SOL    HW216866   8.333   6.732   3.854  1.3765 -0.0008  0.1567
 1738SOL     OW16867   9.056   9.904   2.856 -0.2080 -0.0324  0.1557
 1738SOL    HW116868   9.128   9.834   2.849  1.3269  1.7097 -2.2691
 1738SOL    HW216869   9.085   9.975   2.920 -1.1150 -0.8364  1.4764
 1739SOL     OW16870   9.475   4.547   2.795  0.0130  0.5309  0.1083
 1739SOL    HW116871   9.486   4.614   2.722 -0.8959 -0.4736 -0.9811
 1739SOL    HW216872   9.489   4.455   2.758 -3.2948 -0.2089  0.5427
 1740SOL     OW16873   7.487   3.845   0.649 -0.0544 -0.9114  0.2031
 1740SOL    HW116874   7.434   3.843   0.565 -0.4477 -0.6856  0.4448
 1740SOL    HW216875   7.432   3.886   0.722  0.6114 -0.2715  0.3414
 1741SOL     OW16876   3.674   1.134   6.970  0.1432  0.2224  0.0928
 1741SOL    HW116877   3.629   1.059   6.922 -1.9810 -0.3282  2.8067
 1741SOL    HW216878   3.606   1.202   6.997  1.7506  2.0757 -0.4399
 1742SOL     OW16879   3.856   8.417   4.891  0.0458  0.4750 -0.0226
 1742SOL    HW116880   3.761   8.397   4.914  0.0577  0.1054 -0.2817
 1742SOL    HW216881   3.902   8.459   4.969 -0.5008  1.2402 -0.1113
 1743SOL     OW16882   3.927   2.552   3.765 -0.0930 -0.8800  0.0734
 1743SOL    HW116883   3.874   2.633   3.788  1.1015  0.6438 -2.4118
 1743SOL    HW216884   3.920   2.534   3.667 -0.0424 -3.5785  0.5353
 1744SOL     OW16885   6.405   7.050   5.880  0.1695 -0.2267  0.0359
 1744SOL    HW116886   6.360   6.962   5.867 -0.0233 -0.0963 -0.1810
 1744SOL    HW216887   6.340   7.124   5.863  0.1425 -0.0444  0.8945
 1745SOL     OW16888   1.992   2.771   1.973  0.3544 -1.1041 -0.1961
 1745SOL    HW116889   1.951   2.698   2.028  0.4063 -1.2800 -0.3904
 1745SOL    HW216890   2.063   2.733   1.914  1.0066 -0.7533  0.3553
 1746SOL     OW16891   8.382   6.010   5.990  0.2284 -0.4670 -0.3918
 1746SOL    HW116892   8.434   5.944   6.045 -1.3474  0.0752  1.8391
 1746SOL    HW216893   8.287   6.010   6.020  0.3364  3.2984  0.1727
 1747SOL     OW16894   2.932   1.158   0.849  0.3109 -0.4534 -0.2880
 1747SOL    HW116895   2.984   1.088   0.799 -0.2437 -0.9445 -0.1703
 1747SOL    HW216896   2.871   1.114   0.915 -0.8417  0.0882 -0.9768
 1748SOL     OW16897   1.243   9.617   4.022  0.1033 -0.2621  0.2826
 1748SOL    HW116898   1.274   9.681   3.952  0.6154  0.9650  1.5946
 1748SOL    HW216899   1.143   9.610   4.019  0.1065 -0.0395 -0.4155
 1749SOL     OW16900   6.584   9.538   5.646 -0.5587  0.0116 -1.0617
 1749SOL    HW116901   6.506   9.592   5.616 -1.5530 -1.5671 -1.3726
 1749SOL    HW216902   6.581   9.448   5.602  0.5008 -0.6794  0.2572
 1750SOL     OW16903   8.421   2.449   7.251  0.5065  0.1952 -0.6050
 1750SOL    HW116904   8.498   2.497   7.209  0.2463  1.3396  0.1949
 1750SOL    HW216905   8.357   2.419   7.180  0.3063  1.6860 -1.0803
 1751SOL     OW16906   6.173   5.890   1.891  0.0601  0.1197  0.5421
 1751SOL    HW116907   6.153   5.823   1.963  0.4052  0.6118  1.1008
 1751SOL    HW216908   6.208   5.843   1.811 -2.6698 -0.7118 -0.2314
 1752SOL     OW16909   4.252   9.390   6.542  0.1741 -0.4642  0.5679
 1752SOL    HW116910   4.344   9.385   6.504  0.9623 -1.5475  2.5527
 1752SOL    HW216911   4.248   9.465   6.609 -0.4839 -0.2172  0.2554
 1753SOL     OW16912   2.526   0.418   1.783 -0.4660  0.0857 -0.1926
 1753SOL    HW116913   2.492   0.407   1.690 -0.1383  0.3683 -0.3478
 1753SOL    HW216914   2.568   0.508   1.793  4.2650 -1.8633 -1.2885
 1754SOL     OW16915   6.011   6.193   1.348 -0.1594 -0.5094  0.0144
 1754SOL    HW116916   5.958   6.276   1.333 -0.9923 -1.2591 -1.2493
 1754SOL    HW216917   6.081   6.184   1.278  0.0775 -0.7644  0.2783
 1755SOL     OW16918   8.927   9.306   3.313 -0.6379  0.3069  0.5435
 1755SOL    HW116919   8.937   9.213   3.277 -0.4653  0.5916 -0.1477
 1755SOL    HW216920   8.955   9.307   3.409  2.3257  0.2432 -0.2553
 1756SOL     OW16921   2.194   8.213   2.796 -0.0551 -0.4211 -0.1298
 1756SOL    HW116922   2.271   8.151   2.807  2.3555  1.9133 -3.0960
 1756SOL    HW216923   2.144   8.190   2.712 -0.7316 -0.0264  0.1610
 1757SOL     OW16924   4.035   2.180   6.962  0.1266  0.0491  1.2902
 1757SOL    HW116925   4.011   2.277   6.966 -0.6262 -0.0983  0.4464
 1757SOL    HW216926   3.979   2.129   7.028 -1.0356 -0.1226  0.1779
 1758SOL     OW16927   3.588   7.280   2.508 -0.3235  0.4913  0.4877
 1758SOL    HW116928   3.589   7.197   2.452  0.8842  0.2319  0.8862
 1758SOL    HW216929   3.611   7.359   2.451 -0.7350  0.4580  0.2715
 1759SOL     OW16930   0.279   3.960   0.777 -0.1493  0.0160  0.3868
 1759SOL    HW116931   0.220   3.890   0.737  0.3895 -1.0416  1.4328
 1759SOL    HW216932   0.375   3.930   0.771  0.1957  1.1913 -0.2233
 1760SOL     OW16933   3.463   2.321   1.947  0.2272 -0.5792 -0.2488
 1760SOL    HW116934   3.458   2.419   1.928  0.7887 -0.4289  0.3397
 1760SOL    HW216935   3.515   2.275   1.875  2.9948  0.0933  1.2477
 1761SOL     OW16936   1.508   3.557   2.256 -0.0706  0.2411 -0.1609
 1761SOL    HW116937   1.480   3.580   2.162  0.1555  1.3317  0.0392
 1761SOL    HW216938   1.428   3.562   2.316 -0.0538  0.3225 -0.1459
 1762SOL     OW16939   1.039   9.788   0.029 -0.2857 -0.0380  0.0826
 1762SOL    HW116940   1.121   9.839   0.002  0.7149 -1.9694 -0.6063
 1762SOL    HW216941   1.016   9.810   0.124  2.4407 -1.2747  1.0737
 1763SOL     OW16942   1.550   6.364   7.411  0.6488  0.1140  0.5187
 1763SOL    HW116943   1.648   6.374   7.428  0.8624  1.2130 -1.1730
 1763SOL    HW216944   1.537   6.318   7.323 -0.3083  2.7746 -0.7939
 1764SOL     OW16945   4.304   4.752   5.150 -0.0877 -0.4892  0.0778
 1764SOL    HW116946   4.374   4.808   5.106 -0.2240 -1.3266 -1.2404
 1764SOL    HW216947   4.265   4.802   5.227  2.7928 -0.4803  1.5751
 1765SOL     OW16948   0.392   2.345   5.142 -0.4528 -0.3607  0.0842
 1765SOL    HW116949   0.414   2.266   5.200  2.4656  0.6802  0.5087
 1765SOL    HW216950   0.377   2.426   5.200  0.2826  0.1879 -0.4743
 1766SOL     OW16951   6.291   4.877   2.671 -0.3629 -0.3078  0.3496
 1766SOL    HW116952   6.253   4.847   2.583  1.7361 -1.4111 -0.2148
 1766SOL    HW216953   6.313   4.797   2.727 -1.3922  0.3815  1.7734
 1767SOL     OW16954   8.897   5.556   7.805 -0.5610  0.6592 -0.1042
 1767SOL    HW116955   8.966   5.626   7.793 -0.2471  0.0648 -1.8739
 1767SOL    HW216956   8.941   5.467   7.814 -1.0257  0.4852  0.5003
 1768SOL     OW16957   7.675   2.027   5.624 -0.1501  0.0814  0.4632
 1768SOL    HW116958   7.622   1.944   5.605 -0.4983  0.2784  0.5547
 1768SOL    HW216959   7.707   2.067   5.538 -1.9173  1.0999  0.2328
 1769SOL     OW16960   9.377   2.094   3.481 -0.3297 -0.0664 -0.1257
 1769SOL    HW116961   9.383   2.016   3.419 -0.9003  0.9646 -1.5010
 1769SOL    HW216962   9.312   2.074   3.554 -0.7399 -0.7458 -0.6799
 1770SOL     OW16963   1.706   4.715   2.157 -0.2004  0.2437 -0.4271
 1770SOL    HW116964   1.616   4.741   2.194 -0.1624  0.9296 -0.8193
 1770SOL    HW216965   1.712   4.742   2.061  0.6665  0.7810 -0.2224
 1771SOL     OW16966   1.435   5.367   0.590 -0.8876 -0.5212 -0.3885
 1771SOL    HW116967   1.367   5.427   0.632 -0.2323 -0.7770  1.0508
 1771SOL    HW216968   1.524   5.381   0.634  0.1315  0.1734 -2.5750
 1772SOL     OW16969   9.769   2.907   1.585  0.2280 -0.3484 -0.4576
 1772SOL    HW116970   9.840   2.950   1.641 -0.1662  1.1262 -1.0732
 1772SOL    HW216971   9.798   2.909   1.489  0.9778 -3.0000 -0.3317
 1773SOL     OW16972   9.089   4.590   0.210 -0.2478 -0.4708 -0.2457
 1773SOL    HW116973   9.019   4.638   0.263  0.4697 -1.8277  2.0036
 1773SOL    HW216974   9.154   4.547   0.272  2.5629  0.6633 -2.2799
 1774SOL     OW16975   2.973   2.743   6.891  0.5946  0.2629  0.3218
 1774SOL    HW116976   2.952   2.746   6.988  0.5982 -0.0106  0.3299
 1774SOL    HW216977   2.896   2.702   6.841 -0.6744  3.0519 -0.1362
 1775SOL     OW16978   4.370   5.536   1.860 -0.2190  0.4262  0.4863
 1775SOL    HW116979   4.334   5.444   1.846 -0.9230  0.6973  0.4947
 1775SOL    HW216980   4.307   5.588   1.917  2.0162 -0.2752  3.7231
 1776SOL     OW16981   8.861   1.626   5.028 -1.1667  0.0859  0.3113
 1776SOL    HW116982   8.886   1.693   5.098 -3.0586  1.1254  0.0481
 1776SOL    HW216983   8.942   1.576   4.998  0.4352  2.8278 -0.0673
 1777SOL     OW16984   5.346   5.314   1.540 -0.3423 -0.3419  0.0916
 1777SOL    HW116985   5.251   5.344   1.547 -0.1203  0.2812  0.4399
 1777SOL    HW216986   5.362   5.240   1.605 -0.4841 -0.1839  0.3077
 1778SOL     OW16987   8.024   3.432   4.502 -0.4514  0.2557 -0.2330
 1778SOL    HW116988   8.099   3.497   4.507 -0.0914 -0.2398  0.6789
 1778SOL    HW216989   7.964   3.444   4.581 -2.7304  2.3413 -2.1586
 1779SOL     OW16990   6.411   3.815   1.034  0.2901 -0.1359  0.5302
 1779SOL    HW116991   6.333   3.860   0.992  0.2768  0.8984  1.6424
 1779SOL    HW216992   6.420   3.722   0.998 -1.0546 -0.0294 -0.0812
 1780SOL     OW16993   7.292   2.765   1.942  0.1759  0.6916 -0.6033
 1780SOL    HW116994   7.251   2.696   1.882  1.3100  0.1047 -0.7201
 1780SOL    HW216995   7.221   2.810   1.995 -0.7062  0.2960 -1.4382
 1781SOL     OW16996   1.546   4.180   5.101  0.2253  0.2435  0.3955
 1781SOL    HW116997   1.636   4.137   5.111  1.1267  2.0117  0.0413
 1781SOL    HW216998   1.514   4.214   5.190  0.1446  0.0838  0.4279
 1782SOL     OW16999   4.621   0.747   6.635 -0.0226  0.3083 -0.1794
 1782SOL    HW117000   4.530   0.760   6.673 -1.0897 -1.6088 -1.9470
 1782SOL    HW217001   4.672   0.682   6.693 -1.4098 -2.1018 -1.5809
 1783SOL     OW17002   7.433   8.898   4.280  0.0089  0.1524  0.4489
 1783SOL    HW117003   7.475   8.833   4.217 -0.7024  1.3729 -1.3230
 1783SOL    HW217004   7.436   8.861   4.373  0.9634 -1.7253 -0.3003
 1784SOL     OW17005   6.616   9.991   4.539 -0.2533 -0.4735 -0.1255
 1784SOL    HW117006   6.637   9.967   4.444  0.6674 -0.1038 -0.0153
 1784SOL    HW217007   6.671   9.934   4.600  0.7881  0.8235  0.1586
 1785SOL     OW17008   6.842   7.689   5.665  0.4432  0.4994  0.0604
 1785SOL    HW117009   6.938   7.662   5.662  0.2808  0.0192 -0.8920
 1785SOL    HW217010   6.787   7.614   5.702  0.4133  0.7037  0.4287
 1786SOL     OW17011   3.024   0.402   2.754  0.3343  0.2614  0.1450
 1786SOL    HW117012   2.927   0.415   2.777  0.0491 -0.7896 -0.4660
 1786SOL    HW217013   3.071   0.359   2.831 -0.1213 -1.0764 -0.3056
 1787SOL     OW17014   7.437   7.443   6.564  0.2307  0.0367 -0.1692
 1787SOL    HW117015   7.499   7.443   6.642  0.3223  3.1168 -0.1794
 1787SOL    HW217016   7.351   7.399   6.589  1.8042 -2.8227  0.3275
 1788SOL     OW17017   2.608   2.885   2.684 -0.1952  0.2474  0.4994
 1788SOL    HW117018   2.648   2.878   2.593 -1.7597  1.5712 -0.3412
 1788SOL    HW217019   2.679   2.873   2.754  0.8548 -1.6826 -0.8750
 1789SOL     OW17020   7.520   3.516   5.381  0.0533 -0.0826 -0.1808
 1789SOL    HW117021   7.489   3.422   5.368  1.5083 -0.7783  1.1891
 1789SOL    HW217022   7.443   3.579   5.372 -0.8367 -1.3646 -1.5897
 1790SOL     OW17023   7.215   7.629   7.187 -0.0106  0.4194  0.3141
 1790SOL    HW117024   7.227   7.699   7.117  0.7172  0.6927  0.7071
 1790SOL    HW217025   7.197   7.672   7.275  2.1078  0.1966  0.8980
 1791SOL     OW17026   2.083   2.299   5.155 -0.2000  0.6214 -0.6316
 1791SOL    HW117027   2.048   2.372   5.214  0.2255  2.2047 -2.3031
 1791SOL    HW217028   2.183   2.299   5.159 -0.1940  0.2443 -0.7874
 1792SOL     OW17029   7.826   5.449   3.612  0.0376  0.9728  0.0968
 1792SOL    HW117030   7.824   5.525   3.677 -1.4675 -0.0854  1.3448
 1792SOL    HW217031   7.750   5.387   3.631 -0.5799  0.7642 -2.8837
 1793SOL     OW17032   2.549   4.659   5.358 -0.0775  0.1812  0.2379
 1793SOL    HW117033   2.468   4.716   5.344 -0.4360 -0.1151  1.0589
 1793SOL    HW217034   2.631   4.714   5.345 -0.3942  0.2240 -1.6818
 1794SOL     OW17035   6.657   5.449   6.878  0.0198 -0.2127 -0.5386
 1794SOL    HW117036   6.697   5.533   6.915  0.5159 -0.3813 -0.6954
 1794SOL    HW217037   6.609   5.401   6.951  1.8303 -1.0470  0.1396
 1795SOL     OW17038   0.719   7.042   6.642 -0.1898  0.1812 -0.0553
 1795SOL    HW117039   0.664   6.963   6.616 -0.4883  0.2319  0.4030
 1795SOL    HW217040   0.712   7.112   6.571  0.8709 -0.5857 -0.9344
 1796SOL     OW17041   3.591   8.022   0.471  0.7627 -0.5775  0.3776
 1796SOL    HW117042   3.650   7.945   0.495 -0.2966 -1.1731  1.0595
 1796SOL    HW217043   3.641   8.084   0.410  2.4276 -0.5955  1.6831
 1797SOL     OW17044   2.793   8.396   6.295  0.9548 -0.3331  0.6464
 1797SOL    HW117045   2.736   8.351   6.227  0.1159 -0.9572  1.7441
 1797SOL    HW217046   2.872   8.338   6.317  0.2809 -0.9319  1.5015
 1798SOL     OW17047   9.558   1.792   0.823 -0.0623 -0.4494  0.0853
 1798SOL    HW117048   9.586   1.777   0.728 -2.5468 -0.6816 -0.6504
 1798SOL    HW217049   9.591   1.881   0.854 -1.0058  0.5677 -1.7299
 1799SOL     OW17050   0.607   4.148   7.434  0.4807 -0.4449 -0.1578
 1799SOL    HW117051   0.613   4.083   7.358  0.8560 -0.5834 -0.0068
 1799SOL    HW217052   0.699   4.170   7.466  0.3995  0.6968 -0.6722
 1800SOL     OW17053   3.705   5.334   4.399  0.2378  0.5058  0.5877
 1800SOL    HW117054   3.646   5.380   4.332  1.8356 -0.9260 -1.8950
 1800SOL    HW217055   3.800   5.363   4.384  0.5503  0.6083  2.6657
 1801SOL     OW17056   2.399   8.523   6.094  0.0162 -0.2992 -0.2044
 1801SOL    HW117057   2.339   8.541   6.017  0.7260  0.0015 -0.6877
 1801SOL    HW217058   2.409   8.605   6.149  1.3014  0.1234 -1.0489
 1802SOL     OW17059   1.266   6.359   5.492  0.0647 -0.2337  0.2508
 1802SOL    HW117060   1.333   6.430   5.470  1.1664 -0.6143  2.2574
 1802SOL    HW217061   1.175   6.400   5.497  0.1422  0.3388 -2.2540
 1803SOL     OW17062   0.450   7.873   1.562 -0.3877  0.0886  0.5825
 1803SOL    HW117063   0.503   7.869   1.477  0.9704 -1.3052  1.4569
 1803SOL    HW217064   0.353   7.884   1.541  0.0987  1.2286 -1.0978
 1804SOL     OW17065   5.738   0.902   1.854  0.4384  0.2533 -0.2863
 1804SOL    HW117066   5.773   0.868   1.942  1.9751 -0.9254 -1.3406
 1804SOL    HW217067   5.640   0.881   1.848  0.5906 -0.7853  0.6097
 1805SOL     OW17068   0.441   2.736   2.776 -0.1457 -0.0131  0.6706
 1805SOL    HW117069   0.436   2.730   2.676  0.1213  2.3030  0.4886
 1805SOL    HW217070   0.537   2.744   2.804 -0.2544 -0.1539  1.0873
 1806SOL     OW17071   2.649   5.800   2.277 -0.8282 -0.3623  0.1499
 1806SOL    HW117072   2.598   5.757   2.353  0.7012 -1.7734  0.4033
 1806SOL    HW217073   2.684   5.729   2.217  1.6371  0.5339  0.4857
 1807SOL     OW17074   9.578   9.101   2.707 -0.1359  0.5662  0.0411
 1807SOL    HW117075   9.632   9.024   2.743 -1.2039  0.4814  1.5270
 1807SOL    HW217076   9.615   9.128   2.618  1.0992 -0.7880  0.1013
 1808SOL     OW17077   1.953   7.226   4.466 -0.4459 -0.1770  0.1546
 1808SOL    HW117078   1.949   7.222   4.366  0.5518  1.0489  0.0535
 1808SOL    HW217079   2.013   7.153   4.500 -0.6080 -0.4568 -0.1580
 1809SOL     OW17080   2.006   0.318   1.109  0.3120 -0.1558 -0.4061
 1809SOL    HW117081   1.913   0.351   1.123  0.1291 -0.2336 -1.4130
 1809SOL    HW217082   2.070   0.374   1.163 -0.1892  0.6457 -0.6376
 1810SOL     OW17083   5.739   9.828   0.970  0.1063 -0.0488 -0.2709
 1810SOL    HW117084   5.746   9.927   0.981 -1.0838  0.0432 -0.3255
 1810SOL    HW217085   5.831   9.789   0.961  0.6168  0.9606  0.4891
 1811SOL     OW17086   2.011   1.510   7.068 -0.4731  0.0176  0.1557
 1811SOL    HW117087   2.014   1.586   7.003  1.1516  0.6790  0.9872
 1811SOL    HW217088   1.930   1.519   7.126 -1.6472 -0.2875 -1.3935
 1812SOL     OW17089   7.856   5.078   1.639 -0.7973  0.8988  0.6047
 1812SOL    HW117090   7.875   5.026   1.722 -0.2615  0.5026  0.2369
 1812SOL    HW217091   7.758   5.076   1.621 -0.8047  0.1539  0.6876
 1813SOL     OW17092   0.004   8.626   7.095  0.2366  0.2928  0.1853
 1813SOL    HW117093   0.049   8.715   7.098  0.7586  0.0608 -0.5006
 1813SOL    HW217094   0.005   8.584   7.186  1.2521  0.3664  0.2065
 1814SOL     OW17095   9.943   0.948   5.122  0.0082 -0.3325 -0.1408
 1814SOL    HW117096   9.933   1.001   5.038  0.5947  0.8579  0.5220
 1814SOL    HW217097   9.871   0.879   5.127  0.6602 -1.2178 -2.1861
 1815SOL     OW17098   0.720   0.648   7.046  0.0638 -0.0174 -0.4492
 1815SOL    HW117099   0.710   0.747   7.036  1.3182  0.2103  0.4052
 1815SOL    HW217100   0.684   0.602   6.965 -0.7175  1.1189 -0.7615
 1816SOL     OW17101   0.838   6.919   1.846 -0.1895  0.2400 -0.3887
 1816SOL    HW117102   0.874   7.010   1.824  1.9610  0.0936  2.2518
 1816SOL    HW217103   0.913   6.854   1.853 -1.5782 -1.4362 -0.7727
 1817SOL     OW17104   8.151   6.946   2.909  0.2818 -0.3143  0.2655
 1817SOL    HW117105   8.147   6.873   2.842  1.2791  0.2669 -0.4407
 1817SOL    HW217106   8.227   6.929   2.972  0.6577  0.2351 -0.0421
 1818SOL     OW17107   2.198   3.774   2.312 -0.0776 -0.9042  0.7558
 1818SOL    HW117108   2.152   3.827   2.241  1.8519 -0.6472 -0.3615
 1818SOL    HW217109   2.130   3.730   2.371 -1.7038  0.3476 -0.1456
 1819SOL     OW17110   9.626   2.485   1.033 -0.7900  0.3097  0.3545
 1819SOL    HW117111   9.714   2.438   1.034 -1.8389 -1.6940 -0.0254
 1819SOL    HW217112   9.616   2.535   0.947 -0.1233  0.3717  0.3080
 1820SOL     OW17113   1.235   0.668   4.976  0.6634 -0.3292  0.0383
 1820SOL    HW117114   1.224   0.717   5.062  0.6449 -1.0310  0.4394
 1820SOL    HW217115   1.285   0.583   4.993  3.2074  0.8680 -1.0703
 1821SOL     OW17116   3.641   3.262  10.014  0.3804 -0.3941  0.6426
 1821SOL    HW117117   3.678   3.184   9.963  1.5246  1.3497 -1.2878
 1821SOL    HW217118   3.699   3.281  10.093  2.4402  0.9600 -1.1466
 1822SOL     OW17119   7.447   7.704   4.905 -0.0690 -0.4595 -0.0603
 1822SOL    HW117120   7.526   7.710   4.966 -1.1270  0.7035  1.2218
 1822SOL    HW217121   7.478   7.678   4.814  1.6537 -1.2418  0.7199
 1823SOL     OW17122   1.366   5.723   1.458  0.1986 -0.0323 -0.4948
 1823SOL    HW117123   1.316   5.707   1.372 -0.5720 -0.7447  0.0811
 1823SOL    HW217124   1.365   5.640   1.513  1.4906  0.1352 -0.1905
 1824SOL     OW17125   1.585   2.178   4.854  0.1346  0.3104  1.2336
 1824SOL    HW117126   1.488   2.200   4.858 -0.2724 -0.9579 -0.9574
 1824SOL    HW217127   1.630   2.211   4.937 -2.1912  0.7134  2.3763
 1825SOL     OW17128   1.250   0.750   6.678  0.5634 -0.0529 -0.3655
 1825SOL    HW117129   1.245   0.665   6.730  0.1980  0.2595  0.1055
 1825SOL    HW217130   1.342   0.788   6.684  0.3611  0.2884  0.5265
 1826SOL     OW17131   8.696   4.337   2.189 -0.6271 -0.0653 -0.2640
 1826SOL    HW117132   8.612   4.387   2.170 -0.6314  0.3128  0.7555
 1826SOL    HW217133   8.761   4.397   2.237 -0.0752 -0.5882 -0.3519
 1827SOL     OW17134   8.459   8.237   6.995  0.3827  0.5548  0.1567
 1827SOL    HW117135   8.531   8.189   6.946  0.7033  0.7029  0.4823
 1827SOL    HW217136   8.372   8.226   6.946  0.3148 -0.9045  0.5728
 1828SOL     OW17137   5.529   0.624   4.277 -0.3042 -0.3235 -0.4842
 1828SOL    HW117138   5.586   0.670   4.345 -1.4312 -0.5006  0.5894
 1828SOL    HW217139   5.562   0.530   4.265 -0.0136 -0.2495 -0.2871
 1829SOL     OW17140   8.193   6.171   4.951 -0.4351 -0.7482  0.0408
 1829SOL    HW117141   8.225   6.266   4.953 -1.4545 -0.3870 -0.2135
 1829SOL    HW217142   8.239   6.122   4.877  0.6056 -0.6463  0.6132
 1830SOL     OW17143   6.869   2.076   3.136  0.1097 -0.5709 -0.0115
 1830SOL    HW117144   6.830   2.149   3.079 -2.2298 -0.9428  1.0223
 1830SOL    HW217145   6.967   2.071   3.122 -0.0074  1.3404 -1.7376
 1831SOL     OW17146   7.614   0.982   1.910 -0.1873 -0.0155 -0.2352
 1831SOL    HW117147   7.622   0.909   1.979  0.2780  0.5138  0.2727
 1831SOL    HW217148   7.629   1.071   1.954 -0.5000  0.3680 -0.9054
 1832SOL     OW17149   2.091   3.165   6.577 -0.1985  0.1258  0.2039
 1832SOL    HW117150   1.996   3.194   6.568 -0.7537 -1.9249 -0.8634
 1832SOL    HW217151   2.099   3.102   6.654 -0.4045 -2.3004 -1.6735
 1833SOL     OW17152   0.427   8.009   4.438 -0.2261 -0.0822 -0.4081
 1833SOL    HW117153   0.483   7.998   4.520 -0.4004  0.1243 -0.2600
 1833SOL    HW217154   0.404   8.106   4.426  1.2529  0.1326 -1.6752
 1834SOL     OW17155   9.857   4.352   5.235  0.2111  0.0328  0.3790
 1834SOL    HW117156   9.760   4.364   5.256  0.3538  1.1475  0.4758
 1834SOL    HW217157   9.912   4.398   5.305  0.8342 -1.4466  0.8706
 1835SOL     OW17158   1.114   0.906   5.606  0.4523  0.0779  1.0365
 1835SOL    HW117159   1.041   0.870   5.665  1.0203 -0.3807  1.4744
 1835SOL    HW217160   1.142   0.835   5.541 -0.0513  0.5261  0.3315
 1836SOL     OW17161   2.836   3.202   4.739 -0.2995  0.7917 -0.1001
 1836SOL    HW117162   2.892   3.256   4.802 -2.4579  1.0904  1.6189
 1836SOL    HW217163   2.798   3.123   4.787  2.5377 -2.1745 -2.4860
 1837SOL     OW17164   9.328   4.029   0.642  0.4085 -0.2565  0.6053
 1837SOL    HW117165   9.264   3.957   0.669 -1.0283  0.1197 -1.6229
 1837SOL    HW217166   9.360   4.078   0.723 -0.8383 -1.5491  1.8924
 1838SOL     OW17167   0.653   9.927  10.017 -0.7348 -0.1030 -0.9849
 1838SOL    HW117168   0.630   9.875  10.100 -0.7300  0.3406 -0.7048
 1838SOL    HW217169   0.723   9.877   9.966 -0.8332 -0.4465 -0.7927
 1839SOL     OW17170   3.462   4.251   7.606 -0.1487  0.4539 -0.3325
 1839SOL    HW117171   3.426   4.169   7.649  0.2205  0.4932  0.0588
 1839SOL    HW217172   3.390   4.321   7.600 -0.6563 -0.1412 -1.3067
 1840SOL     OW17173   7.835   4.444   2.788 -0.0247 -0.6670  0.1069
 1840SOL    HW117174   7.802   4.360   2.745  0.2215 -0.4122 -0.5816
 1840SOL    HW217175   7.930   4.431   2.816  0.2967 -0.3085 -0.8215
 1841SOL     OW17176   0.068   1.910   0.664  0.1536 -0.5870 -0.0432
 1841SOL    HW117177  -0.009   1.881   0.720 -0.5288  0.1373 -0.6029
 1841SOL    HW217178   0.099   2.000   0.694  2.6916 -2.0687  2.1325
 1842SOL     OW17179   3.961   0.424   6.100  0.0823  0.6133 -0.1669
 1842SOL    HW117180   3.948   0.448   6.196  0.6928  0.5504 -0.0692
 1842SOL    HW217181   4.058   0.426   6.077 -0.0284  0.2776 -0.6901
 1843SOL     OW17182   3.940   8.419   4.356 -0.1642  0.3868 -0.3003
 1843SOL    HW117183   3.948   8.426   4.455 -1.2301  0.0413 -0.1872
 1843SOL    HW217184   3.972   8.329   4.325 -0.1849  0.3563 -0.2315
 1844SOL     OW17185   1.370   9.585  10.002  0.0105 -0.0165  0.1213
 1844SOL    HW117186   1.440   9.526  10.042  0.7725  1.1271  0.4910
 1844SOL    HW217187   1.315   9.532   9.937 -0.2673 -1.5115  1.5180
 1845SOL     OW17188   6.394   7.607   4.418 -0.5198  0.2486  0.4957
 1845SOL    HW117189   6.391   7.516   4.459 -2.6087 -0.0322 -0.2392
 1845SOL    HW217190   6.480   7.617   4.367 -1.0140 -1.9709 -0.8831
 1846SOL     OW17191   5.338   0.563   1.883 -0.0594 -0.6253  0.1605
 1846SOL    HW117192   5.320   0.538   1.978 -2.2642  2.8100  0.7387
 1846SOL    HW217193   5.268   0.522   1.824 -1.6947  1.3719  0.6805
 1847SOL     OW17194   5.876   1.727   5.504  0.5701  0.4532 -0.4164
 1847SOL    HW117195   5.786   1.727   5.460  0.0378  1.1015  0.6502
 1847SOL    HW217196   5.946   1.707   5.436 -0.3708  0.0675 -1.2833
 1848SOL     OW17197   3.538   1.727   5.517 -0.5010  0.4347 -0.7654
 1848SOL    HW117198   3.520   1.647   5.575  1.8091 -0.2087 -0.9006
 1848SOL    HW217199   3.567   1.695   5.426 -1.5402  1.4515 -1.4751
 1849SOL     OW17200   0.685   8.359   2.411 -0.3470  0.4212  0.9372
 1849SOL    HW117201   0.644   8.268   2.419  1.1318 -0.3248  0.2910
 1849SOL    HW217202   0.741   8.377   2.493  0.4810  0.1495  0.4453
 1850SOL     OW17203   0.971   9.675   3.948  0.0445 -0.2410  0.2042
 1850SOL    HW117204   0.994   9.715   3.859 -1.5028  0.5513  0.1429
 1850SOL    HW217205   0.923   9.588   3.934  1.6572 -1.1461  0.3019
 1851SOL     OW17206   5.168   9.111   5.764  0.6620 -0.2488  0.1393
 1851SOL    HW117207   5.178   9.047   5.841  1.9900  0.2074  0.3518
 1851SOL    HW217208   5.258   9.139   5.732  0.1596 -1.5321 -2.5336
 1852SOL     OW17209   9.445   1.463   4.313 -0.1942  0.5469  0.6370
 1852SOL    HW117210   9.363   1.416   4.282 -0.0125  0.8621 -0.3340
 1852SOL    HW217211   9.488   1.410   4.386  0.5459 -1.3183 -1.0993
 1853SOL     OW17212   9.316   9.686   3.139  0.2326 -0.3664 -0.6650
 1853SOL    HW117213   9.250   9.643   3.201 -0.8587 -2.0957 -2.9436
 1853SOL    HW217214   9.285   9.779   3.117  0.4188  0.1123  1.0372
 1854SOL     OW17215   7.093   1.252   5.823 -0.2243  0.2583  0.4701
 1854SOL    HW117216   7.114   1.210   5.735  1.5925  1.3717  0.3425
 1854SOL    HW217217   7.013   1.208   5.863 -1.0935 -0.2537 -1.7482
 1855SOL     OW17218   0.131   5.277   5.647 -0.0876 -0.2334  0.2901
 1855SOL    HW117219   0.046   5.223   5.651 -0.2603  0.0121 -0.0765
 1855SOL    HW217220   0.129   5.348   5.717 -0.7097  0.5408 -0.5049
 1856SOL     OW17221   2.345   4.270   7.427 -0.1854  0.3279  0.2730
 1856SOL    HW117222   2.255   4.232   7.405  0.8402 -1.6771 -0.6411
 1856SOL    HW217223   2.375   4.233   7.515  0.2417  0.0716  0.0188
 1857SOL     OW17224   3.649   9.575   7.152 -0.0438  0.5496 -0.1623
 1857SOL    HW117225   3.737   9.528   7.158 -0.3349 -0.0546 -0.6114
 1857SOL    HW217226   3.615   9.595   7.244  0.1102 -0.0569  0.0271
 1858SOL     OW17227   0.560   4.027   4.622 -0.3347 -0.2133  0.6111
 1858SOL    HW117228   0.597   4.081   4.698 -0.6091  0.0368  0.5684
 1858SOL    HW217229   0.618   3.947   4.607  0.6653  0.6111  0.0021
 1859SOL     OW17230   9.900   1.755   2.435 -0.0285  0.0589  0.1623
 1859SOL    HW117231   9.917   1.842   2.388 -0.6075 -0.3603 -0.8592
 1859SOL    HW217232   9.844   1.771   2.516  2.6150  1.0523  1.8657
 1860SOL     OW17233   0.489   1.336   5.130  0.6303  0.8681  0.4267
 1860SOL    HW117234   0.497   1.349   5.229  1.5353 -1.7290  0.7481
 1860SOL    HW217235   0.570   1.373   5.085  0.7784  0.9691  0.7752
 1861SOL     OW17236   4.952   0.612   6.687 -0.4152  0.2567  0.0161
 1861SOL    HW117237   4.953   0.662   6.601 -3.7506 -0.7637 -0.7178
 1861SOL    HW217238   4.873   0.643   6.742 -0.4311 -1.6452  1.0967
 1862SOL     OW17239   2.907   7.208   6.008 -0.2068  0.0843 -0.1450
 1862SOL    HW117240   2.807   7.208   6.020 -0.2549  1.1928 -0.4450
 1862SOL    HW217241   2.930   7.254   5.922  0.5777  0.1677  0.1068
 1863SOL     OW17242   4.165   5.534   1.179  0.1702 -0.5974 -0.2472
 1863SOL    HW117243   4.216   5.466   1.231  0.6340 -0.3900 -0.4343
 1863SOL    HW217244   4.228   5.589   1.124  0.0415  1.5020  1.6370
 1864SOL     OW17245   8.005   2.132   1.392  0.0357 -0.4778  0.3099
 1864SOL    HW117246   8.031   2.093   1.303 -2.5070  0.0882 -0.7450
 1864SOL    HW217247   7.930   2.078   1.430 -0.9962  1.1404  0.6198
 1865SOL     OW17248   6.726   1.333   1.850 -0.3336 -0.2796  0.7368
 1865SOL    HW117249   6.725   1.417   1.904  0.8518  0.2874 -0.1100
 1865SOL    HW217250   6.794   1.270   1.887 -0.7665 -0.6103  0.9768
 1866SOL     OW17251   3.925   0.962   2.818 -0.2273  0.1460 -0.4646
 1866SOL    HW117252   3.879   0.896   2.760  2.3627 -0.4516 -1.9173
 1866SOL    HW217253   3.976   1.027   2.761  1.8763 -0.0920  1.0673
 1867SOL     OW17254   4.350   1.212   0.725 -0.3382  0.4171 -0.0503
 1867SOL    HW117255   4.291   1.291   0.713 -0.9226  0.1682  1.1606
 1867SOL    HW217256   4.311   1.134   0.676  0.5573  1.0225 -1.7584
 1868SOL     OW17257   4.727   2.989   7.160  0.0161 -0.0052  0.5391
 1868SOL    HW117258   4.799   3.027   7.101 -0.2847 -2.5746 -1.5962
 1868SOL    HW217259   4.764   2.967   7.250  1.4935  0.2790  0.0036
 1869SOL     OW17260   6.628   0.182   5.881  0.0902 -0.2352 -0.1965
 1869SOL    HW117261   6.604   0.092   5.844  0.9210  0.8363 -3.4669
 1869SOL    HW217262   6.563   0.250   5.847  0.2647  0.6342  1.1806
 1870SOL     OW17263   3.988   5.260   0.395 -0.3233  0.0105  0.8230
 1870SOL    HW117264   3.920   5.292   0.328 -0.6465 -1.9332  0.1918
 1870SOL    HW217265   3.941   5.239   0.481 -0.9925 -3.7685 -0.3886
 1871SOL     OW17266   6.812   3.803   1.268 -0.1534 -0.4760 -0.0463
 1871SOL    HW117267   6.852   3.753   1.345 -0.3754 -1.1033 -0.3308
 1871SOL    HW217268   6.764   3.884   1.301  0.0404 -0.5635  0.4424
 1872SOL     OW17269   7.131   2.031   2.885 -0.1834  0.1730  0.0669
 1872SOL    HW117270   7.152   2.123   2.852  2.0513 -0.5087 -0.5181
 1872SOL    HW217271   7.208   1.996   2.937 -0.9993 -1.3885  0.2496
 1873SOL     OW17272   8.885   3.575   1.142 -0.3323 -0.0765 -1.0543
 1873SOL    HW117273   8.877   3.519   1.225  1.2739 -2.4119 -2.3877
 1873SOL    HW217274   8.800   3.572   1.091 -0.7311 -0.1221 -0.3957
 1874SOL     OW17275   2.591   3.586   3.719  0.3919  0.6569 -0.1038
 1874SOL    HW117276   2.668   3.630   3.672  0.0375  1.5556  0.1474
 1874SOL    HW217277   2.604   3.592   3.818  0.1645  0.5107 -0.0644
 1875SOL     OW17278   7.920   0.538   5.492 -0.0026  0.2704  0.7371
 1875SOL    HW117279   7.889   0.443   5.489  0.3640  0.1861 -0.6112
 1875SOL    HW217280   7.937   0.564   5.587 -1.6746 -0.4931  1.2674
 1876SOL     OW17281   2.270   7.628   1.950  0.1726 -0.1334 -0.0841
 1876SOL    HW117282   2.344   7.610   1.886  0.6583  1.2486  0.0589
 1876SOL    HW217283   2.226   7.542   1.977  0.8494 -0.8362 -1.2035
 1877SOL     OW17284   3.638   1.545   1.211  1.0031  0.0664  0.0229
 1877SOL    HW117285   3.643   1.523   1.114  0.5688 -0.8189  0.1935
 1877SOL    HW217286   3.545   1.527   1.244  0.2083  3.5669 -0.1606
 1878SOL     OW17287   2.539   7.636   3.685  0.1835 -0.0457 -0.5704
 1878SOL    HW117288   2.540   7.537   3.675  0.9244 -0.0201 -0.7742
 1878SOL    HW217289   2.485   7.661   3.765  3.1994 -0.8442  1.8020
 1879SOL     OW17290   8.698   2.023   5.778  0.4314  0.0912  0.7253
 1879SOL    HW117291   8.684   2.120   5.800 -1.0592  0.1003 -0.1506
 1879SOL    HW217292   8.662   1.967   5.853 -1.7970  0.1788 -0.2277
 1880SOL     OW17293   7.386   8.549   7.134  0.0949  0.3044 -0.0763
 1880SOL    HW117294   7.403   8.640   7.095  3.7539 -0.8166 -1.2716
 1880SOL    HW217295   7.334   8.494   7.068 -1.4603  1.2596  0.3345
 1881SOL     OW17296   1.809   8.753   1.961  0.4866  0.2982  0.2633
 1881SOL    HW117297   1.853   8.778   1.875 -0.3321  0.1515 -0.2078
 1881SOL    HW217298   1.710   8.768   1.954  0.3667 -0.0556  1.0540
 1882SOL     OW17299   6.847   7.447   4.274 -0.2656  0.0500 -0.6834
 1882SOL    HW117300   6.902   7.394   4.210 -1.1901  0.7202 -2.0678
 1882SOL    HW217301   6.781   7.503   4.223 -3.3047 -1.8984  0.9901
 1883SOL     OW17302   1.636   6.460   0.254 -0.4683  0.1867 -0.6325
 1883SOL    HW117303   1.708   6.405   0.296  0.3858 -0.1511 -2.5236
 1883SOL    HW217304   1.592   6.516   0.325 -0.0289 -1.4257  0.9659
 1884SOL     OW17305   5.542   8.117   5.045  0.3430  0.1396 -0.8790
 1884SOL    HW117306   5.586   8.175   5.114 -0.8284  1.3246 -1.1051
 1884SOL    HW217307   5.569   8.022   5.060 -0.8165  0.1862  1.9909
 1885SOL     OW17308   7.630   5.625   1.054 -0.1622  0.0822  0.0728
 1885SOL    HW117309   7.550   5.605   0.997  0.0257 -0.9655  0.1689
 1885SOL    HW217310   7.669   5.713   1.027 -0.2325 -0.2798 -1.2583
 1886SOL     OW17311   4.876   4.422   3.069 -0.0673  0.6723  0.5419
 1886SOL    HW117312   4.962   4.428   3.019 -0.6267 -2.0863 -0.8534
 1886SOL    HW217313   4.816   4.497   3.041  1.2974  1.7365  0.4078
 1887SOL     OW17314   9.031   9.572   7.849  0.4634 -0.1422  0.2457
 1887SOL    HW117315   8.971   9.648   7.826  1.0560 -0.1009 -1.1826
 1887SOL    HW217316   9.116   9.607   7.887  0.4228 -0.1355  0.3333
 1888SOL     OW17317   1.696   8.371   5.414  0.1447 -0.0217  0.2021
 1888SOL    HW117318   1.630   8.302   5.445 -1.8842  2.1078  0.7724
 1888SOL    HW217319   1.761   8.390   5.488 -1.0725  0.7505  1.0994
 1889SOL     OW17320   0.062   1.384   6.442  0.6554 -0.0106 -0.1183
 1889SOL    HW117321   0.149   1.359   6.485  0.8493  0.5598 -0.1774
 1889SOL    HW217322   0.003   1.429   6.509 -0.0744 -1.4682  0.2498
 1890SOL     OW17323   3.144   5.722   3.596  0.2604  0.2745 -0.6591
 1890SOL    HW117324   3.124   5.759   3.506 -2.0264 -1.7403 -1.0219
 1890SOL    HW217325   3.069   5.741   3.658  1.1820  0.3842  0.4457
 1891SOL     OW17326   9.703   7.618   3.817 -0.7626 -0.0506  0.2214
 1891SOL    HW117327   9.680   7.557   3.892  1.0848  0.0077  0.8505
 1891SOL    HW217328   9.719   7.565   3.734  2.2409 -0.5746  1.1004
 1892SOL     OW17329   8.837   7.190   0.752  0.0351 -0.3576  0.2956
 1892SOL    HW117330   8.920   7.241   0.732 -1.5573  1.9319 -0.8084
 1892SOL    HW217331   8.796   7.225   0.836  0.2416 -1.5458  0.8937
 1893SOL     OW17332   0.538   8.154   4.999 -0.1622 -0.4373 -0.8392
 1893SOL    HW117333   0.472   8.133   4.927  1.3977  0.1993 -2.4964
 1893SOL    HW217334   0.539   8.253   5.015 -0.6574 -0.6036  0.2085
 1894SOL     OW17335   9.634   3.613   3.719 -0.0101  0.1791  0.1349
 1894SOL    HW117336   9.611   3.638   3.625  0.2847  2.0308  0.5397
 1894SOL    HW217337   9.569   3.544   3.752 -0.4359 -0.0870 -1.2390
 1895SOL     OW17338   5.083   4.048   0.710  0.8944 -0.0656 -0.1365
 1895SOL    HW117339   5.024   4.021   0.634  0.6985 -1.5980  0.5293
 1895SOL    HW217340   5.038   4.026   0.796  1.7113  0.3367  0.3979
 1896SOL     OW17341   8.781   9.944   1.851 -0.1437  0.7628  0.3308
 1896SOL    HW117342   8.865   9.891   1.850  0.6196  1.9811 -1.0920
 1896SOL    HW217343   8.712   9.899   1.795 -0.7500 -0.6678  2.1535
 1897SOL     OW17344   2.245   8.552   1.399  0.1129 -0.3030 -0.2751
 1897SOL    HW117345   2.292   8.637   1.422  1.9921 -1.3262 -0.2416
 1897SOL    HW217346   2.216   8.555   1.303  0.9065  0.0636 -0.5118
 1898SOL     OW17347   5.081   0.889   3.159 -0.5376 -0.2148 -0.2594
 1898SOL    HW117348   5.175   0.926   3.156 -0.3451 -0.7750 -1.7373
 1898SOL    HW217349   5.034   0.924   3.240  0.3419  1.5879 -0.4954
 1899SOL     OW17350   3.531   7.088   4.987 -0.0020  0.1187  0.3017
 1899SOL    HW117351   3.515   7.060   5.082  0.2046  0.0322  0.3127
 1899SOL    HW217352   3.468   7.040   4.927 -1.2007  1.3515  0.5552
 1900SOL     OW17353   1.966   3.993   1.480 -0.2034 -0.2947  0.2725
 1900SOL    HW117354   2.041   3.937   1.445  0.2899 -0.8075  2.1368
 1900SOL    HW217355   1.880   3.944   1.466 -0.1941  0.1861 -1.6316
 1901SOL     OW17356   0.617   3.957   2.055  0.1728  0.2904 -0.2799
 1901SOL    HW117357   0.639   4.054   2.043 -0.3436  0.3906 -0.4219
 1901SOL    HW217358   0.533   3.948   2.109  2.1560 -0.1373  2.9014
 1902SOL     OW17359   4.367   7.636   4.839 -0.1348 -0.3164  0.1805
 1902SOL    HW117360   4.368   7.730   4.803  0.0948 -0.1082  0.7295
 1902SOL    HW217361   4.288   7.623   4.898 -0.8486 -0.8458 -0.8776
 1903SOL     OW17362   5.739   0.266   1.667 -0.4627  0.0308  0.0345
 1903SOL    HW117363   5.789   0.353   1.667 -2.1358  1.0621 -2.3946
 1903SOL    HW217364   5.776   0.207   1.595 -2.6789  0.7858 -1.7441
 1904SOL     OW17365   1.865   5.022   1.962  0.0231  0.0821 -0.3322
 1904SOL    HW117366   1.815   4.936   1.947 -0.7875  0.3830  0.6160
 1904SOL    HW217367   1.820   5.096   1.911 -0.0905  0.2181 -0.0328
 1905SOL     OW17368   8.710   2.470   1.687  0.8019 -0.3590 -0.6555
 1905SOL    HW117369   8.715   2.453   1.589 -1.0725  0.6019 -0.9326
 1905SOL    HW217370   8.776   2.542   1.712 -0.1291  0.8276 -1.5547
 1906SOL     OW17371   4.537   0.873   1.220  0.4196  0.4316 -0.2021
 1906SOL    HW117372   4.573   0.785   1.188 -0.2961  0.9907 -2.6694
 1906SOL    HW217373   4.439   0.865   1.233  0.6786  0.2686  1.7671
 1907SOL     OW17374   9.261   8.702   3.206 -0.3927 -0.2581  0.1706
 1907SOL    HW117375   9.312   8.704   3.120  0.7203  1.3107  0.8421
 1907SOL    HW217376   9.262   8.609   3.243 -0.5197 -0.8567 -1.2780
 1908SOL     OW17377   8.796   0.720   6.905 -0.5184  1.0822 -0.0306
 1908SOL    HW117378   8.723   0.758   6.962 -1.1476 -0.6134  0.3290
 1908SOL    HW217379   8.796   0.765   6.816 -1.8522  1.2663  0.0586
 1909SOL     OW17380   3.126   1.995   3.357  0.0685  0.1007 -0.4298
 1909SOL    HW117381   3.214   1.998   3.308 -1.1735 -1.8118 -2.9565
 1909SOL    HW217382   3.117   2.076   3.415  2.7581  1.1801 -1.4092
 1910SOL     OW17383   0.203   2.048   1.305  0.0524 -0.1390 -0.9543
 1910SOL    HW117384   0.289   1.998   1.304  0.2459  0.1767 -0.1558
 1910SOL    HW217385   0.131   1.993   1.263  0.5175 -0.6295 -1.1022
 1911SOL     OW17386   9.557   4.768   7.024  0.2611  0.0692  0.1633
 1911SOL    HW117387   9.564   4.783   6.925  2.3520 -1.0476  0.1234
 1911SOL    HW217388   9.518   4.849   7.067  0.1339  0.8957 -1.4802
 1912SOL     OW17389   8.593   6.956   0.710  0.3169  0.1462  0.3601
 1912SOL    HW117390   8.640   6.886   0.655  1.3895  1.6041 -0.6195
 1912SOL    HW217391   8.572   6.918   0.800  2.1140 -1.0200  0.3288
 1913SOL     OW17392   8.355   9.740   4.627 -0.3960 -0.4189 -0.4919
 1913SOL    HW117393   8.415   9.661   4.612  0.5076  0.7217 -3.2053
 1913SOL    HW217394   8.410   9.824   4.630 -1.7393  0.5942 -2.5218
 1914SOL     OW17395   7.130   7.505   8.040 -0.0466 -0.3544 -0.6037
 1914SOL    HW117396   7.209   7.524   7.981 -2.3870  0.8406 -3.4608
 1914SOL    HW217397   7.070   7.440   7.995 -1.6251  0.1369  0.7505
 1915SOL     OW17398   4.938   9.299   3.019 -0.0321 -0.1814 -0.2141
 1915SOL    HW117399   4.922   9.353   3.102  0.0829 -0.4164 -0.0400
 1915SOL    HW217400   4.887   9.339   2.944 -0.1960 -0.0082 -0.0122
 1916SOL     OW17401   2.809   5.889   6.925  0.5025  0.2583 -0.2728
 1916SOL    HW117402   2.854   5.860   7.010 -1.1676  2.3291  1.3763
 1916SOL    HW217403   2.863   5.961   6.883  1.5342 -1.0341 -1.2140
 1917SOL     OW17404   9.945   4.555   1.791  0.2439 -0.7370 -0.0718
 1917SOL    HW117405   9.906   4.582   1.703  0.3117 -1.3068 -0.2811
 1917SOL    HW217406   9.897   4.601   1.865  1.4086  1.2142 -0.4924
 1918SOL     OW17407   8.277   9.881   5.077  0.1303 -0.4823 -0.3813
 1918SOL    HW117408   8.212   9.871   5.153 -0.9054 -2.2341 -1.4546
 1918SOL    HW217409   8.231   9.860   4.991  0.7244  3.5160 -1.7948
 1919SOL     OW17410   5.083   2.807   6.761 -0.4559 -0.0853  0.4205
 1919SOL    HW117411   5.099   2.708   6.757 -3.6533 -0.7245  1.8746
 1919SOL    HW217412   5.068   2.842   6.669  2.0465 -0.6506 -0.2536
 1920SOL     OW17413   8.189   0.009   3.404 -0.4129 -0.1142  0.3824
 1920SOL    HW117414   8.172   0.092   3.458 -0.2739 -0.4487  0.9346
 1920SOL    HW217415   8.244  -0.055   3.456  0.3572 -0.1316 -0.4391
 1921SOL     OW17416   3.820   0.267   4.281 -0.1237 -0.0278 -0.6850
 1921SOL    HW117417   3.795   0.274   4.377  1.5463  0.4193 -0.2614
 1921SOL    HW217418   3.824   0.171   4.254 -2.9593 -0.1024 -0.9790
 1922SOL     OW17419   3.100   4.169   7.546  0.4175  0.0163 -0.2318
 1922SOL    HW117420   3.150   4.159   7.632 -0.2001 -0.8654  0.0248
 1922SOL    HW217421   3.004   4.189   7.564  0.1575 -0.7609 -0.6989
 1923SOL     OW17422   6.283   1.884   2.279  0.0483  0.3280  0.2290
 1923SOL    HW117423   6.328   1.831   2.206  0.7932  1.3717 -0.0948
 1923SOL    HW217424   6.262   1.975   2.244 -2.5746 -0.2189  0.3176
 1924SOL     OW17425   7.758   6.305   2.591  0.4284 -0.3509  0.3246
 1924SOL    HW117426   7.763   6.378   2.659  0.2696  0.0098 -0.0528
 1924SOL    HW217427   7.718   6.224   2.633 -0.7225  0.2255  0.3555
 1925SOL     OW17428   4.390   7.329   5.446  0.1987  0.2206  0.1222
 1925SOL    HW117429   4.474   7.371   5.410  0.6304 -1.2111 -0.5550
 1925SOL    HW217430   4.333   7.299   5.369  0.1307 -0.9071  0.6135
 1926SOL     OW17431   3.269   6.440   5.093  0.4966 -0.0924 -0.0873
 1926SOL    HW117432   3.328   6.364   5.062  0.5895  0.2657 -0.7960
 1926SOL    HW217433   3.308   6.527   5.062  0.6074  0.2857  1.0701
 1927SOL     OW17434   8.882   5.721   7.455  0.0176 -0.2329  0.2554
 1927SOL    HW117435   8.864   5.710   7.357  0.9370 -0.6356  0.1312
 1927SOL    HW217436   8.936   5.803   7.471  0.0292 -0.2685  0.4062
 1928SOL     OW17437   6.334   9.788   3.050 -0.3297  0.0227  0.0918
 1928SOL    HW117438   6.375   9.870   3.009 -1.6084 -0.3712 -2.0589
 1928SOL    HW217439   6.270   9.815   3.122 -1.5704  0.9955 -1.3362
 1929SOL     OW17440   2.406   0.126   1.797  0.0630 -0.6780  0.0832
 1929SOL    HW117441   2.341   0.186   1.843  0.5247  0.6939 -1.0065
 1929SOL    HW217442   2.420   0.158   1.703  2.2784 -0.9481  0.2900
 1930SOL     OW17443   7.137   2.208   4.875 -0.0549 -0.5038 -0.3609
 1930SOL    HW117444   7.070   2.134   4.873  0.0960 -0.7020  1.3210
 1930SOL    HW217445   7.223   2.173   4.913  0.0641  0.5077  0.2958
 1931SOL     OW17446   1.516   9.674   3.660 -0.3808  0.4802 -0.0161
 1931SOL    HW117447   1.589   9.628   3.710  0.7511  1.0631 -1.1299
 1931SOL    HW217448   1.498   9.626   3.574 -0.3577  1.1319 -0.3895
 1932SOL     OW17449   2.384   6.702   2.687 -0.3264 -0.1604  0.3199
 1932SOL    HW117450   2.302   6.715   2.632 -0.4102  1.0817  0.7253
 1932SOL    HW217451   2.370   6.626   2.751 -1.5153  0.6895  1.0750
 1933SOL     OW17452   8.133   5.525   0.634  0.0995  0.0146  0.1218
 1933SOL    HW117453   8.118   5.565   0.544  1.9144 -0.9498 -0.6518
 1933SOL    HW217454   8.063   5.557   0.697 -2.0433 -0.3975 -1.9705
 1934SOL     OW17455   1.746   5.977   3.013  0.7423 -0.4436  0.0197
 1934SOL    HW117456   1.673   5.910   3.027  1.0518 -0.4198  1.9115
 1934SOL    HW217457   1.729   6.028   2.929 -0.6088 -1.4686 -0.3450
 1935SOL     OW17458   9.767   9.550   7.143  0.3342 -0.8225 -0.0066
 1935SOL    HW117459   9.783   9.635   7.193 -1.0828  0.9105 -2.4103
 1935SOL    HW217460   9.851   9.522   7.096  0.5078 -0.1527 -0.1004
 1936SOL     OW17461   0.814   4.663   2.026  0.5844  0.2748  0.1864
 1936SOL    HW117462   0.827   4.634   1.931  0.9768 -0.8747  0.5914
 1936SOL    HW217463   0.894   4.714   2.057  1.1997 -0.8421  0.4520
 1937SOL     OW17464   1.749   5.506   7.607  0.1204  0.2249 -0.8846
 1937SOL    HW117465   1.763   5.450   7.526  0.3128 -0.7966 -0.1566
 1937SOL    HW217466   1.838   5.533   7.644  0.0333  0.7174 -1.0371
 1938SOL     OW17467   1.059   1.816   1.561 -0.2879 -0.6948  0.4061
 1938SOL    HW117468   1.057   1.749   1.487  0.4395 -1.0127  0.6687
 1938SOL    HW217469   1.022   1.903   1.529 -1.2933 -1.2350  0.0779
 1939SOL     OW17470   2.963   6.564   6.956  0.0397  0.1942  0.1361
 1939SOL    HW117471   2.981   6.644   6.900  2.8302 -0.8423 -0.5536
 1939SOL    HW217472   2.988   6.582   7.051 -2.7601  1.2785  0.7146
 1940SOL     OW17473   9.927   6.252   5.786 -0.7351  0.4169  0.1458
 1940SOL    HW117474   9.830   6.235   5.801 -0.7259  0.9144  0.7519
 1940SOL    HW217475   9.944   6.350   5.779 -0.5351  0.2802 -1.7640
 1941SOL     OW17476   0.857   0.803   2.318  0.2486  0.7933 -0.3283
 1941SOL    HW117477   0.886   0.890   2.277 -1.1357  1.5446  0.2439
 1941SOL    HW217478   0.774   0.818   2.372  0.9413 -0.5524  1.1596
 1942SOL     OW17479   1.410   3.198   7.858  0.1604 -0.3241  0.0656
 1942SOL    HW117480   1.465   3.159   7.785  1.3331  0.1926  0.6566
 1942SOL    HW217481   1.365   3.282   7.826  0.2813 -0.3668 -0.2103
 1943SOL     OW17482   8.507   6.240   5.816 -0.1076  0.2133  0.2133
 1943SOL    HW117483   8.444   6.221   5.892  0.6726 -2.2916  0.2637
 1943SOL    HW217484   8.458   6.231   5.729  0.0236 -1.2181  0.2733
 1944SOL     OW17485   4.217   3.356   0.201 -0.0749 -0.3978  0.2649
 1944SOL    HW117486   4.183   3.434   0.254 -0.0066 -0.2209  0.0479
 1944SOL    HW217487   4.240   3.281   0.264 -0.7249 -0.4657  0.4294
 1945SOL     OW17488   1.025   6.215   6.484 -0.1807  0.1277  0.3427
 1945SOL    HW117489   0.952   6.284   6.489  0.3625  0.7474 -0.1308
 1945SOL    HW217490   1.007   6.142   6.549 -0.4660  1.0056  1.2562
 1946SOL     OW17491   2.482   5.132   0.399  0.2816  0.3740 -0.4229
 1946SOL    HW117492   2.460   5.166   0.491  0.5195  1.3336 -0.7118
 1946SOL    HW217493   2.515   5.038   0.406 -1.5077 -0.2316  0.2726
 1947SOL     OW17494   3.481   8.498   1.466  0.2431 -0.0340  0.5095
 1947SOL    HW117495   3.390   8.491   1.505  0.1905  1.4497  0.6641
 1947SOL    HW217496   3.549   8.485   1.538  0.1797 -2.1244  0.2258
 1948SOL     OW17497   3.214   6.360   2.269 -0.5289 -0.4509  0.4775
 1948SOL    HW117498   3.251   6.301   2.342 -2.9668 -0.1222  2.0389
 1948SOL    HW217499   3.202   6.453   2.304 -0.1662  0.1050 -0.8581
 1949SOL     OW17500   3.820   8.622   7.310  0.4960 -0.2151  0.1860
 1949SOL    HW117501   3.726   8.605   7.283  1.0889 -0.6401 -1.6880
 1949SOL    HW217502   3.830   8.718   7.338 -0.1205  0.3195 -1.3355
 1950SOL     OW17503   4.364   1.047   6.668 -0.2086  0.0527  0.2862
 1950SOL    HW117504   4.397   1.085   6.582 -0.0472 -0.8658 -0.0547
 1950SOL    HW217505   4.407   1.096   6.744  1.1843 -0.4668 -0.1476
 1951SOL     OW17506   7.382   1.511   4.432 -0.4357  0.0794  0.5456
 1951SOL    HW117507   7.445   1.474   4.364  0.1411  0.8720  0.6532
 1951SOL    HW217508   7.404   1.606   4.450 -1.0961  0.1001  1.2501
 1952SOL     OW17509   3.303   0.715   5.687  0.0288 -0.1895  0.4523
 1952SOL    HW117510   3.306   0.815   5.682 -0.9885 -0.1719  0.1246
 1952SOL    HW217511   3.336   0.686   5.777 -0.8874  0.5122  1.0288
 1953SOL     OW17512   7.587   0.290   5.047  0.7976 -0.4116  0.1042
 1953SOL    HW117513   7.554   0.206   5.090  0.2229  0.2214  0.9181
 1953SOL    HW217514   7.621   0.352   5.118 -1.4579  1.2271 -0.1947
 1954SOL     OW17515   0.225   7.800   2.082  0.2182  0.2229  0.5823
 1954SOL    HW117516   0.198   7.896   2.078  1.4624  0.6151  1.2173
 1954SOL    HW217517   0.158   7.744   2.033 -1.3230  1.2233  1.5151
 1955SOL     OW17518   3.796   5.345   0.794  0.2294 -0.1871  0.0444
 1955SOL    HW117519   3.698   5.349   0.776  0.5801  0.0217 -1.9951
 1955SOL    HW217520   3.827   5.434   0.827 -0.1181  0.0063 -0.1407
 1956SOL     OW17521   7.310   5.877   1.218 -0.0845 -0.0654  0.1121
 1956SOL    HW117522   7.317   5.783   1.253 -0.2018 -0.9305 -2.0682
 1956SOL    HW217523   7.401   5.919   1.218  0.6472 -1.5205 -2.3344
 1957SOL     OW17524   5.663   0.122   7.480 -0.4772 -0.4752 -0.0164
 1957SOL    HW117525   5.603   0.060   7.531 -1.0321 -0.0217 -0.1174
 1957SOL    HW217526   5.756   0.116   7.517 -0.5379 -1.3206  0.0173
 1958SOL     OW17527   9.988   3.935   7.685 -0.0324  0.3973  0.1085
 1958SOL    HW117528   9.947   4.010   7.737  2.4595  2.8069 -1.3163
 1958SOL    HW217529  10.051   3.885   7.744  2.3221  2.7431 -0.3529
 1959SOL     OW17530   7.501   9.514   7.728  0.2249  0.0136  0.4086
 1959SOL    HW117531   7.498   9.595   7.786  0.8680  1.3544 -1.4003
 1959SOL    HW217532   7.455   9.438   7.775  0.0950  1.2527  2.3423
 1960SOL     OW17533   0.787   5.004   3.639 -0.0041 -0.9989  0.4103
 1960SOL    HW117534   0.702   5.011   3.692  0.7136  0.8092  1.3483
 1960SOL    HW217535   0.765   4.975   3.546 -1.6601 -0.4451  0.6040
 1961SOL     OW17536   8.861   6.817   4.958  0.2293 -0.0073  0.8589
 1961SOL    HW117537   8.894   6.911   4.959  0.9210 -0.1864 -2.3090
 1961SOL    HW217538   8.804   6.802   4.877  0.1959 -2.3440  1.2754
 1962SOL     OW17539   2.552   6.884   5.443  0.3009 -0.0035 -0.3109
 1962SOL    HW117540   2.558   6.925   5.534  3.1102  0.5005 -0.6783
 1962SOL    HW217541   2.603   6.799   5.441  0.0968 -0.1133 -1.3716
 1963SOL     OW17542   7.463   3.036   2.023 -0.3898 -0.6549 -0.2554
 1963SOL    HW117543   7.382   2.977   2.017 -0.2946 -0.8464  0.3359
 1963SOL    HW217544   7.503   3.047   1.932  0.2502 -2.4246 -0.2031
 1964SOL     OW17545   2.405   6.331   6.479  0.8288 -0.4018  0.2881
 1964SOL    HW117546   2.396   6.315   6.381 -1.1694  2.0470  0.0161
 1964SOL    HW217547   2.380   6.247   6.529 -0.3596 -0.9872 -1.2391
 1965SOL     OW17548   3.468   8.044   3.597 -0.7268  0.4952  0.2922
 1965SOL    HW117549   3.498   7.948   3.597 -2.0595  0.0585  0.7259
 1965SOL    HW217550   3.544   8.103   3.623 -0.4185 -0.6395  2.0681
 1966SOL     OW17551   3.759   9.015   4.862  0.6244 -0.3470  0.0679
 1966SOL    HW117552   3.759   8.917   4.880  1.9859 -0.4015 -0.1188
 1966SOL    HW217553   3.850   9.052   4.881 -0.2932  1.1768  1.6230
 1967SOL     OW17554   3.095   2.492   6.196  0.2182 -0.3607  0.1484
 1967SOL    HW117555   3.083   2.548   6.278  0.3088 -1.0696  0.6484
 1967SOL    HW217556   3.188   2.503   6.161 -0.0938  0.6307 -0.3744
 1968SOL     OW17557   3.943   3.488   6.965  0.2297 -0.2357  0.6838
 1968SOL    HW117558   3.922   3.543   6.884 -0.1133 -0.5602  0.5513
 1968SOL    HW217559   3.967   3.548   7.041  0.4912  0.0750  0.3583
 1969SOL     OW17560   0.250   6.961   3.164  0.3309  0.2774  0.3387
 1969SOL    HW117561   0.321   6.920   3.220 -0.2044 -1.5268 -0.2460
 1969SOL    HW217562   0.161   6.948   3.208 -0.1909 -1.8838 -1.2751
 1970SOL     OW17563   5.182   9.619   3.173 -0.0144 -0.3156 -0.2074
 1970SOL    HW117564   5.181   9.552   3.247  0.4140  2.0326  1.9959
 1970SOL    HW217565   5.104   9.681   3.183  0.9346  0.9916 -0.8130
 1971SOL     OW17566   4.538   5.719   1.013 -0.1610 -0.2592  0.3340
 1971SOL    HW117567   4.518   5.658   1.090  2.0388 -1.1079  0.2740
 1971SOL    HW217568   4.573   5.665   0.937  0.0142  0.8771 -0.3993
 1972SOL     OW17569   4.436   3.757   5.852  0.0612  0.1406  0.1147
 1972SOL    HW117570   4.377   3.744   5.932  1.9429  0.7400  1.6667
 1972SOL    HW217571   4.419   3.847   5.812 -2.4479 -1.0390 -1.5346
 1973SOL     OW17572   2.278   9.217   3.902  0.4535 -0.1211 -0.1486
 1973SOL    HW117573   2.301   9.149   3.972  0.5219  1.9973  1.9185
 1973SOL    HW217574   2.332   9.199   3.820  0.5664 -2.4879  0.3939
 1974SOL     OW17575   9.476   5.265   0.414  0.0362  0.3453 -0.2212
 1974SOL    HW117576   9.466   5.263   0.514  1.5865 -2.4243 -0.0468
 1974SOL    HW217577   9.531   5.343   0.387 -0.3888  1.1085  1.0854
 1975SOL     OW17578   1.907   2.260   4.204  0.5178 -0.0894  0.4440
 1975SOL    HW117579   1.826   2.318   4.194  1.5082  1.4247  0.9378
 1975SOL    HW217580   1.884   2.166   4.181 -0.8210  0.7206 -1.7063
 1976SOL     OW17581   3.453   3.475   3.098 -0.3153 -0.1324  0.3206
 1976SOL    HW117582   3.549   3.452   3.082 -0.2719  0.8880 -1.0194
 1976SOL    HW217583   3.397   3.393   3.086  0.2506 -0.4444 -0.2428
 1977SOL     OW17584   1.277   5.716   6.545 -0.6062  0.2543 -0.1437
 1977SOL    HW117585   1.287   5.681   6.452 -1.1934 -0.8468  0.1924
 1977SOL    HW217586   1.365   5.707   6.593  0.0177  1.9322 -0.9502
 1978SOL     OW17587   8.486   0.358   5.325 -0.2082  0.2008  0.1434
 1978SOL    HW117588   8.504   0.418   5.247  2.6573 -2.7939 -1.6045
 1978SOL    HW217589   8.405   0.303   5.306  0.5572 -0.6137 -0.8307
 1979SOL     OW17590   8.704   3.707   3.632 -0.1288  0.2389  0.1331
 1979SOL    HW117591   8.615   3.674   3.603 -0.3335  2.0446 -1.4013
 1979SOL    HW217592   8.695   3.754   3.720 -0.6662  0.2182  0.0910
 1980SOL     OW17593   0.150   6.636   3.689 -0.2756  0.1452 -0.0916
 1980SOL    HW117594   0.062   6.633   3.736 -0.2942 -0.3736 -0.1519
 1980SOL    HW217595   0.136   6.655   3.592 -0.3741 -0.6514 -0.2345
 1981SOL     OW17596   2.609   8.627   1.062 -0.3824 -0.6101 -0.1856
 1981SOL    HW117597   2.621   8.676   1.149  2.3865 -0.9108 -0.3349
 1981SOL    HW217598   2.661   8.542   1.064  1.0666  0.1539 -2.7043
 1982SOL     OW17599   0.195   2.897   6.539  0.1097  0.4935 -0.4763
 1982SOL    HW117600   0.234   2.961   6.606  0.8843 -0.1064 -0.3442
 1982SOL    HW217601   0.269   2.846   6.495 -0.3712  1.1700 -2.0844
 1983SOL     OW17602   9.605   1.164   5.393 -0.0530 -0.1499 -0.3631
 1983SOL    HW117603   9.543   1.194   5.466  0.5710  1.9418 -0.6611
 1983SOL    HW217604   9.688   1.127   5.434 -0.0536  0.2385 -0.0049
 1984SOL     OW17605   1.900   2.293   7.865 -0.0182 -0.3878 -0.5950
 1984SOL    HW117606   1.959   2.280   7.944 -0.7234 -0.7224 -0.1123
 1984SOL    HW217607   1.826   2.226   7.867 -1.3514  1.0693 -0.3071
 1985SOL     OW17608   7.256   0.990   6.302  0.2449 -0.5707 -0.0565
 1985SOL    HW117609   7.200   1.071   6.319  0.4941 -0.2028 -0.9743
 1985SOL    HW217610   7.197   0.910   6.291  0.0318 -0.6672  1.6366
 1986SOL     OW17611   0.912   7.974   1.772  0.1552  0.1532  0.2894
 1986SOL    HW117612   0.878   7.902   1.832  0.1347  0.0052  0.1002
 1986SOL    HW217613   0.868   7.967   1.683  0.3521  0.2352  0.1851
 1987SOL     OW17614   7.805   4.411   6.741  0.1720  0.1782 -0.1140
 1987SOL    HW117615   7.857   4.343   6.793  0.2619 -0.4188 -0.9687
 1987SOL    HW217616   7.720   4.370   6.710  0.3420  0.3806 -0.8443
 1988SOL     OW17617   2.492   1.258   2.983 -0.5645  0.0796 -0.0763
 1988SOL    HW117618   2.535   1.341   2.947 -1.6022 -0.1319 -1.8452
 1988SOL    HW217619   2.414   1.233   2.926 -1.9807 -0.5581  2.0539
 1989SOL     OW17620   0.829   6.816   3.579  0.3581 -0.2846 -0.0796
 1989SOL    HW117621   0.861   6.722   3.563  1.0895 -0.1620  0.6458
 1989SOL    HW217622   0.907   6.874   3.602 -0.2614  0.2219  0.7627
 1990SOL     OW17623   2.904   1.301   2.904 -0.1909  0.2396 -0.3133
 1990SOL    HW117624   2.835   1.327   2.836  0.1344 -2.1618 -1.6236
 1990SOL    HW217625   2.967   1.236   2.863  2.6509  2.0740  0.9974
 1991SOL     OW17626   8.079   8.961   6.073 -0.8271  0.3427  0.2106
 1991SOL    HW117627   8.079   8.886   6.007  0.6391 -0.7701  1.4465
 1991SOL    HW217628   8.172   8.992   6.087 -0.8554 -0.8261  3.2992
 1992SOL     OW17629   3.973   9.070   1.733  0.6834  0.4078 -0.0416
 1992SOL    HW117630   3.921   9.028   1.659  0.3827  0.0154  0.3870
 1992SOL    HW217631   4.026   9.147   1.698  1.6530 -0.6547 -0.9405
 1993SOL     OW17632   8.978   1.632   0.301  0.2799 -0.0668 -0.6418
 1993SOL    HW117633   8.902   1.695   0.286  1.2993  1.0960 -1.0287
 1993SOL    HW217634   8.999   1.584   0.215  0.6952  0.4304 -0.8212
 1994SOL     OW17635   0.230   0.907   3.672 -0.4681 -0.5366  0.4808
 1994SOL    HW117636   0.182   0.961   3.741  0.2509 -0.0266  0.5898
 1994SOL    HW217637   0.295   0.845   3.717  0.9608  0.7345  0.2243
 1995SOL     OW17638   6.890   7.569   2.905  0.7753 -0.7516  0.4494
 1995SOL    HW117639   6.944   7.634   2.958  0.2034 -0.5743  0.8265
 1995SOL    HW217640   6.797   7.566   2.942 -0.1069  0.6085 -1.5736
 1996SOL     OW17641   3.182   6.426   6.542 -0.0525  0.6229  0.1665
 1996SOL    HW117642   3.218   6.518   6.560 -0.9333  0.7420  1.4007
 1996SOL    HW217643   3.145   6.388   6.626  0.1230 -0.8009 -0.3850
 1997SOL     OW17644   9.869   3.242   1.159 -0.7963  0.0924 -0.8833
 1997SOL    HW117645   9.868   3.160   1.102  1.1569  0.2574 -1.2132
 1997SOL    HW217646   9.788   3.244   1.217 -0.3493 -2.6103 -0.0993
 1998SOL     OW17647   1.592   3.030   0.508 -0.0541 -0.2628 -0.2721
 1998SOL    HW117648   1.610   3.128   0.497 -1.1660 -0.2449 -2.1580
 1998SOL    HW217649   1.679   2.981   0.516  0.4862  1.0119  2.2080
 1999SOL     OW17650   3.204   2.297   1.651  0.8181 -0.3430 -0.0009
 1999SOL    HW117651   3.168   2.214   1.694  0.1215 -0.2648 -0.4284
 1999SOL    HW217652   3.174   2.377   1.703  2.1393 -0.4036  0.8604
 2000SOL     OW17653   8.959   0.678   7.106  0.3248  0.1771 -0.3963
 2000SOL    HW117654   9.039   0.622   7.084  0.4272  0.4227 -0.6408
 2000SOL    HW217655   8.901   0.687   7.025  0.7243  1.1103 -0.5880
 2001SOL     OW17656   8.294   1.374   7.516 -0.2230  0.2089  0.0428
 2001SOL    HW117657   8.196   1.353   7.519 -0.0476 -0.3552  2.4536
 2001SOL    HW217658   8.312   1.458   7.566  0.8238 -0.9024  1.5584
 2002SOL     OW17659   0.318   2.178   5.470  0.3984 -0.4232 -0.7521
 2002SOL    HW117660   0.359   2.140   5.387  0.1286  0.5704 -1.3469
 2002SOL    HW217661   0.269   2.262   5.447  0.0551 -0.3180  0.3636
 2003SOL     OW17662   6.137   5.035   0.032  0.3384  0.0907  0.0450
 2003SOL    HW117663   6.172   5.108  -0.027 -1.4176 -0.7062 -2.0177
 2003SOL    HW217664   6.166   5.053   0.126  1.1173  2.6999 -0.6332
 2004SOL     OW17665   4.122   7.832   3.053  0.6263 -0.1071  0.3247
 2004SOL    HW117666   4.121   7.922   3.096  0.4747 -1.5944  3.5241
 2004SOL    HW217667   4.200   7.825   2.991  1.2177  1.8690  0.8228
 2005SOL     OW17668   2.260   6.889   0.068 -0.6522 -0.0816  0.0304
 2005SOL    HW117669   2.203   6.838   0.003 -0.0750 -1.0752  0.2931
 2005SOL    HW217670   2.225   6.874   0.161 -2.5518  2.7447 -0.1777
 2006SOL     OW17671   8.820   2.509   5.213 -0.1365 -0.0256  0.2409
 2006SOL    HW117672   8.782   2.601   5.201 -0.0745  0.1253  1.1674
 2006SOL    HW217673   8.775   2.446   5.150  0.5733  0.8465 -1.1591
 2007SOL     OW17674   1.316   6.971   5.371 -0.1532  0.1888 -0.4522
 2007SOL    HW117675   1.221   6.952   5.348 -0.3547  1.4100 -0.6751
 2007SOL    HW217676   1.363   7.011   5.293 -0.5671  3.3673  0.8428
 2008SOL     OW17677   9.942   1.694   4.523  0.3432 -0.7600 -0.3055
 2008SOL    HW117678   9.902   1.613   4.567  1.0406 -0.5336  0.7660
 2008SOL    HW217679  10.031   1.714   4.565  0.0906  0.6763 -0.4386
 2009SOL     OW17680   4.439   4.982   5.338 -1.0722 -0.1996  0.0416
 2009SOL    HW117681   4.532   4.969   5.302 -0.2712 -1.0050  2.2813
 2009SOL    HW217682   4.417   5.080   5.337 -0.7239 -0.1207 -1.7353
 2010SOL     OW17683   1.577   5.442   7.276  0.0289 -0.0191  0.5596
 2010SOL    HW117684   1.653   5.508   7.280 -0.5632  0.6423  0.9248
 2010SOL    HW217685   1.492   5.487   7.303 -0.7602 -0.3671 -1.2561
 2011SOL     OW17686   7.485   7.051   4.985 -0.6038 -0.8556  0.0537
 2011SOL    HW117687   7.432   7.124   4.943 -0.5129 -1.6197 -1.4326
 2011SOL    HW217688   7.556   7.020   4.922  1.4454 -0.0748  1.8883
 2012SOL     OW17689   6.798   4.973   1.056 -0.7889  0.4584  0.1097
 2012SOL    HW117690   6.866   4.911   1.094  0.0443  1.9742  1.1697
 2012SOL    HW217691   6.844   5.047   1.007 -1.6307  1.8373  1.3473
 2013SOL     OW17692   5.454   9.948   3.341  0.6117 -0.3884  0.1838
 2013SOL    HW117693   5.494   9.874   3.286 -0.1769  1.3063 -2.7905
 2013SOL    HW217694   5.356   9.932   3.352  0.5000  0.0467 -0.1841
 2014SOL     OW17695   8.094   5.231   2.353 -0.0959 -0.0643  0.2945
 2014SOL    HW117696   8.144   5.254   2.436 -0.5384  0.2713  0.4705
 2014SOL    HW217697   8.137   5.152   2.308  0.2984 -0.0768  0.6991
 2015SOL     OW17698   5.980   0.333   1.073 -0.3020 -1.1509  0.2447
 2015SOL    HW117699   5.997   0.247   1.023 -1.2880 -1.3190  0.1977
 2015SOL    HW217700   5.955   0.312   1.167 -0.3712 -0.9006  0.2818
 2016SOL     OW17701   4.797   9.699   1.552 -0.3881 -0.5612  0.1514
 2016SOL    HW117702   4.866   9.762   1.516 -1.2244 -0.6775 -1.7480
 2016SOL    HW217703   4.706   9.738   1.538 -0.7834 -1.0817  1.2538
 2017SOL     OW17704   3.258   9.703   4.924  0.6108  0.4562  0.3096
 2017SOL    HW117705   3.255   9.753   4.838 -0.8206 -0.1537 -0.0163
 2017SOL    HW217706   3.353   9.692   4.953  0.9635  2.9316  0.1608
 2018SOL     OW17707   2.314   6.223   3.788  0.1334  0.1658  0.1908
 2018SOL    HW117708   2.263   6.305   3.760  0.3165  0.1014 -0.3316
 2018SOL    HW217709   2.320   6.220   3.888 -1.1690  0.0049  0.2698
 2019SOL     OW17710   6.684   4.784   1.672  0.1985  0.3739  0.1416
 2019SOL    HW117711   6.651   4.728   1.748  0.7830 -0.5004 -0.2361
 2019SOL    HW217712   6.606   4.823   1.623 -0.2717 -1.0889 -0.3154
 2020SOL     OW17713   0.139   7.591   4.502  0.4467  0.3555  0.3700
 2020SOL    HW117714   0.130   7.605   4.403 -3.5510 -0.9097  0.4632
 2020SOL    HW217715   0.124   7.677   4.550  0.3667  0.5564 -0.0170
 2021SOL     OW17716   3.445   6.300   1.184  0.2765  0.0629  0.1300
 2021SOL    HW117717   3.428   6.214   1.231 -1.3364  1.2849  1.8589
 2021SOL    HW217718   3.486   6.366   1.248 -0.4119  1.2235 -0.6006
 2022SOL     OW17719   7.330   6.102   5.443  0.6035 -0.3462 -0.0975
 2022SOL    HW117720   7.278   6.026   5.482  0.8099  0.6029  2.0775
 2022SOL    HW217721   7.280   6.188   5.457  2.7739  0.6046  2.1690
 2023SOL     OW17722   9.469   6.342   6.288  0.2107  0.1993 -0.5435
 2023SOL    HW117723   9.545   6.278   6.293 -0.3260 -0.3943  0.1798
 2023SOL    HW217724   9.498   6.432   6.322  0.7826  0.1770 -0.9677
 2024SOL     OW17725   3.923   4.189   3.737 -0.0006  0.1820  0.0803
 2024SOL    HW117726   3.992   4.129   3.778 -0.2008 -0.0890  0.0174
 2024SOL    HW217727   3.834   4.171   3.777 -0.1837 -0.0256 -0.4141
 2025SOL     OW17728   2.251   4.968   5.506  0.3871 -0.0997  0.0896
 2025SOL    HW117729   2.335   4.913   5.504  0.1442 -0.4763  0.3824
 2025SOL    HW217730   2.176   4.914   5.544 -0.5604 -0.5645 -2.3278
 2026SOL     OW17731   0.098   2.252   7.008 -0.1629 -0.4403 -0.4876
 2026SOL    HW117732   0.151   2.248   6.924 -0.1660 -0.5174 -0.4865
 2026SOL    HW217733   0.056   2.163   7.026  1.2266 -0.9115  0.4964
 2027SOL     OW17734   1.639   7.331   2.170  0.1258  0.5933 -0.0100
 2027SOL    HW117735   1.560   7.356   2.115 -1.5447 -1.0542  1.5542
 2027SOL    HW217736   1.722   7.334   2.114 -1.1792  1.4175 -1.9160
 2028SOL     OW17737   2.614   1.913   4.908 -0.1890  0.6174 -0.5226
 2028SOL    HW117738   2.632   2.006   4.939 -0.8812  0.8975 -0.9413
 2028SOL    HW217739   2.696   1.875   4.867 -0.0385  1.2171 -0.7762
 2029SOL     OW17740   3.840   0.541   7.181  0.1818 -0.6342  0.3588
 2029SOL    HW117741   3.904   0.610   7.147 -0.5363  0.4027  1.0805
 2029SOL    HW217742   3.819   0.477   7.107  1.0885 -0.2625 -0.2413
 2030SOL     OW17743   6.600   9.516   6.585 -0.3632 -0.1459  0.5517
 2030SOL    HW117744   6.700   9.520   6.588 -0.3974  0.8501  0.8513
 2030SOL    HW217745   6.568   9.540   6.494 -0.3022 -1.1373  0.2727
 2031SOL     OW17746   2.899   8.312   4.673 -0.0180 -0.9871  0.1178
 2031SOL    HW117747   2.923   8.231   4.726 -0.4238 -0.5958  0.9050
 2031SOL    HW217748   2.895   8.288   4.576  1.5847 -1.5071  0.1699
 2032SOL     OW17749   0.110   5.425   5.884 -0.3259 -0.2830  0.1308
 2032SOL    HW117750   0.146   5.516   5.901  0.1585 -0.2342 -1.1599
 2032SOL    HW217751   0.113   5.372   5.969  1.6713  0.0914  0.3017
 2033SOL     OW17752   0.578   9.677   3.975 -0.1534  0.4256 -0.0521
 2033SOL    HW117753   0.574   9.582   3.947  1.7141  0.3878 -0.2822
 2033SOL    HW217754   0.517   9.692   4.053  1.0234 -1.4239  1.2634
 2034SOL     OW17755   2.845   3.157   4.078  0.2358 -0.0727 -0.4819
 2034SOL    HW117756   2.907   3.178   4.153 -0.6977  1.1452 -0.0488
 2034SOL    HW217757   2.753   3.190   4.099 -0.4030 -1.1454 -1.4657
 2035SOL     OW17758   1.241   2.656   1.314  0.2441  0.3601  0.0027
 2035SOL    HW117759   1.336   2.634   1.338  0.2670  0.3683 -0.0801
 2035SOL    HW217760   1.228   2.644   1.216 -0.1602 -0.8246  0.1952
 2036SOL     OW17761   6.190   0.836   5.242 -0.0684 -0.2761  0.2258
 2036SOL    HW117762   6.285   0.803   5.237 -0.8646 -3.0812  2.7592
 2036SOL    HW217763   6.162   0.844   5.337 -2.6307 -0.0880 -0.5027
 2037SOL     OW17764   5.516   3.584   0.649 -0.3905 -0.8720  0.6316
 2037SOL    HW117765   5.492   3.534   0.566 -0.1271 -0.4105  0.2744
 2037SOL    HW217766   5.433   3.624   0.689 -0.3557 -0.0554 -0.0919
 2038SOL     OW17767   4.635   1.079   7.029  0.2448  0.8186 -0.0719
 2038SOL    HW117768   4.672   1.134   7.104 -0.2099 -0.6683  1.2567
 2038SOL    HW217769   4.699   1.006   7.007 -0.9191 -0.4678  0.7931
 2039SOL     OW17770   4.174   7.374   1.783  0.5747 -0.3125  0.5333
 2039SOL    HW117771   4.076   7.395   1.796  0.1445 -1.7322 -0.4055
 2039SOL    HW217772   4.226   7.418   1.856 -0.9041 -0.6051  1.8040
 2040SOL     OW17773   9.287   8.728   2.369  0.2630 -0.2191  0.1353
 2040SOL    HW117774   9.354   8.674   2.318  1.6620  1.2456  0.3848
 2040SOL    HW217775   9.299   8.713   2.467  0.2982  0.1202  0.1847
 2041SOL     OW17776   7.661   4.276   0.476 -0.7281 -0.4965  0.4595
 2041SOL    HW117777   7.602   4.336   0.531 -0.7068  0.8956 -0.9857
 2041SOL    HW217778   7.754   4.279   0.511 -0.3704  1.6489 -0.5901
 2042SOL     OW17779   1.789   4.234   6.463 -0.2832  0.2026  0.2977
 2042SOL    HW117780   1.760   4.305   6.399  1.7396 -0.0062 -0.8860
 2042SOL    HW217781   1.762   4.144   6.428 -1.3251  0.2435  0.9591
 2043SOL     OW17782   5.021   4.952   3.239 -0.3787 -0.7013  0.2724
 2043SOL    HW117783   4.937   4.969   3.292  0.1307  0.6480  0.6717
 2043SOL    HW217784   5.062   5.040   3.213  0.5009 -1.3596 -0.5787
 2044SOL     OW17785   9.416   1.632   1.799  0.0842 -0.1056  0.2006
 2044SOL    HW117786   9.484   1.584   1.743  1.3847  0.7483  1.0179
 2044SOL    HW217787   9.373   1.567   1.862  0.4885 -0.5743 -0.0016
 2045SOL     OW17788   6.450   1.288   3.363  0.0791 -0.0850 -0.4016
 2045SOL    HW117789   6.514   1.348   3.411 -1.4819  1.3328 -0.0730
 2045SOL    HW217790   6.442   1.317   3.268  0.1761 -0.4661 -0.5261
 2046SOL     OW17791   7.469   7.209   3.268 -0.4519  0.1258 -0.0352
 2046SOL    HW117792   7.530   7.165   3.334 -1.1941  0.3366  0.8044
 2046SOL    HW217793   7.467   7.155   3.184 -1.0943 -1.2834  0.8608
 2047SOL     OW17794   7.018   6.616   7.447 -0.0113  0.2870 -0.2938
 2047SOL    HW117795   7.087   6.544   7.457 -1.3762 -1.6607 -3.7006
 2047SOL    HW217796   6.956   6.615   7.525 -0.6774 -3.1125 -0.7741
 2048SOL     OW17797   3.479   7.544   0.065  0.5392  0.1565 -0.0024
 2048SOL    HW117798   3.511   7.630   0.105  0.0891 -0.3183  1.3744
 2048SOL    HW217799   3.440   7.563  -0.026  0.8409  1.3389  0.1048
 2049SOL     OW17800   2.378   3.632   4.107 -0.1038  0.3072 -0.4766
 2049SOL    HW117801   2.461   3.584   4.076 -1.2181 -1.6959 -0.4408
 2049SOL    HW217802   2.399   3.729   4.122  2.9970 -0.7038  2.4000
 2050SOL     OW17803   7.842   2.584   5.745  0.1638 -0.0967 -0.1047
 2050SOL    HW117804   7.851   2.485   5.756 -2.1016 -0.3995 -0.7441
 2050SOL    HW217805   7.900   2.631   5.812  2.1392 -1.8258 -0.5364
 2051SOL     OW17806   5.404   8.729   4.269 -0.3138 -0.6620 -0.1663
 2051SOL    HW117807   5.423   8.634   4.296  0.8906 -0.2414  0.4652
 2051SOL    HW217808   5.489   8.781   4.267 -0.8509  0.2012 -1.3626
 2052SOL     OW17809   2.001   4.880   1.478  0.4080 -0.2361  0.0931
 2052SOL    HW117810   2.087   4.850   1.436  1.2113  0.9311  0.8736
 2052SOL    HW217811   1.973   4.814   1.548  1.5290  0.1624  0.9472
 2053SOL     OW17812   7.718   2.333   2.322  0.4415 -0.0116 -0.2619
 2053SOL    HW117813   7.705   2.387   2.240 -0.4451  0.2965  0.0775
 2053SOL    HW217814   7.679   2.381   2.401  2.1522  0.1600  0.5130
 2054SOL     OW17815   8.801   3.847   2.498 -0.0515  0.1963  0.2495
 2054SOL    HW117816   8.732   3.917   2.485  0.7538  0.8968 -0.2724
 2054SOL    HW217817   8.778   3.767   2.442 -0.5809  0.3132  0.2945
 2055SOL     OW17818   0.290   2.818   2.280 -0.2781  0.5497 -0.1556
 2055SOL    HW117819   0.299   2.728   2.238 -0.1257  0.5313 -0.0855
 2055SOL    HW217820   0.199   2.828   2.319 -0.2399  0.3639 -0.0206
 2056SOL     OW17821   1.972   8.888   1.767  0.8571  0.4931  0.0781
 2056SOL    HW117822   1.962   8.884   1.668  0.7091  0.1277  0.1066
 2056SOL    HW217823   1.980   8.983   1.796 -1.6474  0.7499 -0.0293
 2057SOL     OW17824   9.476   7.059   1.069 -0.2244 -0.3158 -0.6323
 2057SOL    HW117825   9.554   7.048   1.006 -0.7242  1.5804 -1.6201
 2057SOL    HW217826   9.503   7.028   1.160  1.5957 -0.0150 -1.0357
 2058SOL     OW17827   5.769   3.754   2.809  0.2425  0.2029  0.1749
 2058SOL    HW117828   5.790   3.676   2.749 -1.9827  0.9166 -1.6251
 2058SOL    HW217829   5.811   3.836   2.771 -1.5597  0.7419 -0.7137
 2059SOL     OW17830   9.084   2.959   6.526 -0.7938  0.0306  0.1276
 2059SOL    HW117831   9.067   3.025   6.600 -0.4628 -0.2332  0.4354
 2059SOL    HW217832   9.104   3.009   6.442 -0.0550  0.3263  0.4741
 2060SOL     OW17833   6.891   1.749   7.181  0.1708 -0.0577  0.5851
 2060SOL    HW117834   6.822   1.714   7.118 -1.6724  1.6610  1.5798
 2060SOL    HW217835   6.911   1.680   7.250 -0.2499 -0.7135  0.0508
 2061SOL     OW17836   8.083   0.988   3.279  0.3220  0.2888 -0.4833
 2061SOL    HW117837   7.997   0.937   3.286  0.2163  0.4323 -0.7478
 2061SOL    HW217838   8.122   0.977   3.187  0.3202  0.6479 -0.5293
 2062SOL     OW17839   3.208   0.434   1.130 -0.0985  0.2956 -0.5052
 2062SOL    HW117840   3.282   0.435   1.062  0.2673  0.0391 -0.1163
 2062SOL    HW217841   3.246   0.457   1.220 -0.4943  0.1489 -0.3004
 2063SOL     OW17842   5.416   2.792   0.409 -0.5953  0.4824  0.0630
 2063SOL    HW117843   5.477   2.787   0.330 -0.1867 -0.5709  0.4384
 2063SOL    HW217844   5.321   2.801   0.378 -0.2982  1.6843 -0.5267
 2064SOL     OW17845   2.496   1.425   6.159 -0.2534  0.5928  0.7124
 2064SOL    HW117846   2.447   1.416   6.073  2.0873  0.9844 -0.6934
 2064SOL    HW217847   2.474   1.514   6.201 -1.9830  0.0808  0.9326
 2065SOL     OW17848   8.912   2.891   7.112 -0.4429  0.2489  0.4797
 2065SOL    HW117849   8.881   2.947   7.035 -0.1841 -0.6549 -0.2982
 2065SOL    HW217850   8.982   2.940   7.163  0.4469  0.2834 -0.7439
 2066SOL     OW17851   7.217   6.438   7.520 -0.2636 -0.3161 -0.3749
 2066SOL    HW117852   7.276   6.402   7.447  0.2497  0.5817 -0.3969
 2066SOL    HW217853   7.248   6.404   7.608 -0.7331 -1.1996 -0.5368
 2067SOL     OW17854   1.392   1.249   7.101 -0.1405  0.2155  0.0022
 2067SOL    HW117855   1.335   1.248   7.183 -0.5851 -1.4921 -0.3103
 2067SOL    HW217856   1.488   1.247   7.127 -0.2810 -0.4418  0.4776
 2068SOL     OW17857   2.303   8.829   6.680 -0.5788  0.0237  0.1812
 2068SOL    HW117858   2.386   8.864   6.723 -1.2331 -1.2949  2.5730
 2068SOL    HW217859   2.225   8.885   6.707 -0.6534  0.5439 -1.1042
 2069SOL     OW17860   6.728   2.219   2.938 -0.7817 -0.4098 -0.0757
 2069SOL    HW117861   6.769   2.267   2.860  1.7786 -2.4957 -0.0743
 2069SOL    HW217862   6.631   2.241   2.943 -0.3260  2.2588 -1.9452
 2070SOL     OW17863   3.216   8.305   7.236 -0.7964 -0.3674 -0.6765
 2070SOL    HW117864   3.300   8.321   7.184 -1.3140  3.0198 -0.5949
 2070SOL    HW217865   3.202   8.379   7.301 -1.9917 -2.7557  1.8968
 2071SOL     OW17866   1.003   0.995   4.716 -0.4705  0.6721  0.9156
 2071SOL    HW117867   0.903   0.988   4.716 -0.4214 -0.5105 -2.4750
 2071SOL    HW217868   1.031   1.073   4.660  0.5849 -1.4104 -1.5459
 2072SOL     OW17869   2.727   6.052   9.840 -0.2912  0.6245 -0.4493
 2072SOL    HW117870   2.768   5.999   9.915 -0.4184  0.1454 -0.7118
 2072SOL    HW217871   2.760   6.017   9.753 -0.0612  1.2570 -0.6121
 2073SOL     OW17872   4.978   3.045   4.859 -0.0947  0.1907 -0.1316
 2073SOL    HW117873   5.002   3.138   4.889 -0.6135  0.1852  0.2944
 2073SOL    HW217874   4.919   3.051   4.778 -0.7607  0.2421  0.3604
 2074SOL     OW17875   0.258   3.292   6.293  0.5805 -0.1560 -0.5524
 2074SOL    HW117876   0.253   3.197   6.323  1.6071 -0.5901 -1.7043
 2074SOL    HW217877   0.307   3.347   6.360 -1.9033  0.0286  1.1744
 2075SOL     OW17878   5.198   7.868   7.461 -0.1282  0.0265  0.4240
 2075SOL    HW117879   5.237   7.829   7.378 -0.0796  2.0948 -0.5493
 2075SOL    HW217880   5.268   7.872   7.532  0.1562 -0.6252  0.1857
 2076SOL     OW17881   1.397   9.457   6.708 -0.2880 -0.0025 -0.0109
 2076SOL    HW117882   1.376   9.493   6.799  1.8188  0.3760  0.3493
 2076SOL    HW217883   1.402   9.357   6.712  0.6767  0.0560  0.4979
 2077SOL     OW17884   9.342   5.086   3.045 -0.1059  0.9093 -0.4140
 2077SOL    HW117885   9.267   5.020   3.048  0.2014  0.5029 -1.2654
 2077SOL    HW217886   9.309   5.175   3.074 -0.0025 -0.0776  2.9085
 2078SOL     OW17887   0.235   9.991   6.032  0.0804  0.0801  0.5847
 2078SOL    HW117888   0.189   9.960   5.949  2.3023 -0.4634 -0.4774
 2078SOL    HW217889   0.312   9.931   6.052 -1.1231 -0.5450  3.7657
 2079SOL     OW17890   1.334   7.373   4.796  0.3413 -0.2385 -0.3970
 2079SOL    HW117891   1.429   7.402   4.785  0.4351 -0.5938 -0.5287
 2079SOL    HW217892   1.331   7.279   4.830  0.0590  0.5541  1.8506
 2080SOL     OW17893   1.291   5.290   2.514 -0.3615 -0.1867  0.0178
 2080SOL    HW117894   1.324   5.367   2.459  1.3333  0.3173  1.6803
 2080SOL    HW217895   1.236   5.325   2.590 -0.6239 -0.7038  0.0650
 2081SOL     OW17896   5.060   8.838   2.554 -0.2669  0.3424 -0.2260
 2081SOL    HW117897   5.023   8.817   2.464 -2.8406 -0.1472  0.8800
 2081SOL    HW217898   5.114   8.760   2.587  0.7546  0.5562 -1.3411
 2082SOL     OW17899   1.835   9.491   4.973  0.1320 -0.1718  0.3540
 2082SOL    HW117900   1.831   9.422   4.900 -0.2105  1.2236 -0.9872
 2082SOL    HW217901   1.745   9.499   5.016 -0.1622  0.3107 -0.3374
 2083SOL     OW17902   1.541   1.000   6.931 -0.1588 -0.2138 -0.2885
 2083SOL    HW117903   1.453   0.972   6.969  0.0271 -0.7458 -0.2465
 2083SOL    HW217904   1.613   0.986   6.999 -0.6023  4.2495  1.2875
 2084SOL     OW17905   0.235   1.605   7.144  0.1668 -0.2417  0.0528
 2084SOL    HW117906   0.245   1.631   7.240  1.1668 -0.8105  0.1071
 2084SOL    HW217907   0.304   1.653   7.090 -2.1355  2.2392 -0.8164
 2085SOL     OW17908   1.830   0.705   3.263 -0.3678 -0.4154  0.0543
 2085SOL    HW117909   1.793   0.787   3.307 -1.4805 -1.4520  1.0848
 2085SOL    HW217910   1.758   0.662   3.208  0.2712 -0.5851 -0.6553
 2086SOL     OW17911   0.733   9.704   7.589 -0.2201  0.2285  0.2261
 2086SOL    HW117912   0.633   9.694   7.591 -0.0241 -1.5590  1.7771
 2086SOL    HW217913   0.759   9.784   7.643 -0.8941  1.6488 -1.4844
 2087SOL     OW17914   4.720   0.001   3.573  0.2209  0.1509  0.0021
 2087SOL    HW117915   4.632   0.038   3.544  0.9165 -0.3803 -2.9537
 2087SOL    HW217916   4.741   0.033   3.665 -2.3533  1.4932  0.1613
 2088SOL     OW17917   5.103   1.575   4.708  0.5560  0.0820 -0.1895
 2088SOL    HW117918   5.017   1.620   4.727  0.2752  0.1532 -1.5671
 2088SOL    HW217919   5.165   1.638   4.661  0.4794 -0.6738 -1.3367
 2089SOL     OW17920   3.635   9.218   5.304 -0.4850  0.5293 -0.4781
 2089SOL    HW117921   3.594   9.129   5.288 -2.2430  1.2396 -0.0401
 2089SOL    HW217922   3.666   9.256   5.217 -0.2918 -0.2403 -0.7495
 2090SOL     OW17923   4.674   6.538   0.385  0.1568  0.0835 -0.5184
 2090SOL    HW117924   4.672   6.466   0.455 -3.3236 -1.2344 -1.8203
 2090SOL    HW217925   4.715   6.501   0.302  1.2560  0.6070 -0.2102
 2091SOL     OW17926   7.436   3.232   9.929 -0.0778  0.3424  0.2633
 2091SOL    HW117927   7.484   3.274   9.852 -1.0912 -1.5484 -1.4236
 2091SOL    HW217928   7.488   3.153   9.962 -0.2945  0.3737  0.6841
 2092SOL     OW17929   8.346   8.206   2.527  0.5099 -0.2134 -0.3285
 2092SOL    HW117930   8.402   8.266   2.584  1.6645 -0.4890 -1.1660
 2092SOL    HW217931   8.307   8.133   2.583  0.5631  0.2794  0.3552
 2093SOL     OW17932   1.818   0.698   5.269  0.4787  0.7097  0.3277
 2093SOL    HW117933   1.894   0.666   5.212 -0.0225  0.4483 -0.2080
 2093SOL    HW217934   1.850   0.766   5.334  1.1883  0.5299  0.1625
 2094SOL     OW17935   4.425   5.087   2.910  0.3329  0.3272 -0.3519
 2094SOL    HW117936   4.356   5.160   2.913 -0.5966 -0.5475 -0.3580
 2094SOL    HW217937   4.492   5.108   2.838 -0.9725  0.2582 -1.6164
 2095SOL     OW17938   5.795   2.344   6.609 -0.1969  0.1378  0.0077
 2095SOL    HW117939   5.759   2.408   6.542  1.4604  0.5228 -0.5293
 2095SOL    HW217940   5.727   2.272   6.626 -1.6918  1.4894 -0.0830
 2096SOL     OW17941   6.043   1.038   1.898 -0.0347 -0.0530  0.5263
 2096SOL    HW117942   6.007   1.096   1.971  0.5644 -1.7713  2.2448
 2096SOL    HW217943   6.066   1.094   1.819 -1.8268  1.7016  1.2080
 2097SOL     OW17944   6.010   3.212   0.680 -0.5809  0.6608  0.0255
 2097SOL    HW117945   6.058   3.276   0.740 -1.3375  0.6041  0.6975
 2097SOL    HW217946   5.921   3.251   0.655 -1.4302 -0.5173  1.1742
 2098SOL     OW17947   3.436   8.299   6.482 -0.2919  0.0135 -0.7776
 2098SOL    HW117948   3.343   8.333   6.495  0.1484  0.7337  0.5448
 2098SOL    HW217949   3.476   8.342   6.401 -0.4253  1.1793 -0.2232
 2099SOL     OW17950   6.737   8.652   3.572 -0.0478  0.1979  0.2678
 2099SOL    HW117951   6.780   8.568   3.542 -0.0865  0.4999 -0.6597
 2099SOL    HW217952   6.652   8.631   3.620 -0.3091 -0.2732 -0.3975
 2100SOL     OW17953   3.624   9.433   1.538  0.6875  0.1701  0.5075
 2100SOL    HW117954   3.634   9.357   1.602 -1.6691 -0.6570 -0.0634
 2100SOL    HW217955   3.529   9.439   1.506  1.0321  2.7486 -0.2194
 2101SOL     OW17956   1.284   5.739   5.415  0.4802  0.0916 -0.1242
 2101SOL    HW117957   1.243   5.802   5.349 -1.6291 -1.3391 -0.2214
 2101SOL    HW217958   1.295   5.649   5.373  1.5929 -0.1545  0.6588
 2102SOL     OW17959   2.405   1.330   3.323 -0.4476  0.3601  0.6531
 2102SOL    HW117960   2.343   1.254   3.303  1.3819 -0.9209 -0.2152
 2102SOL    HW217961   2.392   1.402   3.254 -0.3130 -0.3085 -0.0706
 2103SOL     OW17962   1.514   5.295   4.216  0.3941 -0.3000 -0.5413
 2103SOL    HW117963   1.437   5.253   4.169  1.7833 -0.6446 -2.5675
 2103SOL    HW217964   1.481   5.348   4.293 -1.9734  0.6037 -2.1436
 2104SOL     OW17965   6.587   0.668   6.971  0.1178 -0.0640 -0.1067
 2104SOL    HW117966   6.629   0.731   7.036  1.2392 -0.0383 -0.8456
 2104SOL    HW217967   6.534   0.719   6.904 -0.0265  0.0037  0.0601
 2105SOL     OW17968   5.107   8.817   0.761 -0.5897  0.4015  0.1177
 2105SOL    HW117969   5.052   8.759   0.702 -0.7734 -0.8570  1.5005
 2105SOL    HW217970   5.058   8.902   0.780 -1.4427 -0.1095  0.2082
 2106SOL     OW17971   9.870   6.219   0.974  0.2517  0.3164  0.3816
 2106SOL    HW117972   9.789   6.273   0.993  0.3890  0.2989  1.0486
 2106SOL    HW217973   9.921   6.204   1.059  0.7418 -0.0042  0.0375
 2107SOL     OW17974   2.750   5.197   0.005  0.0942 -0.0664 -0.1194
 2107SOL    HW117975   2.667   5.180  -0.049 -0.0297 -0.7714  0.2876
 2107SOL    HW217976   2.724   5.232   0.095  0.3436  2.3472 -0.9355
 2108SOL     OW17977   7.853   7.058   5.484 -0.0985  0.1527  0.5986
 2108SOL    HW117978   7.755   7.075   5.475 -0.1325 -0.8958 -1.2297
 2108SOL    HW217979   7.879   6.980   5.428  2.0043  1.1547  0.1048
 2109SOL     OW17980   9.111   6.028   5.019 -0.2219 -0.3144  0.3610
 2109SOL    HW117981   9.068   5.956   5.074 -0.0585 -1.2276 -0.6630
 2109SOL    HW217982   9.040   6.075   4.966 -0.2692 -0.0815  0.6344
 2110SOL     OW17983   9.260   5.885   7.659  0.4533 -0.0576 -0.5054
 2110SOL    HW117984   9.310   5.967   7.686 -2.4918  1.8596 -0.7081
 2110SOL    HW217985   9.241   5.888   7.562 -1.3805 -0.0330 -0.1484
 2111SOL     OW17986   9.878   6.421   1.477  0.0835  0.6017  0.6242
 2111SOL    HW117987   9.918   6.333   1.455  0.9455  0.6512  1.9897
 2111SOL    HW217988   9.950   6.488   1.496 -0.5630  1.5440 -0.1374
 2112SOL     OW17989   1.241   0.008   4.429 -0.3771  0.2092 -0.0837
 2112SOL    HW117990   1.216   0.007   4.333 -0.3103 -3.3736 -0.1639
 2112SOL    HW217991   1.332   0.048   4.440 -0.0192 -0.1737 -1.6341
 2113SOL     OW17992   9.216   6.108   4.146  0.1092 -0.2941 -0.0348
 2113SOL    HW117993   9.194   6.104   4.049 -0.5024  1.5605  0.0080
 2113SOL    HW217994   9.290   6.043   4.167  1.1282  0.2359 -1.9578
 2114SOL     OW17995   8.507   7.934   2.664 -0.4715  0.3016  0.2595
 2114SOL    HW117996   8.522   8.003   2.593  1.1378  0.7399  1.0145
 2114SOL    HW217997   8.430   7.963   2.722 -0.7971  0.7037 -0.3751
 2115SOL     OW17998   3.449   8.257   5.646 -0.4146  0.2307 -0.0129
 2115SOL    HW117999   3.502   8.271   5.562  0.7192 -0.8803  0.4916
 2115SOL    HW218000   3.453   8.160   5.672 -1.1967  0.4717  1.0333
 2116SOL     OW18001   1.279   3.649   9.664  0.2574  0.2157  0.2598
 2116SOL    HW118002   1.285   3.617   9.569 -0.7948  2.3800 -0.5658
 2116SOL    HW218003   1.182   3.656   9.691  0.4899  1.7632  0.7277
 2117SOL     OW18004   1.523   0.993   3.444 -0.4860 -0.3920 -0.0881
 2117SOL    HW118005   1.449   0.931   3.468  0.3516 -1.3230  0.1022
 2117SOL    HW218006   1.513   1.078   3.496 -1.0969 -0.7314  0.3596
 2118SOL     OW18007   8.315   7.703   2.359 -0.1796  0.6497  0.4131
 2118SOL    HW118008   8.215   7.705   2.348 -0.0804  1.3085 -0.4780
 2118SOL    HW218009   8.338   7.688   2.455 -1.1334 -0.2970  0.5042
 2119SOL     OW18010   2.691   8.273   0.123  0.3652  0.8309  0.1148
 2119SOL    HW118011   2.787   8.295   0.143  0.2572  1.2766  0.1352
 2119SOL    HW218012   2.685   8.177   0.095  0.9241  0.9975 -0.6189
 2120SOL     OW18013   0.842   5.568   2.905  0.4258  0.2170 -0.2325
 2120SOL    HW118014   0.751   5.591   2.871 -0.2221  1.0556  2.0082
 2120SOL    HW218015   0.834   5.498   2.977  1.2473  2.4531  2.1018
 2121SOL     OW18016   9.269   4.952   2.034  0.6218 -0.6512  0.2688
 2121SOL    HW118017   9.363   4.935   2.065  0.6281 -1.9940 -0.4340
 2121SOL    HW218018   9.206   4.897   2.089  0.0837  1.3540  1.7281
 2122SOL     OW18019   0.551   1.182   0.214  0.0972 -0.1982 -0.1392
 2122SOL    HW118020   0.471   1.140   0.172 -0.0902  0.2026 -0.1936
 2122SOL    HW218021   0.586   1.123   0.286  0.5438 -0.9884 -0.9875
 2123SOL     OW18022   0.935   6.217   4.528  0.9418  0.0046  0.1525
 2123SOL    HW118023   0.956   6.300   4.580  1.2656  0.6593 -1.0006
 2123SOL    HW218024   0.971   6.226   4.435 -1.2692 -0.3664 -0.7738
 2124SOL     OW18025   8.069   6.337   6.902  0.6545 -0.0231  0.0277
 2124SOL    HW118026   7.977   6.345   6.942  0.6893 -0.5174  0.2114
 2124SOL    HW218027   8.063   6.339   6.803  0.5585  1.1759  0.0566
 2125SOL     OW18028   4.196   0.880   4.780  0.1883 -0.1432 -0.3816
 2125SOL    HW118029   4.168   0.793   4.738  0.7200 -0.3528 -0.3047
 2125SOL    HW218030   4.235   0.862   4.870 -2.8684  0.4850  1.1538
 2126SOL     OW18031   1.668   5.714   6.489 -0.4819 -0.4364  0.4602
 2126SOL    HW118032   1.628   5.623   6.481  1.6914 -1.3628 -0.3230
 2126SOL    HW218033   1.691   5.748   6.397 -0.9571  0.7640  0.7721
 2127SOL     OW18034   0.916   4.370   3.603 -0.6586  0.1594 -0.2510
 2127SOL    HW118035   1.006   4.389   3.643  0.2452  0.9041 -2.5622
 2127SOL    HW218036   0.906   4.271   3.591 -0.1862  0.0616  0.1213
 2128SOL     OW18037   9.666   8.978   0.010  0.4619  0.1226  0.0019
 2128SOL    HW118038   9.597   9.046  -0.014  1.7524  1.4482 -0.0377
 2128SOL    HW218039   9.628   8.886  -0.002 -1.0833  0.8246 -0.6210
 2129SOL     OW18040   6.300   0.270   3.835 -0.0037 -0.5705 -0.1215
 2129SOL    HW118041   6.284   0.179   3.797 -2.0875 -0.7496  1.1109
 2129SOL    HW218042   6.349   0.326   3.768  1.6154 -2.6827 -0.7602
 2130SOL     OW18043   8.774   0.536   4.994 -0.1830 -0.0828  0.1213
 2130SOL    HW118044   8.683   0.542   5.035 -0.1177  0.5793  0.1794
 2130SOL    HW218045   8.803   0.626   4.963  1.6158  0.2683  2.6447
 2131SOL     OW18046   9.724   2.437   1.768 -0.1827 -0.3480  0.4522
 2131SOL    HW118047   9.774   2.506   1.821  1.7044 -0.7377 -0.7462
 2131SOL    HW218048   9.782   2.356   1.756 -1.4317 -1.1460 -0.2707
 2132SOL     OW18049   6.865   1.224   7.148  0.4670 -0.7345  0.9347
 2132SOL    HW118050   6.920   1.306   7.159  2.0356 -1.7690  0.9660
 2132SOL    HW218051   6.925   1.145   7.134 -0.9602 -2.0629  2.1231
 2133SOL     OW18052   2.383   8.497   0.961  0.0499  0.2691 -0.6310
 2133SOL    HW118053   2.381   8.412   1.015 -2.9497  0.3193 -0.5981
 2133SOL    HW218054   2.463   8.551   0.988  0.4557 -1.2616  1.3627
 2134SOL     OW18055   4.605   4.329   5.417  0.1408 -0.3641  0.1553
 2134SOL    HW118056   4.633   4.265   5.489 -0.7972 -0.6467  0.2643
 2134SOL    HW218057   4.548   4.401   5.456 -1.6241 -1.3498 -0.5530
 2135SOL     OW18058   0.545   9.572   4.460  0.6443 -0.2001  0.1564
 2135SOL    HW118059   0.520   9.669   4.462  1.4577  0.0326 -0.5538
 2135SOL    HW218060   0.462   9.517   4.457  0.1474  0.4173  1.9306
 2136SOL     OW18061   7.692   9.238   7.191  0.3468 -0.0859 -0.1036
 2136SOL    HW118062   7.688   9.304   7.116 -1.2102 -0.4770 -0.3788
 2136SOL    HW218063   7.651   9.278   7.273  0.4866 -0.2717  0.0562
 2137SOL     OW18064   5.612   5.378   1.496 -0.1171  0.0328 -0.6089
 2137SOL    HW118065   5.522   5.358   1.536 -0.4901 -0.7794 -1.8031
 2137SOL    HW218066   5.599   5.430   1.411  0.5857  0.5751 -0.3857
 2138SOL     OW18067   0.822   1.216   3.833 -0.1802 -0.5949  0.7805
 2138SOL    HW118068   0.845   1.311   3.816  0.0348 -0.4228  2.0146
 2138SOL    HW218069   0.738   1.211   3.888 -1.0491 -1.1526 -0.5555
 2139SOL     OW18070   7.303   5.055   7.343 -0.5028 -0.2093  0.1856
 2139SOL    HW118071   7.237   5.075   7.271  2.1345 -0.6254 -2.4882
 2139SOL    HW218072   7.268   4.981   7.400 -1.7903 -1.3617 -1.9999
 2140SOL     OW18073   5.847   5.094   0.035 -0.0685  0.0639 -0.0387
 2140SOL    HW118074   5.764   5.037   0.032 -0.2049  0.3146 -0.9343
 2140SOL    HW218075   5.926   5.035   0.051 -0.1600 -0.4359 -1.3901
 2141SOL     OW18076   2.186   0.086   3.574  0.4321 -0.1992  0.4776
 2141SOL    HW118077   2.087   0.097   3.585  0.4263  0.5822 -0.2541
 2141SOL    HW218078   2.216   0.001   3.617 -0.7067 -0.9003 -0.0862
 2142SOL     OW18079   4.494   7.131   2.957 -0.3535 -0.1210 -0.0655
 2142SOL    HW118080   4.425   7.081   2.906  1.1531 -1.6774 -0.6411
 2142SOL    HW218081   4.565   7.164   2.894  0.5754 -0.4833  0.7671
 2143SOL     OW18082   4.915   0.002   4.716  0.0199 -0.2637  0.0438
 2143SOL    HW118083   4.949   0.096   4.717 -1.1385  0.1670 -0.5848
 2143SOL    HW218084   4.972  -0.053   4.655  0.3165  0.1830 -0.0844
 2144SOL     OW18085   7.578   3.646   2.517 -0.0887 -0.1437  0.1490
 2144SOL    HW118086   7.561   3.744   2.509 -2.5010 -0.6432 -1.5027
 2144SOL    HW218087   7.669   3.625   2.482  0.8167  1.6068  1.3825
 2145SOL     OW18088   2.611   7.096  10.034 -0.2675  0.4684  0.3659
 2145SOL    HW118089   2.602   7.053  10.124 -1.6360 -1.7619 -0.8211
 2145SOL    HW218090   2.637   7.028   9.966 -0.5412  1.8965 -1.2063
 2146SOL     OW18091   6.476   9.801   7.026 -0.2744 -0.1363  0.3330
 2146SOL    HW118092   6.447   9.755   7.110 -1.4402 -0.6899 -0.3640
 2146SOL    HW218093   6.469   9.900   7.039  0.0485 -0.2054  1.0668
 2147SOL     OW18094   1.548   6.091   3.369  0.6461  0.1136  0.5798
 2147SOL    HW118095   1.556   5.993   3.353  2.2728  0.4772 -1.0358
 2147SOL    HW218096   1.453   6.115   3.388  0.3340 -1.8461  1.5928
 2148SOL     OW18097   0.250   2.994   1.064 -0.1501 -0.0568  0.1711
 2148SOL    HW118098   0.238   3.089   1.093 -1.2553 -0.1038 -0.1140
 2148SOL    HW218099   0.231   2.933   1.141  1.5351 -0.0234  0.6325
 2149SOL     OW18100   2.446   2.030   5.100  0.5368  0.3257  0.5458
 2149SOL    HW118101   2.527   1.973   5.085  0.2666  0.1708 -0.3382
 2149SOL    HW218102   2.388   2.028   5.019  0.0582  1.1121  0.8613
 2150SOL     OW18103   6.839   1.943   5.473 -0.4212  0.0037  0.2946
 2150SOL    HW118104   6.844   1.864   5.535 -1.5189  0.3113  0.7780
 2150SOL    HW218105   6.819   2.025   5.525 -0.7248  0.3718 -0.3953
 2151SOL     OW18106   0.024   1.838   4.298 -0.3208  0.5873 -0.2872
 2151SOL    HW118107   0.015   1.785   4.382 -1.6414  1.2654  0.0173
 2151SOL    HW218108  -0.016   1.787   4.222  1.4492 -0.3079 -0.6495
 2152SOL     OW18109   0.174   8.450   6.430  0.2223  0.1066  0.5851
 2152SOL    HW118110   0.085   8.435   6.386  0.4466 -0.8751  0.4352
 2152SOL    HW218111   0.184   8.546   6.454 -0.3165  0.4796 -0.6311
 2153SOL     OW18112   1.971   9.407   5.187  0.8171 -0.1234 -0.1049
 2153SOL    HW118113   1.923   9.447   5.109  0.4446  0.3507  0.3631
 2153SOL    HW218114   1.912   9.410   5.268  1.5166  0.1874  0.4000
 2154SOL     OW18115   9.038   0.836   5.237  0.0089 -0.3009 -0.5375
 2154SOL    HW118116   9.115   0.872   5.183 -0.0529  0.4067 -0.1559
 2154SOL    HW218117   9.072   0.766   5.299  0.6175  1.0697  0.7033
 2155SOL     OW18118   3.434   9.502   3.629 -0.1154 -0.4184 -0.2398
 2155SOL    HW118119   3.376   9.510   3.711 -0.8807 -0.9351 -0.7297
 2155SOL    HW218120   3.398   9.429   3.570  0.9298 -0.6147 -0.6310
 2156SOL     OW18121   8.865   0.374   7.121  0.0626  0.2409  0.3992
 2156SOL    HW118122   8.950   0.422   7.100 -0.1362  0.8543  1.0069
 2156SOL    HW218123   8.814   0.357   7.036  1.7873 -2.0167 -0.2346
 2157SOL     OW18124   2.920   5.021   4.512 -0.0599 -0.4640 -0.1496
 2157SOL    HW118125   2.835   4.977   4.540 -0.5567  1.1373  0.9351
 2157SOL    HW218126   2.973   4.958   4.456 -2.8760 -0.8467 -2.5645
 2158SOL     OW18127   3.332   0.407   7.043 -0.0151  0.2500  0.4253
 2158SOL    HW118128   3.349   0.393   7.140 -0.4454  0.6781  0.5665
 2158SOL    HW218129   3.320   0.505   7.025  0.0714  0.1739 -0.0579
 2159SOL     OW18130   6.405   0.871   3.366  0.9545  0.9747  0.2095
 2159SOL    HW118131   6.475   0.941   3.366  2.1514 -0.1991  0.1063
 2159SOL    HW218132   6.418   0.810   3.288 -1.5112  2.0357 -1.0959
 2160SOL     OW18133   7.429   7.449   4.039 -0.2675 -0.3738 -0.3897
 2160SOL    HW118134   7.453   7.382   3.969  0.5257 -0.3759 -0.1252
 2160SOL    HW218135   7.478   7.428   4.124  1.2107  1.3997 -0.7471
 2161SOL     OW18136   1.049   3.065   6.888  0.4154 -0.5986 -0.3274
 2161SOL    HW118137   0.981   3.104   6.826 -0.5793  0.1651  1.2167
 2161SOL    HW218138   1.004   3.001   6.951  1.4046 -1.3357 -0.3545
 2162SOL     OW18139   2.401   6.414   2.140  0.1149 -0.2790  0.3770
 2162SOL    HW118140   2.335   6.478   2.179  0.3665  0.1055  0.1781
 2162SOL    HW218141   2.359   6.365   2.064  0.3105  0.5567 -0.2763
 2163SOL     OW18142   4.154   8.874  10.048 -0.8335 -0.2932 -0.3999
 2163SOL    HW118143   4.253   8.868  10.037 -0.8654 -1.8691  0.0470
 2163SOL    HW218144   4.115   8.782  10.050 -2.3967  0.3239 -1.3205
 2164SOL     OW18145   4.809   9.558   8.068  0.3193 -0.2423 -0.1191
 2164SOL    HW118146   4.778   9.643   8.108  0.5395 -0.4788  0.5525
 2164SOL    HW218147   4.888   9.524   8.118 -2.1438 -2.8860  2.1392
 2165SOL     OW18148   4.287   3.250   7.109  0.3908  0.3555 -0.7465
 2165SOL    HW118149   4.232   3.231   7.028 -0.0052 -1.8015  0.0137
 2165SOL    HW218150   4.369   3.192   7.109  0.0984 -0.0744  0.6838
 2166SOL     OW18151   4.369   6.302   0.138  0.3198  0.1985  0.1539
 2166SOL    HW118152   4.448   6.267   0.189 -0.5800 -1.8595  0.1843
 2166SOL    HW218153   4.289   6.302   0.197 -0.0771  0.6154 -0.3850
 2167SOL     OW18154   0.771   5.388   5.393  0.3500  0.0800 -0.7029
 2167SOL    HW118155   0.742   5.465   5.449  0.9066  0.5495 -1.0442
 2167SOL    HW218156   0.766   5.414   5.296  0.1863 -0.4375 -0.8337
 2168SOL     OW18157   7.381   7.918   3.801  0.1106 -0.0990 -0.3012
 2168SOL    HW118158   7.301   7.907   3.742  0.5980 -2.8441 -0.5229
 2168SOL    HW218159   7.365   7.993   3.865 -2.5146 -0.3896 -0.5563
 2169SOL     OW18160   3.630   8.887   2.163  0.1214 -0.2008 -0.3787
 2169SOL    HW118161   3.695   8.846   2.099 -0.9440 -0.4973 -1.2861
 2169SOL    HW218162   3.570   8.950   2.114  0.0948  0.5164  0.5602
 2170SOL     OW18163   8.241   0.043   4.379 -0.7702 -0.1543 -0.1976
 2170SOL    HW118164   8.297   0.126   4.386  0.4168 -0.9602 -0.0223
 2170SOL    HW218165   8.300  -0.037   4.372 -1.8558 -1.2236  2.2484
 2171SOL     OW18166   6.694   9.851   6.565  0.5088 -0.1066 -0.8224
 2171SOL    HW118167   6.720   9.766   6.610 -0.6171  0.3502  0.7311
 2171SOL    HW218168   6.729   9.852   6.472  1.3301 -1.8574 -0.5399
 2172SOL     OW18169   3.725   5.849   2.854 -0.1615  0.0173 -0.9719
 2172SOL    HW118170   3.744   5.817   2.761 -1.0234  0.6600 -1.3811
 2172SOL    HW218171   3.629   5.877   2.860 -0.5173 -1.4990  0.5567
 2173SOL     OW18172   4.592   7.793   1.252 -0.0275  0.5617 -0.1533
 2173SOL    HW118173   4.503   7.826   1.283 -0.4877 -0.7829 -0.0191
 2173SOL    HW218174   4.648   7.871   1.225 -1.3978  1.3912 -0.6695
 2174SOL     OW18175   4.901   0.069   7.810 -0.1533  0.2210 -0.5130
 2174SOL    HW118176   4.905  -0.031   7.814  1.0776  0.3105  0.8832
 2174SOL    HW218177   4.842   0.097   7.734 -1.8508 -1.5827  0.0894
 2175SOL     OW18178   7.617   0.564   6.846 -0.1649 -0.2563  0.2967
 2175SOL    HW118179   7.540   0.616   6.810  0.7394  0.5387 -0.5337
 2175SOL    HW218180   7.601   0.467   6.832 -0.9001 -0.0829 -0.0969
 2176SOL     OW18181   3.558   1.116   5.448 -0.3150 -0.2463  0.0005
 2176SOL    HW118182   3.620   1.126   5.370 -1.5369 -0.4331 -1.0023
 2176SOL    HW218183   3.603   1.151   5.530  0.4316  1.3178 -1.0413
 2177SOL     OW18184   5.010   2.635   0.385 -0.8235 -0.2512  0.0402
 2177SOL    HW118185   4.990   2.591   0.472 -1.5573 -0.1788 -0.0918
 2177SOL    HW218186   5.058   2.721   0.401 -1.2851 -0.0575  0.3933
 2178SOL     OW18187   0.456   3.380  10.045  0.2249  0.1537 -0.0925
 2178SOL    HW118188   0.377   3.332  10.084  0.5683  0.8185  1.4355
 2178SOL    HW218189   0.435   3.477  10.033  1.2811  0.6248  1.6861
 2179SOL     OW18190   3.099   9.101   6.636  0.1776  0.4895  0.4461
 2179SOL    HW118191   3.068   9.007   6.651  0.2481  0.2903 -0.5558
 2179SOL    HW218192   3.026   9.165   6.658 -0.9081  0.0462 -1.6605
 2180SOL     OW18193   8.184   2.222   3.595  0.5586 -0.4921 -0.0811
 2180SOL    HW118194   8.270   2.271   3.578  1.3646 -1.2947  1.4952
 2180SOL    HW218195   8.131   2.271   3.664  0.7553 -1.1082  0.5203
 2181SOL     OW18196   2.179   4.438   9.891  0.0008 -0.0849 -0.3276
 2181SOL    HW118197   2.092   4.485   9.878 -0.6616 -1.5356 -1.1733
 2181SOL    HW218198   2.195   4.375   9.816  1.7061  0.0310 -0.0837
 2182SOL     OW18199   8.330   7.925   4.112  0.2506 -0.0079  0.7436
 2182SOL    HW118200   8.278   7.845   4.081 -2.0776  1.4671  0.6994
 2182SOL    HW218201   8.428   7.905   4.109 -0.1934 -2.0342 -1.5669
 2183SOL     OW18202   7.252   5.716   2.956  0.2447 -0.2843  0.4494
 2183SOL    HW118203   7.292   5.633   2.997  0.6658 -0.0779  0.4614
 2183SOL    HW218204   7.180   5.751   3.015 -1.2201 -1.6868 -0.4358
 2184SOL     OW18205   9.011   4.382   5.912 -0.2205  0.1201 -0.8788
 2184SOL    HW118206   8.922   4.408   5.876 -0.2127 -0.1215 -1.0760
 2184SOL    HW218207   9.084   4.420   5.855 -0.1731  1.1680 -0.1424
 2185SOL     OW18208   2.902   5.440   6.936 -0.3720  0.0949 -0.2316
 2185SOL    HW118209   2.825   5.499   6.960  0.4946  1.5809 -1.0764
 2185SOL    HW218210   2.902   5.424   6.837 -0.0301 -0.5234 -0.1331
 2186SOL     OW18211   4.142   0.354   0.548  0.4395  0.2341 -0.3273
 2186SOL    HW118212   4.076   0.326   0.618  0.9424 -0.6734 -0.2027
 2186SOL    HW218213   4.233   0.319   0.571  0.7248  0.4219 -1.1293
 2187SOL     OW18214   9.115   5.334   0.198  0.5134  0.9102 -0.1816
 2187SOL    HW118215   9.048   5.402   0.167  2.0886  1.7574 -1.8488
 2187SOL    HW218216   9.093   5.245   0.158 -1.0093  0.6163  1.2488
 2188SOL     OW18217   9.352   0.966   3.517  0.1330 -0.2205  0.5330
 2188SOL    HW118218   9.292   0.920   3.583  1.1728 -1.7314  0.4460
 2188SOL    HW218219   9.444   0.930   3.525  0.2271 -0.5913 -1.9308
 2189SOL     OW18220   6.862   1.389   5.633  0.3587 -1.0987 -0.1766
 2189SOL    HW118221   6.935   1.321   5.635 -0.0149 -1.4928 -0.0616
 2189SOL    HW218222   6.838   1.410   5.538  0.7414 -0.8378 -0.2169
 2190SOL     OW18223   3.489   9.287   3.466 -0.1114  0.3849  0.7649
 2190SOL    HW118224   3.412   9.263   3.408  0.3130 -2.0677  1.1566
 2190SOL    HW218225   3.493   9.225   3.544  3.1008 -0.5341 -0.0243
 2191SOL     OW18226   9.049   4.764   0.468 -0.1647 -0.5313  0.0633
 2191SOL    HW118227   9.038   4.706   0.549 -0.7483  0.8883  1.0314
 2191SOL    HW218228   8.981   4.838   0.470  0.1504 -0.1778 -1.4606
 2192SOL     OW18229   8.285   7.321   2.169 -0.0254  0.2670 -0.0608
 2192SOL    HW118230   8.283   7.304   2.268  0.6185  3.1489  0.4856
 2192SOL    HW218231   8.341   7.250   2.124  0.7069 -0.3641  1.7936
 2193SOL     OW18232   0.401   8.639   4.781  0.0078  0.3751  0.3353
 2193SOL    HW118233   0.462   8.610   4.854 -0.6780 -1.1977  0.3042
 2193SOL    HW218234   0.438   8.721   4.737  2.4398 -0.9072 -0.1036
 2194SOL     OW18235   8.081   1.870   5.884 -0.1954  0.3037 -0.7816
 2194SOL    HW118236   8.028   1.953   5.902 -0.7010 -0.0286 -0.7187
 2194SOL    HW218237   8.059   1.835   5.793 -1.7647 -1.0659  0.0967
 2195SOL     OW18238   1.611   9.345   7.698 -0.0637 -0.2530 -0.2369
 2195SOL    HW118239   1.542   9.417   7.693  0.1508  0.1007  1.7558
 2195SOL    HW218240   1.581   9.274   7.761  1.1366 -0.3634  0.2271
 2196SOL     OW18241   7.258   6.735   8.491  0.2208  0.1783  0.1470
 2196SOL    HW118242   7.325   6.721   8.564  1.3970  1.5929 -0.6175
 2196SOL    HW218243   7.275   6.670   8.417  0.0425 -0.2080  0.4495
 2197SOL     OW18244   0.296   3.064   6.729  0.4671  0.5181  0.4416
 2197SOL    HW118245   0.361   3.130   6.690  0.4479  0.4320  0.2655
 2197SOL    HW218246   0.335   3.026   6.813  1.0015 -0.1394 -0.0961
 2198SOL     OW18247   0.001   5.092   4.810  0.2815  0.3202 -0.1776
 2198SOL    HW118248   0.088   5.131   4.840  0.7426  1.0591 -2.4367
 2198SOL    HW218249   0.016   5.001   4.772 -0.0299  0.1696  0.0589
 2199SOL     OW18250   1.914   0.070   5.719 -0.1840 -0.3585 -0.4004
 2199SOL    HW118251   1.822   0.095   5.687 -0.5602 -1.3177 -0.0860
 2199SOL    HW218252   1.974   0.056   5.640 -0.5308 -0.5565 -0.6316
 2200SOL     OW18253   3.945   3.033   7.694  0.1003  0.0021 -0.2272
 2200SOL    HW118254   3.931   2.961   7.626  1.0742 -0.2509 -0.1709
 2200SOL    HW218255   4.042   3.037   7.719  0.2370  1.9855 -0.9655
 2201SOL     OW18256   9.000   0.697   6.342 -0.0662 -0.1030  0.3847
 2201SOL    HW118257   8.912   0.650   6.348  0.2322 -0.8204 -0.7116
 2201SOL    HW218258   9.034   0.717   6.434 -0.5994 -1.2717  0.8399
 2202SOL     OW18259   4.737   9.682   3.741  0.6216  0.5484 -0.2250
 2202SOL    HW118260   4.814   9.742   3.721  0.1849  1.0124 -0.5304
 2202SOL    HW218261   4.661   9.703   3.679 -0.1532  0.8759  0.8303
 2203SOL     OW18262   5.904   8.566   6.704 -0.1902 -0.3541 -0.1006
 2203SOL    HW118263   5.899   8.652   6.755  0.0485  0.1998 -1.0031
 2203SOL    HW218264   5.817   8.550   6.658 -1.0388 -1.7573  1.8901
 2204SOL     OW18265   9.300   3.492   7.204 -0.3284  0.1626 -0.1371
 2204SOL    HW118266   9.264   3.520   7.115  1.0003  0.8616 -0.4661
 2204SOL    HW218267   9.397   3.469   7.195 -0.6749 -1.7769  0.7165
 2205SOL     OW18268   1.039   0.399   5.163  0.0777 -0.1155  0.0398
 2205SOL    HW118269   0.970   0.425   5.231 -1.0968 -0.5946 -0.9358
 2205SOL    HW218270   1.023   0.450   5.079  1.8305  0.8367  0.2838
 2206SOL     OW18271   1.709   1.887   7.572  0.2449  0.2708 -0.2039
 2206SOL    HW118272   1.767   1.805   7.571 -0.0743  0.0179  0.9202
 2206SOL    HW218273   1.761   1.965   7.606 -0.4283 -0.2705  2.2231
 2207SOL     OW18274   0.196   7.222   7.388  0.0856 -0.2206 -0.2912
 2207SOL    HW118275   0.170   7.318   7.392 -0.2776 -0.3608  0.8368
 2207SOL    HW218276   0.170   7.176   7.473  1.3441 -1.0450 -0.3229
 2208SOL     OW18277   8.245   1.790   1.831 -0.2294  0.4440  0.1638
 2208SOL    HW118278   8.342   1.792   1.855 -0.3656 -0.0080  0.7636
 2208SOL    HW218279   8.231   1.837   1.744  0.6053  0.0626 -0.1836
 2209SOL     OW18280   2.909   1.216   6.313  0.2894 -0.0231 -0.3498
 2209SOL    HW118281   2.954   1.277   6.378  0.5480 -1.5468  0.9356
 2209SOL    HW218282   2.848   1.154   6.363 -0.9000 -0.0223 -1.7570
 2210SOL     OW18283   8.625   9.805   1.660  1.4702 -0.3305  0.6899
 2210SOL    HW118284   8.594   9.716   1.693  0.9063  0.0289  1.1380
 2210SOL    HW218285   8.678   9.792   1.576  0.9596 -1.0442  0.4675
 2211SOL     OW18286   1.726   5.356   0.585  0.5769  0.1920 -0.2500
 2211SOL    HW118287   1.770   5.424   0.643  0.3678  0.7882 -0.7867
 2211SOL    HW218288   1.735   5.266   0.627 -0.3434  0.7346  1.1373
 2212SOL     OW18289   5.063   4.699   2.243  0.6166 -0.2309 -0.0854
 2212SOL    HW118290   5.153   4.731   2.273  0.1111  0.0208  1.1874
 2212SOL    HW218291   5.049   4.605   2.274  0.7240 -0.5232 -0.9028
 2213SOL     OW18292   8.380   5.570   5.115  0.0898  0.2242  0.0928
 2213SOL    HW118293   8.400   5.483   5.160 -0.0847  1.0295  1.7614
 2213SOL    HW218294   8.425   5.644   5.164 -0.5909  1.1961 -0.7301
 2214SOL     OW18295   5.059   3.053   7.332  0.0015 -0.2010 -0.1586
 2214SOL    HW118296   5.124   2.985   7.298  0.3275  0.7811 -1.5697
 2214SOL    HW218297   5.104   3.142   7.338 -1.7637  0.9764 -3.3154
 2215SOL     OW18298   3.410   9.868   2.376  0.0114 -0.1645  0.1189
 2215SOL    HW118299   3.422   9.967   2.369  0.6539 -0.2735 -0.4043
 2215SOL    HW218300   3.372   9.845   2.466 -1.0098  0.6262 -0.1068
 2216SOL     OW18301   2.367   3.445   9.648 -0.7552 -0.2346  0.2807
 2216SOL    HW118302   2.462   3.473   9.645 -0.5236 -1.0790 -0.5080
 2216SOL    HW218303   2.308   3.525   9.660  0.0240  0.3230  0.3737
 2217SOL     OW18304   9.073   8.254   7.544  0.2901  0.3564  0.2757
 2217SOL    HW118305   9.172   8.264   7.555  0.5510 -1.6643  0.0104
 2217SOL    HW218306   9.054   8.194   7.466 -1.1116 -0.3707  1.1623
 2218SOL     OW18307   4.790   5.420   2.371 -0.0580 -0.1186 -0.1524
 2218SOL    HW118308   4.727   5.458   2.303 -0.6838 -0.4225  0.2564
 2218SOL    HW218309   4.864   5.485   2.387 -0.2859  0.2591 -0.6081
 2219SOL     OW18310   5.815   9.955   4.327  0.2266 -0.2727  0.0340
 2219SOL    HW118311   5.817   9.989   4.421  1.3388  1.0975 -0.4832
 2219SOL    HW218312   5.812   9.855   4.328 -0.3663 -0.2571  1.5215
 2220SOL     OW18313   0.901   7.752   4.121 -0.5730  0.1491  0.4581
 2220SOL    HW118314   0.904   7.838   4.171 -1.9092  0.0559  0.7052
 2220SOL    HW218315   0.869   7.679   4.182  2.7694 -1.0187  0.9380
 2221SOL     OW18316   3.887   9.819   7.061  0.0228 -0.7239  0.3701
 2221SOL    HW118317   3.937   9.759   6.999 -2.2149 -1.4573 -0.8047
 2221SOL    HW218318   3.820   9.872   7.008  0.0067  0.7227  1.7943
 2222SOL     OW18319   5.560   0.336   5.630  0.3749 -0.2490 -0.9108
 2222SOL    HW118320   5.463   0.333   5.657  0.2422  0.0426 -1.3501
 2222SOL    HW218321   5.580   0.425   5.589  1.3069  0.4156  0.9305
 2223SOL     OW18322   0.053   1.686   1.082  0.0544  0.1202 -0.4109
 2223SOL    HW118323   0.142   1.640   1.075  1.0795  1.9509  0.2539
 2223SOL    HW218324   0.012   1.693   0.991  1.4749  0.9612 -1.0005
 2224SOL     OW18325   3.103   6.529   1.562 -0.4809 -0.1858  0.1152
 2224SOL    HW118326   3.088   6.627   1.566  0.2873 -0.0534 -0.1663
 2224SOL    HW218327   3.172   6.503   1.629  2.5987  0.1237 -2.8229
 2225SOL     OW18328   9.052   4.572   3.994 -0.7907  0.1033  0.2042
 2225SOL    HW118329   9.139   4.527   4.016 -1.2418 -1.3386 -0.8906
 2225SOL    HW218330   8.977   4.507   4.005 -1.6813  1.1959  0.6338
 2226SOL     OW18331   0.573   4.124   1.069 -0.4180 -0.4860 -0.2556
 2226SOL    HW118332   0.495   4.066   1.046 -0.7914 -0.5895  1.2105
 2226SOL    HW218333   0.643   4.115   0.998 -1.8611 -0.1467 -1.7484
 2227SOL     OW18334   2.498   6.308   2.882 -0.1009 -0.5475 -0.0490
 2227SOL    HW118335   2.457   6.342   2.966 -0.4229 -0.8141 -0.0957
 2227SOL    HW218336   2.426   6.277   2.820  0.1602 -0.8443 -0.2063
 2228SOL     OW18337   9.536   0.217   6.236  0.3743 -0.2669 -0.5820
 2228SOL    HW118338   9.495   0.201   6.327 -0.3019 -0.0499 -0.8468
 2228SOL    HW218339   9.634   0.195   6.240  1.0146  2.5599  0.9718
 2229SOL     OW18340   4.424   8.656   0.807  0.2663  0.6202 -0.3209
 2229SOL    HW118341   4.359   8.602   0.754 -1.1674  1.7814  0.2341
 2229SOL    HW218342   4.514   8.652   0.764 -0.6580  0.7542 -2.3051
 2230SOL     OW18343   7.601   4.653   0.466 -0.5199 -0.4675 -0.5598
 2230SOL    HW118344   7.536   4.587   0.427  0.1637 -2.2393  1.2152
 2230SOL    HW218345   7.583   4.663   0.564 -0.4357  1.8299 -0.7445
 2231SOL     OW18346   8.876   6.681   3.654 -0.2742 -0.4414  0.4431
 2231SOL    HW118347   8.790   6.714   3.691  0.1693 -0.4354  1.4924
 2231SOL    HW218348   8.931   6.758   3.621 -0.3751 -0.3820  0.4168
 2232SOL     OW18349   8.796   7.745   6.954 -0.2655  0.5065  0.1009
 2232SOL    HW118350   8.855   7.824   6.937 -2.4503  1.9701 -0.9097
 2232SOL    HW218351   8.727   7.769   7.023 -1.0206 -0.4886 -0.2910
 2233SOL     OW18352   1.744   2.324   5.903  0.2736 -0.0340 -0.7597
 2233SOL    HW118353   1.808   2.320   5.980 -1.4687  3.2411  0.9633
 2233SOL    HW218354   1.787   2.372   5.827  0.9084 -0.5455 -0.7361
 2234SOL     OW18355   0.633   8.013   1.972 -0.3646 -0.0203  0.0285
 2234SOL    HW118356   0.664   8.019   2.067 -1.1895  0.1528  0.2892
 2234SOL    HW218357   0.599   7.921   1.953  1.5616 -0.6121 -0.6534
 2235SOL     OW18358   6.258   2.151   2.182  0.5629  0.4581  0.0425
 2235SOL    HW118359   6.209   2.229   2.222  0.3505  0.6667 -0.6231
 2235SOL    HW218360   6.321   2.184   2.113  0.4110  0.0268 -0.3015
 2236SOL     OW18361   3.433   4.432   4.116 -0.6669 -0.6481  0.4321
 2236SOL    HW118362   3.476   4.397   4.199 -0.1334  0.5280  0.6671
 2236SOL    HW218363   3.489   4.505   4.078 -2.1613  0.5135  0.4127
 2237SOL     OW18364   3.092   9.084   2.750 -0.3424  0.1197  0.4807
 2237SOL    HW118365   3.009   9.057   2.798  0.4501 -1.8426  0.7972
 2237SOL    HW218366   3.071   9.104   2.655 -1.0850 -0.8542  0.4390
 2238SOL     OW18367   3.070   3.526   1.281 -0.7692  0.1255 -0.1264
 2238SOL    HW118368   3.110   3.522   1.189 -1.2128  0.3955 -0.3358
 2238SOL    HW218369   2.987   3.582   1.278 -1.3022 -0.6457  0.2512
 2239SOL     OW18370   4.683   0.086   2.044 -0.6615  0.1500 -0.0029
 2239SOL    HW118371   4.720  -0.000   2.077 -1.1780  0.6379  1.8800
 2239SOL    HW218372   4.718   0.162   2.099 -1.5266  0.9761 -0.5597
 2240SOL     OW18373   8.064   7.945   6.375  0.0009 -0.6096  0.4569
 2240SOL    HW118374   8.011   7.950   6.290 -0.2624 -1.9964  0.5235
 2240SOL    HW218375   8.002   7.933   6.452  0.3653 -1.5941  0.6047
 2241SOL     OW18376   0.687   4.480   2.656 -0.1291 -0.0917 -0.0044
 2241SOL    HW118377   0.666   4.399   2.712 -0.7428  0.1832  0.1678
 2241SOL    HW218378   0.601   4.523   2.628  0.1242 -0.9299 -2.1789
 2242SOL     OW18379   6.623   8.279   7.270 -0.3313  0.1780  0.8494
 2242SOL    HW118380   6.661   8.294   7.361 -2.6092 -0.3255  1.9158
 2242SOL    HW218381   6.649   8.188   7.238 -0.3917 -0.0484  1.4377
 2243SOL     OW18382   1.926   3.532   5.313 -0.0439 -0.5919  0.1069
 2243SOL    HW118383   2.001   3.471   5.339  0.1876 -1.0032 -1.5133
 2243SOL    HW218384   1.962   3.623   5.295  0.1775 -0.9604 -1.3557
 2244SOL     OW18385   8.498   3.052   3.630  0.4032 -0.0190 -0.7297
 2244SOL    HW118386   8.497   3.098   3.719 -0.8852 -2.1985  0.4359
 2244SOL    HW218387   8.554   3.104   3.566  0.8796  1.9005  1.1883
 2245SOL     OW18388   2.787   2.097   5.037 -0.1330 -0.2163 -0.0027
 2245SOL    HW118389   2.881   2.081   5.067  0.6111  2.1025 -0.9737
 2245SOL    HW218390   2.736   2.142   5.111 -0.0822 -0.1787  0.0092
 2246SOL     OW18391   0.702   9.402   7.505  0.3448 -0.0024 -0.5040
 2246SOL    HW118392   0.759   9.343   7.562  0.9204 -1.2444 -2.3409
 2246SOL    HW218393   0.722   9.498   7.527  1.6197 -0.4401  0.3355
 2247SOL     OW18394   2.645   1.388   2.494  0.1480  0.3696  0.1619
 2247SOL    HW118395   2.714   1.417   2.560 -0.0540 -0.0778  0.5664
 2247SOL    HW218396   2.616   1.467   2.440  0.3674  0.7194  0.5514
 2248SOL     OW18397   5.088   3.154   0.557 -0.2807 -0.2734  0.2729
 2248SOL    HW118398   5.147   3.115   0.627  0.6913  0.6252 -0.0436
 2248SOL    HW218399   5.051   3.242   0.588 -3.4656 -1.9459  1.5001
 2249SOL     OW18400   6.649   2.135   4.491 -0.4190  0.3654  0.2233
 2249SOL    HW118401   6.625   2.125   4.587 -0.4261 -0.0507  0.1777
 2249SOL    HW218402   6.612   2.058   4.439  2.3665 -1.1500  0.3956
 2250SOL     OW18403   8.460   1.495   3.855 -0.2447 -0.4801 -0.0075
 2250SOL    HW118404   8.532   1.564   3.860  1.1478 -1.9031 -0.2198
 2250SOL    HW218405   8.404   1.511   3.773 -0.3635  0.7871  0.3036
 2251SOL     OW18406   5.656   1.513   1.913 -0.2579  0.1739  0.2463
 2251SOL    HW118407   5.707   1.569   1.849  1.0236  0.5162  1.5345
 2251SOL    HW218408   5.618   1.434   1.865 -1.8271  1.9540 -1.5094
 2252SOL     OW18409   3.506   3.655   1.341 -0.1085  0.2272 -0.0744
 2252SOL    HW118410   3.588   3.665   1.397 -1.0430  1.2831  1.1376
 2252SOL    HW218411   3.459   3.743   1.334 -1.7845 -0.6171  0.2744
 2253SOL     OW18412   0.348   8.070   6.142 -0.0844  0.6400 -0.5817
 2253SOL    HW118413   0.407   8.092   6.065  0.8830  0.0883 -0.0063
 2253SOL    HW218414   0.279   8.141   6.152  0.2034  1.0629 -1.5366
 2254SOL     OW18415   7.175   7.164   4.356  0.0245 -0.8068 -0.5460
 2254SOL    HW118416   7.130   7.075   4.364 -0.2720 -0.7023 -1.0381
 2254SOL    HW218417   7.204   7.179   4.262 -1.6070  0.4217 -0.8838
 2255SOL     OW18418   4.311   7.841   5.201  0.3058  0.1341 -0.4698
 2255SOL    HW118419   4.395   7.866   5.249 -1.3411  1.5901  1.7527
 2255SOL    HW218420   4.286   7.914   5.137  0.4015 -0.0410 -0.7101
 2256SOL     OW18421   6.678   8.437   4.093 -0.1681 -0.2864 -0.2356
 2256SOL    HW118422   6.741   8.410   4.020 -1.4913 -0.5528 -1.3002
 2256SOL    HW218423   6.584   8.435   4.058 -0.5896  2.3547  0.6753
 2257SOL     OW18424   0.911   4.445   1.820  0.3039  0.0367  0.0823
 2257SOL    HW118425   1.005   4.434   1.788  0.3361 -0.2202  0.2553
 2257SOL    HW218426   0.847   4.418   1.748  0.3244  1.9765 -0.6903
 2258SOL     OW18427   5.039   4.585   6.705 -0.1817  0.0818  0.2894
 2258SOL    HW118428   5.133   4.553   6.718  0.2482  1.4151  0.5466
 2258SOL    HW218429   4.989   4.577   6.791 -0.4588 -1.0663  0.0387
 2259SOL     OW18430   1.034   4.569   6.599  0.2799 -0.2345  0.3667
 2259SOL    HW118431   1.038   4.669   6.606  1.1999 -0.1805 -0.8265
 2259SOL    HW218432   0.954   4.536   6.648  2.3653  0.7095  4.6837
 2260SOL     OW18433   3.830   6.142   2.394 -0.0001  0.1186  0.4805
 2260SOL    HW118434   3.820   6.104   2.302  0.0990  0.5433  0.2918
 2260SOL    HW218435   3.918   6.189   2.402 -0.1552  0.3806  0.6816
 2261SOL     OW18436   2.128   5.165   7.373  0.0012 -0.0908 -0.2295
 2261SOL    HW118437   2.163   5.222   7.298 -1.1384  0.5693 -0.2765
 2261SOL    HW218438   2.068   5.221   7.432  3.2968  0.2653  2.9735
 2262SOL     OW18439   7.219   7.595   6.260  0.5924  0.4265 -0.4030
 2262SOL    HW118440   7.247   7.599   6.164  1.4892  0.3924 -0.1494
 2262SOL    HW218441   7.221   7.687   6.300 -0.6424  0.5715 -0.6501
 2263SOL     OW18442   9.940   7.575   3.200 -0.4294  0.3960 -0.5952
 2263SOL    HW118443   9.975   7.591   3.108  0.4184 -2.0814 -0.7298
 2263SOL    HW218444  10.016   7.566   3.264 -0.8644 -2.1390 -0.3996
 2264SOL     OW18445   4.440   1.653   0.986 -0.5495  0.8314  0.0165
 2264SOL    HW118446   4.432   1.626   1.081  0.9080 -0.2705 -0.1617
 2264SOL    HW218447   4.482   1.580   0.933  0.5418  2.2087 -1.0836
 2265SOL     OW18448   8.728   3.669   0.227 -0.1951  0.2616 -0.3676
 2265SOL    HW118449   8.800   3.736   0.243 -0.2199 -0.2080  1.8433
 2265SOL    HW218450   8.764   3.577   0.239 -0.7515 -0.0486 -1.0092
 2266SOL     OW18451   9.148   3.406   2.968 -0.1863  0.3926  0.4686
 2266SOL    HW118452   9.123   3.335   3.034  0.8021 -0.9063 -0.5019
 2266SOL    HW218453   9.246   3.400   2.949 -0.6016  0.1430 -1.7738
 2267SOL     OW18454   0.785   8.658   1.659 -0.2979  0.9056  0.2169
 2267SOL    HW118455   0.833   8.571   1.648  1.8581  1.9311  1.2423
 2267SOL    HW218456   0.711   8.646   1.726 -0.9192 -0.4454 -0.6755
 2268SOL     OW18457   2.945   3.443   5.275  0.6417 -0.1081 -0.0905
 2268SOL    HW118458   3.037   3.449   5.313  0.3195 -1.2878  0.8669
 2268SOL    HW218459   2.880   3.423   5.348 -0.4127  0.9264 -0.7300
 2269SOL     OW18460   8.464   4.957   1.710 -0.4590  0.3590 -0.1910
 2269SOL    HW118461   8.540   4.958   1.776  0.9453  0.6453 -1.7670
 2269SOL    HW218462   8.384   5.001   1.751 -0.4009 -1.6637  2.1882
 2270SOL     OW18463   1.120   4.469   3.163  0.5126 -0.0475  0.4271
 2270SOL    HW118464   1.213   4.493   3.136  0.8072 -1.2679  0.3203
 2270SOL    HW218465   1.114   4.462   3.263  0.0468  1.9535  0.5554
 2271SOL     OW18466   0.209   4.381   1.035  0.2682  0.0205 -0.8952
 2271SOL    HW118467   0.283   4.392   0.969  0.2920 -0.4425 -0.9473
 2271SOL    HW218468   0.220   4.448   1.109  1.6443 -1.0799 -0.0669
 2272SOL     OW18469   9.009   3.707   0.913  0.2341 -0.1477 -0.5148
 2272SOL    HW118470   8.965   3.720   1.001 -0.2852  0.0399 -0.8039
 2272SOL    HW218471   8.964   3.633   0.864  0.6360 -0.3722 -0.5485
 2273SOL     OW18472   0.498   4.258   1.384  0.2607 -0.5404  0.4147
 2273SOL    HW118473   0.399   4.273   1.378  0.1709 -1.0946  0.5559
 2273SOL    HW218474   0.534   4.242   1.292 -0.0035 -1.7833  0.5226
 2274SOL     OW18475   8.913   3.252   4.364  0.3630  0.1836 -0.4027
 2274SOL    HW118476   8.923   3.154   4.347  0.3126  0.2981 -1.1048
 2274SOL    HW218477   8.820   3.280   4.343  0.3547  0.3674 -0.1252
 2275SOL     OW18478   7.755   2.304   1.361 -0.2386  0.0731 -0.5397
 2275SOL    HW118479   7.656   2.298   1.364 -0.2738  0.2093 -1.1464
 2275SOL    HW218480   7.789   2.253   1.282  0.3990 -2.2514  1.1992
 2276SOL     OW18481   2.798   7.699   3.580  0.0260  0.0266 -0.0110
 2276SOL    HW118482   2.706   7.673   3.609  1.0351 -0.5723  2.8602
 2276SOL    HW218483   2.865   7.650   3.636  2.1152 -0.0236 -2.4762
 2277SOL     OW18484   1.019   1.544   1.918  0.4126 -1.0098 -0.3259
 2277SOL    HW118485   1.106   1.509   1.955  0.3263  0.2274  1.0639
 2277SOL    HW218486   0.948   1.537   1.987  0.1404  0.9157 -0.3845
 2278SOL     OW18487   5.017   3.056   1.052  0.0304 -0.2729 -0.3365
 2278SOL    HW118488   5.025   3.151   1.021  2.3211 -0.0193  1.0016
 2278SOL    HW218489   5.087   3.000   1.007 -0.7722 -1.1881 -0.4770
 2279SOL     OW18490   3.531   1.209   6.285 -0.1129 -0.1557  0.0790
 2279SOL    HW118491   3.609   1.246   6.235  0.2854 -0.1221  0.7179
 2279SOL    HW218492   3.492   1.132   6.235 -0.8804  1.0399 -1.2098
 2280SOL     OW18493   3.281   3.293   3.026  0.0501 -0.1075  0.0374
 2280SOL    HW118494   3.214   3.326   2.959  2.8454  2.2044 -1.7165
 2280SOL    HW218495   3.309   3.200   3.002 -1.3874 -0.5270 -0.0733
 2281SOL     OW18496   3.444   7.770   3.782  0.0444 -0.4363 -0.1662
 2281SOL    HW118497   3.426   7.799   3.875 -0.4459 -1.9308  0.2278
 2281SOL    HW218498   3.492   7.682   3.783 -0.3609 -0.6920 -1.3093
 2282SOL     OW18499   4.338   3.934   4.233  0.4800  0.3950 -1.1164
 2282SOL    HW118500   4.304   3.896   4.319 -0.0283  1.7724 -0.7010
 2282SOL    HW218501   4.395   3.866   4.187 -1.9424 -1.5836 -1.2985
 2283SOL     OW18502   3.685   1.407   0.281  0.3321  0.1303 -0.5168
 2283SOL    HW118503   3.659   1.411   0.377  2.1388 -2.9214  0.1436
 2283SOL    HW218504   3.634   1.335   0.235  0.5682  0.5830 -1.5123
 2284SOL     OW18505   8.529   0.054   2.319 -0.7802 -0.3478 -0.1919
 2284SOL    HW118506   8.579  -0.029   2.293 -0.8942 -0.5999  0.3743
 2284SOL    HW218507   8.431   0.032   2.328 -0.6171 -0.4903  1.3645
 2285SOL     OW18508   3.598   8.902   1.207  0.1046 -0.1411  0.3641
 2285SOL    HW118509   3.675   8.843   1.229  0.4259  0.3921  0.6829
 2285SOL    HW218510   3.616   8.995   1.240 -0.9732 -0.1723  1.0590
 2286SOL     OW18511   3.327   6.165   2.454  0.9111 -0.6718  0.0499
 2286SOL    HW118512   3.330   6.066   2.436  0.8697 -0.6212 -0.2245
 2286SOL    HW218513   3.339   6.180   2.552  2.8076 -0.8523 -0.1345
 2287SOL     OW18514   6.628   7.281   5.260 -0.5639  0.4451  0.5739
 2287SOL    HW118515   6.721   7.272   5.225 -0.4991 -1.4451  1.2166
 2287SOL    HW218516   6.563   7.251   5.190 -0.5886 -0.2427  0.8915
 2288SOL     OW18517   6.660   2.022   7.019  0.2411  0.6018  0.5215
 2288SOL    HW118518   6.726   2.011   7.094 -1.2611  0.8085  1.9040
 2288SOL    HW218519   6.620   1.933   6.997  2.5346  0.0747 -1.8300
 2289SOL     OW18520   9.479   7.763   1.555 -0.0057  0.4023 -0.0993
 2289SOL    HW118521   9.446   7.677   1.593 -2.2087  0.8237 -0.9971
 2289SOL    HW218522   9.412   7.835   1.571  1.5485  1.8481  0.1245
 2290SOL     OW18523   7.530   3.008   4.143  0.2265  0.1634  0.1510
 2290SOL    HW118524   7.551   3.002   4.240 -0.2426  0.2925  0.2596
 2290SOL    HW218525   7.435   2.983   4.127  1.1530 -3.1390 -0.6757
 2291SOL     OW18526   3.005   0.991   7.782  0.0219 -0.5271  0.0923
 2291SOL    HW118527   2.960   0.959   7.865 -1.2604 -2.1234 -1.1785
 2291SOL    HW218528   2.951   1.066   7.742  1.2965  1.0780  1.3380
 2292SOL     OW18529   2.643   5.356   2.904 -0.0305 -0.1773  0.7968
 2292SOL    HW118530   2.722   5.298   2.883 -0.1797 -0.8317  2.0099
 2292SOL    HW218531   2.640   5.432   2.839  1.0220 -0.7011  0.1152
 2293SOL     OW18532   0.706   0.465   2.489 -0.8735  0.2894 -0.1756
 2293SOL    HW118533   0.773   0.534   2.518  0.0893 -1.0375  0.8306
 2293SOL    HW218534   0.614   0.504   2.496 -0.3587  1.4416  0.4592
 2294SOL     OW18535   3.442   1.064   0.742  0.0184  0.3723  0.1058
 2294SOL    HW118536   3.498   1.129   0.690 -0.4293  0.8609  0.2186
 2294SOL    HW218537   3.391   1.006   0.679  0.6061 -0.0376  0.0036
 2295SOL     OW18538   1.836   5.065   6.855  0.3402 -0.0197  0.1901
 2295SOL    HW118539   1.761   5.037   6.916  1.7063  0.0598  1.9348
 2295SOL    HW218540   1.862   4.989   6.797 -0.9198 -0.1274 -0.2512
 2296SOL     OW18541   8.844   0.675   1.615 -0.2036  0.1715 -0.0955
 2296SOL    HW118542   8.762   0.624   1.642  0.4563 -0.7467  0.2098
 2296SOL    HW218543   8.904   0.616   1.560 -0.3238  1.2212 -1.3868
 2297SOL     OW18544   1.885   4.432   4.942 -0.3147  0.3334  0.4305
 2297SOL    HW118545   1.815   4.474   4.883  1.1553  1.2193 -0.7122
 2297SOL    HW218546   1.851   4.428   5.036 -1.7445  1.1189 -0.0292
 2298SOL     OW18547   1.298   9.959   2.770  0.0227 -0.7187  0.1907
 2298SOL    HW118548   1.203   9.945   2.798  0.2580 -0.1480  1.2981
 2298SOL    HW218549   1.356   9.963   2.851  1.5244 -4.7952 -0.6081
 2299SOL     OW18550   9.976   1.346   4.243 -0.2121 -1.0673  0.6222
 2299SOL    HW118551   9.974   1.370   4.340 -1.7143 -1.7966  0.7890
 2299SOL    HW218552   9.965   1.247   4.233  0.4723 -1.0593 -0.2779
 2300SOL     OW18553   4.544   5.807   4.321 -0.1481 -0.0741  0.2067
 2300SOL    HW118554   4.614   5.744   4.353 -0.9660 -1.0645  0.0624
 2300SOL    HW218555   4.564   5.833   4.226 -1.1287 -2.0220 -0.5492
 2301SOL     OW18556   4.981   2.426   5.379  0.0203  0.8679 -0.0224
 2301SOL    HW118557   5.058   2.423   5.315  0.0016  1.3739 -0.0733
 2301SOL    HW218558   5.016   2.431   5.472  0.0720 -3.1933  0.2362
 2302SOL     OW18559   1.087   7.268   3.067  0.0491 -0.1613  0.3421
 2302SOL    HW118560   1.043   7.211   2.998 -1.4755  1.8545 -0.4173
 2302SOL    HW218561   1.105   7.214   3.149  1.5627 -2.5129 -1.4562
 2303SOL     OW18562   9.463   6.839   5.050  0.3399  0.3707 -0.3121
 2303SOL    HW118563   9.512   6.920   5.084 -0.7033  0.3025  1.4335
 2303SOL    HW218564   9.381   6.824   5.106 -0.6896 -0.5917 -2.0326
 2304SOL     OW18565   5.748   5.989   9.959  0.1690 -0.3100 -0.3066
 2304SOL    HW118566   5.676   6.051   9.990  1.1782  1.2101 -0.9646
 2304SOL    HW218567   5.709   5.923   9.894 -0.7857  0.0395 -0.0953
 2305SOL     OW18568   6.479   1.079   7.243 -0.1471  0.3449  0.3432
 2305SOL    HW118569   6.470   1.008   7.173  0.4568  0.0042  0.6178
 2305SOL    HW218570   6.392   1.129   7.250  0.1453  1.1436 -1.4832
 2306SOL     OW18571   1.926   6.763   4.369 -0.3080  0.0890 -0.9973
 2306SOL    HW118572   1.897   6.694   4.435 -0.1653 -1.6519 -2.6991
 2306SOL    HW218573   1.982   6.832   4.415 -0.8161 -0.6846  0.8222
 2307SOL     OW18574   5.861   3.984   1.071 -0.0387  0.3314 -0.8355
 2307SOL    HW118575   5.790   4.052   1.091 -1.0245 -0.7430 -0.6336
 2307SOL    HW218576   5.909   3.961   1.156 -0.5724 -0.1726 -0.6634
 2308SOL     OW18577   3.087   9.987   6.342 -0.0451 -0.2434 -0.5682
 2308SOL    HW118578   3.092   9.943   6.431  0.8800 -0.9472 -0.9637
 2308SOL    HW218579   3.082   9.917   6.270  0.7959  0.2873 -1.1586
 2309SOL     OW18580   1.449   7.934   6.005 -0.4468  0.7186  0.0627
 2309SOL    HW118581   1.528   7.949   5.946  0.5869 -0.0758  1.2180
 2309SOL    HW218582   1.389   7.865   5.964 -0.0208  0.5781 -0.3288
 2310SOL     OW18583   9.555   4.410   4.783  0.0557 -0.1266  0.2528
 2310SOL    HW118584   9.594   4.325   4.819  1.4422  0.8245  1.0527
 2310SOL    HW218585   9.465   4.426   4.823 -0.4575 -1.4797 -0.3182
 2311SOL     OW18586   8.411   5.694   7.083  0.7633  0.0473  0.1941
 2311SOL    HW118587   8.467   5.710   7.002  0.1955  0.4055 -0.1280
 2311SOL    HW218588   8.409   5.777   7.138 -0.8661  0.5938 -0.6684
 2312SOL     OW18589   2.537   8.291   0.697  0.0691 -0.3046  0.1961
 2312SOL    HW118590   2.568   8.316   0.606 -1.0395  0.8834  0.1223
 2312SOL    HW218591   2.614   8.256   0.751  0.9982  0.2597 -0.7509
 2313SOL     OW18592   2.989   8.113   2.102  0.0692 -0.0622 -0.3595
 2313SOL    HW118593   3.035   8.063   2.028  1.1418 -1.3244  1.1397
 2313SOL    HW218594   3.045   8.193   2.126 -0.5978  0.7123 -1.3172
 2314SOL     OW18595   6.602   1.127   5.795  0.3561 -0.4624  0.5430
 2314SOL    HW118596   6.567   1.060   5.860 -0.6479  0.3993  0.8935
 2314SOL    HW218597   6.528   1.185   5.763  1.2640  0.6483  0.4276
 2315SOL     OW18598   0.816   2.714   6.958  0.4103 -0.5315 -0.4791
 2315SOL    HW118599   0.915   2.722   6.968  0.7016 -3.1609 -0.7955
 2315SOL    HW218600   0.777   2.677   7.042 -0.3818  1.0721 -0.1407
 2316SOL     OW18601   6.422   8.565   5.347  0.2110 -0.2394  0.5542
 2316SOL    HW118602   6.492   8.635   5.357  0.7790 -0.6853 -0.2885
 2316SOL    HW218603   6.463   8.481   5.311 -0.5874 -0.7997  0.9235
 2317SOL     OW18604   1.719   9.117   6.438 -0.0384 -0.5343  0.1723
 2317SOL    HW118605   1.638   9.160   6.397  1.4959  2.0459 -0.3021
 2317SOL    HW218606   1.733   9.027   6.397  0.0425  0.9618 -3.2882
 2318SOL     OW18607   4.552   8.771   3.106 -0.0434 -0.3450 -0.2845
 2318SOL    HW118608   4.650   8.763   3.084 -0.0443 -0.1341 -0.3603
 2318SOL    HW218609   4.507   8.827   3.037 -0.5766 -2.0259 -1.3217
 2319SOL     OW18610   1.530   6.178   3.079 -0.4015  0.3070  0.0688
 2319SOL    HW118611   1.605   6.186   3.014 -1.0119 -0.4096 -0.7284
 2319SOL    HW218612   1.566   6.183   3.172  0.7650 -1.0643 -0.2910
 2320SOL     OW18613   9.442   8.615   1.642  0.1572 -0.2802 -0.7338
 2320SOL    HW118614   9.374   8.686   1.626  1.7019  1.5508  0.6135
 2320SOL    HW218615   9.413   8.558   1.719 -0.2707 -0.0112 -0.6979
 2321SOL     OW18616   4.033   0.402   7.976 -0.1842  0.3276  0.3412
 2321SOL    HW118617   3.983   0.474   8.023 -0.9034  0.5189 -0.6953
 2321SOL    HW218618   4.034   0.421   7.878  0.6174 -0.4739  0.1824
 2322SOL     OW18619   1.761   6.260   3.296  0.0471 -0.1736  0.0605
 2322SOL    HW118620   1.820   6.188   3.260  1.0938  0.3895  0.6148
 2322SOL    HW218621   1.683   6.218   3.343  1.9335 -1.0415  2.5560
 2323SOL     OW18622   7.547   2.691   2.037  0.0680 -0.0268 -0.0650
 2323SOL    HW118623   7.451   2.706   2.013  0.1676  2.6832  1.0172
 2323SOL    HW218624   7.558   2.704   2.136  1.0235 -3.3361  0.3078
 2324SOL     OW18625   5.833   4.838   2.154 -0.4039 -0.3961 -0.5929
 2324SOL    HW118626   5.911   4.776   2.166 -0.3629  0.0049  1.4375
 2324SOL    HW218627   5.847   4.919   2.211 -2.8013 -0.7913  0.6018
 2325SOL     OW18628   9.281   0.427   0.019  0.0065  0.3330 -0.0609
 2325SOL    HW118629   9.318   0.337   0.042  1.3384  0.6427 -0.9878
 2325SOL    HW218630   9.354   0.495   0.019 -1.0259  1.4817  0.8602
 2326SOL     OW18631   7.182   3.075   0.270  0.5394  0.1109  0.1361
 2326SOL    HW118632   7.128   3.009   0.324  1.4648 -0.2634  0.6284
 2326SOL    HW218633   7.251   3.025   0.218 -0.0313  0.5276 -1.0179
 2327SOL     OW18634   8.101   6.999   5.647  0.7693 -0.5417 -0.5698
 2327SOL    HW118635   8.127   6.960   5.559 -0.9422  0.1808 -1.4253
 2327SOL    HW218636   8.020   7.058   5.635 -0.6614 -1.9453  1.7939
 2328SOL     OW18637   2.710   8.641   6.094 -0.3570  0.0452  0.0787
 2328SOL    HW118638   2.686   8.583   6.015 -0.1698 -0.4848  0.4051
 2328SOL    HW218639   2.733   8.582   6.172  1.7355  0.5555 -0.1519
 2329SOL     OW18640   3.940   0.790   4.199  0.4413  0.6095  0.0850
 2329SOL    HW118641   3.924   0.693   4.180  1.2017  1.0619 -3.0600
 2329SOL    HW218642   3.864   0.826   4.253 -1.3624 -0.9984 -1.3296
 2330SOL     OW18643   7.715   5.135   3.005 -0.0596 -0.1618  0.4849
 2330SOL    HW118644   7.810   5.153   2.980  0.2994 -0.6940  1.4300
 2330SOL    HW218645   7.673   5.220   3.037  0.2991 -0.0558  0.6838
 2331SOL     OW18646   2.663   4.214   4.620 -0.5369 -0.2704 -0.1237
 2331SOL    HW118647   2.680   4.176   4.529 -0.1221  0.6382 -0.4341
 2331SOL    HW218648   2.566   4.202   4.643 -0.8589  0.3886 -1.1118
 2332SOL     OW18649   1.371   2.232   5.556  0.0214  0.4620 -0.1300
 2332SOL    HW118650   1.386   2.194   5.465 -0.1501  1.7607 -0.7237
 2332SOL    HW218651   1.278   2.210   5.586  0.3729 -0.7200  0.1159
 2333SOL     OW18652   0.004   0.201   1.793  0.6598 -0.1216 -0.2637
 2333SOL    HW118653  -0.085   0.204   1.837 -0.0329  0.6776 -1.6872
 2333SOL    HW218654   0.001   0.138   1.716  1.3349 -0.1116 -0.3012
 2334SOL     OW18655   1.742   4.702   5.546 -0.0551  0.5631 -0.1853
 2334SOL    HW118656   1.686   4.774   5.505 -0.5872 -0.4445 -1.2495
 2334SOL    HW218657   1.703   4.674   5.633  0.2510  1.6724  0.3212
 2335SOL     OW18658   9.362   3.726   6.877  0.1559 -0.3909  0.0579
 2335SOL    HW118659   9.394   3.793   6.944  0.4448 -0.9680  0.4987
 2335SOL    HW218660   9.439   3.675   6.840  0.1170  0.6670 -1.5286
 2336SOL     OW18661   2.918   3.578   4.157 -0.3163 -0.3690  0.5329
 2336SOL    HW118662   2.947   3.540   4.069  0.5642  2.2256 -0.3411
 2336SOL    HW218663   2.998   3.587   4.217 -0.2901  1.1580  0.2979
 2337SOL     OW18664   8.859   7.854   4.887 -0.7376  0.0452 -0.2764
 2337SOL    HW118665   8.873   7.946   4.849 -1.4661  0.4405  0.3980
 2337SOL    HW218666   8.821   7.795   4.815 -1.1944  0.5346 -0.4438
 2338SOL     OW18667   7.802   8.566   3.794 -0.1759  0.1789 -0.4563
 2338SOL    HW118668   7.715   8.583   3.749 -1.2652 -3.0547  0.2635
 2338SOL    HW218669   7.786   8.548   3.891  1.3589  0.1235 -0.1993
 2339SOL     OW18670   9.828   2.570   6.094  0.1033 -0.0140 -0.2701
 2339SOL    HW118671   9.882   2.616   6.164 -0.2874  1.2167 -0.7657
 2339SOL    HW218672   9.835   2.621   6.008 -1.5609 -0.0363 -0.4289
 2340SOL     OW18673   7.688   8.272   2.458  0.4077  0.6094 -0.0549
 2340SOL    HW118674   7.652   8.252   2.549  0.3699  0.3266 -0.1331
 2340SOL    HW218675   7.613   8.291   2.395  0.4953  2.5199  0.3747
 2341SOL     OW18676   8.334   9.486   6.595  0.7027  0.5137 -0.4461
 2341SOL    HW118677   8.371   9.558   6.654  0.4740  0.7390 -0.5767
 2341SOL    HW218678   8.334   9.399   6.644 -1.4559  1.1065  0.6277
 2342SOL     OW18679   0.248   3.790   6.901  1.0371  0.0134 -0.4915
 2342SOL    HW118680   0.156   3.792   6.939  0.9367  0.4924 -0.7594
 2342SOL    HW218681   0.308   3.738   6.962  0.6294 -0.1542 -0.2333
 2343SOL     OW18682   2.382   2.900   5.094  0.6593  0.2289  0.0121
 2343SOL    HW118683   2.284   2.897   5.111  0.2623  0.3381 -2.1194
 2343SOL    HW218684   2.406   2.988   5.053  1.6220  0.1415  0.3735
 2344SOL     OW18685   4.360   8.802   7.403 -0.2579  0.0441  0.4363
 2344SOL    HW118686   4.290   8.761   7.461 -1.3348 -1.2030 -1.6728
 2344SOL    HW218687   4.430   8.734   7.382  0.8279  0.8646  1.3217
 2345SOL     OW18688   3.733   5.311   1.283  0.3328 -0.1175  0.3994
 2345SOL    HW118689   3.678   5.233   1.314 -1.8737  1.4714  0.6275
 2345SOL    HW218690   3.719   5.388   1.346 -0.6128  1.7167 -1.9986
 2346SOL     OW18691   3.542   5.404   3.641 -0.0279 -0.3678  0.3161
 2346SOL    HW118692   3.511   5.491   3.677  1.2472  0.2078  0.0602
 2346SOL    HW218693   3.507   5.392   3.548  1.0228  0.5598 -0.2047
 2347SOL     OW18694   2.560   7.695   6.941  0.0822  0.2007  0.2875
 2347SOL    HW118695   2.575   7.727   7.035  4.6811  0.0974 -0.3118
 2347SOL    HW218696   2.617   7.615   6.924 -1.5405 -0.4391 -2.2760
 2348SOL     OW18697   6.120   1.046   7.571  0.3494  0.6094  0.1604
 2348SOL    HW118698   6.117   1.027   7.669 -0.0089  0.2580  0.0828
 2348SOL    HW218699   6.173   0.974   7.525  1.8437  1.5982  0.2883
 2349SOL     OW18700   8.677   7.658   2.142 -0.0095  0.0752 -0.3152
 2349SOL    HW118701   8.628   7.738   2.176  0.1238  0.0841 -0.1438
 2349SOL    HW218702   8.624   7.575   2.161  1.4135 -0.2214  2.5504
 2350SOL     OW18703   0.326   6.020   7.750 -0.2364  0.7938  0.3358
 2350SOL    HW118704   0.422   6.029   7.775 -0.2998 -0.3663  1.0274
 2350SOL    HW218705   0.319   6.000   7.652  0.2920 -0.3594  0.5268
 2351SOL     OW18706   9.483   5.141   1.234 -0.1621  0.2609 -0.2349
 2351SOL    HW118707   9.561   5.199   1.211  0.2116  0.2494  0.9416
 2351SOL    HW218708   9.493   5.052   1.190  1.0028 -0.0813  0.6783
 2352SOL     OW18709   9.616   3.381   5.228  0.5502 -0.3974  0.3251
 2352SOL    HW118710   9.643   3.288   5.204 -0.7664 -0.2614 -1.7398
 2352SOL    HW218711   9.693   3.428   5.272  2.0120 -1.6453 -0.8771
 2353SOL     OW18712   5.810   3.127   1.017  0.5601  0.1311 -0.3259
 2353SOL    HW118713   5.760   3.072   0.949  0.7101  0.2847 -0.5617
 2353SOL    HW218714   5.892   3.078   1.045  0.8853  0.3939 -0.8089
 2354SOL     OW18715   0.007   6.531   6.016 -0.7649 -0.2711  1.0452
 2354SOL    HW118716   0.060   6.448   5.998 -2.6160 -1.0829 -0.9433
 2354SOL    HW218717   0.067   6.602   6.053  1.8556 -0.8952 -1.8285
 2355SOL     OW18718   0.621   7.605   4.429 -0.7091  0.2359 -0.0866
 2355SOL    HW118719   0.532   7.578   4.467 -1.3828  1.1158 -1.0305
 2355SOL    HW218720   0.661   7.676   4.487 -0.0622 -0.9816  1.0026
 2356SOL     OW18721   0.975   8.247   0.311 -0.4510  0.1762 -0.0768
 2356SOL    HW118722   1.069   8.276   0.290 -0.4644  0.3211  0.0610
 2356SOL    HW218723   0.940   8.302   0.387 -0.1157 -0.8832  0.8653
 2357SOL     OW18724   0.922   4.017   2.332 -0.5761  0.2965  0.0359
 2357SOL    HW118725   0.944   3.969   2.246  0.7485  0.2989  0.3711
 2357SOL    HW218726   0.848   3.969   2.378  1.9693 -2.5678  1.2903
 2358SOL     OW18727   0.298   3.707   8.086 -0.0555 -0.1799 -0.3536
 2358SOL    HW118728   0.302   3.691   7.988 -0.2965 -0.6457 -0.2922
 2358SOL    HW218729   0.317   3.803   8.106 -1.0507  0.1422 -0.9264
 2359SOL     OW18730   7.758   4.552   6.487  0.1024  0.3385  0.1941
 2359SOL    HW118731   7.748   4.641   6.532  2.9910  0.2436  1.1380
 2359SOL    HW218732   7.778   4.483   6.556 -0.2720 -0.7082 -0.7392
 2360SOL     OW18733   9.713   4.383   2.389 -0.1566  0.4101  0.2765
 2360SOL    HW118734   9.614   4.376   2.397 -0.2350 -0.0135 -0.9438
 2360SOL    HW218735   9.757   4.319   2.453 -0.6748 -0.0783  0.1422
 2361SOL     OW18736   4.111   2.181   5.774  0.1015 -0.2911  0.3507
 2361SOL    HW118737   4.164   2.257   5.735  1.3797 -2.8067 -2.9788
 2361SOL    HW218738   4.170   2.102   5.787 -1.6764 -1.4114  1.8555
 2362SOL     OW18739   8.768   0.888   4.401 -0.3421 -0.4828  0.4850
 2362SOL    HW118740   8.716   0.810   4.364 -1.3455  0.1237  0.6137
 2362SOL    HW218741   8.861   0.858   4.421  0.2858 -0.8095 -2.6519
 2363SOL     OW18742   0.729   1.285   4.285 -0.0833 -0.5230  0.0262
 2363SOL    HW118743   0.787   1.205   4.302  0.7510  0.5681  2.5078
 2363SOL    HW218744   0.664   1.295   4.361 -1.5321  0.0273 -1.2536
 2364SOL     OW18745   4.024   6.905   4.518  0.1604 -0.1692  0.1068
 2364SOL    HW118746   3.954   6.971   4.546 -1.5941 -1.4289 -1.1593
 2364SOL    HW218747   4.017   6.823   4.576  0.1332 -0.5704 -0.4625
 2365SOL     OW18748   2.623   1.061   2.830  0.1997 -0.7575 -0.0603
 2365SOL    HW118749   2.615   1.101   2.921  1.9430 -1.6699  0.5137
 2365SOL    HW218750   2.537   1.016   2.805 -1.0165  1.3662  0.2060
 2366SOL     OW18751   7.343   9.104   8.173  0.3377  0.0439  0.0145
 2366SOL    HW118752   7.247   9.129   8.163 -0.1490 -1.0784  1.8870
 2366SOL    HW218753   7.358   9.060   8.261  2.4345 -0.4526 -0.5622
 2367SOL     OW18754   3.603   8.464   6.871  0.2031  0.0191 -0.3275
 2367SOL    HW118755   3.570   8.503   6.957  0.5615  1.1585 -0.6934
 2367SOL    HW218756   3.617   8.366   6.882  0.9132  0.2719  1.1113
 2368SOL     OW18757   8.143   2.182   5.364 -0.3374  0.0269 -0.1072
 2368SOL    HW118758   8.100   2.270   5.343  1.9877  1.5689  1.4198
 2368SOL    HW218759   8.104   2.145   5.448 -1.3765 -0.4670 -0.7958
 2369SOL     OW18760   2.093   5.191   1.207  0.2727  0.4840 -0.1162
 2369SOL    HW118761   2.117   5.204   1.303  1.1856 -2.0105  0.0337
 2369SOL    HW218762   2.141   5.110   1.171  0.0750  1.4749 -2.7161
 2370SOL     OW18763   1.537   8.999   5.491  0.1898  0.3041 -0.2334
 2370SOL    HW118764   1.531   9.094   5.457 -1.9100 -0.6498 -2.7116
 2370SOL    HW218765   1.603   8.949   5.435 -0.1105 -0.1874 -0.1426
 2371SOL     OW18766   6.739   9.124   1.885  0.3498  0.3129 -0.5078
 2371SOL    HW118767   6.738   9.181   1.966  0.0224 -0.0026 -0.2884
 2371SOL    HW218768   6.749   9.028   1.911 -2.2800 -0.0509 -0.6719
 2372SOL     OW18769   8.828   5.127   5.480 -0.1570  0.3655 -0.4762
 2372SOL    HW118770   8.794   5.065   5.552 -0.2225 -1.0553 -1.7044
 2372SOL    HW218771   8.927   5.115   5.470 -0.2245  0.1943 -0.9544
 2373SOL     OW18772   3.218   4.581   5.860 -0.1841 -0.3751  0.1033
 2373SOL    HW118773   3.199   4.650   5.791  1.0864 -0.2656 -0.1449
 2373SOL    HW218774   3.224   4.624   5.950  1.7142  0.0379 -0.1884
 2374SOL     OW18775   5.158   1.564   0.487  0.6694  0.1903 -0.1189
 2374SOL    HW118776   5.250   1.595   0.510 -0.1675  1.2033  2.0382
 2374SOL    HW218777   5.113   1.530   0.569 -1.5766  1.6058 -0.7018
 2375SOL     OW18778   8.542   3.371   0.405  0.3423  0.0828  0.3394
 2375SOL    HW118779   8.594   3.379   0.320 -1.2334  0.9040 -0.5819
 2375SOL    HW218780   8.554   3.280   0.444  0.5680 -0.5137 -1.1102
 2376SOL     OW18781   1.305   7.879   3.942  0.1128  0.2733  0.0334
 2376SOL    HW118782   1.257   7.799   3.979 -0.4103  1.0496  1.0769
 2376SOL    HW218783   1.389   7.850   3.897 -1.3692 -1.1300 -1.9282
 2377SOL     OW18784   1.385   4.744   4.316 -0.0770  0.5137  0.0198
 2377SOL    HW118785   1.288   4.720   4.317  0.5237 -1.9464  0.4793
 2377SOL    HW218786   1.403   4.813   4.386 -1.2905  0.2555  0.5927
 2378SOL     OW18787   5.837   5.989   1.256  0.4426 -0.2468  0.3847
 2378SOL    HW118788   5.850   5.890   1.245  0.9655 -0.3421  1.8121
 2378SOL    HW218789   5.924   6.032   1.280  0.3434  0.6568 -0.8650
 2379SOL     OW18790   6.998   0.263   3.681  0.8337  0.1970 -0.2833
 2379SOL    HW118791   7.052   0.185   3.650  0.0690 -0.6599  0.5311
 2379SOL    HW218792   7.045   0.309   3.756  0.7667 -0.1337 -0.0380
 2380SOL     OW18793   4.434   4.189   6.603  0.6640  0.3178  0.8182
 2380SOL    HW118794   4.488   4.189   6.519  1.2488  0.2084  1.1864
 2380SOL    HW218795   4.413   4.094   6.629  0.6238  0.3433  0.8790
 2381SOL     OW18796   0.451   7.270   7.863 -0.1675 -0.2494 -0.5039
 2381SOL    HW118797   0.509   7.204   7.910  0.7374 -0.3648 -1.7531
 2381SOL    HW218798   0.356   7.257   7.892  0.1177 -1.5402 -0.1110
 2382SOL     OW18799   5.746   7.433   2.841 -0.0929  0.1610  0.2871
 2382SOL    HW118800   5.656   7.448   2.802  0.8535  0.5186 -1.8001
 2382SOL    HW218801   5.797   7.368   2.785  0.8385 -0.2904  1.6230
 2383SOL     OW18802   8.979   1.322   2.330  0.5956  0.1455 -0.2306
 2383SOL    HW118803   9.009   1.402   2.279  0.2324  0.5474  0.1884
 2383SOL    HW218804   9.057   1.261   2.345  0.9204  0.5309 -0.3449
 2384SOL     OW18805   1.479   9.030   5.182 -0.3542  0.4355 -0.1947
 2384SOL    HW118806   1.576   9.055   5.177 -0.0040 -0.6152  1.0836
 2384SOL    HW218807   1.452   8.985   5.097  0.3283  0.5667 -0.4861
 2385SOL     OW18808   0.568   6.728   4.184 -0.5829 -0.8720 -0.3345
 2385SOL    HW118809   0.509   6.654   4.215 -0.7382 -0.6726 -0.1551
 2385SOL    HW218810   0.516   6.813   4.182 -0.1358 -0.5770  0.4138
 2386SOL     OW18811   7.579   7.819   1.888 -0.1897  0.5221 -0.5119
 2386SOL    HW118812   7.562   7.763   1.807 -2.4712  0.7862 -0.2413
 2386SOL    HW218813   7.671   7.858   1.883 -0.0573 -0.0196 -2.6319
 2387SOL     OW18814   2.606   8.777   4.825 -0.2831  0.1642 -0.3739
 2387SOL    HW118815   2.638   8.858   4.873 -2.1197  0.9509 -0.4431
 2387SOL    HW218816   2.684   8.721   4.799  0.8625  0.7861  1.6385
 2388SOL     OW18817   4.939   5.546   3.655 -0.3671  0.0827 -0.4734
 2388SOL    HW118818   4.965   5.640   3.634 -0.2536 -0.1276 -1.2603
 2388SOL    HW218819   4.932   5.535   3.754 -0.2905  0.8957 -0.3774
 2389SOL     OW18820   2.621   9.174   0.123  0.2469  0.4625 -0.1056
 2389SOL    HW118821   2.579   9.089   0.155 -2.3244  1.4454 -0.7393
 2389SOL    HW218822   2.699   9.153   0.063  0.9834 -1.3950  1.4592
 2390SOL     OW18823   9.936   9.800   0.471  0.0009 -0.1445 -0.2135
 2390SOL    HW118824   9.935   9.716   0.417  0.0216 -2.0828  2.6842
 2390SOL    HW218825  10.023   9.848   0.456  1.2392 -2.1601  0.2664
 2391SOL     OW18826   7.384   4.389   4.255 -0.6838  0.1666  0.0602
 2391SOL    HW118827   7.396   4.367   4.158 -0.4816 -0.4385  0.2191
 2391SOL    HW218828   7.433   4.474   4.276  0.9755 -0.7640  0.0719
 2392SOL     OW18829   8.859   0.862   3.776 -0.3554  0.2659 -0.4376
 2392SOL    HW118830   8.795   0.870   3.700  0.1884 -0.0199 -0.9319
 2392SOL    HW218831   8.941   0.812   3.745 -0.0507  0.3231  0.2774
 2393SOL     OW18832   1.480   9.705   0.392  0.3216  0.5482 -0.4689
 2393SOL    HW118833   1.459   9.681   0.487  0.4466 -0.4648 -0.6919
 2393SOL    HW218834   1.409   9.766   0.357 -0.0887  0.3866  0.0704
 2394SOL     OW18835   4.310   1.089   7.581  0.0501 -0.2930 -0.0095
 2394SOL    HW118836   4.278   1.176   7.619 -0.2018 -0.5006  0.2512
 2394SOL    HW218837   4.238   1.021   7.588 -0.0356 -0.3014 -0.9766
 2395SOL     OW18838   9.986   8.498   7.801  0.2908 -0.3493  0.1819
 2395SOL    HW118839  10.076   8.539   7.787  0.2064  0.2907  1.4456
 2395SOL    HW218840   9.995   8.399   7.811  0.7937 -0.3444 -0.2098
 2396SOL     OW18841   0.802   6.684   6.812 -0.0362 -0.4762 -0.0686
 2396SOL    HW118842   0.833   6.622   6.884  0.2525 -0.2724 -0.0174
 2396SOL    HW218843   0.703   6.694   6.818 -0.0528 -0.7223  0.0923
 2397SOL     OW18844   0.259   5.701   3.522 -0.0026  0.0326  0.1895
 2397SOL    HW118845   0.330   5.771   3.517 -1.1987  1.2586  0.0150
 2397SOL    HW218846   0.283   5.634   3.592 -0.2307  2.1982  2.3842
 2398SOL     OW18847   5.785   1.148   1.752 -0.2832 -0.1101 -0.0366
 2398SOL    HW118848   5.804   1.089   1.831  1.6928 -0.7277 -0.9388
 2398SOL    HW218849   5.774   1.092   1.670 -2.5483  0.5160 -0.2074
 2399SOL     OW18850   1.758   9.945   5.364  0.3923  0.1815  0.3337
 2399SOL    HW118851   1.702   9.938   5.282 -0.7867  1.8666  0.9644
 2399SOL    HW218852   1.812   9.862   5.375  0.0369 -0.3433 -1.7524
 2400SOL     OW18853   6.267   7.200   4.182  0.1771 -0.2672  0.3571
 2400SOL    HW118854   6.213   7.204   4.098  1.1978 -1.9632 -0.4150
 2400SOL    HW218855   6.358   7.238   4.164 -0.3943  1.6377  1.3743
 2401SOL     OW18856   8.364   0.325   1.026  0.0653 -0.8049  0.0473
 2401SOL    HW118857   8.450   0.377   1.023  0.4162 -1.3463  0.6279
 2401SOL    HW218858   8.296   0.376   1.078  0.3102 -0.7872  0.3468
 2402SOL     OW18859   4.282   9.260   7.643  0.1158  0.0570  0.5056
 2402SOL    HW118860   4.279   9.269   7.743  1.8744  0.9896  0.4983
 2402SOL    HW218861   4.245   9.170   7.617 -1.9651  0.4816  1.8425
 2403SOL     OW18862   7.335   0.515   2.243  0.1437 -0.0737 -0.1096
 2403SOL    HW118863   7.427   0.476   2.245  0.8893  1.6917  1.3626
 2403SOL    HW218864   7.281   0.470   2.172  2.1897 -1.0149 -1.0982
 2404SOL     OW18865   7.860   3.292   0.408  0.2403  0.0163  0.5016
 2404SOL    HW118866   7.876   3.328   0.316  2.1663  0.2058  0.8860
 2404SOL    HW218867   7.875   3.364   0.475  1.5638 -0.8088  1.1166
 2405SOL     OW18868   4.651   8.764   4.903 -0.6668 -0.5724 -0.0326
 2405SOL    HW118869   4.683   8.672   4.926 -0.2008 -0.3270  0.3023
 2405SOL    HW218870   4.590   8.759   4.824  1.5868 -0.8424 -1.7920
 2406SOL     OW18871   1.823   5.397   6.548  0.0402  0.3309  0.6141
 2406SOL    HW118872   1.818   5.302   6.518  0.9523  0.9390 -1.5578
 2406SOL    HW218873   1.746   5.448   6.510 -0.0988  0.6193  1.2705
 2407SOL     OW18874   9.485   8.883   6.787 -0.1370  0.2596 -0.4477
 2407SOL    HW118875   9.402   8.919   6.743 -0.6808 -0.1763  0.2054
 2407SOL    HW218876   9.483   8.783   6.784  0.2736  0.2463 -0.2462
 2408SOL     OW18877   7.674   1.220   7.660 -0.4691  0.3665 -0.2530
 2408SOL    HW118878   7.575   1.234   7.664 -0.2986  1.4141  0.4084
 2408SOL    HW218879   7.721   1.297   7.702  0.6089 -0.6220  0.3960
 2409SOL     OW18880   4.102   1.229   0.239  0.4065 -1.0043  0.0097
 2409SOL    HW118881   4.110   1.174   0.321  0.0201 -0.2039  0.5965
 2409SOL    HW218882   4.193   1.246   0.200  0.6898 -0.4135  0.9242
 2410SOL     OW18883   9.449   3.353   7.598 -0.0309  0.4381 -0.3886
 2410SOL    HW118884   9.364   3.328   7.552 -0.1508 -0.7326  0.4238
 2410SOL    HW218885   9.464   3.451   7.592 -1.3804  0.6278 -0.6459
 2411SOL     OW18886   4.848   3.505   5.271  0.3791  0.6379 -0.0372
 2411SOL    HW118887   4.881   3.460   5.354 -1.5401  0.3262  0.5760
 2411SOL    HW218888   4.849   3.440   5.195 -0.7629  0.0407  0.4519
 2412SOL     OW18889   8.251   8.737   6.805 -0.0430 -0.2286  0.0882
 2412SOL    HW118890   8.333   8.680   6.811 -0.4967 -1.0429 -1.2356
 2412SOL    HW218891   8.175   8.691   6.850  0.3051  0.7201  1.6930
 2413SOL     OW18892   0.933   0.726   3.810 -0.1747 -0.8172  0.1516
 2413SOL    HW118893   0.896   0.732   3.902 -0.6804 -2.0653  0.0326
 2413SOL    HW218894   0.869   0.678   3.751 -0.8122  1.7885 -1.3737
 2414SOL     OW18895   2.938   3.445   0.183 -0.7886 -0.0912 -0.8977
 2414SOL    HW118896   3.035   3.423   0.194 -0.2102  2.6860 -0.0823
 2414SOL    HW218897   2.887   3.414   0.263 -0.4337 -0.6965 -0.9002
 2415SOL     OW18898   7.239   8.183   6.667  0.1729  0.1727  0.7114
 2415SOL    HW118899   7.203   8.092   6.690 -2.2796  0.5570 -1.3387
 2415SOL    HW218900   7.171   8.233   6.614  2.2189  2.5251  0.2116
 2416SOL     OW18901   7.515   8.864   2.420 -0.0989 -0.8976  0.7622
 2416SOL    HW118902   7.467   8.807   2.354  0.4903 -0.2504 -0.2391
 2416SOL    HW218903   7.606   8.885   2.385 -0.4820  1.0423  0.9105
 2417SOL     OW18904   3.745   3.640   0.162 -0.3001 -0.0179 -0.2373
 2417SOL    HW118905   3.832   3.614   0.120 -0.5375  2.2879 -2.2270
 2417SOL    HW218906   3.673   3.577   0.132  0.3563 -0.9697  0.1585
 2418SOL     OW18907   3.506   5.343   0.779  0.5937 -0.3982  0.5153
 2418SOL    HW118908   3.489   5.289   0.861 -1.6389 -1.4389 -0.5694
 2418SOL    HW218909   3.453   5.427   0.783  2.1025  0.5373  1.0616
 2419SOL     OW18910   2.917   6.194   1.026 -1.0227  0.0978 -0.1446
 2419SOL    HW118911   2.834   6.149   1.060 -0.3767 -0.7196  0.3598
 2419SOL    HW218912   2.962   6.135   0.959  0.8100 -0.8663  1.8590
 2420SOL     OW18913   1.245   9.547   6.930 -0.0130  0.0975  0.2532
 2420SOL    HW118914   1.250   9.640   6.893  0.1110  0.3846  0.9882
 2420SOL    HW218915   1.267   9.548   7.028 -0.6378 -0.6181  0.4092
 2421SOL     OW18916   0.265   4.725   4.541 -0.3494 -0.6613 -0.1148
 2421SOL    HW118917   0.284   4.662   4.466 -0.5998 -0.7572 -0.0981
 2421SOL    HW218918   0.259   4.674   4.627  2.7398 -0.2412  0.4243
 2422SOL     OW18919   3.339   4.584   3.206 -0.6627 -0.5244  0.1860
 2422SOL    HW118920   3.346   4.507   3.269  0.8339  0.8220  1.7303
 2422SOL    HW218921   3.408   4.576   3.135 -1.1273 -1.0777 -0.2088
 2423SOL     OW18922   4.391   3.007   0.563 -0.2929  0.1201  0.1233
 2423SOL    HW118923   4.458   2.965   0.501 -0.5890 -3.0968  1.8366
 2423SOL    HW218924   4.425   3.002   0.657 -1.0323  2.4734  0.5494
 2424SOL     OW18925   5.459   7.585   2.144  0.3513 -0.1347 -0.3064
 2424SOL    HW118926   5.547   7.541   2.131  1.0033  0.4628  1.9628
 2424SOL    HW218927   5.472   7.684   2.153 -0.1954 -0.3342  3.1605
 2425SOL     OW18928   3.114   7.363   1.595  0.7403 -0.2752 -0.2693
 2425SOL    HW118929   3.145   7.268   1.587 -1.1441 -0.9305 -0.0746
 2425SOL    HW218930   3.035   7.367   1.656 -0.4731  1.0948 -1.8735
 2426SOL     OW18931   3.957   7.435   2.121  0.2171 -0.0409 -0.7172
 2426SOL    HW118932   4.000   7.346   2.135  1.0259  0.0624 -2.4767
 2426SOL    HW218933   3.930   7.444   2.025  2.6972  2.7161 -1.2100
 2427SOL     OW18934   1.314   5.448   6.956  0.4059  0.2423  0.0946
 2427SOL    HW118935   1.325   5.542   6.923  0.8558  0.9039  2.0210
 2427SOL    HW218936   1.218   5.423   6.952  0.6579 -0.3849 -3.3991
 2428SOL     OW18937   7.225   1.428   2.663  0.8317 -0.0344 -1.0177
 2428SOL    HW118938   7.283   1.478   2.727 -0.9571  2.9209 -1.6026
 2428SOL    HW218939   7.167   1.492   2.614  0.8541 -2.3913 -4.3202
 2429SOL     OW18940   1.975   9.066   6.525  0.5612 -0.0183 -0.6000
 2429SOL    HW118941   1.880   9.080   6.498  1.1840  0.3881 -2.6054
 2429SOL    HW218942   2.015   8.992   6.471  1.5867  0.2597 -0.2372
 2430SOL     OW18943   3.170   8.347   2.672  0.4710  0.2556 -0.2110
 2430SOL    HW118944   3.230   8.339   2.592 -0.0821 -2.6907 -0.4043
 2430SOL    HW218945   3.129   8.258   2.692 -2.2569  1.7305  1.1707
 2431SOL     OW18946   7.281   0.608   6.429 -0.6761  0.1340  0.0666
 2431SOL    HW118947   7.376   0.625   6.402 -0.9475 -0.4291 -1.2647
 2431SOL    HW218948   7.280   0.550   6.511  0.1210 -1.5035 -1.0525
 2432SOL     OW18949   2.349   0.630   3.787 -0.0397  0.0426  0.1299
 2432SOL    HW118950   2.362   0.726   3.765  2.0326 -0.0071  0.9604
 2432SOL    HW218951   2.284   0.620   3.863  0.8983  0.9008  1.0595
 2433SOL     OW18952   3.649   5.004   1.870 -0.4421 -0.1471 -0.3203
 2433SOL    HW118953   3.683   4.918   1.909  0.1172  0.0404 -0.3961
 2433SOL    HW218954   3.722   5.071   1.868 -0.2133 -0.4187 -2.4795
 2434SOL     OW18955   4.863   7.349   0.588  0.3404 -0.3335  0.1323
 2434SOL    HW118956   4.918   7.432   0.577 -0.9839  0.3687 -1.3335
 2434SOL    HW218957   4.897   7.278   0.526  0.5051 -0.3795  0.2758
 2435SOL     OW18958   4.735   1.217   4.469  0.6010  0.4250  0.1507
 2435SOL    HW118959   4.822   1.255   4.499 -1.0982  2.9606  2.0732
 2435SOL    HW218960   4.703   1.267   4.388  1.3839 -1.1898 -1.1902
 2436SOL     OW18961   7.499   8.180   4.853 -0.4098  0.0058  0.1384
 2436SOL    HW118962   7.451   8.230   4.781 -1.6832 -0.7422  0.4569
 2436SOL    HW218963   7.514   8.086   4.823 -0.8610 -0.2821  0.8070
 2437SOL     OW18964   3.096   3.027   1.874 -0.7682 -0.4576  0.1284
 2437SOL    HW118965   3.068   2.936   1.845 -1.7993 -0.1848  0.2388
 2437SOL    HW218966   3.015   3.083   1.892 -0.1530 -0.0786  1.8363
 2438SOL     OW18967   0.967   9.778   5.489 -0.4629  0.6120  0.1628
 2438SOL    HW118968   0.886   9.763   5.433 -0.8414  0.4720  0.7391
 2438SOL    HW218969   1.044   9.803   5.431 -0.1944 -2.0594 -0.7067
 2439SOL     OW18970   2.192   9.875   3.875  0.0103  0.1712 -0.0454
 2439SOL    HW118971   2.107   9.842   3.833 -0.5375  1.0232  0.3829
 2439SOL    HW218972   2.248   9.797   3.902 -1.5120 -0.4487  1.4270
 2440SOL     OW18973   5.870   4.781   0.870  0.1440 -0.3482 -0.7308
 2440SOL    HW118974   5.819   4.823   0.946 -0.9733 -0.9015 -1.1756
 2440SOL    HW218975   5.951   4.837   0.851 -0.6855  0.9601 -0.5270
 2441SOL     OW18976   5.470   9.805   7.383  0.0226 -0.3168 -0.2305
 2441SOL    HW118977   5.447   9.710   7.361 -1.2510 -0.0859  0.0486
 2441SOL    HW218978   5.508   9.850   7.302  2.3595 -1.5729  0.1363
 2442SOL     OW18979   4.244   9.216   6.300 -0.0097 -0.4575  0.2254
 2442SOL    HW118980   4.168   9.280   6.315 -0.7190 -1.6125  1.6663
 2442SOL    HW218981   4.259   9.162   6.383  3.0212  0.4065  0.2852
 2443SOL     OW18982   9.462   1.214   3.258  0.3709  0.1164 -0.2665
 2443SOL    HW118983   9.494   1.178   3.346 -1.5051  1.1496  0.8934
 2443SOL    HW218984   9.520   1.290   3.230  0.9919 -0.2265  0.0828
 2444SOL     OW18985   2.797   3.569   7.314  0.1138  0.3145 -0.3623
 2444SOL    HW118986   2.729   3.575   7.241  1.5266  0.3080 -1.7012
 2444SOL    HW218987   2.835   3.477   7.317  0.6354  0.5334 -0.1447
 2445SOL     OW18988   0.906   1.576   7.504 -0.0728 -0.3393  0.4670
 2445SOL    HW118989   0.895   1.580   7.603  3.1405 -3.6000  1.0559
 2445SOL    HW218990   0.971   1.646   7.475 -1.3680  0.9253  0.5636
 2446SOL     OW18991   3.593   8.083   1.226  0.3362 -0.4088  0.0931
 2446SOL    HW118992   3.617   8.178   1.209  1.1485 -0.8592 -1.3812
 2446SOL    HW218993   3.629   8.054   1.314 -0.8656  0.9531  1.0543
 2447SOL     OW18994   9.779   1.040   4.619 -0.4417 -0.1190  0.1456
 2447SOL    HW118995   9.723   0.972   4.571  0.4358 -0.2856 -0.6635
 2447SOL    HW218996   9.823   1.100   4.552 -0.3952  0.6001  0.8155
 2448SOL     OW18997   0.438   2.884   7.347  0.0035  0.6331 -0.0257
 2448SOL    HW118998   0.519   2.940   7.364 -0.7651  1.6269  0.4818
 2448SOL    HW218999   0.371   2.938   7.296  0.2266 -0.6543 -1.7307
 2449SOL     OW19000   8.675   2.909   3.113 -0.4817  0.5847  0.5076
 2449SOL    HW119001   8.619   2.889   3.032 -0.4585  1.1025  0.3599
 2449SOL    HW219002   8.709   2.824   3.152  0.9832  0.3920 -1.0913
 2450SOL     OW19003   7.874   9.969   7.887  0.1053  0.0941  0.2325
 2450SOL    HW119004   7.927   9.929   7.962  0.3713  0.0860  0.0429
 2450SOL    HW219005   7.783   9.929   7.886  0.2718 -0.2956  0.2290
 2451SOL     OW19006   7.455   5.381   7.151 -0.2376  0.1866 -0.1163
 2451SOL    HW119007   7.541   5.341   7.121 -0.2509  0.2137 -0.1927
 2451SOL    HW219008   7.451   5.476   7.121 -0.2079  0.2431  0.0587
 2452SOL     OW19009   7.851   1.804   7.126 -0.3795  0.8068  0.0251
 2452SOL    HW119010   7.777   1.737   7.128  1.1885 -0.9772 -0.5960
 2452SOL    HW219011   7.868   1.837   7.219  0.9071 -2.0092  0.8378
 2453SOL     OW19012   3.143   5.207   3.771 -0.1936 -0.6764 -0.4671
 2453SOL    HW119013   3.117   5.144   3.845 -1.6879  1.9421  1.3482
 2453SOL    HW219014   3.121   5.166   3.683 -1.6848 -2.4756  0.6958
 2454SOL     OW19015   7.622   8.192   7.158 -0.2125 -0.0478 -0.3654
 2454SOL    HW119016   7.541   8.162   7.209 -0.0680 -0.2182 -0.2380
 2454SOL    HW219017   7.611   8.288   7.132 -0.4242 -0.0500 -0.2862
 2455SOL     OW19018   5.317   0.054   1.406  0.7384 -0.0070 -0.3562
 2455SOL    HW119019   5.353  -0.039   1.409  0.0497 -0.2388  1.7437
 2455SOL    HW219020   5.382   0.117   1.448  0.4671  0.1876 -0.2221
 2456SOL     OW19021   1.700   7.068   6.794 -0.1190 -0.6227 -0.0024
 2456SOL    HW119022   1.663   7.091   6.704 -1.3821  1.7653  1.0725
 2456SOL    HW219023   1.626   7.033   6.852  0.2297 -0.0721  0.7772
 2457SOL     OW19024   5.673   0.415   4.266  0.3325 -0.5391  0.4611
 2457SOL    HW119025   5.662   0.341   4.332 -1.6310 -0.5513  0.1607
 2457SOL    HW219026   5.662   0.378   4.173 -1.3591  0.2155  0.3396
 2458SOL     OW19027   8.449   6.233   3.794 -0.0901  0.0771  0.3459
 2458SOL    HW119028   8.368   6.179   3.814  0.4453 -0.9327 -0.1894
 2458SOL    HW219029   8.531   6.180   3.817  0.5571 -0.9831 -4.0551
 2459SOL     OW19030   1.081   7.471   7.070  0.4340 -0.0166 -0.3663
 2459SOL    HW119031   1.053   7.467   6.974  0.3487  0.2780 -0.3559
 2459SOL    HW219032   1.038   7.396   7.121  0.7439 -0.3714 -0.6253
 2460SOL     OW19033   1.178   4.791   4.648  0.3441  0.7030 -0.0967
 2460SOL    HW119034   1.171   4.691   4.639 -1.3352  1.0392 -3.0378
 2460SOL    HW219035   1.263   4.822   4.608 -0.2460  0.6803 -1.3840
 2461SOL     OW19036   0.002   8.401   0.272 -0.2674 -0.5467 -0.3408
 2461SOL    HW119037   0.019   8.396   0.370  2.5324  0.1180 -0.7439
 2461SOL    HW219038  -0.010   8.497   0.245 -0.9157 -0.7168 -0.6694
 2462SOL     OW19039   9.341   3.544   0.064 -0.2477  0.3503  0.1093
 2462SOL    HW119040   9.336   3.571  -0.032  1.4201  1.6558  0.3620
 2462SOL    HW219041   9.428   3.496   0.080  0.7191  2.4647  1.4914
 2463SOL     OW19042   0.612   7.457   3.502  0.1909  0.0276  0.5780
 2463SOL    HW119043   0.648   7.519   3.433  1.1690 -1.3922 -0.2104
 2463SOL    HW219044   0.554   7.388   3.457  0.8160 -0.8885  1.1667
 2464SOL     OW19045   6.225   1.630   4.240 -0.2599 -0.1853  0.3331
 2464SOL    HW119046   6.149   1.569   4.221  0.3898 -1.2122  0.9887
 2464SOL    HW219047   6.238   1.639   4.339  0.5384 -0.1269  0.2330
 2465SOL     OW19048   1.663   8.300   1.538  0.2944 -0.2419  0.2320
 2465SOL    HW119049   1.713   8.259   1.615 -1.0377 -3.3423 -0.4938
 2465SOL    HW219050   1.593   8.362   1.574  3.3832  2.8093  1.3011
 2466SOL     OW19051   2.584   0.208   3.244 -0.2607  0.3530 -0.1495
 2466SOL    HW119052   2.604   0.113   3.222  1.1133  0.4392  0.6733
 2466SOL    HW219053   2.503   0.212   3.302 -0.2300 -0.3293 -0.0562
 2467SOL     OW19054   0.881   3.592   1.982 -0.0112  0.1495 -0.0059
 2467SOL    HW119055   0.869   3.492   1.985 -1.0718  0.2713 -0.1342
 2467SOL    HW219056   0.821   3.635   2.050 -0.2651  0.7671 -0.6198
 2468SOL     OW19057   4.868   4.634   1.835 -0.4802  0.2844  0.2575
 2468SOL    HW119058   4.856   4.696   1.757 -1.1517 -1.2044 -0.8408
 2468SOL    HW219059   4.931   4.561   1.810 -0.3260  0.0573  1.2827
 2469SOL     OW19060   9.699   1.901   1.794  0.0233 -0.3147  0.1878
 2469SOL    HW119061   9.651   1.977   1.750  1.1466 -1.2334 -2.7384
 2469SOL    HW219062   9.787   1.932   1.830  0.1567 -0.0510 -0.3605
 2470SOL     OW19063   5.607   5.796   1.997 -0.1713 -0.2548 -0.2979
 2470SOL    HW119064   5.571   5.796   1.904  0.9705  0.0726 -0.7605
 2470SOL    HW219065   5.620   5.890   2.028 -0.9408 -0.3578  0.3563
 2471SOL     OW19066   2.582   5.802   1.152 -0.1572 -0.5340 -0.0574
 2471SOL    HW119067   2.490   5.799   1.192  0.2805 -0.5385  0.9562
 2471SOL    HW219068   2.601   5.894   1.119  0.0886 -0.1109  1.2202
 2472SOL     OW19069   8.598   8.096   6.759 -0.2551 -0.1592  0.4223
 2472SOL    HW119070   8.577   8.090   6.661 -0.5065  1.4396  0.3549
 2472SOL    HW219071   8.545   8.028   6.809  0.2476 -1.3140 -0.6150
 2473SOL     OW19072   3.568   5.079   7.352  0.0749  0.0835  0.0216
 2473SOL    HW119073   3.627   5.049   7.276  1.1197 -0.0683  0.8853
 2473SOL    HW219074   3.618   5.072   7.438 -0.8001  1.1553  0.6249
 2474SOL     OW19075   1.800   9.339   5.406 -0.0043  0.0018 -0.3409
 2474SOL    HW119076   1.705   9.334   5.439  0.1982 -0.4523  0.1807
 2474SOL    HW219077   1.862   9.322   5.482  0.4620 -1.3902 -1.0278
 2475SOL     OW19078   9.876   9.388   7.950  0.3521  0.4889 -0.5983
 2475SOL    HW119079   9.800   9.323   7.949  1.2012 -0.5261 -0.7388
 2475SOL    HW219080   9.841   9.480   7.966 -0.6709 -0.2694  1.6729
 2476SOL     OW19081   2.157   5.243   3.005  0.3057  0.2787 -0.0504
 2476SOL    HW119082   2.102   5.248   2.922 -2.6843  0.3526  1.8508
 2476SOL    HW219083   2.192   5.335   3.027  1.7934  0.1145 -1.6133
 2477SOL     OW19084   2.022   1.394   7.492  0.5126 -0.9348  0.4484
 2477SOL    HW119085   2.055   1.342   7.570  0.7798 -1.9655 -0.3439
 2477SOL    HW219086   2.092   1.459   7.462  0.0222  0.1970  1.6943
 2478SOL     OW19087   0.977   7.493   6.372  0.3605  0.2132  0.0244
 2478SOL    HW119088   1.012   7.427   6.439 -2.0101 -0.2590  0.8327
 2478SOL    HW219089   1.035   7.574   6.371  2.2290 -1.0974  0.3606
 2479SOL     OW19090   4.802   3.598   2.558  0.5066  0.2842  0.5707
 2479SOL    HW119091   4.900   3.579   2.549  0.5015  0.1650  0.7415
 2479SOL    HW219092   4.782   3.621   2.653  0.2706 -0.2978  0.6673
 2480SOL     OW19093   2.278   7.217   4.339  0.3187  0.0887 -0.3013
 2480SOL    HW119094   2.376   7.222   4.357  0.1066  1.1047  0.6723
 2480SOL    HW219095   2.249   7.299   4.289 -0.0910 -0.0340 -0.2662
 2481SOL     OW19096   1.383   1.773   4.644 -0.1496  0.1532  0.1498
 2481SOL    HW119097   1.300   1.755   4.591 -0.5291 -0.5917  0.9898
 2481SOL    HW219098   1.418   1.864   4.620  0.2756 -0.5763 -2.1293
 2482SOL     OW19099   9.262   8.291   3.502  0.1554 -0.1531  0.2470
 2482SOL    HW119100   9.218   8.345   3.430  1.1165  0.1936 -0.0889
 2482SOL    HW219101   9.221   8.200   3.506 -0.4568  0.1021 -0.1826
 2483SOL     OW19102   0.005   4.351   6.622  0.3829  0.1738 -0.2290
 2483SOL    HW119103   0.078   4.359   6.689  0.4141 -2.5022  0.1336
 2483SOL    HW219104   0.044   4.354   6.530  0.4987  2.4562 -0.1169
 2484SOL     OW19105   0.774   2.095   1.965 -0.1142  0.0783  0.1647
 2484SOL    HW119106   0.867   2.121   1.991  1.7528 -2.1469 -3.8160
 2484SOL    HW219107   0.760   2.111   1.867 -3.9781  0.4285  0.6858
 2485SOL     OW19108   8.395   6.555   3.080 -0.1730  0.2302 -0.2022
 2485SOL    HW119109   8.443   6.619   3.140  0.4208 -0.6522  0.2781
 2485SOL    HW219110   8.461   6.510   3.020 -0.2769 -1.5533  0.9875
 2486SOL     OW19111   7.792   4.634   0.125 -0.7053  0.4065  0.0346
 2486SOL    HW119112   7.887   4.634   0.094 -1.4939  0.6095 -2.5191
 2486SOL    HW219113   7.745   4.553   0.088 -1.5301  0.3217  1.2479
 2487SOL     OW19114   9.175   7.192   4.924 -0.1632 -0.3855 -0.6437
 2487SOL    HW119115   9.135   7.284   4.925 -0.7209 -0.6244  0.4310
 2487SOL    HW219116   9.214   7.173   4.834 -0.9012  0.5389 -1.1688
 2488SOL     OW19117   2.499   9.793   5.770 -0.6602 -0.2019  0.3165
 2488SOL    HW119118   2.459   9.883   5.756 -1.4961 -0.4506  1.1168
 2488SOL    HW219119   2.427   9.724   5.776  0.0409 -1.4178 -3.6226
 2489SOL     OW19120   2.811   3.978   6.496  0.5274 -0.0506  0.0364
 2489SOL    HW119121   2.755   3.946   6.572  0.0698  0.4067 -0.1061
 2489SOL    HW219122   2.810   4.078   6.493  1.3327 -0.0393  0.0195
 2490SOL     OW19123   2.960   4.661   2.724 -0.1980  0.2238 -0.0829
 2490SOL    HW119124   2.912   4.629   2.806 -2.4786  0.7462 -1.1928
 2490SOL    HW219125   2.999   4.751   2.742  0.0372 -0.0209  0.6842
 2491SOL     OW19126   0.998   6.629   4.476 -0.5080  0.0608  0.4591
 2491SOL    HW119127   0.911   6.679   4.474 -0.6935 -0.2993 -0.6663
 2491SOL    HW219128   1.059   6.666   4.406  0.0028 -0.1299  0.7996
 2492SOL     OW19129   1.196   7.577   2.035 -0.5219  0.4249 -0.0179
 2492SOL    HW119130   1.114   7.578   2.092  0.0939  1.0206  0.8828
 2492SOL    HW219131   1.232   7.670   2.027 -0.9911  0.4521 -1.9670
 2493SOL     OW19132   0.796   4.121   8.171 -0.2564  0.5901 -0.6996
 2493SOL    HW119133   0.711   4.158   8.209  0.1041  0.1156  0.6121
 2493SOL    HW219134   0.795   4.022   8.176  0.5751  0.5985 -0.2062
 2494SOL     OW19135   9.588   6.175   4.243  0.1906 -0.6052 -0.6801
 2494SOL    HW119136   9.549   6.094   4.199 -0.4238 -0.8475  0.3002
 2494SOL    HW219137   9.521   6.249   4.242 -0.5778 -1.2424  1.6376
 2495SOL     OW19138   9.965   9.709   3.207 -0.4982  0.0201  0.5434
 2495SOL    HW119139   9.947   9.785   3.269  2.0493  0.4605  0.8071
 2495SOL    HW219140  10.050   9.663   3.234 -1.6544 -2.5310 -0.0001
 2496SOL     OW19141   8.496   9.976   4.764  0.0817 -0.5020  0.2597
 2496SOL    HW119142   8.586   9.951   4.728 -0.1785  0.1201 -0.8694
 2496SOL    HW219143   8.505  10.008   4.858  1.3178  1.2803 -0.4249
 2497SOL     OW19144   0.850   2.501   0.918 -0.1027  0.7827 -0.3948
 2497SOL    HW119145   0.843   2.550   1.005 -2.1300  0.6587 -0.4719
 2497SOL    HW219146   0.923   2.432   0.925  1.1087  2.1128  0.5236
 2498SOL     OW19147   1.117   9.462   0.179  0.4858 -0.0781 -0.8058
 2498SOL    HW119148   1.093   9.529   0.108 -0.3626  1.1876  0.6400
 2498SOL    HW219149   1.216   9.453   0.184  0.5537 -0.4134 -2.3512
 2499SOL     OW19150   9.314   0.065   3.477 -0.0983  0.1436  0.3179
 2499SOL    HW119151   9.328   0.158   3.442 -0.7650  0.4203  0.7859
 2499SOL    HW219152   9.220   0.037   3.459  0.1162 -0.4650  0.1389
 2500SOL     OW19153   1.836   7.536   4.626  0.1512  1.5214 -0.7603
 2500SOL    HW119154   1.829   7.596   4.706 -2.3264  1.3203 -0.7827
 2500SOL    HW219155   1.903   7.464   4.644 -1.5822  0.4971  1.8026
 2501SOL     OW19156   4.925   6.342   1.070 -0.1647  0.1439 -0.7343
 2501SOL    HW119157   4.995   6.306   1.132 -0.8987  0.1562  0.1147
 2501SOL    HW219158   4.903   6.436   1.096 -0.1980  0.2816 -1.2609
 2502SOL     OW19159   9.438   7.645   5.202  0.2294  0.3414 -0.0582
 2502SOL    HW119160   9.463   7.557   5.243 -0.2724 -0.2723 -1.0391
 2502SOL    HW219161   9.474   7.720   5.258  0.2963 -0.4842  1.0098
 2503SOL     OW19162   6.760   7.829   3.502 -0.2734  0.3095 -0.2327
 2503SOL    HW119163   6.667   7.793   3.497 -0.0707 -0.1812 -0.5201
 2503SOL    HW219164   6.760   7.915   3.553 -1.1769  1.2966 -1.8601
 2504SOL     OW19165   8.401   7.193   5.531 -0.6218  0.0703 -0.0069
 2504SOL    HW119166   8.346   7.185   5.614  0.6057  1.7936  0.9905
 2504SOL    HW219167   8.413   7.289   5.507  1.0866 -0.3123 -0.7991
 2505SOL     OW19168   7.814   2.770   2.917 -0.0778 -0.3523  0.9018
 2505SOL    HW119169   7.824   2.832   2.995 -1.9898  1.2167 -0.0328
 2505SOL    HW219170   7.883   2.793   2.848 -0.5396  0.5146  0.7163
 2506SOL     OW19171   6.500   2.687   0.873 -0.3367  0.3036  0.0985
 2506SOL    HW119172   6.538   2.756   0.934  1.3977  1.2109 -1.9402
 2506SOL    HW219173   6.542   2.598   0.892  1.6579  0.9800 -1.0606
 2507SOL     OW19174   1.724   3.244   6.433 -0.3005  0.2748  0.3660
 2507SOL    HW119175   1.635   3.228   6.475 -0.4663  0.8612  0.2459
 2507SOL    HW219176   1.715   3.314   6.361  0.1069 -0.2439 -0.1871
 2508SOL     OW19177   5.362   6.587   1.019 -0.0315  0.1638  0.1060
 2508SOL    HW119178   5.341   6.570   1.115  1.2489 -0.6954  0.2414
 2508SOL    HW219179   5.377   6.500   0.972 -0.4760  0.5859 -0.8359
 2509SOL     OW19180   2.331   8.384   0.227  0.7168 -0.1950  0.3066
 2509SOL    HW119181   2.314   8.329   0.145 -0.7662  0.6027  0.0548
 2509SOL    HW219182   2.385   8.464   0.203 -1.0347  0.8604 -0.2148
 2510SOL     OW19183   4.397   7.078   4.937 -0.1900 -0.7599 -0.1799
 2510SOL    HW119184   4.388   7.016   5.016 -0.8553 -0.1451  0.2256
 2510SOL    HW219185   4.307   7.109   4.908  0.2035  1.0711  0.4578
 2511SOL     OW19186   7.419   1.110   7.238 -0.4856 -0.4276  0.0044
 2511SOL    HW119187   7.429   1.047   7.314  1.5156 -0.7981 -0.5354
 2511SOL    HW219188   7.432   1.061   7.152 -2.0703  0.1158 -0.5739
 2512SOL     OW19189   6.844   9.566   4.875 -0.6022  0.1099  0.3164
 2512SOL    HW119190   6.900   9.604   4.948 -0.8828 -0.9473  1.1006
 2512SOL    HW219191   6.900   9.509   4.815 -0.8339 -1.0051  1.1418
 2513SOL     OW19192   7.080   2.293   1.602 -0.1548 -0.5295 -0.1388
 2513SOL    HW119193   7.178   2.287   1.621  0.0836 -0.1597 -1.2153
 2513SOL    HW219194   7.066   2.305   1.503 -1.2143  1.3566  0.2304
 2514SOL     OW19195   3.779   0.274   7.335  0.5743 -0.1929 -0.2298
 2514SOL    HW119196   3.788   0.365   7.294  1.7767  0.6275  1.7729
 2514SOL    HW219197   3.864   0.223   7.324  0.9998  0.1281  1.3994
 2515SOL     OW19198   7.661   3.316   3.874  0.0765  0.3537 -0.1814
 2515SOL    HW119199   7.737   3.330   3.812 -1.1049  1.5795 -1.3871
 2515SOL    HW219200   7.579   3.292   3.822 -0.7959  0.8345  0.9365
 2516SOL     OW19201   1.583   9.428   0.651 -0.1609  0.1293  0.4802
 2516SOL    HW119202   1.553   9.375   0.572  0.3353  1.9962 -1.0129
 2516SOL    HW219203   1.613   9.366   0.724 -2.9888 -1.6670  0.1736
 2517SOL     OW19204   0.832   7.021   2.450  0.3734 -0.1851 -0.2314
 2517SOL    HW119205   0.914   6.963   2.452  0.8239  0.4671  0.2635
 2517SOL    HW219206   0.779   7.005   2.533  0.6751  0.3631  0.0698
 2518SOL     OW19207   4.566   2.416   1.812 -0.2303 -0.3505  0.7990
 2518SOL    HW119208   4.637   2.361   1.767  0.9610  1.5619  0.2939
 2518SOL    HW219209   4.487   2.358   1.831  0.6091 -2.0120 -0.5929
 2519SOL     OW19210   2.745   8.215   5.793  0.6085 -0.0046 -0.4864
 2519SOL    HW119211   2.837   8.246   5.768  0.9356  0.6627  1.4697
 2519SOL    HW219212   2.739   8.117   5.780  1.5297 -0.0264 -0.8432
 2520SOL     OW19213   3.357   8.934   6.670 -0.3396 -0.2670  0.2433
 2520SOL    HW119214   3.340   9.014   6.613  1.2565  0.5925  0.9514
 2520SOL    HW219215   3.387   8.964   6.761 -0.0627 -1.6630  0.6215
 2521SOL     OW19216   2.356   7.694   0.575 -0.2007 -0.1068  0.3437
 2521SOL    HW119217   2.338   7.759   0.500  0.0177 -0.9860 -0.4773
 2521SOL    HW219218   2.323   7.604   0.550 -1.1154 -0.1772  1.7736
 2522SOL     OW19219   3.122   7.311   5.534 -0.2132  0.5149 -0.0497
 2522SOL    HW119220   3.203   7.332   5.479 -0.4272  2.2844  0.2830
 2522SOL    HW219221   3.050   7.273   5.476 -0.7997  3.3082 -1.2134
 2523SOL     OW19222   6.382   0.236   3.242 -0.0699 -0.5434 -0.2526
 2523SOL    HW119223   6.290   0.203   3.225 -0.8858  1.4991  0.0455
 2523SOL    HW219224   6.382   0.336   3.245  1.9808 -0.5331  0.7099
 2524SOL     OW19225   9.006   7.971   5.859  0.3311 -0.2973  0.4775
 2524SOL    HW119226   9.017   7.944   5.763  0.0971 -0.2257  0.4304
 2524SOL    HW219227   9.091   8.012   5.892  0.8902 -1.6092  0.7140
 2525SOL     OW19228   3.048   4.202   1.262 -0.0046  0.1107  0.1623
 2525SOL    HW119229   2.977   4.171   1.326  0.4143 -0.7108  0.2281
 2525SOL    HW219230   3.104   4.124   1.234  1.9739  1.0223  1.4586
 2526SOL     OW19231   3.341   0.087  10.031  0.0108 -0.4627  0.0017
 2526SOL    HW119232   3.302   0.059   9.944 -2.1219 -0.0058  0.7880
 2526SOL    HW219233   3.395   0.011  10.069  0.6474 -0.7940 -1.4934
 2527SOL     OW19234   6.512   4.783   9.941 -0.0412 -0.2152  0.1289
 2527SOL    HW119235   6.516   4.883   9.940  1.3871 -0.2522  1.2907
 2527SOL    HW219236   6.487   4.750   9.850 -0.5805  1.1942 -0.2500
 2528SOL     OW19237   7.199   2.584   1.744  0.6643 -0.1549  0.2603
 2528SOL    HW119238   7.289   2.559   1.710 -0.1917 -2.5552 -0.3996
 2528SOL    HW219239   7.144   2.619   1.668  1.1120  1.5483  0.7133
 2529SOL     OW19240   5.808   9.477   5.713  0.0764 -0.3365 -0.3298
 2529SOL    HW119241   5.866   9.436   5.643 -0.2228  1.0466 -1.4127
 2529SOL    HW219242   5.712   9.456   5.694  0.1475 -2.0479  1.0746
 2530SOL     OW19243   1.164   2.347   1.529  0.7791  0.2469 -0.4658
 2530SOL    HW119244   1.142   2.273   1.593  1.5048 -0.4968 -1.0707
 2530SOL    HW219245   1.118   2.431   1.558  1.3862 -0.0033  1.2162
 2531SOL     OW19246   7.272   2.633   4.982  0.3801  0.5994 -0.2471
 2531SOL    HW119247   7.247   2.729   4.983 -0.9797  0.2716 -1.0955
 2531SOL    HW219248   7.203   2.581   4.933  1.7551 -0.6359 -0.9373
 2532SOL     OW19249   8.084   6.888   5.387  0.3325  0.3531  0.4567
 2532SOL    HW119250   8.055   6.912   5.295  0.1355 -1.2127  0.1057
 2532SOL    HW219251   8.183   6.871   5.388  0.3664  0.5436  0.5796
 2533SOL     OW19252   0.067   4.158   4.444  0.2409 -0.4016  0.2761
 2533SOL    HW119253   0.154   4.128   4.484  0.9974  1.0447 -0.2728
 2533SOL    HW219254   0.080   4.245   4.398 -1.9532  0.8426  1.9426
 2534SOL     OW19255   9.584   6.758   5.467  0.3788  0.3385  0.1495
 2534SOL    HW119256   9.681   6.737   5.461  0.8538  2.3028  0.6673
 2534SOL    HW219257   9.565   6.844   5.418 -1.1576 -0.2392 -0.3027
 2535SOL     OW19258   6.503   0.948   4.874 -0.6259 -0.3323  0.4967
 2535SOL    HW119259   6.540   0.880   4.811 -0.7362  0.7179 -0.7301
 2535SOL    HW219260   6.538   0.932   4.966  1.0912 -0.7104 -0.2145
 2536SOL     OW19261   7.326   3.229   4.108  0.2233  1.1270 -0.0577
 2536SOL    HW119262   7.409   3.173   4.111 -0.2481  0.4177 -0.0906
 2536SOL    HW219263   7.349   3.323   4.131  0.8134  0.6816  1.2398
 2537SOL     OW19264   9.508   2.172   0.970 -0.3560 -0.8121  0.0148
 2537SOL    HW119265   9.477   2.256   1.013  0.7910 -0.2708 -0.2040
 2537SOL    HW219266   9.550   2.112   1.038  1.5431  0.0837 -0.3456
 2538SOL     OW19267   0.443   6.306   5.230 -0.2483 -0.1998 -0.7674
 2538SOL    HW119268   0.417   6.309   5.133  2.4238 -1.7417 -1.5712
 2538SOL    HW219269   0.399   6.228   5.273 -1.0789  0.2249 -0.8295
 2539SOL     OW19270   3.570   2.737   6.654 -0.0864 -0.3451  0.0271
 2539SOL    HW119271   3.481   2.779   6.639  0.2068 -0.5524 -2.4224
 2539SOL    HW219272   3.559   2.638   6.668 -0.3139 -0.2365  0.6243
 2540SOL     OW19273   2.740   2.242   5.292 -0.6407  0.4579 -0.1507
 2540SOL    HW119274   2.814   2.260   5.356  0.1409 -0.8084 -0.6683
 2540SOL    HW219275   2.677   2.176   5.331 -1.1797  1.0901  0.0531
 2541SOL     OW19276   3.098   4.277   2.885  0.1576 -0.6049  0.5586
 2541SOL    HW119277   3.127   4.372   2.887  0.4008 -0.6885  1.0285
 2541SOL    HW219278   3.028   4.265   2.814  1.0007 -0.3353 -0.3198
 2542SOL     OW19279   2.639   2.196   1.707  0.0979 -0.3174 -0.7933
 2542SOL    HW119280   2.589   2.281   1.689 -0.2177  0.0529  1.5998
 2542SOL    HW219281   2.654   2.187   1.806 -0.7599 -3.5808 -0.9108
 2543SOL     OW19282   7.807   1.902   0.720 -0.4571  0.1553  0.0648
 2543SOL    HW119283   7.804   1.961   0.639 -0.8716  0.8983  0.6103
 2543SOL    HW219284   7.831   1.809   0.693  0.5934  0.6563 -0.7654
 2544SOL     OW19285   2.770   6.779   0.575 -0.3491 -0.3727  0.0404
 2544SOL    HW119286   2.746   6.875   0.588  0.2206 -0.1856 -0.2453
 2544SOL    HW219287   2.842   6.753   0.639 -1.5717 -1.0433  1.1803
 2545SOL     OW19288   3.597   2.814   2.000  0.3772 -0.2869 -0.0975
 2545SOL    HW119289   3.643   2.891   2.043  1.2967 -0.7487 -0.2390
 2545SOL    HW219290   3.604   2.823   1.901 -0.3968 -0.0279 -0.1313
 2546SOL     OW19291   5.311   6.885   0.596  0.0564  0.6051  0.3476
 2546SOL    HW119292   5.404   6.848   0.592 -0.4651 -0.8107  1.1205
 2546SOL    HW219293   5.294   6.922   0.687  0.2354  1.9264 -0.1315
 2547SOL     OW19294   1.789   1.556   3.031  0.4566 -0.1774 -0.1914
 2547SOL    HW119295   1.777   1.504   2.947 -2.3737  1.0664 -0.6081
 2547SOL    HW219296   1.732   1.638   3.029  2.3813  1.2916  1.8194
 2548SOL     OW19297   8.775   0.662   7.743 -0.1193  0.5933 -0.1424
 2548SOL    HW119298   8.835   0.740   7.727 -1.6206  1.9608  0.6109
 2548SOL    HW219299   8.827   0.586   7.782  1.1737  1.6156  0.1512
 2549SOL     OW19300   1.927   7.768   1.039  0.2057 -1.1055 -0.6367
 2549SOL    HW119301   1.997   7.818   1.090 -0.5067 -1.7269  0.9896
 2549SOL    HW219302   1.843   7.822   1.037  0.7422 -0.3013 -2.7014
 2550SOL     OW19303   2.548   3.137   3.171 -0.2142  0.4103  0.1582
 2550SOL    HW119304   2.598   3.060   3.131 -0.0707  0.5062  0.1515
 2550SOL    HW219305   2.479   3.169   3.106  0.1272  0.6690 -0.0778
 2551SOL     OW19306   0.955   2.499   2.763 -0.1603 -0.2693  0.1799
 2551SOL    HW119307   0.865   2.469   2.795 -0.6730 -0.0885 -1.0479
 2551SOL    HW219308   1.026   2.446   2.809 -1.0320 -3.4961 -1.9699
 2552SOL     OW19309   2.525   0.310   1.161  0.3362 -0.2977  0.2669
 2552SOL    HW119310   2.539   0.315   1.062  0.0732 -0.2119  0.2336
 2552SOL    HW219311   2.454   0.376   1.187  1.7400  1.0493  0.7681
 2553SOL     OW19312   7.266   1.607   7.661  0.3378 -0.1700  0.3519
 2553SOL    HW119313   7.280   1.555   7.577  3.4160  0.6976  0.2797
 2553SOL    HW219314   7.211   1.688   7.642 -0.6889 -1.0343 -0.4124
 2554SOL     OW19315   7.471   0.712   7.869  0.3191  0.4179 -0.0602
 2554SOL    HW119316   7.437   0.640   7.809 -0.0393 -0.0869  0.7388
 2554SOL    HW219317   7.497   0.673   7.957  1.4775  1.0473 -0.1118
 2555SOL     OW19318   0.738   5.563   4.289  0.0039 -0.3642 -0.5465
 2555SOL    HW119319   0.737   5.539   4.386  1.1963  0.7281 -0.2475
 2555SOL    HW219320   0.811   5.629   4.272  0.1093 -0.8920 -2.2759
 2556SOL     OW19321   6.166   9.192   5.389 -0.1215  0.2675 -0.4045
 2556SOL    HW119322   6.132   9.273   5.436 -1.6950  0.1424 -1.2785
 2556SOL    HW219323   6.149   9.111   5.446  0.5677  0.4463  0.0488
 2557SOL     OW19324   3.386   6.168   0.095 -0.8972 -1.2174  0.2154
 2557SOL    HW119325   3.445   6.240   0.132 -0.9274 -1.2958  0.4164
 2557SOL    HW219326   3.309   6.153   0.156 -1.2619 -0.9438 -0.1738
 2558SOL     OW19327   9.158   7.071   5.187  0.4713 -0.5244 -0.0064
 2558SOL    HW119328   9.127   7.159   5.223 -1.0042 -1.1973  0.3952
 2558SOL    HW219329   9.162   7.076   5.087 -2.1107 -0.7738 -0.1569
 2559SOL     OW19330   8.093   4.385   4.254  0.2889 -0.1066 -0.2216
 2559SOL    HW119331   7.994   4.391   4.267  0.6964  1.2119  2.8298
 2559SOL    HW219332   8.125   4.297   4.290  0.3319 -0.1686 -0.4133
 2560SOL     OW19333   7.702   4.186   4.106 -0.9499 -0.2962 -0.2053
 2560SOL    HW119334   7.608   4.158   4.120 -1.1212 -0.7887 -2.2276
 2560SOL    HW219335   7.714   4.219   4.012  0.9943 -0.6586 -0.1090
 2561SOL     OW19336   1.430   9.171   7.501  0.3661  0.1926  0.5035
 2561SOL    HW119337   1.433   9.102   7.429 -0.8265  1.2171 -0.5813
 2561SOL    HW219338   1.494   9.245   7.480  0.6555  0.0673  0.9449
 2562SOL     OW19339   3.202   4.071   3.606  0.1615 -0.1016  0.5808
 2562SOL    HW119340   3.226   3.995   3.547  0.2227  0.8156 -0.5908
 2562SOL    HW219341   3.183   4.152   3.551  1.0144  0.9886  1.8481
 2563SOL     OW19342   3.868   4.949   4.504 -0.5356  0.3115  0.0168
 2563SOL    HW119343   3.930   5.004   4.559  1.1489 -0.0226 -1.4832
 2563SOL    HW219344   3.782   4.999   4.490  0.0465  1.5248  0.6975
 2564SOL     OW19345   0.489   3.981   5.455 -0.0290 -0.3682 -0.6891
 2564SOL    HW119346   0.437   3.940   5.531  1.0938 -1.7629 -0.6603
 2564SOL    HW219347   0.470   4.079   5.452 -1.5858 -0.6124  0.1931
 2565SOL     OW19348   6.810   9.419   6.941  0.4767 -0.2111 -0.3598
 2565SOL    HW119349   6.836   9.389   6.849  0.4175  0.3635 -0.5671
 2565SOL    HW219350   6.725   9.373   6.968 -1.6613  2.5028 -2.1736
 2566SOL     OW19351   1.567   5.691   7.630 -0.0939  0.5624  0.3462
 2566SOL    HW119352   1.481   5.643   7.612 -0.3912  1.3257 -0.2965
 2566SOL    HW219353   1.642   5.625   7.636 -0.8059 -0.1773  1.5120
 2567SOL     OW19354   5.688   9.303   4.789 -0.8531  0.3553  0.0634
 2567SOL    HW119355   5.735   9.267   4.870 -1.3808  0.6590  0.5130
 2567SOL    HW219356   5.618   9.368   4.818 -1.8893 -0.4547 -0.5616
 2568SOL     OW19357   3.771   1.005   5.951  0.2177 -0.1957  0.3027
 2568SOL    HW119358   3.704   1.077   5.967  0.5405 -0.4901  3.1472
 2568SOL    HW219359   3.724   0.917   5.939 -0.0011 -0.0447  0.0460
 2569SOL     OW19360   1.895   8.707   9.968 -0.5520 -0.1322 -0.1729
 2569SOL    HW119361   1.799   8.720   9.993 -0.5353  0.6880 -0.5217
 2569SOL    HW219362   1.948   8.785  10.001  0.3969 -1.6657  2.0806
 2570SOL     OW19363   9.111   1.971   4.690 -0.0723  1.1011  0.1693
 2570SOL    HW119364   9.118   1.913   4.608  0.3983  1.0406  0.2503
 2570SOL    HW219365   9.038   1.936   4.749  0.9730 -0.1090  0.7683
 2571SOL     OW19366   7.853   0.685   2.620 -0.4933  0.5496  0.2678
 2571SOL    HW119367   7.799   0.708   2.539 -1.0816  1.9383  1.0313
 2571SOL    HW219368   7.821   0.599   2.659 -1.2618  0.6917 -0.0541
 2572SOL     OW19369   9.980   1.068   1.852 -0.2517 -0.1544 -0.2904
 2572SOL    HW119370   9.970   1.167   1.845  1.1668  0.0013 -0.1075
 2572SOL    HW219371  10.021   1.033   1.768  1.2236 -0.3285  0.5058
 2573SOL     OW19372   4.846   1.265   1.496  0.0863 -0.1176 -0.8561
 2573SOL    HW119373   4.785   1.270   1.417  2.6298  1.1258 -2.8149
 2573SOL    HW219374   4.854   1.170   1.526 -2.1550 -0.4011 -1.0417
 2574SOL     OW19375   6.276   1.606   1.599  0.3386 -0.1868 -0.1096
 2574SOL    HW119376   6.276   1.555   1.513  0.5944 -1.9017  0.8797
 2574SOL    HW219377   6.255   1.544   1.675 -0.4250  1.4037  1.0098
 2575SOL     OW19378   0.286   4.204   6.516 -0.2805  0.6576  0.1439
 2575SOL    HW119379   0.357   4.158   6.569 -1.1979  0.9552  1.6603
 2575SOL    HW219380   0.227   4.135   6.473  0.5698  0.4155 -0.6503
 2576SOL     OW19381   0.115   3.829   3.833  0.5787  0.1770 -0.0016
 2576SOL    HW119382   0.104   3.742   3.881  1.1915 -0.0246 -0.2230
 2576SOL    HW219383   0.046   3.894   3.866  0.2631 -0.3182  0.3243
 2577SOL     OW19384   4.285   3.926   6.455 -0.0533  0.2345  0.3991
 2577SOL    HW119385   4.285   4.016   6.412 -0.8539 -0.0302 -0.1733
 2577SOL    HW219386   4.329   3.932   6.545  0.8554  0.9637 -0.0890
 2578SOL     OW19387   4.768   1.146   7.307  0.7826  0.1830  0.3933
 2578SOL    HW119388   4.707   1.126   7.384 -1.5209 -1.3989 -1.7750
 2578SOL    HW219389   4.856   1.101   7.322 -0.3234 -1.7798  1.1642
 2579SOL     OW19390   2.283   1.351   4.419  0.3779 -0.2867 -0.1876
 2579SOL    HW119391   2.363   1.341   4.360  0.3024 -1.3974 -0.1153
 2579SOL    HW219392   2.309   1.399   4.503  0.8224 -0.0831 -0.4388
 2580SOL     OW19393   1.973   6.396   1.138 -0.6327 -0.4177 -0.0190
 2580SOL    HW119394   2.014   6.314   1.098  0.3871  0.5739 -1.0181
 2580SOL    HW219395   1.893   6.370   1.192 -1.4925 -1.8711 -1.9437
 2581SOL     OW19396   0.857   5.038   2.159 -0.2175  0.1492  0.4865
 2581SOL    HW119397   0.884   5.054   2.064  1.2364 -1.6823  0.5752
 2581SOL    HW219398   0.781   5.098   2.182 -0.8267  0.3680 -1.9561
 2582SOL     OW19399   4.174   9.042   1.289  0.0911 -0.5352 -0.3644
 2582SOL    HW119400   4.200   8.998   1.375  0.5901  0.4320 -0.0074
 2582SOL    HW219401   4.252   9.095   1.255 -0.0622 -1.0227 -1.4798
 2583SOL     OW19402   3.161   1.149   3.379 -0.1151 -0.3065  0.2945
 2583SOL    HW119403   3.087   1.158   3.313  1.3073 -2.9780 -1.7294
 2583SOL    HW219404   3.122   1.131   3.470 -2.0804  3.5806  0.3420
 2584SOL     OW19405   2.136   9.336   6.489  0.9119  0.5117  0.3540
 2584SOL    HW119406   2.157   9.391   6.408 -0.5731 -0.1487 -0.4948
 2584SOL    HW219407   2.059   9.276   6.470  2.1859 -1.5322  1.4427
 2585SOL     OW19408   1.162   5.814   0.284  0.0267  0.2530  1.1246
 2585SOL    HW119409   1.076   5.774   0.315 -1.0700  1.2269 -0.5686
 2585SOL    HW219410   1.220   5.834   0.362 -1.5335  0.1288  2.3251
 2586SOL     OW19411   4.042   2.545   1.226 -0.2637 -0.3017 -0.1116
 2586SOL    HW119412   4.022   2.606   1.303 -1.3721 -0.5439 -0.1971
 2586SOL    HW219413   4.047   2.451   1.259  2.0037 -0.1227  0.1155
 2587SOL     OW19414   4.455   4.685   0.641  0.5143  0.8780  0.0004
 2587SOL    HW119415   4.407   4.753   0.584 -1.1861 -0.2716  0.0356
 2587SOL    HW219416   4.419   4.594   0.622  3.1946 -0.1281 -0.4655
 2588SOL     OW19417   4.150   4.815   5.388  0.4621  0.2346 -0.5791
 2588SOL    HW119418   4.232   4.801   5.444 -2.1334  1.6231  3.8237
 2588SOL    HW219419   4.094   4.732   5.389 -0.0379  0.5725 -0.3325
 2589SOL     OW19420   9.481   6.058   0.852  0.2458  0.0723 -0.1561
 2589SOL    HW119421   9.568   6.064   0.803 -0.8276  2.3100 -1.8947
 2589SOL    HW219422   9.406   6.049   0.786 -0.8409 -2.3134  1.3354
 2590SOL     OW19423   4.876   0.795   0.956 -0.0764  0.3656 -0.6435
 2590SOL    HW119424   4.862   0.758   1.049 -1.5145 -0.9564 -1.3483
 2590SOL    HW219425   4.947   0.743   0.910  0.4503  0.8487 -0.3805
 2591SOL     OW19426   1.098   0.011   0.341 -0.0275  0.1574  0.0367
 2591SOL    HW119427   1.009   0.024   0.297  0.6529 -0.3426 -1.5208
 2591SOL    HW219428   1.110   0.080   0.412 -2.2033 -0.5642  1.1677
 2592SOL     OW19429   5.222   9.462   6.160 -0.2311  0.6566 -0.0230
 2592SOL    HW119430   5.249   9.547   6.116  1.4213 -1.1546 -2.6547
 2592SOL    HW219431   5.134   9.431   6.123  0.3507 -0.0097 -0.8698
 2593SOL     OW19432   2.690   3.789   1.652 -0.9796  0.6662  0.2449
 2593SOL    HW119433   2.661   3.877   1.690  0.4669  0.3585  2.1269
 2593SOL    HW219434   2.691   3.721   1.725  1.0748 -0.1257 -0.5056
 2594SOL     OW19435   8.691   3.183   1.437  0.5089  0.4033  0.2179
 2594SOL    HW119436   8.688   3.083   1.431 -3.0771  0.4306  0.1258
 2594SOL    HW219437   8.647   3.212   1.522 -0.1695  1.9373 -0.6408
 2595SOL     OW19438   2.074   7.753   4.830  0.3070  0.3926 -0.2200
 2595SOL    HW119439   1.987   7.762   4.878 -0.2663  0.4853 -1.2627
 2595SOL    HW219440   2.146   7.800   4.882 -0.2064  0.0793  0.7816
 2596SOL     OW19441   0.697   5.287   1.080  0.6365  0.4209 -0.2624
 2596SOL    HW119442   0.647   5.365   1.118  1.1345  0.9432 -0.6622
 2596SOL    HW219443   0.633   5.214   1.058 -0.0318  1.2804 -1.2541
 2597SOL     OW19444   0.008   0.207   2.178  0.2170 -0.0688  0.5156
 2597SOL    HW119445   0.085   0.169   2.127 -1.1185 -0.5471 -1.1767
 2597SOL    HW219446   0.037   0.229   2.271  2.5112  0.1656 -0.2296
 2598SOL     OW19447   1.450   1.966   6.930 -0.4249 -0.4799 -0.1861
 2598SOL    HW119448   1.450   1.996   7.026 -1.6866 -0.7973 -0.0742
 2598SOL    HW219449   1.437   1.867   6.926 -0.8715 -0.4039 -0.6966
 2599SOL     OW19450   3.882   4.689   5.668 -0.3929  0.1920 -0.3300
 2599SOL    HW119451   3.814   4.757   5.639  1.0047  1.0198 -1.7425
 2599SOL    HW219452   3.972   4.732   5.674  0.0534 -0.9494  1.3117
 2600SOL     OW19453   8.204   0.256   3.552  0.2551 -0.0783  0.0625
 2600SOL    HW119454   8.128   0.283   3.612  1.2984  0.8075  1.0050
 2600SOL    HW219455   8.287   0.302   3.581  1.9574 -3.6864  1.2428
 2601SOL     OW19456   7.327   9.275   3.495 -0.1529 -0.0609 -0.1310
 2601SOL    HW119457   7.413   9.230   3.520 -0.0606  0.9194  1.3379
 2601SOL    HW219458   7.311   9.262   3.397  2.7603  1.5213 -0.8868
 2602SOL     OW19459   2.580   9.185   3.963 -0.3140  0.0899 -0.4038
 2602SOL    HW119460   2.492   9.182   3.916 -0.6034  0.2152  0.1296
 2602SOL    HW219461   2.650   9.219   3.899 -1.0766  2.1520 -0.2019
 2603SOL     OW19462   0.626   2.656   7.221 -0.0321 -0.3960  0.1688
 2603SOL    HW119463   0.536   2.676   7.183 -0.0337  0.6934  0.7192
 2603SOL    HW219464   0.634   2.558   7.238 -0.3107 -0.8033 -1.9106
 2604SOL     OW19465   2.176   0.390   0.039  0.2359  0.4846 -0.5092
 2604SOL    HW119466   2.208   0.335   0.116  0.9205  0.1203 -1.0477
 2604SOL    HW219467   2.105   0.339  -0.010  1.5640 -0.3464 -1.5890
 2605SOL     OW19468   6.896   8.702   1.932 -0.4498 -0.1020  0.6061
 2605SOL    HW119469   6.870   8.748   1.847 -0.8923  0.6930  1.1620
 2605SOL    HW219470   6.971   8.753   1.975 -1.3681  0.4739  1.5461
 2606SOL     OW19471   4.455   8.492   4.589 -0.2493 -0.6978 -0.2594
 2606SOL    HW119472   4.444   8.556   4.665 -2.1656 -0.0811 -1.0078
 2606SOL    HW219473   4.545   8.503   4.548 -0.0155  0.4732  0.5580
 2607SOL     OW19474   7.667   9.281   6.450 -0.5587 -0.1554  0.2253
 2607SOL    HW119475   7.603   9.345   6.408 -0.2298  0.2824  0.3745
 2607SOL    HW219476   7.709   9.224   6.379  0.0177  0.6009 -0.0477
 2608SOL     OW19477   2.684   2.714   1.813  0.5140 -0.2579 -0.2622
 2608SOL    HW119478   2.701   2.808   1.844  0.3899  0.2281 -1.6405
 2608SOL    HW219479   2.772   2.665   1.805  0.5354 -0.4384  0.9832
 2609SOL     OW19480   9.792   0.641   4.638  0.1632  0.1736 -0.0603
 2609SOL    HW119481   9.888   0.663   4.620  0.0634  0.8266  0.2061
 2609SOL    HW219482   9.781   0.620   4.735 -0.0599  0.5976  0.0042
 2610SOL     OW19483   2.388   3.224   4.800 -0.6584 -0.7133 -0.6859
 2610SOL    HW119484   2.479   3.235   4.762 -1.1440 -0.4137 -1.7767
 2610SOL    HW219485   2.392   3.230   4.900  0.1207  2.1548 -0.8533
 2611SOL     OW19486   3.998   1.976   6.189  0.2667  0.1273 -0.2606
 2611SOL    HW119487   3.983   2.002   6.285 -0.5797 -0.7628 -0.1454
 2611SOL    HW219488   3.917   2.001   6.135  0.3316 -0.2944 -0.5534
 2612SOL     OW19489   3.581   6.725   4.284  0.1895  0.4389 -0.4132
 2612SOL    HW119490   3.658   6.685   4.234 -0.1483 -0.2921 -0.3640
 2612SOL    HW219491   3.602   6.819   4.309  1.2454  0.1006 -0.0150
 2613SOL     OW19492   5.675   4.519   0.632 -0.9533 -0.1754  0.3623
 2613SOL    HW119493   5.632   4.558   0.550  2.3586 -0.2347 -1.4747
 2613SOL    HW219494   5.659   4.420   0.634  1.2580 -0.6128 -1.7367
 2614SOL     OW19495   8.869   5.708   4.425 -0.1555  0.5372  0.1834
 2614SOL    HW119496   8.929   5.629   4.436 -0.0941  0.3168 -1.6035
 2614SOL    HW219497   8.889   5.753   4.338 -1.7774  1.1533  0.1177
 2615SOL     OW19498   1.613   8.223   3.562 -0.3408  0.4163 -0.1596
 2615SOL    HW119499   1.523   8.241   3.523 -1.0194 -1.2982  0.5330
 2615SOL    HW219500   1.615   8.257   3.656 -0.0903  0.9323 -0.3546
 2616SOL     OW19501   2.852   4.887   1.429 -0.1845  0.4302  0.6495
 2616SOL    HW119502   2.915   4.812   1.408 -1.4290  0.0360 -1.9254
 2616SOL    HW219503   2.804   4.868   1.514 -0.9375 -2.0649 -0.2747
 2617SOL     OW19504   3.547   6.635   3.623  0.0548 -0.1678  0.2425
 2617SOL    HW119505   3.641   6.602   3.632 -0.6507 -2.0199  1.0682
 2617SOL    HW219506   3.494   6.606   3.702 -1.1981  0.9397 -0.1779
 2618SOL     OW19507   9.145   2.572   0.016 -0.4264 -0.8551  0.3567
 2618SOL    HW119508   9.101   2.556  -0.073 -1.9526 -0.0879  0.9665
 2618SOL    HW219509   9.085   2.626   0.074  1.0439 -0.3773  1.4682
 2619SOL     OW19510   7.273   1.000   7.589 -0.3914 -0.1852  0.3775
 2619SOL    HW119511   7.208   1.056   7.641 -1.6193 -1.1839 -0.0311
 2619SOL    HW219512   7.227   0.964   7.508  0.8069 -0.5918 -0.1219
 2620SOL     OW19513   8.578   9.158   4.977 -0.2340 -0.0353  0.5611
 2620SOL    HW119514   8.484   9.138   4.948  0.6886 -2.7894 -0.6910
 2620SOL    HW219515   8.609   9.088   5.041  1.9485 -0.8698 -1.3318
 2621SOL     OW19516   8.882   4.214   0.776 -0.0311  0.2641  0.4100
 2621SOL    HW119517   8.866   4.306   0.811 -0.9011  0.0779  0.5116
 2621SOL    HW219518   8.944   4.165   0.837  0.0719  0.6278  0.5964
 2622SOL     OW19519   8.798   7.973   1.649  0.0633 -0.5714  0.7817
 2622SOL    HW119520   8.793   8.051   1.586  0.9210 -0.2979  1.0529
 2622SOL    HW219521   8.753   7.998   1.735 -0.4970 -0.7083  0.5347
 2623SOL     OW19522   5.866   5.691   2.432 -0.3632 -0.0057  0.8006
 2623SOL    HW119523   5.832   5.765   2.491  1.5435 -0.1743  2.1779
 2623SOL    HW219524   5.809   5.684   2.351 -0.6235  2.9681  0.6610
 2624SOL     OW19525   3.701   6.582   4.471 -0.1476 -0.0306 -0.0719
 2624SOL    HW119526   3.691   6.616   4.565 -1.7389 -2.5882  0.7320
 2624SOL    HW219527   3.639   6.631   4.411 -2.0480 -1.1057  0.9764
 2625SOL     OW19528   7.622   0.068   5.977  0.6862  0.5008 -0.3329
 2625SOL    HW119529   7.648   0.160   6.005  2.8829 -0.5600  1.3337
 2625SOL    HW219530   7.645   0.004   6.050 -1.6365 -1.2757 -1.0907
 2626SOL     OW19531   2.323   5.696   7.072 -0.4918 -0.3547 -0.4658
 2626SOL    HW119532   2.362   5.631   7.007  0.8933 -0.0054 -0.0103
 2626SOL    HW219533   2.224   5.684   7.076 -0.4586 -1.1503 -1.7812
 2627SOL     OW19534   7.641   6.898   5.174  0.3566  0.2869  0.1355
 2627SOL    HW119535   7.574   6.918   5.102  0.9126 -0.1063 -0.4934
 2627SOL    HW219536   7.706   6.830   5.141  0.8519  0.3994  0.8753
 2628SOL     OW19537   4.340   8.696   1.275 -0.5051  1.1430 -0.4585
 2628SOL    HW119538   4.327   8.693   1.176 -0.3363  1.2173 -0.4830
 2628SOL    HW219539   4.421   8.643   1.299 -1.2639  0.0741 -0.2343
 2629SOL     OW19540   2.327   0.045   4.870  0.4204 -0.0401  0.9913
 2629SOL    HW119541   2.304   0.101   4.791 -0.0712  0.3663  1.4223
 2629SOL    HW219542   2.426   0.046   4.884  0.6205 -0.9941 -0.2695
 2630SOL     OW19543   2.629   8.618   3.706  0.2376 -0.4567  0.3088
 2630SOL    HW119544   2.569   8.611   3.626  1.4945  0.3911 -0.7313
 2630SOL    HW219545   2.632   8.530   3.753 -0.2619 -1.0597 -0.7679
 2631SOL     OW19546   4.781   8.546   2.181 -0.0874 -0.2007  0.3051
 2631SOL    HW119547   4.870   8.574   2.145  0.7754 -2.0609  0.9251
 2631SOL    HW219548   4.728   8.502   2.109 -0.1021  0.0149  0.1859
 2632SOL     OW19549   6.506   2.462   2.098 -0.4989  0.1902 -0.1955
 2632SOL    HW119550   6.581   2.516   2.058  0.0569 -1.2994 -1.2350
 2632SOL    HW219551   6.420   2.512   2.089  0.2042  1.4586  0.0390
 2633SOL     OW19552   7.675   5.953   2.813  0.2136 -0.3569 -0.1300
 2633SOL    HW119553   7.602   6.017   2.791  1.3453  0.5057 -1.4831
 2633SOL    HW219554   7.706   5.966   2.907  1.8873  2.5739 -1.0368
 2634SOL     OW19555   1.208   5.724   6.922 -0.4737 -0.1829 -0.1617
 2634SOL    HW119556   1.131   5.781   6.949  0.0730  0.7542 -0.5723
 2634SOL    HW219557   1.183   5.670   6.842 -0.7859 -0.0714 -0.1394
 2635SOL     OW19558   7.387   6.057   6.289  0.5487 -0.4752  0.4736
 2635SOL    HW119559   7.421   6.143   6.328  1.0026 -0.4583  0.0524
 2635SOL    HW219560   7.459   6.015   6.233 -0.1545 -0.3908 -0.5095
 2636SOL     OW19561   8.131   7.736   7.715 -0.6221  0.3714 -0.0353
 2636SOL    HW119562   8.068   7.668   7.679 -1.9450  1.5846 -0.0889
 2636SOL    HW219563   8.218   7.731   7.666 -0.3688 -1.8906  0.6245
 2637SOL     OW19564   6.246   4.938   1.063 -0.3556 -0.5404 -0.1366
 2637SOL    HW119565   6.305   4.858   1.076  0.1642 -0.4195 -1.7748
 2637SOL    HW219566   6.277   5.012   1.123  1.3522 -0.3764 -1.1810
 2638SOL     OW19567   1.230   0.067   6.414  0.0099  0.0683 -0.5821
 2638SOL    HW119568   1.132   0.066   6.433  0.2150 -1.3921  0.4321
 2638SOL    HW219569   1.280   0.025   6.489  1.4978  1.4913 -0.7420
 2639SOL     OW19570   3.163   9.586   1.710  0.0555 -0.3672  0.1059
 2639SOL    HW119571   3.250   9.626   1.682  0.2380 -1.7205 -1.3339
 2639SOL    HW219572   3.107   9.567   1.629 -2.6342  2.7439  1.1302
 2640SOL     OW19573   9.709   8.738   2.091  0.3287  0.0778 -0.3071
 2640SOL    HW119574   9.737   8.690   2.174 -0.4731 -1.6423 -1.0108
 2640SOL    HW219575   9.762   8.705   2.013  0.3528  0.9361 -0.6653
 2641SOL     OW19576   4.274   4.844   0.485 -0.8002  0.3186 -0.4228
 2641SOL    HW119577   4.312   4.775   0.423 -0.8666  1.0224 -1.2556
 2641SOL    HW219578   4.177   4.828   0.498 -0.5584 -0.4950  0.3833
 2642SOL     OW19579   5.479   0.819   6.459  0.4543 -0.1052  0.1903
 2642SOL    HW119580   5.383   0.790   6.457  0.4548  0.0310 -2.4530
 2642SOL    HW219581   5.486   0.903   6.513 -1.3083  1.1999 -1.5232
 2643SOL     OW19582   1.553   7.217   6.305  0.0619 -0.0735  0.1945
 2643SOL    HW119583   1.534   7.215   6.403 -2.1911 -2.7277 -0.2432
 2643SOL    HW219584   1.548   7.124   6.268  0.6282  0.9228 -2.5054
 2644SOL     OW19585   1.115   9.930   1.169  0.1345  0.3217  0.4128
 2644SOL    HW119586   1.192   9.907   1.110 -0.4049  1.7794 -0.9154
 2644SOL    HW219587   1.145   9.935   1.264  1.6120  0.5952 -0.0583
 2645SOL     OW19588   3.663   5.697   7.358  0.7613  0.3885 -0.1465
 2645SOL    HW119589   3.608   5.630   7.307 -0.6408  0.6487  0.9992
 2645SOL    HW219590   3.712   5.651   7.432  0.1536  0.5600  0.3605
 2646SOL     OW19591   8.427   0.554   4.641 -0.4904  0.4268 -0.0564
 2646SOL    HW119592   8.472   0.494   4.707 -1.7336 -0.4419  0.0292
 2646SOL    HW219593   8.484   0.635   4.624  1.2840 -0.8687 -0.3249
 2647SOL     OW19594   0.472   3.878   3.956 -0.2914 -0.5991 -0.8268
 2647SOL    HW119595   0.418   3.881   4.040  0.6415 -0.4043 -0.2249
 2647SOL    HW219596   0.412   3.889   3.877 -1.0753  0.0868 -0.1418
 2648SOL     OW19597   5.944   9.422   2.780 -0.4736 -0.2776 -0.9375
 2648SOL    HW119598   5.856   9.466   2.795 -0.4419 -0.4354 -0.2599
 2648SOL    HW219599   6.017   9.478   2.820  0.0013  0.9823 -3.4263
 2649SOL     OW19600   7.978   9.574   4.358  0.0882 -0.3019 -0.4833
 2649SOL    HW119601   7.974   9.475   4.372  1.2442 -0.3261 -0.2996
 2649SOL    HW219602   8.001   9.619   4.445 -1.5686  0.2258 -0.2925
 2650SOL     OW19603   7.734   1.297   4.456 -0.0165  0.5488 -0.2101
 2650SOL    HW119604   7.744   1.331   4.549 -0.4627 -0.3715  0.1824
 2650SOL    HW219605   7.679   1.361   4.402 -0.9399  0.4124  0.5508
 2651SOL     OW19606   0.190   4.497   5.826  0.4567 -0.8746 -0.3428
 2651SOL    HW119607   0.145   4.547   5.901  0.3153  0.2034 -1.1267
 2651SOL    HW219608   0.288   4.493   5.843  0.5616  0.3106 -0.6231
 2652SOL     OW19609   8.087   7.309   4.925 -0.1036 -0.1754  0.2168
 2652SOL    HW119610   8.132   7.273   5.006  1.9353  0.1331 -0.7564
 2652SOL    HW219611   8.024   7.382   4.951 -1.3264 -1.7380  1.7646
 2653SOL     OW19612   1.658   4.683   6.799 -0.7646  0.2615 -0.0122
 2653SOL    HW119613   1.638   4.738   6.717  1.7552 -0.7919 -1.3621
 2653SOL    HW219614   1.641   4.587   6.780  1.6650 -0.2147  0.0594
 2654SOL     OW19615   8.852   1.838   3.473  0.0051  0.3638  0.0170
 2654SOL    HW119616   8.855   1.896   3.391  0.4409  1.4208  0.7665
 2654SOL    HW219617   8.771   1.860   3.526 -0.6368 -0.8015 -0.4615
 2655SOL     OW19618   0.746   1.398   3.286  0.0436 -0.2030  0.1327
 2655SOL    HW119619   0.788   1.312   3.256  1.1099 -0.0709  1.2584
 2655SOL    HW219620   0.709   1.446   3.206 -1.0569 -1.9602 -0.4480
 2656SOL     OW19621   7.869   8.734   1.787  0.3779  0.1120 -0.4664
 2656SOL    HW119622   7.897   8.638   1.790  0.8879  0.2551 -0.6062
 2656SOL    HW219623   7.884   8.776   1.876 -0.1294 -0.0162 -0.3198
 2657SOL     OW19624   3.063   2.741   2.040  0.9561  0.7459  0.4731
 2657SOL    HW119625   3.072   2.691   1.954 -0.0572 -0.8578  1.2726
 2657SOL    HW219626   3.122   2.699   2.109  0.1647  0.6977  1.1280
 2658SOL     OW19627   0.252   6.610   4.053  0.4092  1.5515 -0.0844
 2658SOL    HW119628   0.228   6.552   4.131  0.3910  0.8121 -0.6327
 2658SOL    HW219629   0.343   6.585   4.020 -0.2029  0.8373 -1.2425
 2659SOL     OW19630   4.027   4.971   3.214 -0.1257  0.2806 -0.1623
 2659SOL    HW119631   3.984   4.908   3.279  0.8443  0.8104  1.0039
 2659SOL    HW219632   4.089   4.920   3.155 -1.2266 -0.2493 -0.8757
 2660SOL     OW19633   0.385   2.004   7.171  0.1218 -0.0436 -0.3242
 2660SOL    HW119634   0.291   1.992   7.203  0.1593 -0.1772 -0.2650
 2660SOL    HW219635   0.433   1.916   7.172 -0.3284 -0.3284 -2.1885
 2661SOL     OW19636   9.176   3.980   4.319 -0.2551  0.3002  0.2357
 2661SOL    HW119637   9.220   3.918   4.254 -0.5293  2.4855 -2.0787
 2661SOL    HW219638   9.170   3.935   4.409 -0.7672 -3.1309 -1.4476
 2662SOL     OW19639   2.708   2.215   4.796  0.1104  0.0872 -0.3906
 2662SOL    HW119640   2.727   2.142   4.730 -2.5388 -0.7799 -0.2664
 2662SOL    HW219641   2.782   2.217   4.864  0.3285 -2.4225 -0.4736
 2663SOL     OW19642   4.223   9.189   7.099 -0.4612 -0.6673  0.2619
 2663SOL    HW119643   4.227   9.137   7.013  0.0108 -0.6023  0.2408
 2663SOL    HW219644   4.244   9.127   7.175 -0.7273 -0.6927  0.3152
 2664SOL     OW19645   0.263   4.014   1.610  0.7106 -0.2817  0.1189
 2664SOL    HW119646   0.332   4.010   1.682  0.3860  0.7801  0.4967
 2664SOL    HW219647   0.176   4.047   1.647  0.9534  1.7678 -1.0334
 2665SOL     OW19648   4.882   9.759   5.840 -0.1851  0.7396  0.3612
 2665SOL    HW119649   4.783   9.759   5.850 -0.2552 -0.5350 -0.2359
 2665SOL    HW219650   4.916   9.666   5.847  1.0252  1.2188  1.0357
 2666SOL     OW19651   6.900   2.026   6.452  0.0103 -0.2561 -0.4096
 2666SOL    HW119652   6.850   2.075   6.524 -1.0842 -1.7374 -0.1318
 2666SOL    HW219653   6.864   2.053   6.363 -0.5412 -0.4946 -0.2629
 2667SOL     OW19654   9.388   9.244   1.038 -0.2123  0.1370 -0.1297
 2667SOL    HW119655   9.319   9.295   1.089  1.2276 -0.1166  2.1314
 2667SOL    HW219656   9.465   9.305   1.017 -0.5629  0.1005 -1.5478
 2668SOL     OW19657   5.554   7.493   3.414  0.2520  0.2395 -0.1825
 2668SOL    HW119658   5.525   7.549   3.492 -1.5934 -1.4237  0.3641
 2668SOL    HW219659   5.553   7.549   3.331 -2.7765  0.7463  0.1319
 2669SOL     OW19660   8.737   4.614   4.210  0.2909 -0.2140  0.3079
 2669SOL    HW119661   8.739   4.538   4.145  1.5997 -0.2155  0.3391
 2669SOL    HW219662   8.688   4.586   4.292 -0.3743 -0.5913 -0.2121
 2670SOL     OW19663   3.861   9.310   3.742 -0.3987  0.0542  0.4050
 2670SOL    HW119664   3.873   9.259   3.657  1.4864 -1.2278  1.4351
 2670SOL    HW219665   3.925   9.387   3.745 -1.8286  1.3144 -0.2043
 2671SOL     OW19666   0.728   5.824   0.845  0.0422  0.2219  0.0792
 2671SOL    HW119667   0.797   5.837   0.773 -1.5338  2.3722 -1.0901
 2671SOL    HW219668   0.722   5.907   0.900 -1.2975 -0.1184  0.4547
 2672SOL     OW19669   3.692   1.887   0.951  0.3696  0.1337 -0.0820
 2672SOL    HW119670   3.633   1.821   0.904 -0.6258 -0.0883  1.4397
 2672SOL    HW219671   3.685   1.975   0.904 -1.0463  0.0629 -0.0488
 2673SOL     OW19672   8.377   6.589   0.262 -0.4428 -0.2478  0.1081
 2673SOL    HW119673   8.319   6.508   0.267  0.0450 -0.7335 -1.7006
 2673SOL    HW219674   8.321   6.668   0.238 -1.0301  0.1070  2.5210
 2674SOL     OW19675   0.440   6.073   2.662  0.0439  0.5963  0.1790
 2674SOL    HW119676   0.495   6.156   2.669 -0.4575  0.8840  0.7842
 2674SOL    HW219677   0.370   6.085   2.591  0.3280  0.4740 -0.1275
 2675SOL     OW19678   3.712   9.451   2.171 -0.6783 -0.4433 -0.1538
 2675SOL    HW119679   3.802   9.487   2.148  0.4446 -1.1863  2.8534
 2675SOL    HW219680   3.661   9.519   2.223 -0.9154 -0.9124  0.2283
 2676SOL     OW19681   5.012   9.131   7.147  0.6231 -0.0201 -0.4250
 2676SOL    HW119682   4.990   9.226   7.123 -0.2906  0.2682  1.4234
 2676SOL    HW219683   5.006   9.120   7.247  0.3981 -2.1183 -0.6515
 2677SOL     OW19684   9.504   8.569   7.020 -0.0527 -0.0865 -0.6999
 2677SOL    HW119685   9.504   8.669   7.021 -2.4874 -0.0321  2.0503
 2677SOL    HW219686   9.597   8.536   7.033  0.3645  1.8746  1.6996
 2678SOL     OW19687   3.615   0.655   0.709 -0.4714 -0.0197  0.3465
 2678SOL    HW119688   3.592   0.661   0.612 -1.9159 -1.0933  0.6289
 2678SOL    HW219689   3.616   0.748   0.748 -0.6263  0.3493 -0.5086
 2679SOL     OW19690   5.166   0.717   3.722 -0.4273 -0.5827 -0.3399
 2679SOL    HW119691   5.112   0.705   3.639 -1.4259 -1.5863  0.4413
 2679SOL    HW219692   5.184   0.815   3.736 -0.9238 -0.3434 -1.3118
 2680SOL     OW19693   8.409   8.476   1.292 -0.1083 -0.2226  0.1508
 2680SOL    HW119694   8.432   8.388   1.250 -0.7343  0.2658 -1.2519
 2680SOL    HW219695   8.312   8.478   1.315  0.0232 -0.1141  0.6940
 2681SOL     OW19696   2.817   1.825   7.262 -0.0082  0.2847  0.3534
 2681SOL    HW119697   2.735   1.788   7.219 -0.0761 -2.4117  2.7023
 2681SOL    HW219698   2.793   1.905   7.318 -0.9104 -0.1179  0.5371
 2682SOL     OW19699   0.651   5.293   7.746  0.4105 -0.6940 -0.2721
 2682SOL    HW119700   0.654   5.245   7.833 -2.2278  0.9814  0.8085
 2682SOL    HW219701   0.596   5.240   7.681  0.5075 -0.8463 -0.2313
 2683SOL     OW19702   3.982   2.885   7.479 -0.2347 -0.1249  0.1537
 2683SOL    HW119703   4.039   2.943   7.421 -0.1669 -1.5094 -1.1938
 2683SOL    HW219704   3.983   2.791   7.445 -2.9102 -0.2988  0.3940
 2684SOL     OW19705   4.044   2.529   0.812 -0.2207 -0.3643  0.8666
 2684SOL    HW119706   4.024   2.624   0.789 -1.5346 -0.8829 -0.1936
 2684SOL    HW219707   4.089   2.526   0.902  1.1181  1.3478  0.2929
 2685SOL     OW19708   1.581   6.882   4.920  0.5710  0.2018 -0.0413
 2685SOL    HW119709   1.620   6.803   4.872 -1.6656  0.1951 -1.9251
 2685SOL    HW219710   1.588   6.962   4.861 -3.0463  0.0038 -0.8319
 2686SOL     OW19711   0.086   2.107   4.340  0.1937  0.1305  0.0493
 2686SOL    HW119712   0.033   2.023   4.338  0.0257  0.1961  1.2790
 2686SOL    HW219713   0.026   2.185   4.361  0.2872  0.6057 -1.4269
 2687SOL     OW19714   3.065   0.670   3.699 -0.4007  0.0049 -0.1221
 2687SOL    HW119715   3.159   0.699   3.713 -0.6426 -0.1070  1.8919
 2687SOL    HW219716   3.022   0.727   3.629  2.1462 -2.1322 -3.6134
 2688SOL     OW19717   5.945   0.335   4.185  0.2774  0.5525 -0.3644
 2688SOL    HW119718   5.973   0.283   4.265 -1.4930  1.0277  0.5965
 2688SOL    HW219719   5.856   0.377   4.202  0.8578  2.4447 -1.7803
 2689SOL     OW19720   7.525   6.119   5.252 -0.1145 -0.0530  0.2764
 2689SOL    HW119721   7.484   6.194   5.199  0.5977  0.7296  0.8215
 2689SOL    HW219722   7.461   6.091   5.324 -0.9254 -0.8602 -0.7442
 2690SOL     OW19723   1.991   5.365   2.579  0.2899  0.4106 -0.0463
 2690SOL    HW119724   2.087   5.386   2.594  0.6651 -0.4546 -1.2090
 2690SOL    HW219725   1.968   5.380   2.483 -1.0155  1.6932  0.4436
 2691SOL     OW19726   4.699   6.043   2.585 -0.3456  0.2403 -0.0500
 2691SOL    HW119727   4.683   5.996   2.671 -1.9742 -0.4493 -0.7139
 2691SOL    HW219728   4.735   5.979   2.518  1.2232  0.8457  0.1931
 2692SOL     OW19729   1.105   0.501   2.672 -0.0306  0.4038 -0.1323
 2692SOL    HW119730   1.092   0.502   2.573 -0.7490  3.1028 -0.0376
 2692SOL    HW219731   1.191   0.547   2.695  1.3708 -2.3412  0.3932
 2693SOL     OW19732   8.872   1.897   5.602 -0.3466 -0.2916 -0.3741
 2693SOL    HW119733   8.815   1.950   5.664  1.3759 -0.1397  1.1361
 2693SOL    HW219734   8.953   1.950   5.578  0.1629 -1.2644 -0.8344
 2694SOL     OW19735   0.986   9.252   1.602  0.0509 -0.2326  0.3224
 2694SOL    HW119736   1.029   9.168   1.569  2.7249  0.2729  2.3443
 2694SOL    HW219737   0.952   9.237   1.695 -0.5215  0.5980  0.2553
 2695SOL     OW19738   1.077   3.413   5.070 -0.1243 -0.3425  0.1934
 2695SOL    HW119739   1.032   3.437   4.984 -1.9168  2.4199  1.8014
 2695SOL    HW219740   1.065   3.316   5.089 -1.4165 -0.5700 -1.6883
 2696SOL     OW19741   8.890   1.089   5.347  0.2239  0.1190  0.6272
 2696SOL    HW119742   8.951   1.020   5.309  1.9231  1.0339  1.6258
 2696SOL    HW219743   8.892   1.084   5.447  1.4326  2.4705  0.7529
 2697SOL     OW19744   2.231   7.512   5.670 -0.5389 -0.3213 -0.2088
 2697SOL    HW119745   2.238   7.612   5.669  1.0009 -0.4199 -1.1990
 2697SOL    HW219746   2.284   7.476   5.747 -0.3003 -0.4252 -0.4212
 2698SOL     OW19747   0.054   0.148   5.592 -0.1886 -0.7030  0.5950
 2698SOL    HW119748   0.005   0.127   5.508  0.2998 -0.1960  0.1773
 2698SOL    HW219749   0.025   0.237   5.627  0.1652 -0.5639  0.5416
 2699SOL     OW19750   9.265   7.912   1.577 -0.3603  0.2739 -0.4584
 2699SOL    HW119751   9.242   7.887   1.483 -0.5739 -2.9761  0.4112
 2699SOL    HW219752   9.196   7.976   1.612 -0.6028  1.0368 -2.2915
 2700SOL     OW19753   0.875   3.639   7.229  0.8754  0.1301  0.2745
 2700SOL    HW119754   0.916   3.700   7.161  0.3159  0.3814  0.1580
 2700SOL    HW219755   0.947   3.588   7.276  1.2507 -0.2186 -0.6782
 2701SOL     OW19756   9.767   9.699   4.549 -0.1300  0.3966 -0.1674
 2701SOL    HW119757   9.799   9.747   4.631 -2.7334  0.8459  0.6087
 2701SOL    HW219758   9.769   9.600   4.567 -2.0877  0.5486  0.9828
 2702SOL     OW19759   7.755   0.389   7.122  0.3460  0.0565  0.2453
 2702SOL    HW119760   7.839   0.437   7.148 -1.0399  1.7796  1.6565
 2702SOL    HW219761   7.752   0.379   7.022  1.5266  1.2505  0.0778
 2703SOL     OW19762   1.381   9.181   3.430 -0.8503  0.0595  0.6726
 2703SOL    HW119763   1.395   9.264   3.483  0.4736  0.5873 -0.4802
 2703SOL    HW219764   1.447   9.112   3.457 -0.6203  0.0943  0.2163
 2704SOL     OW19765   8.463   5.467   3.265  0.1484  0.1440 -0.1566
 2704SOL    HW119766   8.484   5.559   3.233 -0.0607  0.7023  1.2565
 2704SOL    HW219767   8.522   5.444   3.343 -1.3432 -0.0063  0.9688
 2705SOL     OW19768   2.902   7.299   3.367 -0.5160  0.2893 -0.3930
 2705SOL    HW119769   2.881   7.202   3.357 -1.0146  0.3536  0.0326
 2705SOL    HW219770   2.863   7.334   3.452 -0.3077  0.8558 -0.5230
 2706SOL     OW19771   2.892   1.713   5.571 -0.5623 -0.3504  0.1782
 2706SOL    HW119772   2.963   1.702   5.641 -2.1256 -1.3873  1.6203
 2706SOL    HW219773   2.913   1.794   5.516  0.5685  0.6097  1.9665
 2707SOL     OW19774   3.653   4.871   2.234 -0.4008  0.1916  0.1185
 2707SOL    HW119775   3.654   4.966   2.203 -2.2643  0.4275  0.7047
 2707SOL    HW219776   3.662   4.810   2.156  1.3459  0.8436 -0.2117
 2708SOL     OW19777   4.499   5.022   4.729 -0.1807  0.0647 -0.2254
 2708SOL    HW119778   4.476   4.993   4.636 -2.7115  0.4769  0.2214
 2708SOL    HW219779   4.466   5.115   4.743 -2.0724 -0.8776  1.8608
 2709SOL     OW19780   3.549   1.517   7.464 -0.0346 -0.3200  0.0839
 2709SOL    HW119781   3.548   1.533   7.365 -0.9083 -2.2824 -0.2629
 2709SOL    HW219782   3.643   1.524   7.498  0.2734  0.3674 -0.8820
 2710SOL     OW19783   6.132   0.417   4.532  0.5813  0.0550 -0.2674
 2710SOL    HW119784   6.101   0.342   4.474  0.7708 -0.4154  0.2316
 2710SOL    HW219785   6.218   0.454   4.496  0.4803  0.0409 -0.5222
 2711SOL     OW19786   8.078   5.736   6.650  0.1549 -0.5953  0.2422
 2711SOL    HW119787   8.036   5.813   6.602  0.5997 -0.5390 -0.0670
 2711SOL    HW219788   8.029   5.719   6.735 -0.9637 -1.0328 -0.4833
 2712SOL     OW19789   7.197   6.614   2.521 -0.0308  0.0480 -0.0301
 2712SOL    HW119790   7.230   6.526   2.486  0.1524  0.1987 -0.2372
 2712SOL    HW219791   7.169   6.672   2.444  1.8536  0.9837 -0.0473
 2713SOL     OW19792   0.612   9.895   6.499 -0.6782 -0.7586  0.1420
 2713SOL    HW119793   0.634   9.985   6.460  1.2177 -0.6649  1.3539
 2713SOL    HW219794   0.523   9.865   6.464 -1.7156  1.9375  0.2945
 2714SOL     OW19795   3.751   3.464   7.434  0.2166 -0.2403  0.1093
 2714SOL    HW119796   3.708   3.548   7.399 -0.1252 -0.3719  0.2136
 2714SOL    HW219797   3.680   3.402   7.467  0.4373 -0.7896 -0.4476
 2715SOL     OW19798   8.645   8.806   3.787  0.1187 -0.3048 -0.3404
 2715SOL    HW119799   8.558   8.831   3.831 -0.6338 -3.0092 -0.1815
 2715SOL    HW219800   8.683   8.886   3.740 -2.4911  0.9239 -0.4549
 2716SOL     OW19801   0.295   9.990   3.401 -0.3231 -0.1319 -0.8699
 2716SOL    HW119802   0.345   9.933   3.336  2.2912 -1.9582  2.6353
 2716SOL    HW219803   0.357  10.057   3.442 -1.7316  0.4201  0.4040
 2717SOL     OW19804   0.748   9.994   4.703 -0.8590 -0.2925  0.3787
 2717SOL    HW119805   0.825   9.989   4.640  0.0237  1.2851  1.3056
 2717SOL    HW219806   0.677   9.930   4.674  1.1631 -2.4398  0.0286
 2718SOL     OW19807   1.892   8.454   5.589 -0.5032 -0.0768  0.1366
 2718SOL    HW119808   1.979   8.404   5.592 -0.3102  0.2113 -0.5292
 2718SOL    HW219809   1.879   8.503   5.675  0.5167  0.7575 -0.1720
 2719SOL     OW19810   6.458   9.485   3.328 -0.6248  0.8668 -0.6549
 2719SOL    HW119811   6.434   9.514   3.421 -0.2624  1.0482 -0.6170
 2719SOL    HW219812   6.530   9.415   3.333 -1.5530 -0.1167 -0.7397
 2720SOL     OW19813   9.863   4.635   2.729 -0.2628  0.0213  0.0087
 2720SOL    HW119814   9.872   4.673   2.821 -0.4001  1.8509 -0.7114
 2720SOL    HW219815   9.903   4.544   2.726  1.1228  0.5638  1.4992
 2721SOL     OW19816   5.448   2.133   4.742  0.3144  0.2183  0.4386
 2721SOL    HW119817   5.379   2.071   4.706  2.0534 -0.3625 -2.0977
 2721SOL    HW219818   5.539   2.100   4.715  1.4091  2.4976  1.2100
 2722SOL     OW19819   8.567   0.508   5.818  0.4056  0.2131  0.1541
 2722SOL    HW119820   8.526   0.569   5.886  1.5280  0.2200  0.8396
 2722SOL    HW219821   8.639   0.454   5.861 -0.2196 -1.2234 -0.5742
 2723SOL     OW19822   3.281   0.951   7.147  0.0376  0.1845 -0.0306
 2723SOL    HW119823   3.260   0.970   7.051 -0.0247 -0.5569 -0.1625
 2723SOL    HW219824   3.376   0.975   7.166 -0.0999  0.8337 -0.1446
 2724SOL     OW19825   4.434   0.821   5.998  0.1240 -0.1180 -0.3493
 2724SOL    HW119826   4.530   0.797   5.987 -0.4776 -2.2645 -1.1555
 2724SOL    HW219827   4.421   0.868   6.086  1.6399 -1.2803  0.5129
 2725SOL     OW19828   3.416   9.674   5.920 -0.0511  0.7729  0.1765
 2725SOL    HW119829   3.462   9.759   5.894  0.8486 -0.0620 -1.0449
 2725SOL    HW219830   3.460   9.598   5.872 -1.2461 -0.3008  0.7911
 2726SOL     OW19831   7.764   0.578   1.349 -0.0940  0.2327  0.0730
 2726SOL    HW119832   7.690   0.604   1.411 -0.9552 -0.7625 -0.5351
 2726SOL    HW219833   7.846   0.631   1.372 -0.8373  0.9756  1.0732
 2727SOL     OW19834   2.557   3.421   0.569  0.6208  0.8548 -0.4937
 2727SOL    HW119835   2.562   3.488   0.496  0.2551  0.9834 -0.4029
 2727SOL    HW219836   2.592   3.461   0.654  0.8715  0.7665 -0.5556
 2728SOL     OW19837   1.909   3.068   7.259 -0.6112  0.3708  0.3835
 2728SOL    HW119838   1.845   3.022   7.198 -1.3418  1.9593 -0.0581
 2728SOL    HW219839   2.002   3.060   7.222 -0.8293 -0.0590 -0.0848
 2729SOL     OW19840   6.509   1.644   4.811  0.3390 -0.1252 -0.1764
 2729SOL    HW119841   6.512   1.569   4.877 -1.8496  0.6341  0.8381
 2729SOL    HW219842   6.473   1.610   4.724 -0.0728 -0.3946  0.0961
 2730SOL     OW19843   7.470   8.819   6.659  0.4784 -0.3919 -0.1239
 2730SOL    HW119844   7.391   8.807   6.598  0.7324  0.2708 -0.5861
 2730SOL    HW219845   7.450   8.891   6.725  0.6284 -0.3628 -0.1112
 2731SOL     OW19846   0.286   1.572   6.368 -0.1676 -0.0351  0.3678
 2731SOL    HW119847   0.245   1.548   6.456  1.2888 -1.0239  0.7906
 2731SOL    HW219848   0.247   1.515   6.296  2.1947 -2.7620  1.1415
 2732SOL     OW19849   2.276   9.802   7.276 -0.1250  0.1120 -0.8892
 2732SOL    HW119850   2.314   9.851   7.197 -0.3574 -1.1536 -1.8103
 2732SOL    HW219851   2.264   9.705   7.252 -1.6534  0.0153  0.1918
 2733SOL     OW19852   5.552   7.483   3.815  0.1479  0.4325 -0.0946
 2733SOL    HW119853   5.614   7.405   3.824  0.0922  0.3685 -0.2510
 2733SOL    HW219854   5.464   7.451   3.779  0.5354  0.7459 -1.3641
 2734SOL     OW19855   3.605   3.619   4.417 -0.0511 -0.2818  0.5236
 2734SOL    HW119856   3.540   3.568   4.472  0.7411 -1.0916  0.7165
 2734SOL    HW219857   3.565   3.707   4.391 -2.2109 -1.7928 -1.4755
 2735SOL     OW19858   2.633   7.466   0.685  0.4206 -0.4121 -0.4706
 2735SOL    HW119859   2.670   7.385   0.731  1.0426 -0.5620 -1.2305
 2735SOL    HW219860   2.605   7.442   0.593  1.1990  0.3882 -0.9206
 2736SOL     OW19861   0.783   8.732   7.222 -0.2797 -0.1371  0.1562
 2736SOL    HW119862   0.823   8.741   7.131  1.5975  1.7558  1.1165
 2736SOL    HW219863   0.751   8.821   7.253 -2.0130 -0.9967  0.8646
 2737SOL     OW19864   3.522   1.093   3.530 -0.2670  0.1842 -0.2156
 2737SOL    HW119865   3.587   1.110   3.604  1.2153  1.2604 -1.7321
 2737SOL    HW219866   3.551   1.013   3.478 -1.1959 -0.4474  0.2120
 2738SOL     OW19867   9.151   6.162   0.028  0.0934 -0.9384 -0.0864
 2738SOL    HW119868   9.214   6.197   0.098 -0.9054 -1.6515  1.1891
 2738SOL    HW219869   9.058   6.163   0.064 -0.3581 -1.8568 -1.2131
 2739SOL     OW19870   6.050   8.084   4.642  0.1810 -0.4052  0.0906
 2739SOL    HW119871   5.986   8.050   4.711 -1.2946  1.0877 -0.5077
 2739SOL    HW219872   6.076   8.178   4.663 -0.3178  0.0847 -1.3932
 2740SOL     OW19873   4.542   8.680   1.836  0.2001  0.1485 -0.0673
 2740SOL    HW119874   4.602   8.724   1.902  1.7986 -1.7439 -0.1957
 2740SOL    HW219875   4.511   8.747   1.768 -0.1304  1.7361  1.6348
 2741SOL     OW19876   2.677   7.484   3.182  0.4934 -0.2474  0.0718
 2741SOL    HW119877   2.759   7.431   3.205 -0.9094 -2.1413  0.7756
 2741SOL    HW219878   2.606   7.467   3.250  0.3580  3.3846  0.9190
 2742SOL     OW19879   1.554   3.841   5.427 -0.6739 -0.2866  0.0177
 2742SOL    HW119880   1.606   3.756   5.430 -0.2774 -0.2524 -3.6150
 2742SOL    HW219881   1.456   3.821   5.429 -0.6005 -0.6151  1.8800
 2743SOL     OW19882   2.356   4.363   0.978 -0.0284 -0.3081  0.4000
 2743SOL    HW119883   2.256   4.355   0.978 -0.0889  0.4180  1.8210
 2743SOL    HW219884   2.396   4.281   1.018  0.0262 -1.2965 -1.5946
 2744SOL     OW19885   2.010   3.357   3.016 -0.1775 -0.4343  0.4521
 2744SOL    HW119886   2.056   3.341   3.104 -1.4373  0.0373  1.2029
 2744SOL    HW219887   2.056   3.431   2.967  0.1686 -0.3107  0.9635
 2745SOL     OW19888   1.875   4.841   3.000 -0.0085 -0.2559  0.4209
 2745SOL    HW119889   1.818   4.888   2.931 -1.2544 -0.4976  1.2702
 2745SOL    HW219890   1.874   4.894   3.085 -0.7696 -1.4007  1.1328
 2746SOL     OW19891   7.525   9.706   0.791  0.0690  0.3759 -0.5490
 2746SOL    HW119892   7.458   9.771   0.756  0.8799  1.4842 -0.0811
 2746SOL    HW219893   7.589   9.681   0.718 -0.4767 -0.1971 -0.8305
 2747SOL     OW19894   3.062   3.864   6.533 -0.0137  0.3382  0.3820
 2747SOL    HW119895   3.117   3.947   6.529 -0.6348  0.7584  0.4926
 2747SOL    HW219896   2.967   3.885   6.511  0.0334 -0.5391 -0.6938
 2748SOL     OW19897   1.635   5.671   3.589  0.6884 -0.0750  0.8487
 2748SOL    HW119898   1.684   5.595   3.546 -0.6644 -0.8417  0.6354
 2748SOL    HW219899   1.568   5.634   3.654  0.0714  0.9538  0.7991
 2749SOL     OW19900   4.486   0.240   4.316 -0.2419  0.6679  0.2766
 2749SOL    HW119901   4.425   0.162   4.328 -1.7086  1.6055 -0.8148
 2749SOL    HW219902   4.574   0.222   4.360 -1.4055 -0.6108  2.1487
 2750SOL     OW19903   1.108   4.896   5.841 -0.3384 -0.3333  0.3079
 2750SOL    HW119904   1.048   4.901   5.761 -1.9239  0.8302  1.5404
 2750SOL    HW219905   1.059   4.928   5.922  0.8340 -2.6067  2.0038
 2751SOL     OW19906   4.462   8.191   1.355  0.0681  0.2096  0.2205
 2751SOL    HW119907   4.509   8.236   1.431 -0.0403  0.1757  0.3091
 2751SOL    HW219908   4.381   8.243   1.331 -1.3696 -1.1840  1.8906
 2752SOL     OW19909   3.866   2.750   6.161  0.0521 -0.1521  0.1455
 2752SOL    HW119910   3.923   2.765   6.242 -0.2741 -1.8762  0.7089
 2752SOL    HW219911   3.911   2.790   6.081  1.1928  0.0589  0.8760
 2753SOL     OW19912   3.917   0.983   6.751  0.2824  0.5944  0.1562
 2753SOL    HW119913   3.881   1.074   6.768  1.5110  1.1051  0.0718
 2753SOL    HW219914   3.954   0.977   6.658  0.1843  0.0059  0.1493
 2754SOL     OW19915   8.974   0.138   1.530  0.3389 -0.0565 -0.0297
 2754SOL    HW119916   8.875   0.136   1.539  0.5471  0.6821  2.8506
 2754SOL    HW219917   9.009   0.044   1.533 -0.3500 -0.4115 -2.4153
 2755SOL     OW19918   3.916   8.292   7.601 -0.2910 -0.1930 -0.1084
 2755SOL    HW119919   3.908   8.279   7.700 -1.7025  2.2286  0.1489
 2755SOL    HW219920   4.006   8.329   7.580 -0.7926  1.5104  0.5878
 2756SOL     OW19921   3.893   5.604   0.592 -0.1193  0.5735  0.6033
 2756SOL    HW119922   3.892   5.620   0.691  0.0749 -1.4760  0.9787
 2756SOL    HW219923   3.831   5.529   0.570  0.7081  0.2416 -0.6784
 2757SOL     OW19924   0.247   9.635   3.298 -0.4127 -0.0480 -0.0244
 2757SOL    HW119925   0.319   9.698   3.328 -0.0687 -1.6143  2.5245
 2757SOL    HW219926   0.286   9.568   3.235  0.1707 -0.3018  0.5977
 2758SOL     OW19927   1.959   8.338   6.781  0.1998  0.5425 -0.4733
 2758SOL    HW119928   1.978   8.422   6.730 -0.0509  0.4787 -0.6710
 2758SOL    HW219929   1.936   8.361   6.875  2.6497  0.5447  0.1709
 2759SOL     OW19930   0.472   0.334   6.718 -0.4438  0.3200 -0.5472
 2759SOL    HW119931   0.532   0.269   6.765 -0.2497  0.8905 -0.0005
 2759SOL    HW219932   0.503   0.345   6.623  0.6667  1.0299 -0.1139
 2760SOL     OW19933   1.020   2.337   5.671  0.4330  0.1673  0.5202
 2760SOL    HW119934   1.064   2.252   5.699 -0.9142 -0.3011  1.2804
 2760SOL    HW219935   0.922   2.331   5.690  0.0760  1.2900 -0.8859
 2761SOL     OW19936   4.023   3.081   2.183  0.6104 -0.5031  0.3809
 2761SOL    HW119937   3.927   3.068   2.210 -0.0335  1.9103 -0.6292
 2761SOL    HW219938   4.078   3.102   2.264 -0.3499  1.4856  0.5358
 2762SOL     OW19939   1.154   9.179   7.480 -0.0296 -0.0375 -0.6721
 2762SOL    HW119940   1.252   9.170   7.498 -0.1620 -1.0810 -0.4394
 2762SOL    HW219941   1.128   9.274   7.490  0.8938  0.1944 -0.3620
 2763SOL     OW19942   5.827   8.694   5.720  0.1511 -0.4359 -0.0989
 2763SOL    HW119943   5.820   8.724   5.625 -1.7945 -1.9021 -0.4546
 2763SOL    HW219944   5.755   8.738   5.774 -0.3408 -1.5087  0.1441
 2764SOL     OW19945   6.685   8.482   7.112 -0.1761 -0.1613  0.1835
 2764SOL    HW119946   6.668   8.406   7.174 -1.7864 -0.6327 -0.8083
 2764SOL    HW219947   6.651   8.567   7.153 -1.3574 -0.4924 -0.1186
 2765SOL     OW19948   5.127   0.764   7.318  0.0253  0.0328 -0.2324
 2765SOL    HW119949   5.217   0.805   7.313  0.8670 -1.6943  0.3375
 2765SOL    HW219950   5.091   0.747   7.226  0.7978 -0.3914 -0.4533
 2766SOL     OW19951   0.107   6.694   3.394  0.0440 -0.1513  0.5524
 2766SOL    HW119952   0.015   6.658   3.406 -0.6207  1.2398 -0.2520
 2766SOL    HW219953   0.104   6.794   3.390  1.1862 -0.1656 -2.5024
 2767SOL     OW19954   0.417   4.661   7.137  0.5384 -0.7117 -0.4082
 2767SOL    HW119955   0.350   4.731   7.160 -0.6596 -1.5078 -1.4253
 2767SOL    HW219956   0.509   4.699   7.147  0.0772 -0.3838  3.6793
 2768SOL     OW19957   9.396   7.430   4.775 -0.3576  0.1220  0.2216
 2768SOL    HW119958   9.470   7.391   4.830  0.7665  3.0252  0.8425
 2768SOL    HW219959   9.313   7.375   4.788  1.0869 -1.9000  1.2344
 2769SOL     OW19960   6.895   9.835   2.578  0.3403 -0.0969 -0.2504
 2769SOL    HW119961   6.820   9.883   2.624 -0.9157 -0.8488 -1.4631
 2769SOL    HW219962   6.967   9.901   2.554  0.4266  0.5106  1.5986
 2770SOL     OW19963   2.591   1.852   3.250  0.4523 -0.6495  0.0843
 2770SOL    HW119964   2.687   1.862   3.278  0.6101 -0.9921 -0.3164
 2770SOL    HW219965   2.577   1.760   3.212  0.2024 -0.2659 -0.7625
 2771SOL     OW19966   9.303   6.760   2.341  0.6890  0.2326 -0.0216
 2771SOL    HW119967   9.243   6.838   2.357  0.5467  0.1311 -0.0585
 2771SOL    HW219968   9.287   6.723   2.250  1.3300  0.6616 -0.3131
 2772SOL     OW19969   3.288   5.132   4.571 -0.0493  0.1683 -0.0146
 2772SOL    HW119970   3.306   5.081   4.488 -0.3739  0.5930 -0.3474
 2772SOL    HW219971   3.343   5.216   4.571  0.4504 -0.1578  0.5080
 2773SOL     OW19972   9.201   2.797   0.528  0.1036  0.0066 -0.5165
 2773SOL    HW119973   9.138   2.723   0.506 -0.2107  0.1893 -0.2427
 2773SOL    HW219974   9.262   2.767   0.602 -0.2506  0.1446 -0.1716
 2774SOL     OW19975   8.252   0.225   5.252 -0.0125 -0.0167  0.5921
 2774SOL    HW119976   8.203   0.191   5.332 -2.6447  0.7557 -0.6684
 2774SOL    HW219977   8.239   0.162   5.175 -0.4731  1.0832 -0.2447
 2775SOL     OW19978   4.282   4.642   1.939 -0.1780 -0.4783 -0.4796
 2775SOL    HW119979   4.341   4.636   2.020  0.3267 -2.4352 -0.9762
 2775SOL    HW219980   4.312   4.576   1.871 -1.1082  0.5987 -1.9624
 2776SOL     OW19981   0.297   3.170   7.696 -0.0782  0.0543 -0.2509
 2776SOL    HW119982   0.375   3.214   7.652  1.1927 -1.4391  0.4429
 2776SOL    HW219983   0.223   3.161   7.630  1.4275 -1.2557 -1.8213
 2777SOL     OW19984   0.983   0.922   1.758  0.0168 -0.0101  0.1474
 2777SOL    HW119985   0.968   1.017   1.732 -0.0003  0.0696  0.4465
 2777SOL    HW219986   1.063   0.886   1.709  1.7379  1.0069  2.1108
 2778SOL     OW19987   4.538   9.538   1.322  0.3487 -0.2632  0.1678
 2778SOL    HW119988   4.555   9.634   1.297 -1.1127 -0.3337 -1.1571
 2778SOL    HW219989   4.534   9.482   1.240 -1.5818 -0.9856  0.7276
 2779SOL     OW19990   6.860   8.512   2.830  0.2740 -0.1655 -0.2109
 2779SOL    HW119991   6.777   8.462   2.858 -0.4224  1.4279  0.6652
 2779SOL    HW219992   6.940   8.456   2.849 -0.5193 -1.1291  0.3747
 2780SOL     OW19993   8.852   1.756   1.776 -0.0533  1.0838 -0.0472
 2780SOL    HW119994   8.939   1.804   1.763  0.0912  0.8396  0.0155
 2780SOL    HW219995   8.834   1.700   1.695  1.2032 -1.0110  1.0903
 2781SOL     OW19996   4.518   1.471   6.945  0.4714  0.0802  0.3563
 2781SOL    HW119997   4.420   1.476   6.966  0.4421 -2.1535  0.9255
 2781SOL    HW219998   4.570   1.460   7.030  1.1017 -0.1605 -0.0528
 2782SOL     OW19999   2.717   6.182   6.724  0.3785  0.3695  0.5032
 2782SOL    HW120000   2.791   6.144   6.669 -0.5460 -0.2839 -0.3097
 2782SOL    HW220001   2.670   6.109   6.772 -0.4730  0.6463  0.1005
 2783SOL     OW20002   4.522   9.054   1.921 -0.4835 -0.1883 -0.5881
 2783SOL    HW120003   4.563   8.972   1.961 -2.3033 -1.3820 -1.1384
 2783SOL    HW220004   4.587   9.130   1.927  0.9732 -1.5000  0.5040
 2784SOL     OW20005   5.430   0.029   6.029 -0.2128  0.1281 -0.0502
 2784SOL    HW120006   5.443  -0.023   5.944 -0.6314 -0.2613  0.1218
 2784SOL    HW220007   5.361   0.100   6.014 -1.1823 -0.7258  0.3006
 2785SOL     OW20008   2.021   7.310   0.512 -0.1475  0.3403 -0.4349
 2785SOL    HW120009   2.106   7.342   0.471  0.9299 -0.0136  1.4549
 2785SOL    HW220010   1.992   7.375   0.583 -0.4161 -0.4936  0.2259
 2786SOL     OW20011   1.194   7.927   3.246  0.0991 -0.1787  0.8677
 2786SOL    HW120012   1.230   7.953   3.336  1.0409  0.5773  0.2848
 2786SOL    HW220013   1.233   7.839   3.218 -1.4253 -1.1933  1.8941
 2787SOL     OW20014   3.566   7.672   0.950  0.3883  0.2141 -0.0353
 2787SOL    HW120015   3.509   7.605   0.998  0.8316  0.6665  1.1327
 2787SOL    HW220016   3.535   7.764   0.973  2.2177  0.4989  1.4308
 2788SOL     OW20017   0.951   3.092   0.422  0.0478 -0.2986  0.0866
 2788SOL    HW120018   1.042   3.132   0.417  0.1509 -0.4377  0.8676
 2788SOL    HW220019   0.884   3.165   0.438  0.0004 -0.1772 -0.6367
 2789SOL     OW20020   7.410   4.299   1.304  0.0994  0.0341  0.1923
 2789SOL    HW120021   7.358   4.224   1.344 -2.3070  0.6218 -1.6806
 2789SOL    HW220022   7.437   4.275   1.210  0.1040  1.1462 -0.1031
 2790SOL     OW20023   3.774   3.170   2.365 -0.2482  0.1553 -0.2960
 2790SOL    HW120024   3.802   3.159   2.460 -0.1756  1.1393 -0.2011
 2790SOL    HW220025   3.677   3.191   2.361 -0.8031 -2.2908 -0.5757
 2791SOL     OW20026   7.966   0.361   4.436  0.1536 -0.5712  0.0941
 2791SOL    HW120027   8.053   0.389   4.476 -0.5872  1.3515  0.3743
 2791SOL    HW220028   7.900   0.436   4.441 -0.8701 -1.2877 -2.0672
 2792SOL     OW20029   9.989   4.455  10.076 -0.1682 -0.4998  0.1644
 2792SOL    HW120030  10.054   4.389  10.114  0.6745 -0.0505 -0.4817
 2792SOL    HW220031  10.032   4.504  10.000 -1.1303  0.0869 -0.0093
 2793SOL     OW20032   4.347   3.520   2.808 -0.0305 -0.6400 -0.0347
 2793SOL    HW120033   4.341   3.446   2.874  0.5593 -0.7228 -0.0742
 2793SOL    HW220034   4.379   3.484   2.720 -2.4680 -0.8571 -0.8858
 2794SOL     OW20035   2.893   8.433   2.511  0.1965  1.0537  0.5174
 2794SOL    HW120036   2.955   8.426   2.589  1.8698 -4.1528 -1.0619
 2794SOL    HW220037   2.802   8.402   2.538  0.0705  1.8757  1.0529
 2795SOL     OW20038   0.265   4.634   1.207  0.0612  0.0623  0.1798
 2795SOL    HW120039   0.199   4.652   1.279 -0.3664  0.4570 -0.3111
 2795SOL    HW220040   0.286   4.718   1.158 -2.2949 -0.7891 -2.4104
 2796SOL     OW20041   7.108   6.415   6.145  0.1406  0.0391  0.4646
 2796SOL    HW120042   7.099   6.334   6.204  0.2212 -1.8580 -2.0386
 2796SOL    HW220043   7.204   6.431   6.125  0.0570  0.1690  0.1702
 2797SOL     OW20044   0.802   3.844   8.166 -0.3384 -0.1983 -0.3134
 2797SOL    HW120045   0.898   3.826   8.185  0.1402  2.2826 -0.3064
 2797SOL    HW220046   0.746   3.816   8.244  0.4660 -0.6827  0.0892
 2798SOL     OW20047   8.674   9.466   1.895  0.4695  0.6698  0.6044
 2798SOL    HW120048   8.577   9.486   1.902  0.7176  1.9835  0.4468
 2798SOL    HW220049   8.714   9.519   1.820  2.0187  2.9898  2.9831
 2799SOL     OW20050   4.546   9.006   2.709 -0.7048  0.1460 -0.0485
 2799SOL    HW120051   4.564   8.942   2.634  1.9457 -0.2860  0.8854
 2799SOL    HW220052   4.580   9.097   2.683 -0.7495  0.2344  0.2036
 2800SOL     OW20053   8.758   2.186   1.114 -0.0793 -0.5202  0.7442
 2800SOL    HW120054   8.818   2.225   1.043  1.3709 -3.7464  0.1006
 2800SOL    HW220055   8.792   2.212   1.204  0.5973  0.1021  0.3166
 2801SOL     OW20056   2.477   1.575   2.349 -0.7007  0.7742 -0.3985
 2801SOL    HW120057   2.420   1.494   2.365 -2.3123  2.2470  1.6024
 2801SOL    HW220058   2.430   1.636   2.285 -0.5269  1.1486 -0.1683
 2802SOL     OW20059   9.464   1.492   6.113 -0.1340  0.2326  0.1144
 2802SOL    HW120060   9.464   1.570   6.051  0.1891  1.0080  1.0835
 2802SOL    HW220061   9.388   1.431   6.091 -0.4217  0.8502 -0.5967
 2803SOL     OW20062   1.334   8.626   7.445  0.2132 -0.0909 -0.1824
 2803SOL    HW120063   1.293   8.669   7.525  1.4373  0.7815  0.0086
 2803SOL    HW220064   1.433   8.619   7.459  0.2423 -1.3778 -0.9631
 2804SOL     OW20065   2.135   7.857   7.051 -0.2540  0.3551  0.8655
 2804SOL    HW120066   2.161   7.903   6.966 -0.5364 -2.0655 -0.5837
 2804SOL    HW220067   2.215   7.846   7.109 -0.0377  1.9399  0.8944
 2805SOL     OW20068   8.422   1.993   7.052  0.2421 -0.2744  0.5901
 2805SOL    HW120069   8.472   2.017   6.969 -0.0770 -0.7385  0.2624
 2805SOL    HW220070   8.326   2.022   7.043 -0.3113 -2.1877 -0.0725
 2806SOL     OW20071   3.900   7.510   5.231 -0.1189  0.3158 -0.4147
 2806SOL    HW120072   3.890   7.456   5.147  3.4387 -0.0675 -0.6849
 2806SOL    HW220073   3.849   7.595   5.221  0.4979  0.4337 -3.1564
 2807SOL     OW20074   7.162   9.059   4.453  0.5092 -0.0859 -0.9264
 2807SOL    HW120075   7.237   9.121   4.474  0.4792  0.2511 -1.7783
 2807SOL    HW220076   7.091   9.108   4.401 -0.0799 -0.5152 -0.5427
 2808SOL     OW20077   1.854   0.714   0.718  0.8013 -0.0961 -0.1179
 2808SOL    HW120078   1.938   0.678   0.678  0.0049  0.9400 -2.8200
 2808SOL    HW220079   1.843   0.811   0.694 -0.5737  0.1223  1.2183
 2809SOL     OW20080   0.259   8.508   1.404 -0.6901 -0.1793  0.2419
 2809SOL    HW120081   0.260   8.531   1.307 -0.7804 -1.3741 -0.0548
 2809SOL    HW220082   0.349   8.528   1.444 -0.0411 -1.4171 -0.5285
 2810SOL     OW20083   0.285   0.723   4.772  0.3978 -0.5866  0.1349
 2810SOL    HW120084   0.286   0.796   4.840  0.7584 -1.2964  0.8947
 2810SOL    HW220085   0.258   0.637   4.815 -1.5071 -0.6121 -1.0673
 2811SOL     OW20086   0.016   6.643   0.957 -0.2666 -0.1909  0.2064
 2811SOL    HW120087  -0.026   6.599   1.036 -0.4267 -0.8524 -0.2374
 2811SOL    HW220088   0.069   6.575   0.906 -0.0325  0.2665 -0.1623
 2812SOL     OW20089   9.127   6.495   5.557 -0.1222  0.3047  0.7281
 2812SOL    HW120090   9.192   6.570   5.569 -0.5885  0.7930  0.2863
 2812SOL    HW220091   9.034   6.533   5.553 -0.3289 -0.2542  0.1030
 2813SOL     OW20092   7.756   4.401   1.087 -0.3928  0.8420 -0.2593
 2813SOL    HW120093   7.662   4.397   1.054  0.2592 -1.0069 -1.9922
 2813SOL    HW220094   7.763   4.353   1.174 -0.6100 -1.1752 -1.3161
 2814SOL     OW20095   9.334   1.782   0.407 -0.2622 -0.0985  0.0563
 2814SOL    HW120096   9.276   1.863   0.401 -0.3485 -0.1694 -0.0689
 2814SOL    HW220097   9.289   1.713   0.464  0.5261  0.5453  1.4964
 2815SOL     OW20098   6.019   8.986   1.466  0.1628 -0.0449 -0.4365
 2815SOL    HW120099   5.970   8.898   1.461 -0.6691  0.3602  0.5059
 2815SOL    HW220100   6.051   9.001   1.559  0.9762  0.3006 -0.7712
 2816SOL     OW20101   3.249   6.997   1.874 -0.2733 -0.4370 -0.1205
 2816SOL    HW120102   3.190   6.922   1.843 -1.8673  1.9628 -3.0601
 2816SOL    HW220103   3.199   7.056   1.937  0.4113 -0.7576  0.7502
 2817SOL     OW20104   6.753   6.761   5.352 -0.1663 -0.5090 -0.7146
 2817SOL    HW120105   6.737   6.850   5.395 -1.8394 -1.6610  1.0840
 2817SOL    HW220106   6.832   6.717   5.395 -1.7413 -1.5905  1.1493
 2818SOL     OW20107   9.896   0.599   0.079 -0.2445 -0.2805  0.3508
 2818SOL    HW120108   9.875   0.697   0.072  0.3944 -0.1730 -0.1208
 2818SOL    HW220109   9.816   0.551   0.116 -1.0933  0.2093 -0.7925
 2819SOL     OW20110   9.692   8.959   4.841  0.1794  0.1354 -0.3322
 2819SOL    HW120111   9.716   8.992   4.750 -1.9557 -0.2855 -1.0767
 2819SOL    HW220112   9.595   8.935   4.843  0.5673 -1.3963  1.5890
 2820SOL     OW20113   6.808   7.895   4.833  0.1971  0.6183  0.4946
 2820SOL    HW120114   6.882   7.831   4.812  1.1080  1.8613 -0.1286
 2820SOL    HW220115   6.836   7.987   4.808 -0.9928  1.3109  1.6579
 2821SOL     OW20116   7.723   7.879   5.563 -0.1139  0.6613  0.3890
 2821SOL    HW120117   7.710   7.857   5.660 -0.9419  1.7980  0.5446
 2821SOL    HW220118   7.644   7.930   5.529  0.0118 -0.0171 -0.9865
 2822SOL     OW20119   2.744   8.393   1.012 -0.3347  0.0184 -0.6785
 2822SOL    HW120120   2.834   8.362   1.045 -0.6647  2.2005  2.5425
 2822SOL    HW220121   2.683   8.315   1.005  0.2634 -0.8045  2.4745
 2823SOL     OW20122   8.609   8.574   5.830 -0.4923 -0.3737 -0.2145
 2823SOL    HW120123   8.667   8.576   5.911 -0.2483 -2.2383 -0.3370
 2823SOL    HW220124   8.634   8.650   5.770 -1.2781  1.5744  1.8445
 2824SOL     OW20125   1.153   9.677   7.230  0.4126 -0.4543  0.3393
 2824SOL    HW120126   1.156   9.604   7.298 -2.0158 -0.5265  0.4159
 2824SOL    HW220127   1.190   9.761   7.269  2.9001 -1.5188  0.3635
 2825SOL     OW20128   2.582   0.924   4.000  0.3534 -0.1511 -0.4784
 2825SOL    HW120129   2.508   0.920   3.933  0.0071  2.4744 -0.3108
 2825SOL    HW220130   2.579   0.843   4.058 -2.6713  0.1009 -0.1889
 2826SOL     OW20131   6.283   0.648   6.175 -0.4660  0.5271 -0.3362
 2826SOL    HW120132   6.347   0.722   6.194  0.6011 -0.2022 -1.0310
 2826SOL    HW220133   6.333   0.562   6.166 -1.8932 -0.6661  2.5937
 2827SOL     OW20134   9.523   6.545   5.010  0.2688 -0.1756  0.2045
 2827SOL    HW120135   9.480   6.537   4.920 -0.2159 -2.4595  0.5975
 2827SOL    HW220136   9.518   6.640   5.041 -4.5376 -0.2851  0.2077
 2828SOL     OW20137   5.033   2.967   1.445  0.9608 -0.0462 -0.1830
 2828SOL    HW120138   5.128   2.956   1.472  0.3824  0.6970  2.3402
 2828SOL    HW220139   5.001   2.885   1.397  3.0009 -0.0674 -1.5334
 2829SOL     OW20140   6.397   0.453   7.034  0.2947 -0.2040 -0.4192
 2829SOL    HW120141   6.471   0.491   6.979  0.5729  0.9564  0.7439
 2829SOL    HW220142   6.425   0.450   7.130  0.4846 -3.8446 -0.5123
 2830SOL     OW20143   2.956   2.257   6.140  0.0920 -0.0784  0.7984
 2830SOL    HW120144   2.981   2.352   6.121 -1.1287  0.1534  0.3113
 2830SOL    HW220145   2.865   2.238   6.103 -0.3626 -0.9794  2.3159
 2831SOL     OW20146   7.268   7.666   5.997 -0.1190  0.0097 -0.5201
 2831SOL    HW120147   7.340   7.715   6.047 -0.1615  1.1450 -1.5591
 2831SOL    HW220148   7.309   7.618   5.920 -0.4992  0.9002 -1.2889
 2832SOL     OW20149   0.683   1.041   5.124  0.7274 -0.0238  0.0035
 2832SOL    HW120150   0.716   1.105   5.056 -0.7349  0.7860  0.0341
 2832SOL    HW220151   0.601   1.078   5.168  1.1452 -0.9125  1.5947
 2833SOL     OW20152   8.161   2.436   1.257 -0.1556  0.2195 -0.1276
 2833SOL    HW120153   8.169   2.532   1.283  0.1963  0.3115 -0.5656
 2833SOL    HW220154   8.145   2.381   1.339  1.9641  0.3826  0.4433
 2834SOL     OW20155   3.206   3.108   4.690  0.4235  0.5425  0.1770
 2834SOL    HW120156   3.287   3.082   4.637 -0.2037 -0.6237 -0.2393
 2834SOL    HW220157   3.126   3.107   4.630 -0.0148  0.9391  0.7536
 2835SOL     OW20158   9.704   0.948   1.157  0.1841  0.5544  0.2463
 2835SOL    HW120159   9.646   0.941   1.075 -0.1778  0.0407  0.5452
 2835SOL    HW220160   9.670   1.021   1.216  0.5808  1.0777 -0.1660
 2836SOL     OW20161   4.893   0.818   5.862 -0.3782  0.1465 -0.1325
 2836SOL    HW120162   4.993   0.806   5.860  0.0550  2.6452  2.3507
 2836SOL    HW220163   4.870   0.907   5.823 -1.5036  0.2584  0.7777
 2837SOL     OW20164   8.282   1.401   4.974  0.5731 -0.3192  0.2254
 2837SOL    HW120165   8.197   1.362   4.940  0.0518  0.6863  0.3609
 2837SOL    HW220166   8.330   1.334   5.029  0.6690 -1.4451 -1.2038
 2838SOL     OW20167   5.784   0.312   2.885 -0.0263  0.4725 -0.1830
 2838SOL    HW120168   5.809   0.360   2.970  0.9975  1.2266 -0.8951
 2838SOL    HW220169   5.732   0.375   2.826  0.4576  0.3954 -0.6959
 2839SOL     OW20170   2.547   2.517   0.161 -0.6116  0.0773 -0.1205
 2839SOL    HW120171   2.518   2.565   0.244 -1.2235 -0.3977 -0.0542
 2839SOL    HW220172   2.602   2.578   0.104  0.3439  0.2177  0.9300
 2840SOL     OW20173   3.405   6.062   1.355  0.4241  0.2812  0.0393
 2840SOL    HW120174   3.306   6.046   1.355  0.1997  1.5099 -1.7807
 2840SOL    HW220175   3.453   5.977   1.335 -0.3593  0.0850 -1.0407
 2841SOL     OW20176   9.990   7.936   0.501 -0.2008 -0.0749  0.3247
 2841SOL    HW120177  10.050   7.869   0.457 -1.6754 -0.5447 -1.0204
 2841SOL    HW220178  10.009   7.938   0.599  2.0338 -0.1768 -0.0784
 2842SOL     OW20179   9.090   3.770  10.043  0.9008 -0.0665  0.2257
 2842SOL    HW120180   9.118   3.693   9.986  0.0997  0.0899 -0.3753
 2842SOL    HW220181   8.991   3.769  10.056  0.9315  0.6238  0.5674
 2843SOL     OW20182   0.377   0.786   4.277  0.7188 -0.1216 -0.7310
 2843SOL    HW120183   0.360   0.755   4.371  0.6840  0.2164 -0.6218
 2843SOL    HW220184   0.451   0.853   4.277 -0.2644  0.9943 -0.7326
 2844SOL     OW20185   9.685   5.115   3.762  0.0222  0.0705 -0.1609
 2844SOL    HW120186   9.757   5.053   3.732  0.5955  1.4662 -1.7826
 2844SOL    HW220187   9.703   5.144   3.856  1.0651 -0.3365 -0.2295
 2845SOL     OW20188   4.588   1.799   5.376  0.0982  0.4624 -0.0825
 2845SOL    HW120189   4.610   1.896   5.364  0.6406  0.2023 -1.3889
 2845SOL    HW220190   4.673   1.747   5.382 -0.1871 -0.0104 -0.1655
 2846SOL     OW20191   7.285   6.583   5.629 -0.0895  0.1205  0.1201
 2846SOL    HW120192   7.297   6.549   5.722  1.8843 -0.3185 -0.2762
 2846SOL    HW220193   7.353   6.541   5.569 -0.5969  1.2727 -1.2954
 2847SOL     OW20194   9.921   7.762   2.203 -0.3665  0.3385 -0.4014
 2847SOL    HW120195   9.949   7.686   2.144 -0.3779 -0.3632  0.4725
 2847SOL    HW220196   9.833   7.741   2.245 -0.1943  0.6607  0.1339
 2848SOL     OW20197   0.285   5.742   2.022 -0.0300 -0.1037  0.3263
 2848SOL    HW120198   0.328   5.652   2.034  0.9468  0.4826  1.3131
 2848SOL    HW220199   0.348   5.803   1.973 -0.3396  0.3183  0.4490
 2849SOL     OW20200   3.099   3.768   5.843  0.3896 -0.3138  0.1430
 2849SOL    HW120201   3.179   3.827   5.855 -0.0442  0.5617 -1.1000
 2849SOL    HW220202   3.071   3.731   5.932  1.1451  0.7222  0.8272
 2850SOL     OW20203   9.530   0.873   0.162 -0.0781  0.0683 -0.4228
 2850SOL    HW120204   9.454   0.818   0.196  1.1592 -1.6760 -0.4192
 2850SOL    HW220205   9.507   0.970   0.171 -1.6112 -0.4101  1.1175
 2851SOL     OW20206   2.672   9.688   0.993 -0.0534  0.2353  0.4168
 2851SOL    HW120207   2.688   9.695   0.895  0.3668  0.3981  0.5007
 2851SOL    HW220208   2.573   9.679   1.009  0.0860 -3.1592 -0.2360
 2852SOL     OW20209   9.916   6.047   6.797 -0.5800 -0.3649  0.6260
 2852SOL    HW120210   9.939   6.014   6.888  0.0591  0.3170  0.7172
 2852SOL    HW220211   9.975   6.002   6.730  1.1067  1.3982  0.8623
 2853SOL     OW20212   7.211   1.307   1.020 -0.3299 -0.0210 -0.4873
 2853SOL    HW120213   7.195   1.354   1.107  1.3018 -0.2098 -0.0709
 2853SOL    HW220214   7.280   1.357   0.968 -0.2782 -0.6764 -1.0555
 2854SOL     OW20215   0.786   8.216   4.927  0.0078  0.4400  0.2484
 2854SOL    HW120216   0.691   8.193   4.951  0.9401 -2.4310  1.3489
 2854SOL    HW220217   0.822   8.281   4.994 -1.2284  1.6967 -0.2831
 2855SOL     OW20218   6.870   2.567   3.626  0.1117  0.0597 -0.0761
 2855SOL    HW120219   6.823   2.483   3.653 -0.2201 -0.2350 -1.5581
 2855SOL    HW220220   6.933   2.595   3.699 -1.5514 -0.1335  1.4640
 2856SOL     OW20221   3.474   0.038   7.593 -0.8067 -0.1563 -0.6338
 2856SOL    HW120222   3.483  -0.054   7.633  0.4887  0.1640 -0.1647
 2856SOL    HW220223   3.515   0.038   7.502 -0.2440  0.1106 -0.3831
 2857SOL     OW20224   4.694   6.393   1.655 -0.0395 -0.5608 -0.6957
 2857SOL    HW120225   4.711   6.488   1.628 -0.8695 -0.0579  0.5012
 2857SOL    HW220226   4.634   6.350   1.587 -0.9776  0.2748 -0.4229
 2858SOL     OW20227   4.600   9.828   7.663 -0.2043  0.5993  0.2811
 2858SOL    HW120228   4.687   9.823   7.713 -0.2159  0.9033  0.3323
 2858SOL    HW220229   4.525   9.807   7.724 -0.3171  2.0796  0.6839
 2859SOL     OW20230   1.031   7.138   6.921 -0.4382 -0.3374  0.0744
 2859SOL    HW120231   1.053   7.153   7.018 -1.3708  0.2390  0.2074
 2859SOL    HW220232   1.021   7.040   6.904 -0.1252 -0.4511  0.5346
 2860SOL     OW20233   5.354   2.640   6.046  0.2364 -0.2411  0.5502
 2860SOL    HW120234   5.291   2.651   6.123 -1.5517 -1.3675 -0.7013
 2860SOL    HW220235   5.425   2.574   6.070 -1.0230 -1.5346  0.8575
 2861SOL     OW20236   8.712   4.649   4.719  0.1475  0.5823 -0.0438
 2861SOL    HW120237   8.759   4.609   4.641  0.0375 -1.7156  1.0231
 2861SOL    HW220238   8.780   4.676   4.788  0.1046  0.4523  0.0486
 2862SOL     OW20239   5.281   4.394   1.010 -0.3658  0.0245  0.0576
 2862SOL    HW120240   5.339   4.462   0.965  0.4066 -0.3664  0.4467
 2862SOL    HW220241   5.278   4.311   0.954 -1.1739  0.3125 -0.3353
 2863SOL     OW20242   4.720   5.344   4.457  0.0982  0.1946  0.3519
 2863SOL    HW120243   4.793   5.409   4.476 -0.0176 -0.0168  1.5187
 2863SOL    HW220244   4.682   5.309   4.543 -1.3219  0.2494 -0.2343
 2864SOL     OW20245   6.379   9.883   4.890 -0.0516 -0.3849 -0.0900
 2864SOL    HW120246   6.444   9.818   4.930  0.5741 -0.0824 -0.5959
 2864SOL    HW220247   6.372   9.866   4.791 -0.2418  0.0065 -0.1439
 2865SOL     OW20248   2.691   5.600   6.940 -0.0069 -0.0587 -0.2435
 2865SOL    HW120249   2.720   5.694   6.923 -0.9018  0.3052  0.2184
 2865SOL    HW220250   2.597   5.587   6.909 -0.0798 -0.6479  0.1995
 2866SOL     OW20251   3.751   4.524   5.832 -0.5355 -0.4994 -0.8717
 2866SOL    HW120252   3.784   4.580   5.756 -0.8389  0.8069 -0.0420
 2866SOL    HW220253   3.651   4.522   5.831 -0.5258 -2.0993 -1.6605
 2867SOL     OW20254   0.074   0.391   3.371  0.0630  0.4764 -0.3255
 2867SOL    HW120255   0.158   0.436   3.341  1.7338 -0.5758  2.5605
 2867SOL    HW220256   0.027   0.449   3.438  0.8609 -0.8525  1.4274
 2868SOL     OW20257   5.271   7.214   4.019 -0.4315  0.3975 -0.3856
 2868SOL    HW120258   5.360   7.170   4.028 -0.7286 -0.1909 -0.3530
 2868SOL    HW220259   5.227   7.223   4.108 -1.3034 -1.1757 -0.6418
 2869SOL     OW20260   8.995   2.726   4.374  0.1381  0.3424 -0.1794
 2869SOL    HW120261   8.903   2.703   4.405 -0.0342  2.2374  0.7925
 2869SOL    HW220262   9.055   2.737   4.453  0.9325  0.2079 -0.7584
 2870SOL     OW20263   7.322   8.907   4.793  0.0117  0.4283  0.3548
 2870SOL    HW120264   7.275   8.946   4.872  0.4303 -0.8433  1.2529
 2870SOL    HW220265   7.307   8.808   4.791 -0.9016  0.5832 -1.7893
 2871SOL     OW20266   2.117   4.736   5.631  0.1875 -0.3110  0.0543
 2871SOL    HW120267   2.062   4.758   5.712 -0.0185  0.7092 -0.3584
 2871SOL    HW220268   2.079   4.654   5.587 -0.9160  0.3023 -0.1478
 2872SOL     OW20269   7.658   2.493   0.719  0.3201  0.1613  0.0907
 2872SOL    HW120270   7.673   2.554   0.641  3.1244  0.0247  0.4409
 2872SOL    HW220271   7.609   2.542   0.791 -1.1084  0.6959 -1.2161
 2873SOL     OW20272   7.137   1.888   4.842 -0.3601 -0.3237  0.6879
 2873SOL    HW120273   7.067   1.921   4.905 -0.2584  0.9033  0.1867
 2873SOL    HW220274   7.095   1.831   4.772 -0.8906  0.4785  0.3428
 2874SOL     OW20275   2.758   0.236   4.982 -0.1795 -1.0171  0.1205
 2874SOL    HW120276   2.823   0.163   4.961 -0.1400 -0.9620  0.0536
 2874SOL    HW220277   2.806   0.324   4.986 -0.3438 -0.8911 -0.5183
 2875SOL     OW20278   0.605   5.009   4.303 -0.0869  0.2058  0.1779
 2875SOL    HW120279   0.562   4.950   4.235  2.2802  0.4353 -1.5889
 2875SOL    HW220280   0.669   4.956   4.358 -0.2383  0.4984  0.6411
 2876SOL     OW20281   9.675   2.102   0.771  0.7224  0.6453  0.3364
 2876SOL    HW120282   9.599   2.137   0.825  0.3239  1.7333 -0.9100
 2876SOL    HW220283   9.709   2.173   0.710  0.5121 -0.8180 -1.5524
 2877SOL     OW20284   7.102   5.256   2.392 -0.5004 -0.3409  0.3574
 2877SOL    HW120285   7.170   5.192   2.358 -0.4197  0.0993 -0.3314
 2877SOL    HW220286   7.095   5.334   2.329 -3.6987 -1.7424 -1.1506
 2878SOL     OW20287   3.905   0.218   5.900  0.3020 -0.0294 -0.3256
 2878SOL    HW120288   3.905   0.273   5.983 -0.3280  2.1030 -1.6992
 2878SOL    HW220289   3.989   0.236   5.849 -0.4499  0.6020 -1.3635
 2879SOL     OW20290   0.702   7.685   4.862  0.2918 -0.1420 -0.4641
 2879SOL    HW120291   0.740   7.737   4.785  0.2484 -0.1719 -0.5046
 2879SOL    HW220292   0.636   7.619   4.829  0.6026 -0.4631 -0.4461
 2880SOL     OW20293   2.069   8.861   0.025 -0.1386  0.6527  0.2238
 2880SOL    HW120294   2.006   8.914   0.083 -0.6295 -0.7806  1.0234
 2880SOL    HW220295   2.129   8.806   0.083 -0.1168 -0.2268 -0.6248
 2881SOL     OW20296   0.970   0.332   5.914 -0.2140 -0.7090  0.0144
 2881SOL    HW120297   1.033   0.324   5.991 -0.1272 -1.6453 -0.1421
 2881SOL    HW220298   1.022   0.340   5.829 -0.3094  0.4015  0.0590
 2882SOL     OW20299   3.660   7.677   0.577 -0.0069  0.1238 -0.6583
 2882SOL    HW120300   3.584   7.665   0.514 -0.7787  1.5516 -0.0219
 2882SOL    HW220301   3.701   7.588   0.597 -1.7638 -0.7154 -0.6882
 2883SOL     OW20302   5.281   2.895   1.175 -0.5239  0.0551 -0.2589
 2883SOL    HW120303   5.261   2.951   1.255 -0.3604  0.0396 -0.2073
 2883SOL    HW220304   5.358   2.934   1.125  0.6368 -1.0170  0.6641
 2884SOL     OW20305   1.973   1.943   6.427 -0.6647  0.0077 -0.0457
 2884SOL    HW120306   1.885   1.987   6.445  0.5105  1.7351  1.6508
 2884SOL    HW220307   2.009   1.903   6.512  0.5130 -0.0748 -0.5648
 2885SOL     OW20308   0.529   1.276   7.373 -0.6658 -0.0465 -0.7423
 2885SOL    HW120309   0.456   1.242   7.432 -0.5818 -0.1486 -0.6951
 2885SOL    HW220310   0.582   1.199   7.339 -0.3688  0.0479 -0.4982
 2886SOL     OW20311   8.026   0.996   4.296 -0.3241  0.1237 -0.5922
 2886SOL    HW120312   8.119   1.000   4.258 -0.2007  0.3423 -0.2766
 2886SOL    HW220313   8.029   1.027   4.391 -0.6860 -0.0809 -0.5182
 2887SOL     OW20314   8.792   2.312   3.082  0.0813 -0.0903  0.1003
 2887SOL    HW120315   8.692   2.310   3.091 -0.0980 -0.6333 -1.7577
 2887SOL    HW220316   8.818   2.383   3.017  0.7179 -1.5879 -1.3099
 2888SOL     OW20317   6.101   1.763   7.501 -0.3140  0.0133  0.1532
 2888SOL    HW120318   6.177   1.825   7.479 -0.1631 -0.2176  0.0228
 2888SOL    HW220319   6.015   1.803   7.468 -0.2858  0.4179  0.5741
 2889SOL     OW20320   7.316   8.082   7.171  0.6609 -0.1188  0.3514
 2889SOL    HW120321   7.260   8.158   7.135  0.1261 -0.4536  0.4658
 2889SOL    HW220322   7.352   8.107   7.260 -0.9885 -0.6769  1.2035
 2890SOL     OW20323   9.500   5.463   2.341  0.4698 -0.0540  0.2144
 2890SOL    HW120324   9.490   5.438   2.438  0.4683 -1.3460 -0.1106
 2890SOL    HW220325   9.414   5.501   2.308 -0.5772 -2.6433 -0.1349
 2891SOL     OW20326   8.147   8.078   1.159  0.3384  0.1711  0.3596
 2891SOL    HW120327   8.089   8.157   1.142  0.2825  0.2184  0.7427
 2891SOL    HW220328   8.227   8.081   1.100 -0.2205 -0.0753 -0.4223
 2892SOL     OW20329   0.440   6.955   7.717 -0.4195 -0.8243 -0.2192
 2892SOL    HW120330   0.423   7.000   7.629 -0.8095 -1.9598 -0.7357
 2892SOL    HW220331   0.352   6.934   7.760 -0.2239  0.7858  0.9979
 2893SOL     OW20332   5.595   8.892   7.113  0.8518  0.0355  1.1645
 2893SOL    HW120333   5.617   8.797   7.132 -0.3000  0.0759  2.8404
 2893SOL    HW220334   5.506   8.898   7.067  1.2302  0.2570  0.4610
 2894SOL     OW20335   2.603   9.881   2.901 -0.3618 -0.3191  0.4932
 2894SOL    HW120336   2.551   9.801   2.869  0.4135 -1.1430  1.2404
 2894SOL    HW220337   2.696   9.876   2.866 -0.7378  1.0788 -0.7238
 2895SOL     OW20338   0.665   5.475   2.160 -0.1331  0.7681 -0.4324
 2895SOL    HW120339   0.601   5.495   2.234  1.3290  1.5322  0.6374
 2895SOL    HW220340   0.746   5.533   2.169  1.0942 -0.7763 -1.2935
 2896SOL     OW20341   2.145   4.060   2.688 -0.0418  0.5750  0.0643
 2896SOL    HW120342   2.225   4.116   2.666 -0.0412  0.6899  0.3528
 2896SOL    HW220343   2.151   4.030   2.783 -0.7330  1.2401  0.3166
 2897SOL     OW20344   5.644   4.184   1.073  0.5079 -0.7324 -0.0168
 2897SOL    HW120345   5.594   4.147   1.151  0.2876  1.7271  1.0674
 2897SOL    HW220346   5.585   4.183   0.992  0.0617 -1.5048  0.3172
 2898SOL     OW20347   3.700   9.144   3.961  0.0838  0.5023 -0.1527
 2898SOL    HW120348   3.762   9.068   3.981 -1.8118 -0.7654  1.1212
 2898SOL    HW220349   3.751   9.230   3.966  1.9064 -0.5437  0.0682
 2899SOL     OW20350   6.626   2.445   2.663  0.1025 -0.4043 -0.5029
 2899SOL    HW120351   6.603   2.504   2.586 -0.8016 -0.3056 -0.1668
 2899SOL    HW220352   6.712   2.397   2.645  0.6791  0.7829 -0.9105
 2900SOL     OW20353   0.940   5.762   4.307  0.4533 -0.2984  0.5064
 2900SOL    HW120354   0.950   5.859   4.287 -0.9468  0.0911  1.5975
 2900SOL    HW220355   0.954   5.746   4.404  0.0093 -1.0759  0.4494
 2901SOL     OW20356   8.499   0.030   1.397  0.0742 -0.8058 -0.3600
 2901SOL    HW120357   8.409   0.036   1.439  0.0566  0.0742 -0.5106
 2901SOL    HW220358   8.562   0.092   1.443  0.7650 -1.8357  0.1188
 2902SOL     OW20359   2.810   1.812   4.747 -0.7643  0.6084  0.2301
 2902SOL    HW120360   2.772   1.771   4.664 -1.7140 -0.1997  1.0565
 2902SOL    HW220361   2.890   1.866   4.723 -1.6159  1.2095 -1.3577
 2903SOL     OW20362   1.179   2.652   1.034  0.1383  0.6276  0.2682
 2903SOL    HW120363   1.229   2.724   0.985 -0.3766  0.3941 -0.6028
 2903SOL    HW220364   1.174   2.571   0.977 -0.3558  0.3065  0.7676
 2904SOL     OW20365   4.493   0.383   1.379  0.5088  0.0492  0.1085
 2904SOL    HW120366   4.433   0.439   1.323  0.8087  0.6547  0.3797
 2904SOL    HW220367   4.587   0.418   1.373  0.0874  2.0315  3.2964
 2905SOL     OW20368   7.085   9.981   2.462  0.3499 -0.1800 -0.0969
 2905SOL    HW120369   7.098  10.077   2.437 -0.6021  0.7638  2.7233
 2905SOL    HW220370   7.159   9.953   2.523 -1.2682 -0.0893  1.9800
 2906SOL     OW20371   3.628   8.360   0.970 -0.1317  0.4352 -0.4180
 2906SOL    HW120372   3.685   8.431   1.011  0.9303  0.2896 -1.6253
 2906SOL    HW220373   3.685   8.298   0.917 -1.2029 -0.6778 -0.2873
 2907SOL     OW20374   8.250   9.358   4.723  0.7250  0.2594 -0.3156
 2907SOL    HW120375   8.268   9.407   4.808 -0.2194 -0.4493  0.2997
 2907SOL    HW220376   8.337   9.327   4.684  1.0218 -1.4099  1.6018
 2908SOL     OW20377   3.555   9.266   4.333 -0.6545  0.1799 -0.0065
 2908SOL    HW120378   3.531   9.174   4.364  1.2467 -0.0807  0.8037
 2908SOL    HW220379   3.488   9.331   4.367  0.0405 -0.4278  2.6404
 2909SOL     OW20380   3.937   8.426   4.640 -0.5898 -0.2074 -0.0982
 2909SOL    HW120381   3.911   8.395   4.731 -0.3637 -2.6472 -0.8268
 2909SOL    HW220382   4.034   8.410   4.625 -0.8348 -0.8403 -1.1287
 2910SOL     OW20383   7.809   7.667   4.571  0.6994 -0.3895 -0.3011
 2910SOL    HW120384   7.725   7.652   4.622  0.8045  1.4664  0.4627
 2910SOL    HW220385   7.821   7.594   4.504 -0.9975 -1.2075  0.2607
 2911SOL     OW20386   0.194   5.313   1.089  0.5342  0.0212 -0.6217
 2911SOL    HW120387   0.259   5.258   1.141  1.1348 -0.1940 -1.5790
 2911SOL    HW220388   0.218   5.309   0.992 -0.4436  0.5808 -0.8913
 2912SOL     OW20389   0.794   0.358   3.732 -0.0677 -0.4626  0.5117
 2912SOL    HW120390   0.720   0.414   3.694  0.2797 -0.0875  0.3936
 2912SOL    HW220391   0.758   0.267   3.753 -0.4512 -0.4361  0.0028
 2913SOL     OW20392   8.486   8.510   2.894 -0.1415  0.3661 -0.2128
 2913SOL    HW120393   8.496   8.503   2.993  0.2651 -0.0997 -0.2804
 2913SOL    HW220394   8.417   8.578   2.872 -0.5650  0.1420  0.4031
 2914SOL     OW20395   7.838   6.459   0.311 -0.2671  0.0557  0.1110
 2914SOL    HW120396   7.781   6.537   0.336  0.8640  0.0429  2.9925
 2914SOL    HW220397   7.815   6.382   0.371  1.0714 -0.6994 -0.3421
 2915SOL     OW20398   6.024   2.622   6.128 -0.2123 -0.0037  0.6190
 2915SOL    HW120399   6.019   2.528   6.163  1.3556 -0.1462  0.4638
 2915SOL    HW220400   5.932   2.662   6.129 -0.7979 -1.3254  1.2611
 2916SOL     OW20401   7.851   6.751   3.045  0.3078 -0.0650 -0.2254
 2916SOL    HW120402   7.867   6.809   3.125 -0.2848  1.4197 -1.1498
 2916SOL    HW220403   7.908   6.670   3.050  1.7216  0.9714  0.7396
 2917SOL     OW20404   4.555   1.826   1.696  0.0930  0.6020  0.9183
 2917SOL    HW120405   4.490   1.759   1.659  0.9774  0.2946 -0.0894
 2917SOL    HW220406   4.648   1.796   1.678  0.5056  1.7046  1.1892
 2918SOL     OW20407   4.544   8.495   5.703 -0.1158  0.4884  0.3056
 2918SOL    HW120408   4.468   8.491   5.639 -0.9672  0.7093  1.2875
 2918SOL    HW220409   4.535   8.576   5.762  0.0740 -0.2695  1.4027
 2919SOL     OW20410   4.720   3.434   0.758  0.5933 -0.7449 -0.2716
 2919SOL    HW120411   4.623   3.438   0.732 -0.1742  1.6792  2.6043
 2919SOL    HW220412   4.773   3.493   0.697  0.0789 -1.1857 -1.1605
 2920SOL     OW20413   9.816   6.671   2.262 -0.1259  0.3827 -0.5356
 2920SOL    HW120414   9.881   6.704   2.331  0.2210 -0.2051 -0.5840
 2920SOL    HW220415   9.723   6.692   2.292  0.0169  0.0289  0.1684
 2921SOL     OW20416   9.206   8.027   2.004 -0.1430  0.1458 -0.0525
 2921SOL    HW120417   9.235   7.936   1.973 -1.2008  0.0988 -0.9286
 2921SOL    HW220418   9.284   8.090   1.998  0.6986 -0.7911  0.9265
 2922SOL     OW20419   3.705   6.548   1.676  0.5053  0.4090  0.2326
 2922SOL    HW120420   3.747   6.601   1.750  0.5447  1.8911 -0.8260
 2922SOL    HW220421   3.681   6.457   1.710 -1.7880  1.8588  2.8232
 2923SOL     OW20422   0.067   9.624   1.189  0.1826  0.5573  0.2610
 2923SOL    HW120423   0.068   9.627   1.289  0.4323  0.2730  0.2661
 2923SOL    HW220424   0.063   9.718   1.154  1.6885  0.7454  0.5301
 2924SOL     OW20425   1.622   3.258   2.636  0.4506 -0.3982  0.1130
 2924SOL    HW120426   1.580   3.189   2.694  1.1788 -0.5254  0.4963
 2924SOL    HW220427   1.553   3.297   2.575 -0.1784 -0.7299  0.6062
 2925SOL     OW20428   0.837   8.619   7.821 -0.1040 -0.3261  0.2869
 2925SOL    HW120429   0.924   8.603   7.773 -1.2392  0.0838 -1.9798
 2925SOL    HW220430   0.783   8.535   7.820 -1.1671  0.3499 -1.3731
 2926SOL     OW20431   9.594   7.441   6.962  0.0834 -0.2937 -0.6503
 2926SOL    HW120432   9.559   7.357   6.921  1.6492 -1.6675  0.7436
 2926SOL    HW220433   9.689   7.427   6.991  0.5008  2.0957 -0.7897
 2927SOL     OW20434   3.137   7.250   1.992 -0.3330  0.1673 -0.4229
 2927SOL    HW120435   3.044   7.281   1.970 -0.6635 -0.2928  0.3274
 2927SOL    HW220436   3.137   7.204   2.081  0.4370 -0.6854 -0.8589
 2928SOL     OW20437   3.368   7.033   6.979  0.5119  0.1868  0.1028
 2928SOL    HW120438   3.330   7.104   7.039 -0.1480 -0.0386 -0.0355
 2928SOL    HW220439   3.420   7.076   6.905 -0.6704  0.5793 -0.5201
 2929SOL     OW20440   3.620   1.076   7.598 -0.0610 -0.7206  0.0030
 2929SOL    HW120441   3.542   1.106   7.654 -0.8703 -2.5077 -0.1234
 2929SOL    HW220442   3.643   1.147   7.531 -1.6916 -0.2386 -0.0651
 2930SOL     OW20443   8.127   5.942   6.036  0.1904 -0.3371  0.5676
 2930SOL    HW120444   8.098   5.886   5.958  2.4500 -0.3419 -0.3078
 2930SOL    HW220445   8.114   5.891   6.120  2.1427 -2.2199 -0.2180
 2931SOL     OW20446   3.520   4.781   4.926 -0.2735  0.1230 -0.3187
 2931SOL    HW120447   3.446   4.815   4.870 -0.5076  0.3985  0.1527
 2931SOL    HW220448   3.497   4.689   4.959  0.2108 -0.3641 -1.3141
 2932SOL     OW20449   9.582   7.793   7.516 -0.2769  0.0628  0.0002
 2932SOL    HW120450   9.517   7.761   7.448  0.4702  0.6127 -0.9820
 2932SOL    HW220451   9.599   7.890   7.504  1.5444 -0.2965 -0.4549
 2933SOL     OW20452   4.265   6.917   5.545 -0.1392 -0.0213 -0.8714
 2933SOL    HW120453   4.345   6.977   5.543  0.9064 -1.3688 -0.4563
 2933SOL    HW220454   4.228   6.914   5.638 -0.6634  0.5687 -1.0544
 2934SOL     OW20455   4.342   8.621   4.805 -0.0703  0.3235 -0.4436
 2934SOL    HW120456   4.248   8.623   4.769  0.0222  0.4598 -0.6756
 2934SOL    HW220457   4.383   8.711   4.798  0.3143  0.1089 -0.9570
 2935SOL     OW20458   1.251   3.143   2.741  0.0724  0.1713  0.3805
 2935SOL    HW120459   1.191   3.211   2.699  0.5637 -1.0323 -2.4093
 2935SOL    HW220460   1.323   3.189   2.792 -0.1349  1.7401 -0.7073
 2936SOL     OW20461   1.890   0.772   4.344  0.2951  0.1162  0.0427
 2936SOL    HW120462   1.798   0.781   4.383  1.5977  0.7892  3.1054
 2936SOL    HW220463   1.940   0.701   4.393  1.3590 -0.3485 -1.6999
 2937SOL     OW20464   0.562   3.392   6.899  0.0881 -0.5962  0.0399
 2937SOL    HW120465   0.603   3.447   6.971  1.4032  0.2460 -1.3271
 2937SOL    HW220466   0.632   3.367   6.832 -1.0410 -1.6385 -0.7755
 2938SOL     OW20467   2.384   1.828   0.929  0.4092  0.4954  0.4986
 2938SOL    HW120468   2.358   1.751   0.989 -0.8846  1.2191  0.8966
 2938SOL    HW220469   2.404   1.908   0.985  0.3800  0.8423  0.0135
 2939SOL     OW20470   7.210   0.545   3.331  0.2509  0.0932  0.4545
 2939SOL    HW120471   7.246   0.478   3.396 -0.5640 -0.3509  0.4566
 2939SOL    HW220472   7.279   0.616   3.315  0.7298 -0.1858  1.2369
 2940SOL     OW20473   2.053   0.560   1.688  0.1690 -0.2906 -0.2780
 2940SOL    HW120474   2.115   0.485   1.664  1.4101  0.0102  1.8868
 2940SOL    HW220475   2.007   0.540   1.774 -0.0830  1.0806 -0.0754
 2941SOL     OW20476   1.485   8.709   1.929  0.2600 -1.0397 -0.1528
 2941SOL    HW120477   1.504   8.754   1.842 -0.5590 -0.8577 -0.2446
 2941SOL    HW220478   1.491   8.609   1.917 -1.3437 -1.0712 -0.7903
 2942SOL     OW20479   6.942   0.579   5.546  0.0984  0.0217  0.6009
 2942SOL    HW120480   6.878   0.519   5.497 -1.3673 -0.0496  2.5685
 2942SOL    HW220481   6.973   0.533   5.630  1.1663  0.8926  0.6963
 2943SOL     OW20482   8.673   2.325   5.952  0.2646  0.1608 -0.5554
 2943SOL    HW120483   8.704   2.418   5.970 -0.9141  0.3472  0.6539
 2943SOL    HW220484   8.599   2.327   5.885  0.0401  0.1235 -0.3091
 2944SOL     OW20485   8.482   7.895   1.673  0.4683  0.0763 -0.3976
 2944SOL    HW120486   8.581   7.894   1.689  0.8275 -2.0434 -2.3735
 2944SOL    HW220487   8.445   7.803   1.687 -1.7956  1.4179  3.1710
 2945SOL     OW20488   2.240   3.494   1.953 -0.4269 -0.2390 -0.3170
 2945SOL    HW120489   2.293   3.438   1.889 -0.3546 -2.2230  1.4457
 2945SOL    HW220490   2.301   3.529   2.025 -0.3935  2.4594 -1.5943
 2946SOL     OW20491   3.812   9.441   5.141 -0.3323 -0.1656 -0.6179
 2946SOL    HW120492   3.810   9.452   5.240  0.4484 -0.1585 -0.5992
 2946SOL    HW220493   3.899   9.475   5.105 -1.7532  2.5542 -1.6332
 2947SOL     OW20494   3.579   7.355   1.431  0.1015 -0.0380  0.4250
 2947SOL    HW120495   3.634   7.382   1.510  0.8411 -0.7255  0.1524
 2947SOL    HW220496   3.483   7.376   1.449  0.2125 -0.5170  1.6504
 2948SOL     OW20497   3.148   9.029   0.006  0.7241  0.6365  0.6018
 2948SOL    HW120498   3.227   9.078   0.044  0.9242  0.9693 -0.2311
 2948SOL    HW220499   3.180   8.950  -0.046  0.4551  0.2258  1.0584
 2949SOL     OW20500   1.058   8.315   4.243 -0.1966 -0.2735 -0.4928
 2949SOL    HW120501   1.020   8.359   4.162  0.0745 -3.1782 -2.2564
 2949SOL    HW220502   1.128   8.250   4.216 -0.3858 -1.5932  2.0575
 2950SOL     OW20503   2.981   9.183   3.962 -0.0810  0.4371 -0.3999
 2950SOL    HW120504   2.907   9.245   3.937  0.2298  0.8874 -0.2287
 2950SOL    HW220505   3.048   9.180   3.889  0.1721  0.7253 -0.1816
 2951SOL     OW20506   5.409   1.112   7.649 -0.3252  0.0104  0.4061
 2951SOL    HW120507   5.487   1.131   7.708  0.5167 -0.5287 -0.5258
 2951SOL    HW220508   5.392   1.014   7.645  0.1051 -0.0241 -0.8478
 2952SOL     OW20509   9.212   5.368   6.453  0.4165  0.2447 -0.0113
 2952SOL    HW120510   9.199   5.320   6.366 -0.9259 -0.1588  0.3926
 2952SOL    HW220511   9.244   5.303   6.522 -0.8470  0.0350  0.3908
 2953SOL     OW20512   9.943   8.491   4.807  0.1444  0.2750  0.2684
 2953SOL    HW120513   9.966   8.560   4.876 -0.5670  2.7390 -1.8419
 2953SOL    HW220514   9.844   8.490   4.793  0.2424 -0.4676 -0.4239
 2954SOL     OW20515   3.022   6.150   1.638  0.5915 -0.2833 -0.4730
 2954SOL    HW120516   3.005   6.149   1.737 -0.4037 -2.6560 -0.6176
 2954SOL    HW220517   2.989   6.236   1.600 -0.5220 -0.0031  1.0397
 2955SOL     OW20518   1.796   5.587   3.915  0.1184 -0.1200  0.1834
 2955SOL    HW120519   1.818   5.664   3.854 -1.3775 -0.3483 -0.6812
 2955SOL    HW220520   1.859   5.586   3.992  1.0346  1.1454 -0.5321
 2956SOL     OW20521   6.338   3.625   0.268  0.2680  0.2602 -0.1432
 2956SOL    HW120522   6.335   3.614   0.169  1.1573  0.6272 -0.2178
 2956SOL    HW220523   6.247   3.646   0.303 -0.6756 -2.8889 -0.5141
 2957SOL     OW20524   5.850   8.457   5.497  0.1560 -0.3304  0.0202
 2957SOL    HW120525   5.819   8.363   5.511 -0.8347  0.0346  0.3184
 2957SOL    HW220526   5.927   8.475   5.558 -0.6551 -0.4687  1.1023
 2958SOL     OW20527   8.663   8.378   8.185 -0.5237  0.6612 -0.1467
 2958SOL    HW120528   8.761   8.366   8.166 -0.5277 -0.6242  0.5699
 2958SOL    HW220529   8.630   8.299   8.236 -2.0745  0.8264 -0.8782
 2959SOL     OW20530   0.854   8.092   5.365  0.8724  0.6815 -0.2165
 2959SOL    HW120531   0.947   8.056   5.351  0.9497  1.3934 -1.6166
 2959SOL    HW220532   0.794   8.059   5.292 -0.1089 -0.1917  0.9691
 2960SOL     OW20533   3.627   5.488   1.846 -0.1368  0.3391 -0.1771
 2960SOL    HW120534   3.566   5.553   1.892  0.4448  0.1023  0.9644
 2960SOL    HW220535   3.577   5.437   1.777 -1.4159 -0.3208  1.1953
 2961SOL     OW20536   8.569   6.875   1.325  0.5585 -0.0199 -0.4930
 2961SOL    HW120537   8.471   6.894   1.322  0.7229  0.9428  0.0837
 2961SOL    HW220538   8.595   6.847   1.417  0.7361 -0.7907 -0.7732
 2962SOL     OW20539   9.780   7.918   3.470 -0.1668 -0.1535  0.5314
 2962SOL    HW120540   9.730   7.998   3.438  0.7187  0.5297  0.8268
 2962SOL    HW220541   9.877   7.942   3.480  0.0781 -1.2230  0.7537
 2963SOL     OW20542   0.288   3.111   2.007  0.2185  0.1445  0.4645
 2963SOL    HW120543   0.324   3.119   2.100 -0.6342  0.2460  0.7965
 2963SOL    HW220544   0.254   3.200   1.978 -0.3697 -0.0946  0.4162
 2964SOL     OW20545   6.629   2.133   1.359 -0.0920 -0.9184 -0.2650
 2964SOL    HW120546   6.541   2.089   1.343  0.3824 -1.5588 -1.2131
 2964SOL    HW220547   6.697   2.063   1.382  0.2877 -0.4929 -0.0869
 2965SOL     OW20548   1.625   3.437   9.963  0.5000 -0.6668  0.5125
 2965SOL    HW120549   1.661   3.346   9.942 -1.0404 -1.2219  0.2781
 2965SOL    HW220550   1.675   3.475  10.041 -0.4063 -2.6881  2.1185
 2966SOL     OW20551   0.321   8.407   7.133  0.1890  0.1128  0.3153
 2966SOL    HW120552   0.388   8.478   7.111  1.8738 -1.2797  0.8910
 2966SOL    HW220553   0.357   8.347   7.204 -1.5705 -0.8199  0.4629
 2967SOL     OW20554   7.123   0.102   3.086 -0.1150  0.1495  0.8216
 2967SOL    HW120555   7.038   0.121   3.134 -0.9659  0.7023 -0.8687
 2967SOL    HW220556   7.130   0.160   3.005  2.1594  0.5281  1.2576
 2968SOL     OW20557   1.047   3.496   2.954 -0.5916 -0.0935  0.1315
 2968SOL    HW120558   1.138   3.505   2.994 -0.3496 -0.5479 -0.3199
 2968SOL    HW220559   1.055   3.465   2.859 -1.1855  0.5831 -0.1365
 2969SOL     OW20560   0.540   1.769   7.299  0.0070 -0.7276 -0.1701
 2969SOL    HW120561   0.622   1.826   7.307  0.7671 -1.7268 -0.7549
 2969SOL    HW220562   0.523   1.750   7.203  0.0290 -1.8745  0.0463
 2970SOL     OW20563   4.620   9.173   4.143 -0.5355  0.0679  0.3426
 2970SOL    HW120564   4.599   9.084   4.184  0.0494  0.0831  0.6735
 2970SOL    HW220565   4.537   9.228   4.138 -1.1133 -0.8540 -0.7367
 2971SOL     OW20566   4.865   1.606   4.789 -0.1481 -0.1767  0.1179
 2971SOL    HW120567   4.833   1.513   4.811 -3.0055  0.2929 -1.7613
 2971SOL    HW220568   4.828   1.670   4.856  0.2906 -0.1744  0.3533
 2972SOL     OW20569   2.315   2.609   5.434  0.2445 -0.8264 -0.5268
 2972SOL    HW120570   2.280   2.586   5.343 -1.0432 -0.4736 -0.1340
 2972SOL    HW220571   2.363   2.697   5.429 -1.9294  0.4133 -0.4074
 2973SOL     OW20572   4.190   5.666   0.827  0.2120 -0.5035 -0.3156
 2973SOL    HW120573   4.093   5.644   0.830  0.6191 -2.8504 -2.6197
 2973SOL    HW220574   4.204   5.759   0.860 -3.2611  1.2055 -3.2961
 2974SOL     OW20575   0.543   3.898   6.449  0.8049 -0.0811 -0.0116
 2974SOL    HW120576   0.555   3.811   6.497  1.5222 -0.0424 -0.1085
 2974SOL    HW220577   0.601   3.968   6.491  0.9286  0.1190 -0.5084
 2975SOL     OW20578   3.592   1.156   0.162  0.2831  0.7610  0.0640
 2975SOL    HW120579   3.502   1.168   0.120 -0.2297 -1.2746  0.5411
 2975SOL    HW220580   3.581   1.130   0.258  1.3830  0.5877  0.1454
 2976SOL     OW20581   9.508   1.721   1.431 -0.3689  0.2433  0.0584
 2976SOL    HW120582   9.529   1.648   1.497  1.3840 -0.0110 -0.7413
 2976SOL    HW220583   9.431   1.775   1.464 -1.3177 -1.6248  0.9402
 2977SOL     OW20584   8.128   1.720   2.084  0.3764  0.0118  0.4121
 2977SOL    HW120585   8.172   1.638   2.048 -0.1160 -0.5682  1.1102
 2977SOL    HW220586   8.171   1.801   2.045  0.2960 -0.5946 -0.9578
 2978SOL     OW20587   2.980   9.019   4.883  0.5202  0.7582 -0.5133
 2978SOL    HW120588   3.076   9.010   4.907  0.2619 -0.2534  0.1734
 2978SOL    HW220589   2.961   8.969   4.799 -0.1193 -2.0146  1.2381
 2979SOL     OW20590   7.211   8.949   1.794 -0.0556  0.7143  0.2493
 2979SOL    HW120591   7.307   8.972   1.813 -0.2122  1.0477  0.6428
 2979SOL    HW220592   7.172   9.019   1.735 -0.3099  1.0487  0.8116
 2980SOL     OW20593   4.420   8.768  10.068 -0.1792 -0.1616 -0.3021
 2980SOL    HW120594   4.452   8.775  10.163  1.2947 -1.5392 -0.6759
 2980SOL    HW220595   4.457   8.845  10.015  0.6058 -0.4679 -0.2013
 2981SOL     OW20596   2.314   8.268   2.492  0.3757 -0.4404 -0.0208
 2981SOL    HW120597   2.337   8.325   2.414 -1.1667 -0.2181 -0.3224
 2981SOL    HW220598   2.307   8.325   2.574  0.8982 -0.5071  0.0698
 2982SOL     OW20599   2.046   3.409   0.048 -0.6614  0.1518  0.5172
 2982SOL    HW120600   2.088   3.392   0.137  2.4112  1.1223 -0.6792
 2982SOL    HW220601   2.029   3.322   0.002 -0.1281 -0.2790  1.1226
 2983SOL     OW20602   9.825   1.900   6.397 -0.1499 -0.3586 -0.1025
 2983SOL    HW120603   9.898   1.961   6.363 -0.6552 -0.4369 -1.3640
 2983SOL    HW220604   9.852   1.805   6.382 -0.0512 -0.4135  0.4151
 2984SOL     OW20605   1.707   6.826   1.936  0.2847  0.4911 -0.2005
 2984SOL    HW120606   1.781   6.789   1.879 -0.2797 -0.9647  0.0135
 2984SOL    HW220607   1.619   6.791   1.904 -0.2240  1.3174  0.2703
 2985SOL     OW20608   4.702   9.151   5.205 -0.3310  0.1014  0.7109
 2985SOL    HW120609   4.720   9.093   5.125  0.2798  0.1001  0.8410
 2985SOL    HW220610   4.620   9.118   5.252  0.6301 -1.3762  1.4159
 2986SOL     OW20611   8.744   8.764   7.785  0.1631 -0.2324 -0.0036
 2986SOL    HW120612   8.827   8.817   7.769  0.3388  0.4831  3.1164
 2986SOL    HW220613   8.768   8.672   7.818 -0.2701 -0.1847  0.4572
 2987SOL     OW20614   7.484   5.438   7.753  0.1766 -0.1669 -0.0854
 2987SOL    HW120615   7.397   5.472   7.715  0.1859  1.6077  1.4335
 2987SOL    HW220616   7.465   5.370   7.823  0.0815 -1.0744 -0.9717
 2988SOL     OW20617   0.344   8.129   3.302  0.3871  0.5181 -0.1402
 2988SOL    HW120618   0.407   8.096   3.373  1.3463  0.7303 -0.8842
 2988SOL    HW220619   0.300   8.051   3.258  0.5727  0.3429 -0.0195
 2989SOL     OW20620   3.550   4.614   0.633 -0.5079 -0.3961  0.2893
 2989SOL    HW120621   3.650   4.611   0.627 -0.4177  1.1775  0.5931
 2989SOL    HW220622   3.513   4.649   0.547 -0.8514 -1.6682 -0.0857
 2990SOL     OW20623   9.289   8.206   4.168  0.0720  0.3001 -0.3098
 2990SOL    HW120624   9.387   8.225   4.155  0.3115  0.6912  1.8632
 2990SOL    HW220625   9.239   8.293   4.169 -0.0042  0.2564  0.6350
 2991SOL     OW20626   9.876   3.568   6.047  0.1501  0.5363 -0.1180
 2991SOL    HW120627   9.914   3.517   6.124 -0.2603 -0.2089 -0.4031
 2991SOL    HW220628   9.923   3.542   5.963 -2.4447 -2.0819 -0.8419
 2992SOL     OW20629   0.073   8.918   2.373  0.3773 -0.4384 -0.2009
 2992SOL    HW120630   0.140   8.855   2.332 -0.2427  0.0453 -1.9709
 2992SOL    HW220631   0.089   9.010   2.339  1.2937  0.3998  2.4125
 2993SOL     OW20632   9.587   0.814   3.524  0.4854 -0.1723  0.2201
 2993SOL    HW120633   9.605   0.766   3.610  0.5655  0.3816  0.5135
 2993SOL    HW220634   9.637   0.769   3.450  1.4009  0.0826  0.6732
 2994SOL     OW20635   6.519   1.160   4.413  0.3285 -0.4139 -0.6272
 2994SOL    HW120636   6.511   1.143   4.512 -1.1756 -0.0377 -0.6725
 2994SOL    HW220637   6.557   1.079   4.368  3.5652  0.3463  0.5953
 2995SOL     OW20638   0.619   7.989   2.605  0.2143  0.1177  0.4803
 2995SOL    HW120639   0.709   7.949   2.587 -0.8921 -2.2864  0.0183
 2995SOL    HW220640   0.612   8.013   2.701  1.6672  1.1970  0.3362
 2996SOL     OW20641   5.862   0.450   3.102 -0.0376 -0.3320  0.1462
 2996SOL    HW120642   5.940   0.447   3.165  0.0841  1.1286  0.0813
 2996SOL    HW220643   5.844   0.545   3.076 -2.0100 -0.6131  0.3783
 2997SOL     OW20644   8.264   8.605   8.151  0.5917  0.3699 -0.0734
 2997SOL    HW120645   8.317   8.582   8.069 -0.9930  0.0340 -1.0127
 2997SOL    HW220646   8.308   8.682   8.198  2.9163 -1.0230  0.1483
 2998SOL     OW20647   5.936   4.440   2.774  0.4053 -0.0714  0.2341
 2998SOL    HW120648   5.986   4.354   2.773  0.4384 -0.0761  1.4913
 2998SOL    HW220649   5.839   4.422   2.756  0.2739 -0.4797  1.2808
 2999SOL     OW20650   5.187   1.584   6.060  0.0688  0.0524  0.3499
 2999SOL    HW120651   5.167   1.486   6.065 -0.5268  0.2085  1.3426
 2999SOL    HW220652   5.225   1.614   6.148 -2.1826  1.2085  0.9793
 3000SOL     OW20653   5.053   7.914   1.018  0.1950 -0.3967 -0.1678
 3000SOL    HW120654   5.095   7.886   0.932 -1.7981 -1.0583 -0.9439
 3000SOL    HW220655   4.994   7.993   1.003 -0.8395 -1.0440  0.4144
 3001SOL     OW20656   5.671   4.818   2.578  0.7794  0.2397 -0.7721
 3001SOL    HW120657   5.709   4.872   2.653 -0.7571 -0.2810  0.3935
 3001SOL    HW220658   5.571   4.822   2.581  0.6910  0.6238 -3.0992
 3002SOL     OW20659   1.799   9.379   2.682  0.5429  0.1667  0.2331
 3002SOL    HW120660   1.762   9.298   2.728 -0.1135  0.9164  1.0489
 3002SOL    HW220661   1.724   9.436   2.650  1.0034  0.2817 -0.6546
 3003SOL     OW20662   8.135   6.822   8.154 -0.7465  0.1946  0.4516
 3003SOL    HW120663   8.161   6.816   8.058 -1.7087 -0.9179  0.2516
 3003SOL    HW220664   8.151   6.915   8.187  2.2234 -0.1122  0.0029
 3004SOL     OW20665   8.480   8.684   1.100 -0.3100  0.2271  0.4860
 3004SOL    HW120666   8.529   8.630   1.031 -2.6272  1.9109 -2.6401
 3004SOL    HW220667   8.463   8.628   1.181 -2.1449 -3.6248 -2.4012
 3005SOL     OW20668   7.865   0.086   3.154 -0.0472 -0.2439 -0.0262
 3005SOL    HW120669   7.924   0.162   3.125 -0.9968  1.3238  2.0098
 3005SOL    HW220670   7.780   0.122   3.192 -0.8098 -2.3698  0.3589
 3006SOL     OW20671   6.530   2.591   1.173 -0.2710  0.5895 -0.1841
 3006SOL    HW120672   6.445   2.627   1.211  0.0315  0.6800  0.4120
 3006SOL    HW220673   6.571   2.659   1.112  0.3991  1.3388  1.0910
 3007SOL     OW20674   3.316   9.886   3.473 -0.2937  0.0717  0.2480
 3007SOL    HW120675   3.290   9.865   3.568  1.3266  0.2316  0.7411
 3007SOL    HW220676   3.352   9.804   3.429  0.2534  0.3342  0.2082
 3008SOL     OW20677   8.655   7.053   3.617 -0.2767  0.0709 -0.1837
 3008SOL    HW120678   8.623   7.099   3.534 -1.9353 -0.0082  0.3869
 3008SOL    HW220679   8.734   6.995   3.595 -1.0515 -0.3938 -1.8284
 3009SOL     OW20680   6.365   0.913   7.456 -0.0425 -0.5357  0.2613
 3009SOL    HW120681   6.385   0.959   7.370 -1.8094 -2.9044 -1.4669
 3009SOL    HW220682   6.385   0.816   7.448  0.6710 -0.6528  2.8583
 3010SOL     OW20683   5.313   5.425   2.432  0.3466  0.4217 -0.5484
 3010SOL    HW120684   5.350   5.483   2.358  1.1159  0.7342  0.0662
 3010SOL    HW220685   5.304   5.331   2.399 -0.4005  0.7869 -1.3930
 3011SOL     OW20686   3.811   6.973   5.224  0.0833  0.3130 -0.2009
 3011SOL    HW120687   3.867   7.010   5.151 -0.3437  2.4074  0.4924
 3011SOL    HW220688   3.714   6.981   5.199  0.0202 -2.8529 -1.1951
 3012SOL     OW20689   7.100   9.673   6.765  0.1107 -0.2981 -0.3759
 3012SOL    HW120690   7.062   9.728   6.839  0.6176 -0.4608  0.0102
 3012SOL    HW220691   7.155   9.598   6.803  0.3625 -0.3926 -0.9131
 3013SOL     OW20692   1.251   7.481   3.062  0.5807 -0.3400 -0.0728
 3013SOL    HW120693   1.220   7.552   3.124  0.7351  0.4030 -0.8428
 3013SOL    HW220694   1.183   7.408   3.058 -0.3816  0.5724 -0.6005
 3014SOL     OW20695   3.237   2.732   5.982  0.6329 -0.4278 -0.5259
 3014SOL    HW120696   3.242   2.788   5.900  2.7984 -0.5374 -0.4916
 3014SOL    HW220697   3.161   2.764   6.039 -1.0837 -0.5542 -2.6804
 3015SOL     OW20698   2.217   2.221   1.588 -0.5347 -0.1603  0.4546
 3015SOL    HW120699   2.315   2.226   1.605 -0.4946  0.7776 -0.0154
 3015SOL    HW220700   2.199   2.155   1.515 -0.2603 -0.3634  0.5684
 3016SOL     OW20701   5.548   8.019   6.582  0.1558  0.4705 -0.1866
 3016SOL    HW120702   5.633   8.072   6.584  1.4712 -1.5641 -0.3512
 3016SOL    HW220703   5.521   8.004   6.487  0.3679 -0.0450 -0.1665
 3017SOL     OW20704   0.310   1.468   7.568  0.2630 -0.1381 -0.4492
 3017SOL    HW120705   0.357   1.403   7.507 -1.0330 -0.3317 -1.2555
 3017SOL    HW220706   0.220   1.431   7.592 -1.8526  2.7544 -3.4836
 3018SOL     OW20707   6.426   0.611   0.457 -0.1848  0.0845 -0.0867
 3018SOL    HW120708   6.348   0.571   0.504 -0.5545 -0.3267 -1.0361
 3018SOL    HW220709   6.450   0.698   0.499 -0.7823 -0.0732  0.5780
 3019SOL     OW20710   4.282   7.688   1.437  0.3811 -0.3188 -0.1230
 3019SOL    HW120711   4.186   7.706   1.415  0.1034 -0.4624  0.9794
 3019SOL    HW220712   4.336   7.769   1.416 -0.1076  0.0542  0.0591
 3020SOL     OW20713   4.210   8.272   0.643 -0.0864 -0.0832  0.6244
 3020SOL    HW120714   4.204   8.175   0.666 -1.0765  0.0694  1.0173
 3020SOL    HW220715   4.156   8.290   0.560  1.3047 -0.1361 -0.3201
 3021SOL     OW20716   3.688   0.661   9.862  0.3842  0.5202 -0.1277
 3021SOL    HW120717   3.644   0.637   9.776  0.9796  1.2881 -0.6486
 3021SOL    HW220718   3.636   0.622   9.938  0.9249 -1.8063 -0.9086
 3022SOL     OW20719   7.926   5.241   6.819 -0.0270  0.0927 -0.3962
 3022SOL    HW120720   7.972   5.234   6.731 -0.9927 -0.1863 -0.8750
 3022SOL    HW220721   7.854   5.172   6.826 -1.0920  1.2170 -0.0790
 3023SOL     OW20722   3.325   2.785   3.411  0.3979 -0.2412  0.0655
 3023SOL    HW120723   3.403   2.823   3.460 -0.9802  1.8222  0.7596
 3023SOL    HW220724   3.291   2.852   3.346 -1.2331 -0.8165  0.2882
 3024SOL     OW20725   1.552   2.531   2.300  0.3763  0.5041 -0.3866
 3024SOL    HW120726   1.553   2.477   2.216  1.1687  0.1371 -0.1484
 3024SOL    HW220727   1.459   2.539   2.334  0.0726  0.5295 -1.2204
 3025SOL     OW20728   3.425   7.251   2.175 -0.1161  0.2066 -0.3908
 3025SOL    HW120729   3.476   7.212   2.098  1.0357 -0.6635  0.7974
 3025SOL    HW220730   3.413   7.182   2.246 -1.9106  0.7623 -0.1316
 3026SOL     OW20731   6.694   0.499   4.093 -0.2749  0.0540  0.3415
 3026SOL    HW120732   6.629   0.561   4.049  1.0690  1.2275 -0.0538
 3026SOL    HW220733   6.756   0.461   4.024  1.7462  1.7723  1.1342
 3027SOL     OW20734   1.294   6.489   1.164  0.3491  0.6047 -0.3612
 3027SOL    HW120735   1.263   6.498   1.258 -1.2840 -3.7853 -0.3820
 3027SOL    HW220736   1.341   6.402   1.152 -1.1024  0.2155 -3.9863
 3028SOL     OW20737   8.401   2.439   4.847 -0.1588 -0.4186  0.1605
 3028SOL    HW120738   8.489   2.485   4.854 -0.0594 -0.5292 -0.3263
 3028SOL    HW220739   8.339   2.473   4.918  0.5192 -0.8885  0.9848
 3029SOL     OW20740   7.066   9.834   5.556 -0.6042  0.1726 -0.4702
 3029SOL    HW120741   7.094   9.763   5.620  0.6400 -0.5028 -1.7409
 3029SOL    HW220742   6.974   9.866   5.580  0.1477  0.5290  2.1209
 3030SOL     OW20743   3.599   4.635   6.684  0.0840 -0.1803 -1.3855
 3030SOL    HW120744   3.695   4.664   6.687 -0.0770  0.5455 -2.5465
 3030SOL    HW220745   3.583   4.582   6.600 -0.3800 -0.8442 -0.8765
 3031SOL     OW20746   5.629   9.594   7.175 -0.0661  0.4415 -0.2070
 3031SOL    HW120747   5.589   9.633   7.092  0.5710  2.0676  0.2244
 3031SOL    HW220748   5.560   9.541   7.224 -0.5208 -0.2785 -1.6143
 3032SOL     OW20749   0.980   7.997   4.255 -0.4304 -0.1853  0.3134
 3032SOL    HW120750   0.955   8.093   4.265  2.5798  0.6065  0.4040
 3032SOL    HW220751   0.973   7.951   4.344 -0.6421  0.2371  0.5157
 3033SOL     OW20752   0.182   8.815   3.484 -0.4594  0.1630 -0.1778
 3033SOL    HW120753   0.259   8.858   3.436 -0.5011 -1.0780 -1.3756
 3033SOL    HW220754   0.178   8.718   3.461  0.1533 -0.7115  3.1941
 3034SOL     OW20755   0.654   8.096   7.101 -0.5960 -0.1253 -0.6242
 3034SOL    HW120756   0.664   8.122   7.198  2.6517 -2.0430 -0.3811
 3034SOL    HW220757   0.660   8.178   7.044 -1.8870  0.9465  0.7496
 3035SOL     OW20758   7.650   4.954   1.056 -0.4061  0.1913  0.6377
 3035SOL    HW120759   7.663   5.040   1.005 -0.7208 -0.2928 -0.2751
 3035SOL    HW220760   7.638   4.975   1.153  2.6812  0.9570  0.9167
 3036SOL     OW20761   2.417   2.144   4.516 -0.1029  0.5807 -0.3847
 3036SOL    HW120762   2.352   2.083   4.471 -1.0688  2.0027 -0.9609
 3036SOL    HW220763   2.503   2.096   4.533 -1.0772 -1.1280 -0.2240
 3037SOL     OW20764   2.442   0.874   3.689 -0.4165  0.0063  0.0861
 3037SOL    HW120765   2.489   0.960   3.669 -1.5718  0.9690  1.3486
 3037SOL    HW220766   2.416   0.829   3.604 -1.2210  1.7280 -0.6033
 3038SOL     OW20767   5.229   8.384   1.836  0.0380 -0.5031  0.7204
 3038SOL    HW120768   5.301   8.404   1.903 -0.9518  0.2152  1.5930
 3038SOL    HW220769   5.215   8.464   1.778  0.1513 -0.7496  0.3547
 3039SOL     OW20770   7.614   9.974   1.952  0.1135 -0.2514 -0.3571
 3039SOL    HW120771   7.655   9.888   1.922  2.4860  1.0698 -1.0194
 3039SOL    HW220772   7.611  10.038   1.875 -0.3685  0.7346  0.4703
 3040SOL     OW20773   0.840   0.547   0.490 -0.2284 -0.1149  0.0266
 3040SOL    HW120774   0.752   0.503   0.473 -0.8391  0.6518  1.1587
 3040SOL    HW220775   0.868   0.599   0.409 -0.5854 -0.7451 -0.5027
 3041SOL     OW20776   5.070   8.930   5.508 -0.1379 -0.2100 -0.7173
 3041SOL    HW120777   5.080   8.998   5.435 -1.3345  1.2992  0.4781
 3041SOL    HW220778   5.093   8.972   5.595  1.6560 -2.1134 -0.2284
 3042SOL     OW20779   1.426   1.246   1.050  0.6796 -0.3625  0.1730
 3042SOL    HW120780   1.492   1.317   1.074 -0.8641  0.9194  0.7567
 3042SOL    HW220781   1.375   1.219   1.131  0.5443 -1.4046 -0.2493
 3043SOL     OW20782   1.060   6.062   5.611 -0.0205  0.4786  0.3349
 3043SOL    HW120783   1.145   6.070   5.559 -0.4403 -1.1815 -0.6176
 3043SOL    HW220784   1.080   6.072   5.709  1.1374  0.9741  0.0594
 3044SOL     OW20785   1.907   7.924   7.201  0.1779 -0.2859 -0.3214
 3044SOL    HW120786   1.839   7.961   7.138 -0.5590 -0.3568  0.4164
 3044SOL    HW220787   1.985   7.888   7.150 -0.6313 -0.7906 -1.2197
 3045SOL     OW20788   1.573   7.596   4.830 -0.2515 -0.0460 -0.7856
 3045SOL    HW120789   1.563   7.657   4.909  0.2688 -0.2923 -0.5212
 3045SOL    HW220790   1.550   7.645   4.747 -1.7817 -0.0755 -0.3901
 3046SOL     OW20791   7.208   6.946   2.151  0.1385  0.4936  0.7680
 3046SOL    HW120792   7.292   6.897   2.126  0.3239  0.9814  0.4236
 3046SOL    HW220793   7.147   6.950   2.072 -0.2061  0.1443  1.0180
 3047SOL     OW20794   2.450   3.792   2.767  0.1580 -0.4458 -0.1790
 3047SOL    HW120795   2.389   3.741   2.707  0.5752  0.8157 -1.7283
 3047SOL    HW220796   2.539   3.747   2.772  0.0779 -0.6275 -0.4116
 3048SOL     OW20797   1.086   1.817   4.270 -0.6869  0.0346 -0.2600
 3048SOL    HW120798   1.012   1.793   4.332 -3.3047  3.2772 -1.9932
 3048SOL    HW220799   1.087   1.753   4.193 -0.7489 -0.8686  0.4780
 3049SOL     OW20800   7.882   7.390   7.465  0.1692  0.6747  0.1082
 3049SOL    HW120801   7.975   7.406   7.430 -0.5860 -0.1268 -2.3870
 3049SOL    HW220802   7.878   7.300   7.508  0.2920  0.2985 -0.6685
 3050SOL     OW20803   3.091   2.320   5.109  0.6398 -0.1820  0.5698
 3050SOL    HW120804   3.004   2.367   5.119  0.2382 -1.2135  2.0918
 3050SOL    HW220805   3.109   2.304   5.012 -1.0563 -0.3380  0.2687
 3051SOL     OW20806   9.823   7.515   1.875 -0.2364  0.3667  0.3196
 3051SOL    HW120807   9.801   7.420   1.852  0.1183  0.3230  0.1549
 3051SOL    HW220808   9.767   7.577   1.820  1.8274  0.2938 -1.9987
 3052SOL     OW20809   8.939   9.803   6.153 -0.4095  0.1253  0.5110
 3052SOL    HW120810   9.004   9.859   6.204 -0.5034 -0.2340  1.0265
 3052SOL    HW220811   8.958   9.706   6.170 -0.7982  0.0151  0.3198
 3053SOL     OW20812   6.811   1.602   6.018  0.5081  0.0927  0.0000
 3053SOL    HW120813   6.878   1.668   5.985  2.1404 -0.7377  1.5632
 3053SOL    HW220814   6.836   1.571   6.110 -1.8727 -0.4540  0.5134
 3054SOL     OW20815   8.655   1.188   1.527 -0.4517 -0.3013  0.1026
 3054SOL    HW120816   8.710   1.112   1.560 -1.3044 -1.1004 -0.2965
 3054SOL    HW220817   8.587   1.213   1.597  0.0377  0.3085  0.3654
 3055SOL     OW20818   1.106   5.793   2.177 -0.0412 -0.1445 -0.2884
 3055SOL    HW120819   1.130   5.890   2.180  1.6670 -0.5761  3.3604
 3055SOL    HW220820   1.147   5.751   2.096 -0.4193  2.0471 -1.6599
 3056SOL     OW20821   9.178   7.259   1.436 -0.3755 -0.0105 -0.1217
 3056SOL    HW120822   9.129   7.173   1.424  1.4829 -1.0659 -0.2487
 3056SOL    HW220823   9.190   7.278   1.534 -3.6124  1.7690 -0.0011
 3057SOL     OW20824   4.574   5.724   4.627 -0.0412 -0.0466 -0.2969
 3057SOL    HW120825   4.552   5.822   4.631  2.1842  0.5779 -2.0804
 3057SOL    HW220826   4.671   5.711   4.644 -0.2489 -1.9424 -0.4426
 3058SOL     OW20827   0.321   6.006   1.035 -0.1673 -0.4722 -0.6368
 3058SOL    HW120828   0.288   5.983   1.127 -1.0966  2.5294 -0.1316
 3058SOL    HW220829   0.418   5.986   1.028 -0.1631 -1.0413  0.9168
 3059SOL     OW20830   7.627   9.483   3.611  0.0605  0.0661  0.0008
 3059SOL    HW120831   7.544   9.433   3.584  1.1399 -2.2492  0.7743
 3059SOL    HW220832   7.703   9.455   3.553  1.1855 -0.8823  1.8619
 3060SOL     OW20833   6.201   1.162   4.879 -0.0351  0.2122 -0.8458
 3060SOL    HW120834   6.267   1.145   4.806 -0.6560  1.7007 -1.7889
 3060SOL    HW220835   6.162   1.254   4.867 -0.3993  0.3414  1.1619
 3061SOL     OW20836   3.679   6.199   2.612 -0.0357  0.1408 -0.0867
 3061SOL    HW120837   3.731   6.185   2.528  0.4706  0.7374  0.1251
 3061SOL    HW220838   3.742   6.200   2.690  0.2044  5.0791 -0.1872
 3062SOL     OW20839   4.098   8.372   2.838  0.4697  0.1674  0.2662
 3062SOL    HW120840   4.111   8.327   2.926 -1.5714  1.4024  1.2224
 3062SOL    HW220841   4.007   8.352   2.802  0.4636  1.4708 -0.5027
 3063SOL     OW20842   3.943   0.632   2.553 -0.5478 -0.5762 -0.0822
 3063SOL    HW120843   3.915   0.540   2.525  1.3954 -1.8140  1.8933
 3063SOL    HW220844   3.894   0.658   2.636 -1.9687  0.6906 -1.2900
 3064SOL     OW20845   3.373   7.833   7.113  0.5632 -0.0998  0.2894
 3064SOL    HW120846   3.299   7.884   7.157  0.7018 -0.8264  1.3961
 3064SOL    HW220847   3.399   7.878   7.027  1.1398  2.0941  1.5574
 3065SOL     OW20848   4.085   3.766   6.761  0.2070  0.1565 -0.2986
 3065SOL    HW120849   3.999   3.716   6.775 -0.4198  1.6646  1.3228
 3065SOL    HW220850   4.067   3.849   6.708  0.7319  0.2922 -0.2658
 3066SOL     OW20851   2.651   2.146   2.038 -0.1316 -0.1637 -0.2329
 3066SOL    HW120852   2.661   2.246   2.034 -0.9644 -0.0244  1.1247
 3066SOL    HW220853   2.741   2.104   2.032  0.2278  0.6675 -0.8070
 3067SOL     OW20854   4.322   2.384   5.707  0.3569  0.2919 -0.5310
 3067SOL    HW120855   4.330   2.352   5.612 -0.2039  2.1235 -1.2073
 3067SOL    HW220856   4.404   2.433   5.732  0.0884  0.6680 -0.3947
 3068SOL     OW20857   7.214   8.670   1.784 -0.0619 -0.0862 -0.1373
 3068SOL    HW120858   7.216   8.769   1.795 -1.4726 -0.0087 -0.5122
 3068SOL    HW220859   7.154   8.646   1.708 -2.1299 -1.3825  1.8490
 3069SOL     OW20860   9.092   5.646   1.961 -0.3038  0.3195 -0.6901
 3069SOL    HW120861   9.166   5.584   1.936  0.3901  1.5114 -1.6738
 3069SOL    HW220862   9.105   5.733   1.913 -2.1609  0.6498 -0.6081
 3070SOL     OW20863   0.334   3.056   5.057  0.1446  0.0203 -0.2004
 3070SOL    HW120864   0.341   3.156   5.061  0.7041  0.0065 -0.8925
 3070SOL    HW220865   0.423   3.015   5.079  0.4446 -0.2859 -1.9365
 3071SOL     OW20866   9.924   1.643   7.676  0.2349  0.4982 -0.1661
 3071SOL    HW120867   9.838   1.606   7.710  0.3531 -0.8236 -1.2607
 3071SOL    HW220868   9.989   1.651   7.750 -0.2674 -0.1313  0.3437
 3072SOL     OW20869   7.560   6.513   2.369  0.8236 -0.1012  0.6399
 3072SOL    HW120870   7.534   6.422   2.336  1.2600 -0.9410  2.5392
 3072SOL    HW220871   7.657   6.514   2.391  0.6957  0.6554  1.1841
 3073SOL     OW20872   2.856   8.184   6.728  0.0831  0.3546  0.1566
 3073SOL    HW120873   2.807   8.263   6.766 -0.0699  0.8298 -1.0146
 3073SOL    HW220874   2.792   8.123   6.683  0.2925 -0.1014  0.4715
 3074SOL     OW20875   6.432   1.035   3.050  0.1842  0.0511 -0.4607
 3074SOL    HW120876   6.424   1.134   3.056  2.7000  0.6196 -4.2236
 3074SOL    HW220877   6.342   0.993   3.054 -1.0714  2.6448 -0.8096
 3075SOL     OW20878   9.650   8.109   4.019 -0.4615  0.7080  0.9121
 3075SOL    HW120879   9.672   8.150   4.107  2.0366 -0.2504  0.7775
 3075SOL    HW220880   9.650   8.180   3.948  1.4723  0.8775  1.0597
 3076SOL     OW20881   4.728   0.012   2.573 -0.0581  0.7764  0.6576
 3076SOL    HW120882   4.809   0.048   2.526  0.5843 -2.6079 -0.9723
 3076SOL    HW220883   4.650   0.012   2.510  0.0236 -0.8553  0.5317
 3077SOL     OW20884   8.016   6.697   4.004  0.1577 -0.0378 -0.0479
 3077SOL    HW120885   8.017   6.660   4.097 -1.0860 -0.7092 -0.2958
 3077SOL    HW220886   8.090   6.655   3.951  1.7508  1.3769  1.0234
 3078SOL     OW20887   3.066   4.923   3.253 -0.5093  0.9769  0.0133
 3078SOL    HW120888   3.017   4.907   3.338 -0.2769  0.4477  0.0460
 3078SOL    HW220889   3.083   4.836   3.206  1.3411  1.0299  0.5250
 3079SOL     OW20890   1.249   2.748   5.702 -0.0993 -0.1053  0.0363
 3079SOL    HW120891   1.295   2.670   5.660  0.6162  0.2851  0.0774
 3079SOL    HW220892   1.222   2.814   5.632 -1.6476 -0.8841 -0.0934
 3080SOL     OW20893   5.236   2.049   4.558 -0.4635 -0.5485  0.0180
 3080SOL    HW120894   5.152   2.104   4.562  0.0975  0.3690 -0.5576
 3080SOL    HW220895   5.249   2.013   4.466 -0.4509 -1.0525  0.2156
 3081SOL     OW20896   1.695   6.373   2.774 -0.3542 -0.1222  0.6158
 3081SOL    HW120897   1.620   6.354   2.711  0.2129 -1.0271  0.2023
 3081SOL    HW220898   1.744   6.455   2.743  1.0801 -1.6319 -1.2238
 3082SOL     OW20899   8.838   4.039   6.192 -0.8330  0.2177  0.1370
 3082SOL    HW120900   8.752   4.090   6.194  0.8732  3.2579 -0.9050
 3082SOL    HW220901   8.877   4.043   6.100  1.1781  0.1424  0.9582
 3083SOL     OW20902   1.311   4.037   4.654  0.3618  0.8333  0.1240
 3083SOL    HW120903   1.379   4.088   4.707 -1.3620  3.0442  0.2430
 3083SOL    HW220904   1.220   4.075   4.669 -1.1833 -2.9411  1.0527
 3084SOL     OW20905   4.310   8.086   3.038 -0.0233  0.3198  0.4342
 3084SOL    HW120906   4.327   8.101   2.941  1.3608 -0.3071  0.5772
 3084SOL    HW220907   4.229   8.138   3.065 -1.3604 -0.7546 -1.4005
 3085SOL     OW20908   7.555   8.693   4.137 -0.6526  0.0129  0.1372
 3085SOL    HW120909   7.641   8.656   4.103 -1.2017  0.7517 -2.1429
 3085SOL    HW220910   7.529   8.645   4.221  2.8380  0.9753  1.8289
 3086SOL     OW20911   2.288   5.028  10.000 -0.8260  0.1581 -0.0997
 3086SOL    HW120912   2.304   5.093  10.074  0.3000 -0.3662  0.1171
 3086SOL    HW220913   2.189   5.020   9.985 -1.0700  0.3006  1.3125
 3087SOL     OW20914   7.681   8.691   3.413  0.2561 -0.4911  0.0787
 3087SOL    HW120915   7.775   8.657   3.405 -0.0351 -1.2673 -0.1721
 3087SOL    HW220916   7.678   8.788   3.391  0.8859 -0.6233 -0.5977
 3088SOL     OW20917   6.483   4.534   1.459  0.0133  0.2167 -0.7136
 3088SOL    HW120918   6.538   4.611   1.429 -0.9684  0.6921 -1.3186
 3088SOL    HW220919   6.536   4.450   1.451  0.5032  0.6103 -1.6859
 3089SOL     OW20920   2.884   6.217   5.689 -0.1667  0.5786 -0.1126
 3089SOL    HW120921   2.804   6.267   5.723  0.9413  2.2046  0.1272
 3089SOL    HW220922   2.892   6.130   5.738 -2.6864 -0.3233 -1.2271
 3090SOL     OW20923   3.693   2.339   3.292  0.1022  0.4624 -0.0734
 3090SOL    HW120924   3.692   2.243   3.262 -0.2134  0.3336  0.3412
 3090SOL    HW220925   3.643   2.395   3.226  1.2422  0.5152 -0.8938
 3091SOL     OW20926   7.969   0.533   7.184  0.3175 -0.1901 -0.8049
 3091SOL    HW120927   8.048   0.483   7.220 -2.4728 -2.8326  1.9891
 3091SOL    HW220928   7.955   0.617   7.237  0.2745 -0.6075 -0.1410
 3092SOL     OW20929   3.174   1.973   7.383  0.4196 -0.1790 -0.1498
 3092SOL    HW120930   3.146   1.884   7.347  0.9584  0.0256 -1.0785
 3092SOL    HW220931   3.199   2.034   7.308 -0.6048  1.0014  0.4328
 3093SOL     OW20932   3.652   6.108   3.030 -0.6234  0.2601 -0.2100
 3093SOL    HW120933   3.744   6.077   3.053 -0.3320 -0.3584 -2.1132
 3093SOL    HW220934   3.599   6.031   2.995 -2.3850  0.2670  2.2737
 3094SOL     OW20935   4.696   0.410   7.361 -0.4120  0.6688 -0.1973
 3094SOL    HW120936   4.774   0.437   7.305  1.8534 -0.5780  2.2217
 3094SOL    HW220937   4.708   0.446   7.454 -1.0277 -2.3590  1.0936
 3095SOL     OW20938   0.675   5.241   0.771  0.0855 -0.0707 -0.3916
 3095SOL    HW120939   0.763   5.272   0.806 -0.2658 -1.8234  2.1376
 3095SOL    HW220940   0.689   5.183   0.690  1.0087  2.4617 -2.0883
 3096SOL     OW20941   9.208   6.859   5.617  0.1508  0.2045 -0.0789
 3096SOL    HW120942   9.158   6.853   5.530 -1.3864 -0.8582  0.8379
 3096SOL    HW220943   9.290   6.803   5.612 -0.2225 -0.3039 -0.6708
 3097SOL     OW20944   9.365   4.200   1.382  0.0488  0.5043 -0.4222
 3097SOL    HW120945   9.278   4.240   1.356  0.2510  0.7390 -0.7388
 3097SOL    HW220946   9.395   4.238   1.469 -0.4624 -0.0313 -0.0055
 3098SOL     OW20947   3.896   3.773   0.527  0.5289 -0.8860 -0.1120
 3098SOL    HW120948   3.850   3.684   0.526  0.5706 -0.9170  0.6258
 3098SOL    HW220949   3.987   3.763   0.568  0.0721 -0.2871  1.0779
 3099SOL     OW20950   6.752   7.379   6.267  0.4217 -0.1713  0.3218
 3099SOL    HW120951   6.821   7.405   6.333  1.5305 -2.5522  0.1428
 3099SOL    HW220952   6.795   7.331   6.190 -1.1639  0.1831 -0.8212
 3100SOL     OW20953   4.477   0.011   6.617 -0.7905 -0.4447  0.4442
 3100SOL    HW120954   4.424   0.090   6.648 -1.6777 -0.9537  0.2648
 3100SOL    HW220955   4.566   0.041   6.582 -2.2911  0.8273 -2.4857
 3101SOL     OW20956   4.250   5.870   3.722 -0.1331 -0.0613 -0.1843
 3101SOL    HW120957   4.269   5.943   3.657 -0.9578  0.1579 -0.1896
 3101SOL    HW220958   4.271   5.782   3.680  0.3546  0.1367 -0.3650
 3102SOL     OW20959   4.097   3.878   0.865 -0.2760 -0.4977 -0.0853
 3102SOL    HW120960   4.046   3.945   0.810  0.0404  0.4055  0.7135
 3102SOL    HW220961   4.140   3.811   0.804 -0.3854  0.1692 -0.9052
 3103SOL     OW20962   4.231   4.233   5.137  0.1901  0.0064  0.2184
 3103SOL    HW120963   4.246   4.150   5.191  0.0462  0.0649  0.3514
 3103SOL    HW220964   4.311   4.293   5.144  1.1410 -1.0284 -1.5375
 3104SOL     OW20965   7.367   8.116   3.986  0.1464  0.6754 -0.2705
 3104SOL    HW120966   7.400   8.081   4.074  2.2420  1.1763 -0.8401
 3104SOL    HW220967   7.375   8.216   3.985  2.6265  0.5077 -1.9798
 3105SOL     OW20968   6.004   8.989   1.739 -0.0720  0.2097  0.4004
 3105SOL    HW120969   5.977   8.936   1.820  0.8971  0.7293  1.0799
 3105SOL    HW220970   5.940   9.065   1.727 -1.3735 -1.0016 -0.4869
 3106SOL     OW20971   1.475   1.853   7.386  0.0487 -0.1048  0.3945
 3106SOL    HW120972   1.556   1.857   7.444  0.2190  0.0607  0.1472
 3106SOL    HW220973   1.393   1.844   7.442  0.1397  0.9260  0.6837
 3107SOL     OW20974   1.686   8.728   0.868 -0.0565 -0.4295 -0.4869
 3107SOL    HW120975   1.606   8.682   0.906 -1.2894 -0.3080 -2.8572
 3107SOL    HW220976   1.751   8.659   0.834 -0.5861 -0.4716 -1.4130
 3108SOL     OW20977   0.064   4.770   3.301  0.0251  0.5607 -0.1196
 3108SOL    HW120978  -0.032   4.760   3.328  0.2671 -2.1368 -0.0563
 3108SOL    HW220979   0.107   4.842   3.354 -0.9102 -0.9969  2.8751
 3109SOL     OW20980   7.311   6.954   2.510 -0.1324 -0.2690 -0.3779
 3109SOL    HW120981   7.286   7.051   2.508 -0.0199 -0.1550  1.9907
 3109SOL    HW220982   7.397   6.941   2.462  0.1118  0.8922 -0.2745
 3110SOL     OW20983   3.060   5.113   2.557 -0.8043 -0.2581  0.1952
 3110SOL    HW120984   3.040   5.033   2.501 -0.3591  0.1438 -0.5434
 3110SOL    HW220985   3.069   5.085   2.653 -2.1163 -0.8582  0.1541
 3111SOL     OW20986   1.203   7.347   5.294 -0.2830 -0.2581 -0.6426
 3111SOL    HW120987   1.238   7.334   5.201  0.4470 -1.1475 -0.2600
 3111SOL    HW220988   1.128   7.283   5.311 -0.7595  0.2560 -0.7822
 3112SOL     OW20989   1.658   0.259   2.103 -0.1404  0.2257 -0.5464
 3112SOL    HW120990   1.703   0.262   2.192 -0.8383  1.9590 -0.2355
 3112SOL    HW220991   1.587   0.329   2.098 -0.1045  0.1710 -2.4710
 3113SOL     OW20992   1.893   5.806   3.268  0.0698 -0.7700 -0.0100
 3113SOL    HW120993   1.898   5.897   3.228 -1.2913  0.4334  2.3785
 3113SOL    HW220994   1.980   5.759   3.257  0.8936  0.9469 -0.9861
 3114SOL     OW20995   0.918   7.197   1.841  0.9845 -0.4778 -0.2444
 3114SOL    HW120996   0.923   7.249   1.756  0.3027 -0.8245 -0.4950
 3114SOL    HW220997   0.845   7.235   1.898  1.5370 -0.1516  0.2511
 3115SOL     OW20998   9.715   6.956   2.521 -0.2055 -0.2215  0.3283
 3115SOL    HW120999   9.798   6.930   2.571 -1.4411 -1.0474  2.0126
 3115SOL    HW221000   9.668   7.028   2.571  0.1813  1.2187 -1.3368
 3116SOL     OW21001   3.889   5.090   1.169 -0.3768 -0.1374  0.1632
 3116SOL    HW121002   3.826   5.168   1.176 -0.7459 -0.5217  1.1621
 3116SOL    HW221003   3.850   5.011   1.216 -0.2250 -1.0875 -1.2778
 3117SOL     OW21004   0.142   8.542   5.657  0.2709  0.2555 -0.3993
 3117SOL    HW121005   0.234   8.526   5.691  0.0061 -1.5488 -0.5076
 3117SOL    HW221006   0.075   8.517   5.727 -0.1999 -0.8421 -1.2257
 3118SOL     OW21007   0.527   6.956   1.398  0.2106 -0.1700  0.2846
 3118SOL    HW121008   0.523   7.003   1.310 -0.8196 -0.4232  0.1858
 3118SOL    HW221009   0.620   6.961   1.435  1.2149 -1.9623 -1.8658
 3119SOL     OW21010   3.935   7.748  10.017  0.1165 -0.2177 -0.0046
 3119SOL    HW121011   4.022   7.790  10.045  0.4934 -0.4793 -0.7879
 3119SOL    HW221012   3.949   7.694   9.934 -0.2444 -2.3373  1.2794
 3120SOL     OW21013   4.976   4.703   0.355 -0.2242  0.0552  0.0931
 3120SOL    HW121014   4.930   4.775   0.303 -1.3457 -1.2413 -0.7629
 3120SOL    HW221015   4.986   4.732   0.450  0.5969  1.8917 -0.5310
 3121SOL     OW21016   0.290   5.893   6.342  0.2795 -0.7386  0.6216
 3121SOL    HW121017   0.303   5.966   6.409  1.3939 -1.4796  1.2274
 3121SOL    HW221018   0.366   5.893   6.277 -1.0124  0.2363 -0.8939
 3122SOL     OW21019   3.565   5.586   0.926 -0.3425  0.1327 -0.1190
 3122SOL    HW121020   3.551   5.503   0.979  0.6216 -0.1442 -0.2930
 3122SOL    HW221021   3.615   5.653   0.981  0.1879  0.0446 -0.4844
 3123SOL     OW21022   3.795   9.550   6.188  0.7541  0.2903  0.4965
 3123SOL    HW121023   3.783   9.589   6.279  1.4878 -0.1843  0.8000
 3123SOL    HW221024   3.855   9.608   6.134  0.5479  0.4233  0.4095
 3124SOL     OW21025   1.882   7.217   1.782  0.1802 -0.0555  0.0147
 3124SOL    HW121026   1.803   7.182   1.834  0.0196 -0.7733 -0.7037
 3124SOL    HW221027   1.851   7.255   1.696  0.4616  1.0769  0.4074
 3125SOL     OW21028   0.372   3.796   3.077 -0.5357 -0.3178 -0.0862
 3125SOL    HW121029   0.276   3.801   3.106 -0.7700  1.4963 -1.0771
 3125SOL    HW221030   0.383   3.723   3.009 -1.7800  1.1758 -1.9470
 3126SOL     OW21031   1.231   9.443   3.101  0.2379 -0.1781  0.5162
 3126SOL    HW121032   1.325   9.414   3.117  0.3847 -0.5950 -1.0447
 3126SOL    HW221033   1.226   9.542   3.102  0.5106 -0.1679  1.5585
 3127SOL     OW21034   3.380   0.894   2.157 -0.0142 -0.1342 -0.2828
 3127SOL    HW121035   3.298   0.919   2.209 -0.0056 -2.0095  0.6669
 3127SOL    HW221036   3.429   0.821   2.205  1.3607 -0.1499 -1.6684
 3128SOL     OW21037   8.457   0.874   7.515 -0.8935  0.9302 -0.2696
 3128SOL    HW121038   8.548   0.835   7.506 -0.9118  0.5963  0.9165
 3128SOL    HW221039   8.429   0.914   7.428 -0.5312 -0.9673 -1.2820
 3129SOL     OW21040   6.311   4.378   2.559  0.0391  0.1195 -0.2943
 3129SOL    HW121041   6.228   4.432   2.554  1.6378  2.7831  0.6549
 3129SOL    HW221042   6.353   4.373   2.468 -0.4447 -0.0720 -0.5089
 3130SOL     OW21043   7.004   8.371   5.203  0.4374  0.3163  0.2219
 3130SOL    HW121044   7.093   8.334   5.176 -0.1447 -0.0073 -1.3376
 3130SOL    HW221045   6.950   8.300   5.249 -0.4264 -0.6457 -2.1788
 3131SOL     OW21046   9.717   2.442   5.379 -0.3191 -0.6306 -0.0157
 3131SOL    HW121047   9.740   2.369   5.444 -0.5555 -1.2621 -0.6383
 3131SOL    HW221048   9.761   2.527   5.408  0.6012 -1.2016  0.2720
 3132SOL     OW21049   9.703   9.105   3.173  0.3753 -0.1297  0.1110
 3132SOL    HW121050   9.786   9.089   3.120  0.0547  0.2069 -0.4941
 3132SOL    HW221051   9.631   9.042   3.142 -0.2028  0.9335 -0.7330
 3133SOL     OW21052   8.292   8.305   6.780  0.8519  0.0084 -0.3986
 3133SOL    HW121053   8.246   8.381   6.825  1.3929 -0.6264  1.2650
 3133SOL    HW221054   8.295   8.321   6.681  0.2146  1.7279 -0.1488
 3134SOL     OW21055   5.075   1.122   7.176  0.0353 -0.0666 -0.1366
 3134SOL    HW121056   4.998   1.133   7.114  0.5629 -0.7521 -0.9256
 3134SOL    HW221057   5.152   1.082   7.126  0.2652 -1.1939  1.0891
 3135SOL     OW21058   0.673   9.057   7.171 -0.5816  0.3511  0.2352
 3135SOL    HW121059   0.751   9.107   7.131  0.6165 -0.1546  1.8924
 3135SOL    HW221060   0.630   9.114   7.241 -0.7908  0.0435  0.3553
 3136SOL     OW21061   0.958   6.103   3.434  0.2877  0.0646 -0.2964
 3136SOL    HW121062   1.023   6.166   3.477 -0.5963  0.5872  0.2754
 3136SOL    HW221063   0.991   6.079   3.343  0.8298  1.0458 -0.3663
 3137SOL     OW21064   0.604   8.072   6.549  0.2206 -0.1620 -0.0171
 3137SOL    HW121065   0.621   8.008   6.625  1.6430 -0.0893 -0.2657
 3137SOL    HW221066   0.518   8.047   6.504 -1.4341  0.6958  2.5326
 3138SOL     OW21067   1.564   8.240   7.436 -0.3539  0.0545 -0.0710
 3138SOL    HW121068   1.664   8.235   7.427 -0.4292  1.3012 -1.9573
 3138SOL    HW221069   1.523   8.162   7.390 -0.2838  0.1488 -0.2960
 3139SOL     OW21070   2.998   8.276   5.074  0.0542 -0.1694  0.0559
 3139SOL    HW121071   2.968   8.254   5.167  0.8320 -0.6728  0.1872
 3139SOL    HW221072   3.025   8.192   5.027 -1.9956 -0.1526 -1.2144
 3140SOL     OW21073   0.253   1.481   3.823  0.8130 -0.3369  0.4565
 3140SOL    HW121074   0.154   1.479   3.840  1.1570  0.1470  2.6854
 3140SOL    HW221075   0.285   1.387   3.809  0.4007 -0.7564  2.1322
 3141SOL     OW21076   7.924   4.416   3.245 -0.3322  0.1286 -0.2310
 3141SOL    HW121077   7.894   4.505   3.210  2.4567  0.7088 -1.3325
 3141SOL    HW221078   7.914   4.347   3.173 -0.2146  0.0635 -0.1850
 3142SOL     OW21079   5.322   1.220   4.625 -0.3473 -0.6829  0.1807
 3142SOL    HW121080   5.268   1.234   4.709 -1.9155  1.9240 -1.1933
 3142SOL    HW221081   5.419   1.220   4.648 -0.7544  0.1948  1.9939
 3143SOL     OW21082   6.284   2.640   2.531 -0.3752 -0.2675  0.1602
 3143SOL    HW121083   6.207   2.578   2.551 -0.7595  0.3818  0.6781
 3143SOL    HW221084   6.302   2.698   2.609 -0.0950  0.3760 -0.3784
 3144SOL     OW21085   4.594   1.954   4.969  0.1915 -0.2562  0.2889
 3144SOL    HW121086   4.569   1.949   4.872  2.0533  0.1712 -0.2385
 3144SOL    HW221087   4.669   1.889   4.987  2.3029  2.1751  0.6088
 3145SOL     OW21088   8.844   3.232   3.858 -0.2875 -0.0518  0.0976
 3145SOL    HW121089   8.881   3.296   3.925 -0.1981  0.0959 -0.0918
 3145SOL    HW221090   8.846   3.274   3.768  2.5234 -1.3819 -0.5217
 3146SOL     OW21091   1.584   5.559   3.132 -0.4608 -0.5436 -0.0426
 3146SOL    HW121092   1.577   5.657   3.115 -1.5108 -0.6623 -0.3371
 3146SOL    HW221093   1.492   5.520   3.140 -0.2753 -2.2775 -4.5827
 3147SOL     OW21094   3.315   6.675   0.967  0.0491 -0.0721  0.3159
 3147SOL    HW121095   3.295   6.594   1.022  1.2227 -0.6969 -0.1712
 3147SOL    HW221096   3.411   6.702   0.981  0.6316 -0.7661 -2.1145
 3148SOL     OW21097   7.561   0.370   2.578  0.5811  0.2778 -0.4026
 3148SOL    HW121098   7.511   0.436   2.522  0.4961  0.0756 -0.5663
 3148SOL    HW221099   7.612   0.419   2.649 -2.7696  0.2259  2.1259
 3149SOL     OW21100   5.988   0.143   2.942  0.3733 -0.1233 -0.0579
 3149SOL    HW121101   6.009   0.110   2.851 -2.5031 -0.9410 -0.4743
 3149SOL    HW221102   5.919   0.216   2.936  1.0698  0.6853  1.3889
 3150SOL     OW21103   7.980   1.744   5.660  0.2256 -0.0846  0.4079
 3150SOL    HW121104   7.933   1.771   5.576 -1.1631 -1.4627  0.7117
 3150SOL    HW221105   8.020   1.653   5.647  0.7176  0.0543  0.9657
 3151SOL     OW21106   1.412   3.123   0.069 -0.0606 -0.0818  0.2049
 3151SOL    HW121107   1.381   3.107   0.163  0.1709 -0.6084  0.1924
 3151SOL    HW221108   1.375   3.053   0.008 -1.3996  1.1015 -0.3591
 3152SOL     OW21109   9.775   6.474   6.534  0.3677 -0.1297  0.0395
 3152SOL    HW121110   9.825   6.461   6.448  1.8580  0.5608  0.7861
 3152SOL    HW221111   9.800   6.402   6.598 -0.0675 -0.1319  0.2070
 3153SOL     OW21112   0.546   0.584   6.827 -0.0925  0.3443  0.3275
 3153SOL    HW121113   0.560   0.504   6.769 -0.7719  0.7935 -0.4751
 3153SOL    HW221114   0.449   0.590   6.852 -0.2381  1.4425 -0.4336
 3154SOL     OW21115   3.463   7.064   0.567  0.5916  0.0078  0.2993
 3154SOL    HW121116   3.464   7.030   0.473 -2.0951  1.2415 -0.2060
 3154SOL    HW221117   3.415   6.999   0.625 -0.7514  0.8642  0.1550
 3155SOL     OW21118   9.528   6.426   3.540  0.1456  0.4905 -0.5272
 3155SOL    HW121119   9.507   6.384   3.452 -1.6154 -0.2163  0.1928
 3155SOL    HW221120   9.547   6.354   3.607  0.2074  0.9754 -0.0257
 3156SOL     OW21121   7.147   7.362   5.636  0.0321  0.2332 -0.1859
 3156SOL    HW121122   7.150   7.360   5.536 -0.3705 -0.8644 -0.1779
 3156SOL    HW221123   7.154   7.269   5.671 -2.5193  0.3477  0.7172
 3157SOL     OW21124   3.999   6.660   1.449  0.2462 -0.0855  0.0930
 3157SOL    HW121125   4.025   6.741   1.501  2.1464  0.3653 -1.4776
 3157SOL    HW221126   3.919   6.680   1.393  0.5915  0.6749 -0.1428
 3158SOL     OW21127   7.385   6.367   6.135 -0.3766  0.3439  0.1838
 3158SOL    HW121128   7.384   6.336   6.230  0.6726 -0.5774 -0.1018
 3158SOL    HW221129   7.479   6.367   6.100 -0.6957  1.1345 -0.7121
 3159SOL     OW21130   4.133   3.462   5.218 -0.1444  0.0822 -0.3044
 3159SOL    HW121131   4.216   3.492   5.172 -0.0356 -0.3293 -0.3816
 3159SOL    HW221132   4.075   3.541   5.238  0.4845  0.4253  0.1877
 3160SOL     OW21133   2.751   2.183   3.546 -0.2856  0.1551 -0.1364
 3160SOL    HW121134   2.801   2.142   3.623 -1.5860  0.0879  0.6943
 3160SOL    HW221135   2.814   2.202   3.471  0.8540 -0.5884  0.6218
 3161SOL     OW21136   1.228   9.771   5.082  0.3667  0.3758  0.0852
 3161SOL    HW121137   1.238   9.689   5.026 -1.2377  0.6382 -0.6119
 3161SOL    HW221138   1.196   9.847   5.025 -0.5055  0.8623  1.1878
 3162SOL     OW21139   6.967   0.664   2.553 -0.0577  0.3820 -0.1975
 3162SOL    HW121140   7.034   0.682   2.481  0.1474 -1.2820 -0.4470
 3162SOL    HW221141   6.875   0.679   2.517 -0.0145 -1.5038 -1.1881
 3163SOL     OW21142   2.853   4.094   0.250  0.0727 -0.1498  0.2502
 3163SOL    HW121143   2.889   4.097   0.157 -0.8837  0.3382 -0.1157
 3163SOL    HW221144   2.795   4.174   0.266 -0.4793 -0.6839  0.9758
 3164SOL     OW21145   1.576   7.781   2.033  0.0157  0.1617  0.4431
 3164SOL    HW121146   1.557   7.683   2.020  1.7086  0.0537 -1.5585
 3164SOL    HW221147   1.575   7.802   2.131 -0.4521 -1.8459  0.9090
 3165SOL     OW21148   7.289   1.670   2.375  0.0692  0.6394 -0.6993
 3165SOL    HW121149   7.205   1.688   2.427 -0.3156 -1.7328 -0.4520
 3165SOL    HW221150   7.271   1.680   2.278 -0.6210 -0.2906 -0.6730
 3166SOL     OW21151   9.972   3.135   7.849  0.3539 -0.0336  0.4228
 3166SOL    HW121152  10.005   3.126   7.943  2.5889 -2.7621 -0.5439
 3166SOL    HW221153   9.955   3.044   7.810 -0.5039  1.0402 -1.8235
 3167SOL     OW21154   1.268   9.403   0.574  0.1604 -0.2433 -0.4280
 3167SOL    HW121155   1.305   9.489   0.611  1.0348 -0.1468 -1.5055
 3167SOL    HW221156   1.248   9.341   0.649  2.7744 -0.3949  0.1845
 3168SOL     OW21157   6.490   5.048  10.034  0.1738 -0.1969  0.1667
 3168SOL    HW121158   6.499   5.146  10.020  2.9067 -0.2783  0.9908
 3168SOL    HW221159   6.438   5.031  10.118  0.5757  0.5560  0.5719
 3169SOL     OW21160   1.537   2.973   1.498  0.0287  0.0772  0.2937
 3169SOL    HW121161   1.622   2.921   1.497 -0.0145  0.0006  0.5825
 3169SOL    HW221162   1.460   2.911   1.511 -0.2392 -0.0812 -1.9226
 3170SOL     OW21163   3.464   8.470   4.157  0.4827  0.1641 -0.1417
 3170SOL    HW121164   3.464   8.488   4.058  1.3086  0.5006 -0.0830
 3170SOL    HW221165   3.554   8.436   4.184 -0.4194 -2.1069  0.1089
 3171SOL     OW21166   6.663   7.828   2.993 -0.2069  0.4659 -0.9226
 3171SOL    HW121167   6.579   7.856   2.947 -0.2586  0.8630 -0.5933
 3171SOL    HW221168   6.651   7.737   3.032 -0.9572  1.0637  0.2937
 3172SOL     OW21169   3.869   2.961   7.109 -0.2558  0.7886  0.0242
 3172SOL    HW121170   3.773   2.936   7.125 -0.0264 -0.3847 -0.4152
 3172SOL    HW221171   3.922   2.879   7.088  0.6622  1.5574 -0.7028
 3173SOL     OW21172   9.389   5.345   5.491  0.2910  0.0288 -0.3567
 3173SOL    HW121173   9.364   5.291   5.411  0.4082 -0.5668  0.0130
 3173SOL    HW221174   9.440   5.289   5.556 -1.2688  0.0511  0.9152
 3174SOL     OW21175   1.972   9.131   2.935 -0.2867 -0.7439  0.3038
 3174SOL    HW121176   1.885   9.109   2.891  0.1846 -1.7833 -0.1294
 3174SOL    HW221177   2.047   9.096   2.879  0.4519  1.0374  0.1557
 3175SOL     OW21178   2.647   9.380   7.299  0.2646 -0.0660  0.5343
 3175SOL    HW121179   2.665   9.477   7.319 -3.0018  0.9078 -0.7341
 3175SOL    HW221180   2.731   9.336   7.269  1.5266  2.8018 -0.3811
 3176SOL     OW21181   7.145   7.717   4.276 -0.4606 -0.0001  0.0362
 3176SOL    HW121182   7.243   7.695   4.287 -0.2526  1.7246  1.9290
 3176SOL    HW221183   7.094   7.678   4.353 -1.3308 -1.1009 -1.0736
 3177SOL     OW21184   2.467   2.689   1.969 -0.1672 -0.3711 -0.3588
 3177SOL    HW121185   2.525   2.715   1.891 -1.8173  2.6715 -0.6463
 3177SOL    HW221186   2.518   2.700   2.054  0.7110 -0.9192 -0.8017
 3178SOL     OW21187   1.552   9.316   0.398  0.0396 -0.2390  0.2682
 3178SOL    HW121188   1.506   9.371   0.329  2.8368 -0.1763 -1.6369
 3178SOL    HW221189   1.541   9.219   0.375 -0.0603 -0.2578  0.3975
 3179SOL     OW21190   0.296   0.856   6.635  0.4019 -1.0255 -0.5468
 3179SOL    HW121191   0.292   0.864   6.735 -0.1892  2.9560 -0.7969
 3179SOL    HW221192   0.390   0.871   6.604  0.0614  0.8852 -0.7352
 3180SOL     OW21193   6.669   2.408   1.721 -0.2032 -0.0688 -0.3473
 3180SOL    HW121194   6.709   2.481   1.776 -0.4105 -0.4165  0.2618
 3180SOL    HW221195   6.663   2.324   1.775 -0.9657 -0.2481 -0.7011
 3181SOL     OW21196   4.709   2.751   0.788  0.0099  0.6269 -0.3755
 3181SOL    HW121197   4.794   2.802   0.775 -0.2679  1.1324 -0.2037
 3181SOL    HW221198   4.636   2.813   0.815 -0.3243  0.1339 -0.1362
 3182SOL     OW21199   3.575   8.498   3.304  0.4571 -0.4489 -0.0587
 3182SOL    HW121200   3.556   8.400   3.292  0.3377 -0.2510 -1.5517
 3182SOL    HW221201   3.608   8.536   3.218 -0.8751  1.1519  0.1181
 3183SOL     OW21202   9.458   0.643   4.820  0.0475 -0.1660 -0.2948
 3183SOL    HW121203   9.384   0.659   4.754 -0.0727  0.3785 -0.0263
 3183SOL    HW221204   9.476   0.545   4.825  0.4129 -0.1717 -1.5240
 3184SOL     OW21205   3.364   8.965   5.555 -0.0932  0.3663  0.3338
 3184SOL    HW121206   3.339   8.922   5.468 -0.5956  2.7623 -0.7345
 3184SOL    HW221207   3.285   9.012   5.593  0.8550  1.6715  0.7015
 3185SOL     OW21208   0.994   4.401   7.305  0.3423  0.0437  0.3512
 3185SOL    HW121209   1.053   4.334   7.350 -1.2404 -0.4477  1.7776
 3185SOL    HW221210   1.042   4.442   7.228  2.7247  0.0163  1.7573
 3186SOL     OW21211   8.733   9.176   2.286 -0.4288 -0.1799 -0.0157
 3186SOL    HW121212   8.635   9.181   2.268 -0.2994 -2.2530 -1.4865
 3186SOL    HW221213   8.749   9.118   2.366 -0.4754  1.4958  1.2283
 3187SOL     OW21214   9.343   2.294   5.708  0.8426 -0.0753  0.3659
 3187SOL    HW121215   9.310   2.284   5.614  0.7482 -0.9961  0.4868
 3187SOL    HW221216   9.386   2.383   5.719 -0.6784  0.7421 -0.0878
 3188SOL     OW21217   1.185   9.109   3.998  0.4125  0.1622 -0.1741
 3188SOL    HW121218   1.169   9.034   4.062  1.8370 -0.2371 -0.2754
 3188SOL    HW221219   1.109   9.175   4.004 -0.7981 -1.2175 -0.0194
 3189SOL     OW21220   1.117   2.334   4.333 -0.3220 -0.0149  0.7006
 3189SOL    HW121221   1.086   2.395   4.406  1.4703  0.1298  1.3422
 3189SOL    HW221222   1.111   2.381   4.245 -0.1888  0.6220  1.0342
 3190SOL     OW21223   4.969   1.994   0.619  0.0237  0.3545  0.0149
 3190SOL    HW121224   4.988   1.966   0.713  0.0465  0.0125 -0.0891
 3190SOL    HW221225   5.053   2.026   0.576  0.1541 -0.1522 -0.1102
 3191SOL     OW21226   7.853   9.202   2.873  0.4348 -0.5050  0.4566
 3191SOL    HW121227   7.844   9.128   2.940  0.4062 -0.2213  0.7716
 3191SOL    HW221228   7.858   9.164   2.781  0.4866 -0.9024  0.6224
 3192SOL     OW21229   8.007   2.314   7.244 -0.0007 -0.1400 -0.1019
 3192SOL    HW121230   7.963   2.403   7.255 -1.9225 -1.1696  0.7917
 3192SOL    HW221231   8.079   2.303   7.312  0.5229  0.8991 -0.4885
 3193SOL     OW21232   2.687   5.579   5.853  0.3022  0.9020 -0.4495
 3193SOL    HW121233   2.588   5.580   5.837  0.5202  0.9400 -1.8510
 3193SOL    HW221234   2.719   5.672   5.868  0.2207  0.9578 -0.6236
 3194SOL     OW21235   7.344   1.226   2.495 -0.3113  0.1843  0.0399
 3194SOL    HW121236   7.284   1.283   2.552  0.0969 -0.3787  1.0386
 3194SOL    HW221237   7.293   1.147   2.462 -0.2781  0.0079  0.4121
 3195SOL     OW21238   5.496   4.106   0.861  0.0565 -0.1804 -0.2210
 3195SOL    HW121239   5.398   4.118   0.844  0.0707  1.1983  0.6120
 3195SOL    HW221240   5.548   4.140   0.783 -0.0841  0.3913 -0.0670
 3196SOL     OW21241   4.880   8.881   5.772  0.1252 -0.3783  0.1314
 3196SOL    HW121242   4.807   8.857   5.708 -0.6582  0.0034  0.8777
 3196SOL    HW221243   4.892   8.980   5.775 -0.3622 -0.3452  1.1437
 3197SOL     OW21244   2.023   3.792   5.287  0.2741 -0.4389 -0.0983
 3197SOL    HW121245   2.116   3.757   5.275  1.0313  0.8871  1.7859
 3197SOL    HW221246   2.006   3.864   5.220  1.1368  0.3534  0.5343
 3198SOL     OW21247   9.831   3.453   6.633  0.3817 -0.1570 -0.1551
 3198SOL    HW121248   9.891   3.527   6.663  1.3370 -0.4242 -1.3797
 3198SOL    HW221249   9.886   3.380   6.593 -0.4920 -1.8186  1.5890
 3199SOL     OW21250   2.588   7.597   4.851  0.0490  0.5221 -0.7265
 3199SOL    HW121251   2.584   7.694   4.828  2.0347  0.4506 -1.5161
 3199SOL    HW221252   2.657   7.582   4.921  1.0189 -0.5172 -1.8702
 3200SOL     OW21253   0.116   7.157   5.963 -0.1232  0.4591  0.6245
 3200SOL    HW121254   0.037   7.167   6.023  0.3853  0.3586  1.3185
 3200SOL    HW221255   0.150   7.248   5.937 -1.6086  0.5227 -1.2205
 3201SOL     OW21256   6.697   9.107   7.834  0.2615 -0.4330 -0.2485
 3201SOL    HW121257   6.665   9.030   7.779 -1.1703  1.0039 -1.4858
 3201SOL    HW221258   6.752   9.168   7.777  1.7745 -0.7574  0.8343
 3202SOL     OW21259   4.327   5.125   0.487  0.1926 -0.7821 -0.4701
 3202SOL    HW121260   4.343   5.184   0.566  0.6708  1.0245 -1.8820
 3202SOL    HW221261   4.311   5.031   0.518 -0.9241  0.1292  1.8384
 3203SOL     OW21262   2.828   3.783   3.687  0.1682 -0.0976  0.0763
 3203SOL    HW121263   2.919   3.772   3.727  0.2863  0.5771 -0.0055
 3203SOL    HW221264   2.800   3.879   3.694 -0.6164 -0.3415  0.2727
 3204SOL     OW21265   1.300   6.354   3.417 -0.1538  0.2000  0.3931
 3204SOL    HW121266   1.261   6.264   3.436  1.7642 -0.6765  0.2502
 3204SOL    HW221267   1.315   6.364   3.319  0.7876  0.1775  0.5281
 3205SOL     OW21268   4.109   8.060   5.712  0.1125 -0.0030  0.0746
 3205SOL    HW121269   4.149   8.152   5.717 -1.7778  0.9205 -1.1857
 3205SOL    HW221270   4.154   8.009   5.639  0.0639  0.5055 -0.3207
 3206SOL     OW21271   1.861   4.571   6.371  0.3245  0.2690  0.4948
 3206SOL    HW121272   1.946   4.539   6.330  0.5096  1.1547  0.1682
 3206SOL    HW221273   1.881   4.643   6.437 -0.2118  0.8634  0.0196
 3207SOL     OW21274   9.313   9.302   6.222  0.6056 -0.2802 -0.2118
 3207SOL    HW121275   9.270   9.216   6.193 -1.0804 -0.0053  1.3982
 3207SOL    HW221276   9.398   9.281   6.271 -0.0720 -1.0621  0.6375
 3208SOL     OW21277   1.693   9.241   0.844  0.4597  0.3863 -0.0080
 3208SOL    HW121278   1.762   9.235   0.916  0.5184  1.2283  0.0120
 3208SOL    HW221279   1.603   9.254   0.884  0.1662 -1.5855 -0.0027
 3209SOL     OW21280   9.916   8.754   0.301  0.4348 -0.0831 -0.8976
 3209SOL    HW121281  10.006   8.775   0.338 -0.9213  2.3985  1.1355
 3209SOL    HW221282   9.888   8.828   0.239 -1.2646  0.5125  0.5336
 3210SOL     OW21283   7.575   7.795   7.089  0.2016  0.4801 -0.0577
 3210SOL    HW121284   7.526   7.881   7.107  1.6915  1.2808  0.2860
 3210SOL    HW221285   7.673   7.813   7.087  0.6205 -1.4979  1.5425
 3211SOL     OW21286   0.059   0.274   2.455  0.2205 -0.0099 -0.1671
 3211SOL    HW121287   0.000   0.334   2.508  0.2776  0.4541 -0.6291
 3211SOL    HW221288   0.076   0.190   2.507 -1.4845 -0.4954 -0.3540
 3212SOL     OW21289   9.702   9.444   6.080  0.2075  0.0452  0.0316
 3212SOL    HW121290   9.690   9.466   5.983  0.9553 -2.5813 -0.7208
 3212SOL    HW221291   9.655   9.512   6.136 -0.5319  1.4179 -2.1821
 3213SOL     OW21292   9.287   5.580   3.802 -0.4809  0.5930  0.0948
 3213SOL    HW121293   9.337   5.532   3.730 -1.2364  0.7379 -0.5430
 3213SOL    HW221294   9.350   5.636   3.855  0.3403 -0.7642  0.5781
 3214SOL     OW21295   2.102   5.420   5.090 -0.4906 -0.0178 -1.0251
 3214SOL    HW121296   2.105   5.340   5.150  0.8647  1.8335  1.4582
 3214SOL    HW221297   2.065   5.498   5.139  1.2070  1.6998 -2.3887
 3215SOL     OW21298   6.584   4.291   0.660  0.4880 -0.2779 -1.3046
 3215SOL    HW121299   6.485   4.302   0.667  0.5204 -0.8882  0.5020
 3215SOL    HW221300   6.608   4.194   0.673  1.5586  0.3599  2.1977
 3216SOL     OW21301   1.166   7.890   1.298 -0.3124 -0.1483 -0.3024
 3216SOL    HW121302   1.143   7.794   1.308 -0.3617 -0.2015 -0.9245
 3216SOL    HW221303   1.121   7.943   1.370  0.3089 -0.6803  0.4841
 3217SOL     OW21304   4.524   0.736   1.920  0.6417  0.1162  0.1699
 3217SOL    HW121305   4.474   0.715   2.004 -0.4594  0.7695 -0.3121
 3217SOL    HW221306   4.597   0.801   1.939  1.9828 -1.5910  1.0637
 3218SOL     OW21307   4.026   7.896   5.144  0.4896 -0.0189 -0.7145
 3218SOL    HW121308   4.019   7.872   5.048  0.1685 -1.1147 -0.4242
 3218SOL    HW221309   4.118   7.876   5.178  0.9247  1.3553 -1.0475
 3219SOL     OW21310   4.492   3.590   6.696  0.0807 -0.2310 -0.5238
 3219SOL    HW121311   4.452   3.610   6.785 -0.4126  1.0872 -1.0215
 3219SOL    HW221312   4.428   3.616   6.624  0.3819 -1.4886 -1.2710
 3220SOL     OW21313   9.960   8.743   7.624 -0.1849 -0.5921  0.3994
 3220SOL    HW121314  10.012   8.682   7.683  1.2526  0.0763 -0.1477
 3220SOL    HW221315  10.001   8.835   7.626 -0.7591 -0.2939 -0.7878
 3221SOL     OW21316   7.011   1.605   4.032 -0.2537 -0.3559  0.1784
 3221SOL    HW121317   6.956   1.523   4.047  0.1326 -0.6795 -0.1412
 3221SOL    HW221318   6.957   1.673   3.982 -0.6389 -0.3349  0.6212
 3222SOL     OW21319   2.475   1.673   4.993 -0.5455  0.2895  0.6687
 3222SOL    HW121320   2.552   1.610   5.006 -2.0952 -1.8578 -0.3671
 3222SOL    HW221321   2.509   1.757   4.951  1.6986  0.5386  2.8545
 3223SOL     OW21322   3.974   8.159   2.440  0.3329  0.1285  0.3036
 3223SOL    HW121323   3.998   8.115   2.354 -0.4215 -0.6679  0.4790
 3223SOL    HW221324   3.881   8.131   2.466 -0.1398  1.8038  0.4543
 3224SOL     OW21325   4.407   4.484   6.140 -0.1661 -0.5015  0.2410
 3224SOL    HW121326   4.410   4.549   6.064 -0.0533 -0.4776  0.2669
 3224SOL    HW221327   4.393   4.392   6.104 -3.3217 -0.1412  0.3517
 3225SOL     OW21328   7.721   2.682   0.519 -0.1173 -0.0535  0.1148
 3225SOL    HW121329   7.650   2.752   0.511  0.9928  1.1344  0.3519
 3225SOL    HW221330   7.802   2.722   0.562  1.2707 -0.9446 -1.5964
 3226SOL     OW21331   7.807   6.051   6.277  0.2644  0.7923  0.5379
 3226SOL    HW121332   7.774   6.058   6.183 -1.7668  0.2412  1.1810
 3226SOL    HW221333   7.890   6.105   6.288 -0.0617  1.6942 -1.3194
 3227SOL     OW21334   0.268   2.862   6.113  0.4176  0.9054  0.2164
 3227SOL    HW121335   0.226   2.916   6.040  0.9574  0.1413 -0.6859
 3227SOL    HW221336   0.337   2.916   6.160 -0.8493  1.8386  1.0416
 3228SOL     OW21337   1.001   9.009   7.625 -0.2138 -0.1395 -0.1222
 3228SOL    HW121338   1.071   9.056   7.571 -0.2866  1.1943  0.9392
 3228SOL    HW221339   0.996   8.914   7.595  1.6392 -0.1117 -0.6180
 3229SOL     OW21340   4.553   7.943   2.482 -0.0472 -0.1425  0.1582
 3229SOL    HW121341   4.545   8.026   2.537 -0.9828  0.1961 -0.4727
 3229SOL    HW221342   4.594   7.871   2.537 -0.4746  0.3449  1.1361
 3230SOL     OW21343   3.602   9.619   7.460 -0.0382 -0.1428  0.5933
 3230SOL    HW121344   3.633   9.567   7.540  1.9393 -2.1947 -1.4337
 3230SOL    HW221345   3.668   9.693   7.442  2.1351 -2.5798 -1.8588
 3231SOL     OW21346   2.457   3.869   1.886 -0.2496 -0.1014 -0.7238
 3231SOL    HW121347   2.494   3.813   1.961 -1.3651 -0.0029 -0.0829
 3231SOL    HW221348   2.530   3.924   1.847  0.6238 -1.1182 -0.5710
 3232SOL     OW21349   1.180   2.929   5.531  0.3687 -0.2851 -0.6524
 3232SOL    HW121350   1.266   2.980   5.538  0.7339 -1.0864  0.7785
 3232SOL    HW221351   1.103   2.994   5.529  0.9060  0.3694 -0.2557
 3233SOL     OW21352   0.860   4.646   4.377  0.2224 -0.0369 -0.4537
 3233SOL    HW121353   0.842   4.726   4.435 -1.7716  0.2936 -1.5161
 3233SOL    HW221354   0.814   4.566   4.416  0.9482 -0.3598 -0.2412
 3234SOL     OW21355   0.306   6.257   2.062  0.5199 -0.4446  0.0374
 3234SOL    HW121356   0.237   6.188   2.039 -0.1814 -0.0373  0.8626
 3234SOL    HW221357   0.278   6.346   2.027  0.0836 -0.0733  1.2940
 3235SOL     OW21358   9.074   6.503   7.217 -0.0045  0.1548  0.2299
 3235SOL    HW121359   9.155   6.496   7.276 -0.1760  1.1594  0.5815
 3235SOL    HW221360   8.991   6.501   7.273 -0.1838  0.6360 -0.0152
 3236SOL     OW21361   0.894   4.269   2.901  0.2295 -0.1820  0.2892
 3236SOL    HW121362   0.807   4.256   2.948  1.2986  1.4283  2.8130
 3236SOL    HW221363   0.922   4.365   2.908  2.6393 -0.8571  0.2750
 3237SOL     OW21364   0.478   6.336   2.855  0.1340 -0.0747  0.1966
 3237SOL    HW121365   0.540   6.260   2.875 -2.7713 -2.8117 -0.6077
 3237SOL    HW221366   0.461   6.340   2.757 -2.8453 -1.0420  0.6061
 3238SOL     OW21367   0.559   1.532   7.758  0.0735  0.2070 -0.1119
 3238SOL    HW121368   0.531   1.470   7.831  0.2470 -0.3717 -0.5404
 3238SOL    HW221369   0.484   1.543   7.693  0.9038 -1.5793 -1.4234
 3239SOL     OW21370   7.720   3.358   6.347 -0.1286 -0.7873 -0.1973
 3239SOL    HW121371   7.659   3.279   6.337 -0.4057 -0.8274  1.5914
 3239SOL    HW221372   7.737   3.374   6.444  0.8818  0.6379 -0.5986
 3240SOL     OW21373   2.141   6.149   6.708 -0.2191 -0.1146 -0.0189
 3240SOL    HW121374   2.077   6.197   6.768  0.8065  0.0527  0.9769
 3240SOL    HW221375   2.232   6.149   6.751  0.4622 -0.2588 -1.4489
 3241SOL     OW21376   6.514   7.898   2.443 -0.8405 -0.0169  0.0752
 3241SOL    HW121377   6.612   7.883   2.429 -0.4119  0.7111  2.1786
 3241SOL    HW221378   6.480   7.834   2.512 -1.0986  1.9689  1.8523
 3242SOL     OW21379   0.165   0.914   1.250 -0.6591  0.7115  0.3124
 3242SOL    HW121380   0.121   0.832   1.287  0.7723 -0.3265 -0.2555
 3242SOL    HW221381   0.118   0.941   1.165 -0.4631 -0.1462 -0.0749
 3243SOL     OW21382   1.717   4.379   1.588  1.0805  0.1921  0.2435
 3243SOL    HW121383   1.809   4.347   1.611  0.0723 -1.6784  1.7540
 3243SOL    HW221384   1.672   4.412   1.671  0.8571  2.3765 -0.7186
 3244SOL     OW21385   2.951   2.167   4.168 -0.0286  0.3729 -0.7607
 3244SOL    HW121386   2.939   2.241   4.101 -0.7505  0.2744 -0.7387
 3244SOL    HW221387   3.019   2.102   4.133 -1.5588 -0.5410 -2.1640
 3245SOL     OW21388   6.006   1.793   2.151  0.2039 -0.0883  0.3737
 3245SOL    HW121389   6.063   1.712   2.141  0.3678  0.1863 -0.9699
 3245SOL    HW221390   5.914   1.766   2.179 -0.1159 -0.8539 -1.3726
 3246SOL     OW21391   1.959   3.749   1.798 -0.2540 -0.1368 -0.0030
 3246SOL    HW121392   2.040   3.764   1.855  0.4566  0.4136 -1.1414
 3246SOL    HW221393   1.879   3.789   1.843 -0.1538 -1.8346  1.7572
 3247SOL     OW21394   8.021   6.527   1.925 -0.1438 -0.2640 -0.1666
 3247SOL    HW121395   7.951   6.503   1.993 -1.7383  0.7908 -1.3823
 3247SOL    HW221396   8.007   6.473   1.842 -0.0766  0.5862 -0.7398
 3248SOL     OW21397   2.093   1.329   5.514 -0.2982  0.7570  0.5912
 3248SOL    HW121398   2.116   1.235   5.536 -2.3350 -0.3143 -1.6098
 3248SOL    HW221399   2.029   1.366   5.582  0.7797  0.6830  1.6471
 3249SOL     OW21400   7.254   1.099   0.591  0.0010  0.7366 -0.3057
 3249SOL    HW121401   7.250   1.111   0.690 -0.9204  4.9549 -0.7537
 3249SOL    HW221402   7.176   1.043   0.562  0.9402 -1.5504  1.4354
 3250SOL     OW21403   5.815   5.413   1.019  0.3684 -0.6510 -1.2461
 3250SOL    HW121404   5.790   5.334   0.962 -0.4394 -0.8788 -0.5849
 3250SOL    HW221405   5.732   5.461   1.048  0.8307  0.1593 -1.2323
 3251SOL     OW21406   6.925   4.371   2.165  0.1661  0.2014  0.0455
 3251SOL    HW121407   6.971   4.322   2.239  1.2260  0.9629 -0.0995
 3251SOL    HW221408   6.958   4.465   2.162  0.2224  0.1376 -1.4804
 3252SOL     OW21409   8.342   9.024   1.812 -0.1913  0.1002  0.0981
 3252SOL    HW121410   8.365   9.055   1.720 -2.5713 -0.1182 -0.6131
 3252SOL    HW221411   8.252   8.982   1.811  1.0523 -2.7202  1.9479
 3253SOL     OW21412   9.516   8.259   7.983 -0.6578 -0.5169 -0.1006
 3253SOL    HW121413   9.521   8.358   8.001  1.8058 -0.8157  1.0548
 3253SOL    HW221414   9.560   8.209   8.058 -2.4574 -2.5515 -0.3603
 3254SOL     OW21415   0.609   7.052   7.930  0.2258 -0.1309 -0.3822
 3254SOL    HW121416   0.571   7.010   7.848 -0.2199  1.1176 -0.8238
 3254SOL    HW221417   0.696   7.009   7.952  0.3335 -0.4995 -1.5040
 3255SOL     OW21418   2.892   0.023   2.483  0.5768 -0.0231  0.8321
 3255SOL    HW121419   2.967   0.081   2.512  0.1840  0.0687  1.6716
 3255SOL    HW221420   2.920  -0.073   2.485  0.2716 -0.0856  2.3888
 3256SOL     OW21421   4.065   2.574   3.240 -0.0598  0.0348 -0.0945
 3256SOL    HW121422   4.109   2.663   3.226 -2.1354  1.3280  1.3502
 3256SOL    HW221423   3.968   2.581   3.218  0.2237 -2.5518 -2.3506
 3257SOL     OW21424   4.041   8.379   6.326  0.3111  0.3014 -0.2467
 3257SOL    HW121425   3.952   8.421   6.340 -0.2167 -0.3158 -1.6752
 3257SOL    HW221426   4.030   8.291   6.279  1.6185 -0.0852  0.1343
 3258SOL     OW21427   0.126   4.707   6.052  0.0996  0.3460 -0.1773
 3258SOL    HW121428   0.164   4.649   6.125  0.3181  0.2017 -0.4025
 3258SOL    HW221429   0.027   4.707   6.057  0.0142 -1.5611 -1.3209
 3259SOL     OW21430   2.210   3.137   0.698  0.3744  0.3432 -0.1427
 3259SOL    HW121431   2.142   3.090   0.641 -0.0448  0.6934  0.0647
 3259SOL    HW221432   2.233   3.225   0.657  0.5329  0.3238 -0.0954
 3260SOL     OW21433   4.175   4.554   7.623  0.3125  0.6321  0.3777
 3260SOL    HW121434   4.141   4.507   7.704  0.9375  0.0209  0.2871
 3260SOL    HW221435   4.102   4.561   7.555  0.4428 -0.9080  0.0737
 3261SOL     OW21436   9.025   3.809   7.655  0.3914 -0.7358  0.4664
 3261SOL    HW121437   8.958   3.763   7.597 -1.2197  0.9096  0.9849
 3261SOL    HW221438   8.988   3.820   7.747  1.9737 -1.1337  1.1765
 3262SOL     OW21439   7.182   6.814   3.181  0.4817 -0.3401 -0.0218
 3262SOL    HW121440   7.098   6.868   3.178  0.5521 -0.1799  0.6399
 3262SOL    HW221441   7.222   6.809   3.090  1.3248  2.0849  0.1785
 3263SOL     OW21442   7.441   6.018   7.175 -0.0694 -0.0035 -0.0540
 3263SOL    HW121443   7.442   5.936   7.117 -1.2690  1.4099 -2.1286
 3263SOL    HW221444   7.349   6.031   7.211  0.2055  0.2382  0.5564
 3264SOL     OW21445   6.465   0.626   4.633  0.4454 -0.2603  0.1707
 3264SOL    HW121446   6.417   0.683   4.566 -0.7099 -0.5469  0.7483
 3264SOL    HW221447   6.531   0.683   4.682 -1.8313  1.0066  1.8743
 3265SOL     OW21448   2.869   5.999   1.304 -0.6821 -0.2102  0.4508
 3265SOL    HW121449   2.815   6.030   1.382 -0.5426 -2.5890  1.5581
 3265SOL    HW221450   2.813   6.001   1.222 -1.8881 -0.8441  1.2358
 3266SOL     OW21451   3.625   6.005   0.187 -0.0961 -0.1439 -0.4112
 3266SOL    HW121452   3.530   6.030   0.169 -0.7798 -2.1173  0.2642
 3266SOL    HW221453   3.653   5.932   0.124 -0.2518 -2.1351  1.7143
 3267SOL     OW21454   1.156   4.369   3.756  0.5403  0.4912 -1.2644
 3267SOL    HW121455   1.213   4.448   3.779  2.3286 -0.4606 -2.3152
 3267SOL    HW221456   1.120   4.328   3.839  0.8526  1.4985 -0.6267
 3268SOL     OW21457   2.678   4.818   0.762 -0.1341  0.2886  0.3882
 3268SOL    HW121458   2.653   4.758   0.686 -1.4493  1.1775  0.1007
 3268SOL    HW221459   2.603   4.882   0.781  0.5761  0.7487  1.7764
 3269SOL     OW21460   4.086   0.360   5.124  0.0986  0.0317  0.4088
 3269SOL    HW121461   4.163   0.406   5.168 -0.3605 -0.2736  1.5480
 3269SOL    HW221462   4.074   0.396   5.032  1.6843 -0.0079  0.1780
 3270SOL     OW21463   1.456   7.667   4.083 -0.1998 -0.8764  0.5317
 3270SOL    HW121464   1.411   7.578   4.072 -0.7983 -0.7527  1.7995
 3270SOL    HW221465   1.496   7.695   3.996 -0.5215 -2.1058 -0.0345
 3271SOL     OW21466   9.807   0.292   1.954 -0.5465  0.4192 -0.1703
 3271SOL    HW121467   9.752   0.373   1.973 -0.2662  0.3735  0.8758
 3271SOL    HW221468   9.886   0.290   2.015  0.7382  0.5916 -1.7933
 3272SOL     OW21469   1.057   2.023   4.057 -0.0732  0.1325  0.0043
 3272SOL    HW121470   1.043   1.957   4.130  0.9761 -1.5174 -1.2272
 3272SOL    HW221471   1.082   1.974   3.973 -1.4048  1.9611 -1.4889
 3273SOL     OW21472   2.704   1.146   3.999 -0.2285  0.2575 -0.2809
 3273SOL    HW121473   2.721   1.144   4.097 -0.0591 -0.1151 -0.3188
 3273SOL    HW221474   2.659   1.062   3.970  0.7838 -0.1426 -0.7190
 3274SOL     OW21475   8.685   5.702   7.898 -0.3514  0.2044  0.4171
 3274SOL    HW121476   8.656   5.667   7.987  1.5114  1.0851  1.4073
 3274SOL    HW221477   8.759   5.645   7.862 -0.0196  0.7719  0.1909
 3275SOL     OW21478   8.149   9.108   0.856  0.5186 -0.1797 -0.2502
 3275SOL    HW121479   8.216   9.104   0.929 -0.4790 -0.1658  0.6743
 3275SOL    HW221480   8.075   9.043   0.875  0.1881 -0.0824 -1.1717
 3276SOL     OW21481   0.547   2.440   6.416  0.0214  0.5703 -1.1667
 3276SOL    HW121482   0.584   2.380   6.345  0.4487 -1.4295  0.7011
 3276SOL    HW221483   0.608   2.518   6.430  2.4311 -1.4881  0.2650
 3277SOL     OW21484   1.862   9.898   6.682 -0.7121 -0.0215 -0.0002
 3277SOL    HW121485   1.791   9.965   6.661  1.3525  2.5575  0.9745
 3277SOL    HW221486   1.867   9.885   6.781  2.0102  1.9673  0.1739
 3278SOL     OW21487   8.203   6.654   8.482  0.4352 -0.3522 -0.0778
 3278SOL    HW121488   8.149   6.575   8.453  1.6311 -1.6781  1.1460
 3278SOL    HW221489   8.281   6.665   8.420  0.7307 -0.6616  0.2345
 3279SOL     OW21490   7.854   8.174   6.269  0.5431  0.1692  0.3210
 3279SOL    HW121491   7.943   8.178   6.225  1.1944 -0.8028  1.5255
 3279SOL    HW221492   7.823   8.079   6.275  0.0329  0.3756  1.0965
 3280SOL     OW21493   4.884   9.269   7.555  0.1726 -0.5319  0.1033
 3280SOL    HW121494   4.896   9.355   7.505  1.6013  1.3697  3.5494
 3280SOL    HW221495   4.787   9.249   7.564 -0.2630  1.7610  0.8557
 3281SOL     OW21496   8.111   1.512   3.423  0.1445  0.2122 -0.6387
 3281SOL    HW121497   8.101   1.428   3.369 -0.5637 -0.1470  0.0290
 3281SOL    HW221498   8.055   1.504   3.506 -1.0420  1.9350 -1.2646
 3282SOL     OW21499   3.442   3.151   6.730  0.1834  0.0994 -0.4276
 3282SOL    HW121500   3.513   3.122   6.795  0.5557  0.2254 -0.7785
 3282SOL    HW221501   3.484   3.198   6.653 -0.1947 -0.6283 -1.0889
 3283SOL     OW21502   1.723   5.709   1.733 -0.3639 -0.3979  0.3759
 3283SOL    HW121503   1.822   5.715   1.746 -0.5514  2.0764  0.9049
 3283SOL    HW221504   1.703   5.656   1.650  1.4197 -0.1498 -0.2257
 3284SOL     OW21505   4.198   2.704   1.815 -0.2417 -0.0343  0.2738
 3284SOL    HW121506   4.127   2.660   1.760  0.5688 -0.7840 -0.1884
 3284SOL    HW221507   4.158   2.736   1.901 -1.0391 -0.9198  0.2480
 3285SOL     OW21508   0.137   9.362   3.563 -0.0171  0.2203  1.0177
 3285SOL    HW121509   0.143   9.435   3.631  0.3243  0.5966  0.5868
 3285SOL    HW221510   0.049   9.315   3.572  0.4970 -0.4905  2.4715
 3286SOL     OW21511   0.055   9.383   7.741 -0.1110  0.3160 -0.2590
 3286SOL    HW121512  -0.005   9.386   7.821  1.0727  0.1967  0.6343
 3286SOL    HW221513   0.138   9.435   7.760  0.6909 -0.7024 -0.9883
 3287SOL     OW21514   2.964   7.503   2.329  0.2288  0.0462 -0.1373
 3287SOL    HW121515   3.028   7.561   2.280  2.1481 -1.0016  1.0534
 3287SOL    HW221516   2.871   7.520   2.296  1.0739  1.7684 -1.7174
 3288SOL     OW21517   8.358   0.175   7.545 -0.9819  0.1516 -0.0778
 3288SOL    HW121518   8.450   0.197   7.577 -1.2843 -1.1137  1.6928
 3288SOL    HW221519   8.326   0.091   7.588 -2.3243 -0.3466 -1.9651
 3289SOL     OW21520   3.275   0.207   2.074  0.0335 -0.8307  0.1037
 3289SOL    HW121521   3.185   0.247   2.091  0.4069 -0.1605  0.5341
 3289SOL    HW221522   3.344   0.257   2.126  0.9667  0.1166 -1.9588
 3290SOL     OW21523   7.339   5.763   7.388  0.4783 -0.0178  0.1005
 3290SOL    HW121524   7.374   5.710   7.311 -0.5479  0.1660 -0.4987
 3290SOL    HW221525   7.286   5.840   7.355 -1.0482 -0.6625  0.9742
 3291SOL     OW21526   0.114   3.798   0.433  0.4872 -0.2888 -0.6910
 3291SOL    HW121527   0.133   3.740   0.512 -1.6594  0.1887  0.1946
 3291SOL    HW221528   0.201   3.824   0.390  1.5778 -2.2554  0.2396
 3292SOL     OW21529   3.570   3.547   7.767 -0.3034  0.0601 -0.3238
 3292SOL    HW121530   3.496   3.604   7.801 -0.7048 -0.7875  0.2352
 3292SOL    HW221531   3.632   3.525   7.842 -0.7039 -1.0787 -0.3143
 3293SOL     OW21532   4.848   1.689   4.421 -0.5131  0.1422  0.4618
 3293SOL    HW121533   4.859   1.740   4.506 -1.0964  0.4231  0.3730
 3293SOL    HW221534   4.903   1.606   4.424  0.6625  0.9100  0.4987
 3294SOL     OW21535   1.552   9.633   6.221 -0.3233  0.0562  0.5626
 3294SOL    HW121536   1.510   9.543   6.204 -0.4756 -0.0110  1.2574
 3294SOL    HW221537   1.616   9.654   6.147 -0.5482 -0.4691  0.2096
 3295SOL     OW21538   7.587   7.181   5.421 -0.2859 -0.5314 -0.0956
 3295SOL    HW121539   7.602   7.280   5.424  0.6653 -0.6736  0.0389
 3295SOL    HW221540   7.501   7.162   5.373 -1.1461  0.4099  1.0645
 3296SOL     OW21541   2.684   2.026   2.617  0.1677 -0.7520 -0.1949
 3296SOL    HW121542   2.665   1.928   2.625  1.2627 -1.0265 -0.8792
 3296SOL    HW221543   2.696   2.049   2.520 -1.3253  0.2951 -0.1396
 3297SOL     OW21544   4.393   7.269   4.277 -0.0051  0.5775 -0.0605
 3297SOL    HW121545   4.376   7.358   4.234  0.2582  0.5609 -0.2021
 3297SOL    HW221546   4.383   7.277   4.376 -1.4306  0.4374 -0.1685
 3298SOL     OW21547   7.817   7.912   6.241 -0.0182 -0.2570 -0.5438
 3298SOL    HW121548   7.851   7.828   6.198  1.0718  0.1948 -0.5579
 3298SOL    HW221549   7.753   7.887   6.314  2.8259 -1.2742  1.7321
 3299SOL     OW21550   0.664   2.915   6.881 -0.7195 -0.0562 -0.2512
 3299SOL    HW121551   0.718   2.835   6.909  1.1147  0.7064 -1.4760
 3299SOL    HW221552   0.652   2.914   6.782 -2.2577  0.2560 -0.0848
 3300SOL     OW21553   5.773   0.908   6.982 -0.2703  0.3685  0.2732
 3300SOL    HW121554   5.790   1.000   7.016 -0.8247  1.1007 -1.3940
 3300SOL    HW221555   5.807   0.900   6.888  2.6832 -2.0823  1.4427
 3301SOL     OW21556   7.040   2.569   3.826  0.3086 -0.3244  0.5147
 3301SOL    HW121557   6.959   2.548   3.881 -0.6731 -1.1087 -1.2055
 3301SOL    HW221558   7.115   2.508   3.852 -0.3901 -1.2187  0.4553
 3302SOL     OW21559   8.739   9.294   7.258 -0.0994  0.3694 -0.1514
 3302SOL    HW121560   8.831   9.283   7.220  0.2178 -0.0623  0.7199
 3302SOL    HW221561   8.707   9.206   7.294 -0.3176  0.8008  0.7294
 3303SOL     OW21562   1.572   6.469   4.332 -0.0960  0.4780  0.2342
 3303SOL    HW121563   1.552   6.386   4.281 -0.3320  0.7004 -0.0397
 3303SOL    HW221564   1.575   6.449   4.430 -2.5740  0.6020  0.3686
 3304SOL     OW21565   8.457   2.882  10.078 -0.0376  0.3103 -0.5607
 3304SOL    HW121566   8.463   2.944  10.156 -0.1916 -0.0566 -0.2512
 3304SOL    HW221567   8.362   2.857  10.063  0.1687 -1.0426  0.2757
 3305SOL     OW21568   9.508   4.622   3.197  0.5427 -0.1767 -0.0404
 3305SOL    HW121569   9.478   4.711   3.164 -0.1982 -0.9296 -1.4769
 3305SOL    HW221570   9.450   4.592   3.272 -0.6870 -0.4478 -1.0717
 3306SOL     OW21571   5.250   8.966   6.268  0.2078  0.1016 -0.0302
 3306SOL    HW121572   5.184   9.020   6.321 -0.7114 -1.1258  0.0849
 3306SOL    HW221573   5.338   9.013   6.267 -0.3681  1.2138  0.7407
 3307SOL     OW21574   3.621   5.270   4.013 -0.9294  0.3663  0.6138
 3307SOL    HW121575   3.634   5.171   4.008 -0.2734  0.4491  0.6674
 3307SOL    HW221576   3.529   5.293   3.980 -0.5884 -0.1333 -0.7408
 3308SOL     OW21577   5.039   9.106   2.585  0.1106  0.3757  0.1311
 3308SOL    HW121578   5.026   9.018   2.539 -0.8170  0.3213  0.4933
 3308SOL    HW221579   5.066   9.090   2.680 -1.3000  0.4625  0.5606
 3309SOL     OW21580   1.680   7.527   4.408  0.1656  0.2280  0.1653
 3309SOL    HW121581   1.666   7.436   4.371 -1.4921  0.8937 -0.9064
 3309SOL    HW221582   1.720   7.520   4.499  0.5115 -1.5468 -0.1060
 3310SOL     OW21583   6.045   2.191   5.468 -0.3919  0.2785 -0.1241
 3310SOL    HW121584   6.058   2.264   5.534  0.1544 -1.0754  1.3050
 3310SOL    HW221585   6.126   2.182   5.410 -1.0606  1.7804 -1.3292
 3311SOL     OW21586   9.015   2.290   6.141  0.3176  0.6110  0.7283
 3311SOL    HW121587   8.940   2.260   6.199 -0.2644 -0.8872 -0.7743
 3311SOL    HW221588   9.066   2.211   6.108  0.4534  1.4083 -1.0318
 3312SOL     OW21589   3.974   7.148   2.830  0.0367  0.3498  0.2375
 3312SOL    HW121590   3.941   7.071   2.885 -2.9774  3.3401  2.8436
 3312SOL    HW221591   4.061   7.180   2.865 -0.0494 -0.1424  0.8991
 3313SOL     OW21592   6.936   6.575   4.428  0.2716 -0.2664  0.1851
 3313SOL    HW121593   7.008   6.551   4.363 -2.3303 -2.0424 -2.1469
 3313SOL    HW221594   6.962   6.545   4.520  3.2049  0.6664 -0.3030
 3314SOL     OW21595   0.031   0.470   1.123  0.8650 -0.6109  0.1709
 3314SOL    HW121596  -0.047   0.532   1.116  0.9040 -0.7960 -2.1794
 3314SOL    HW221597   0.011   0.398   1.189 -1.1879 -0.9837 -0.8302
 3315SOL     OW21598   8.134   9.043   8.067  0.6517 -0.3046 -0.2254
 3315SOL    HW121599   8.077   8.985   8.126  0.1813  0.0325 -0.3456
 3315SOL    HW221600   8.178   9.114   8.122  0.3482 -0.0943 -0.2546
 3316SOL     OW21601   0.382   1.745   0.339  0.1259 -0.4569 -0.1935
 3316SOL    HW121602   0.342   1.772   0.252  0.9421  0.8828 -0.1630
 3316SOL    HW221603   0.478   1.718   0.325  0.1868 -0.4814  0.2485
 3317SOL     OW21604   3.212   6.068   3.971  0.6556  0.2584  0.2118
 3317SOL    HW121605   3.187   6.015   3.890  0.0738  0.5532  0.2027
 3317SOL    HW221606   3.303   6.107   3.958  0.0246  1.3789 -0.8302
 3318SOL     OW21607   8.871   1.513   4.685  0.2096  0.0579  0.0580
 3318SOL    HW121608   8.828   1.590   4.636 -1.4998 -0.6465  0.4347
 3318SOL    HW221609   8.804   1.470   4.745  1.2034 -1.6298 -0.0113
 3319SOL     OW21610   9.039   9.905   3.665 -0.0954  0.6429 -0.2371
 3319SOL    HW121611   9.048   9.814   3.706  0.0618  0.9768  0.4733
 3319SOL    HW221612   9.095   9.970   3.716 -0.7780  1.2790 -0.2948
 3320SOL     OW21613   3.821   7.173   1.690 -0.0788 -0.7522 -0.0177
 3320SOL    HW121614   3.859   7.136   1.775 -2.5948  0.0404  1.4996
 3320SOL    HW221615   3.787   7.098   1.633  1.3452 -1.2620 -0.2136
 3321SOL     OW21616   3.890   9.985   4.129 -0.1186 -0.4343  0.5542
 3321SOL    HW121617   3.849   9.940   4.209 -1.7380  2.2360  1.2959
 3321SOL    HW221618   3.822   9.989   4.055  0.5033 -0.5092 -0.0294
 3322SOL     OW21619   7.989   3.841   3.159  0.0817 -0.8397  0.6287
 3322SOL    HW121620   7.976   3.887   3.071  1.2300  0.8286  1.3029
 3322SOL    HW221621   8.087   3.829   3.176 -0.0990 -0.3792  2.0527
 3323SOL     OW21622   1.784   1.073   0.476  0.0039 -0.2516 -0.3239
 3323SOL    HW121623   1.736   0.995   0.437 -0.1473  0.0828 -0.8075
 3323SOL    HW221624   1.727   1.116   0.546 -0.1662 -0.1959 -0.4987
 3324SOL     OW21625   3.366   9.909   5.357  0.0371  0.4231  0.1688
 3324SOL    HW121626   3.291   9.851   5.324  0.1538  0.7753 -0.7343
 3324SOL    HW221627   3.361   9.916   5.457 -1.4062  0.8063  0.0890
 3325SOL     OW21628   8.184   7.413   2.726  0.6728  0.2071 -0.7684
 3325SOL    HW121629   8.207   7.436   2.820  0.9185 -0.5526 -0.6370
 3325SOL    HW221630   8.259   7.361   2.685 -0.2933 -1.2839 -0.7015
 3326SOL     OW21631   4.505   1.762   5.629  0.3399 -0.0337 -0.1187
 3326SOL    HW121632   4.453   1.679   5.609 -0.5036  0.3700  0.3431
 3326SOL    HW221633   4.542   1.799   5.544 -1.3000  0.4198 -0.6593
 3327SOL     OW21634   0.635   3.226   1.269  0.7766  0.4017  0.4357
 3327SOL    HW121635   0.562   3.270   1.321  1.8541  1.4434  1.0869
 3327SOL    HW221636   0.622   3.243   1.172  1.9563  3.3855  0.7589
 3328SOL     OW21637   2.822   4.656   7.216 -0.0978  0.1583  0.3151
 3328SOL    HW121638   2.778   4.704   7.293  0.2372 -1.7669  1.7330
 3328SOL    HW221639   2.921   4.665   7.223 -0.0300 -0.7286  0.6051
 3329SOL     OW21640   7.633   9.312   6.735  0.2990 -0.5241  0.3070
 3329SOL    HW121641   7.730   9.316   6.758  0.2333 -0.3013  0.5440
 3329SOL    HW221642   7.623   9.276   6.642  0.6105 -0.5103  0.2654
 3330SOL     OW21643   4.057   2.571   4.487 -0.1165 -0.4385 -0.0839
 3330SOL    HW121644   4.056   2.665   4.522  0.8611 -0.2033 -0.6725
 3330SOL    HW221645   3.991   2.563   4.413  2.0521  0.6695 -2.2342
 3331SOL     OW21646   3.286   3.254   6.936 -0.2910 -0.1506 -0.0911
 3331SOL    HW121647   3.334   3.280   7.020 -0.3154  2.3819 -0.8070
 3331SOL    HW221648   3.350   3.211   6.873  0.6159  1.3341 -0.2146
 3332SOL     OW21649   4.828   8.222   6.319  0.5989  0.2370  0.1114
 3332SOL    HW121650   4.861   8.278   6.244  1.7075 -0.4046  0.1026
 3332SOL    HW221651   4.767   8.275   6.377  0.5334  1.0269 -0.6853
 3333SOL     OW21652   6.458   1.768   6.526  0.1588 -0.2308  0.2589
 3333SOL    HW121653   6.487   1.675   6.547 -1.8433 -1.2534 -1.3415
 3333SOL    HW221654   6.359   1.774   6.529  0.2675  1.9195  0.5523
 3334SOL     OW21655   9.936   4.533   1.206 -0.1915 -0.3157  0.2655
 3334SOL    HW121656   9.936   4.539   1.106 -0.7696  1.2641  0.3602
 3334SOL    HW221657   9.859   4.477   1.236 -3.2585  3.5898  0.0545
 3335SOL     OW21658   1.584   0.126   1.640  0.2936  0.1239 -0.0334
 3335SOL    HW121659   1.563   0.066   1.563  0.9341 -0.1475  0.0006
 3335SOL    HW221660   1.652   0.194   1.611 -0.2961  0.7245 -0.0230
 3336SOL     OW21661   2.539   0.607   2.615  0.6715 -0.0154 -0.1749
 3336SOL    HW121662   2.449   0.565   2.602  0.4866  0.7216 -1.2970
 3336SOL    HW221663   2.586   0.614   2.528  1.6383  0.0128  0.3451
 3337SOL     OW21664   3.174   7.864   6.283  0.0317  0.1996  0.1643
 3337SOL    HW121665   3.191   7.949   6.233 -0.7822 -0.8225 -1.9233
 3337SOL    HW221666   3.157   7.885   6.379  1.5675  2.2344  0.0368
 3338SOL     OW21667   4.696   6.872   4.445  0.2952  0.7314  0.4762
 3338SOL    HW121668   4.704   6.906   4.538  1.3198 -2.3064  1.5541
 3338SOL    HW221669   4.599   6.873   4.418 -0.0055  1.6460  1.5511
 3339SOL     OW21670   9.291   3.628   9.851 -0.0182  0.4717 -0.0308
 3339SOL    HW121671   9.348   3.708   9.830  2.6030 -1.5830 -1.1113
 3339SOL    HW221672   9.266   3.583   9.765 -0.1625 -0.7297  0.6406
 3340SOL     OW21673   7.737   3.635   3.739  0.0746 -0.4073 -0.4899
 3340SOL    HW121674   7.708   3.639   3.644  0.1948  2.5367 -0.4647
 3340SOL    HW221675   7.756   3.728   3.772  1.9040 -1.5431  1.8303
 3341SOL     OW21676   4.000   4.142   7.362  0.5792  0.1392  0.1416
 3341SOL    HW121677   4.059   4.078   7.412  0.4300  0.0076  0.1504
 3341SOL    HW221678   3.966   4.097   7.280  3.4850  1.4418 -1.8418
 3342SOL     OW21679   4.218   7.799   0.004  0.0936 -0.3036  0.1753
 3342SOL    HW121680   4.229   7.897   0.019 -0.6182 -0.1569 -0.2361
 3342SOL    HW221681   4.304   7.761  -0.030 -0.4554  0.7281 -2.5046
 3343SOL     OW21682   0.642   7.870   6.751 -0.2844  0.0507  0.0737
 3343SOL    HW121683   0.603   7.831   6.834 -1.3925 -1.7192 -1.2364
 3343SOL    HW221684   0.741   7.853   6.750 -0.5364 -1.5343  0.1920
 3344SOL     OW21685   9.671   1.990   5.344 -0.1716  0.0872 -0.2698
 3344SOL    HW121686   9.768   1.981   5.319 -0.2092  1.0267 -0.7720
 3344SOL    HW221687   9.637   2.078   5.312 -0.6735  0.6215  1.6877
 3345SOL     OW21688   1.820   5.234   5.229 -0.5048 -0.1204 -0.2691
 3345SOL    HW121689   1.877   5.256   5.308  0.4207  0.3028 -1.0493
 3345SOL    HW221690   1.854   5.281   5.148 -1.3215 -0.7111 -0.9754
 3346SOL     OW21691   0.617   2.014   2.435  0.3011 -0.4814  0.7051
 3346SOL    HW121692   0.622   1.914   2.424 -0.0200 -0.5552  1.1896
 3346SOL    HW221693   0.600   2.056   2.347  0.1098 -0.8839  0.5461
 3347SOL     OW21694   2.626   0.099   3.923 -0.0704  0.5591  0.2003
 3347SOL    HW121695   2.632   0.022   3.860 -1.3868 -1.3093  2.2919
 3347SOL    HW221696   2.706   0.158   3.911  0.4668 -0.5763 -2.1068
 3348SOL     OW21697   9.729   9.041   0.755  0.1813 -0.1903  0.3211
 3348SOL    HW121698   9.750   9.138   0.771 -0.1357 -0.3988  2.0731
 3348SOL    HW221699   9.639   9.020   0.792 -0.4573 -0.7976 -1.5141
 3349SOL     OW21700   9.431   0.324   2.904 -0.2174 -0.3199  0.0713
 3349SOL    HW121701   9.523   0.336   2.943 -0.6117  1.2301  0.5816
 3349SOL    HW221702   9.416   0.394   2.834 -1.0856 -0.4594  0.1183
 3350SOL     OW21703   9.973   6.540   4.631 -0.0515  0.2827 -0.0738
 3350SOL    HW121704   9.963   6.604   4.707 -1.3287  0.3342 -0.2693
 3350SOL    HW221705   9.980   6.447   4.666 -0.9338  0.2786  0.0895
 3351SOL     OW21706   1.912   2.708   1.181 -0.6452 -0.0553 -0.1048
 3351SOL    HW121707   1.841   2.701   1.251 -0.1905  0.2838  0.3944
 3351SOL    HW221708   1.958   2.620   1.173  0.2681  0.3047  1.0594
 3352SOL     OW21709   2.224   7.134   5.769  0.3124 -0.2144 -0.2346
 3352SOL    HW121710   2.128   7.159   5.763  0.5635  0.8358 -0.0128
 3352SOL    HW221711   2.247   7.069   5.697 -0.8246 -1.3441  0.4090
 3353SOL     OW21712   1.827   8.397   4.544  0.4232 -0.3292  0.3243
 3353SOL    HW121713   1.809   8.491   4.517  2.9324  0.5394  1.5496
 3353SOL    HW221714   1.904   8.361   4.491 -0.8576 -1.9350 -0.5446
 3354SOL     OW21715   4.216   7.182   3.508  0.0883  0.3960  0.4692
 3354SOL    HW121716   4.303   7.198   3.461  0.5370 -1.9351  0.4638
 3354SOL    HW221717   4.171   7.101   3.468 -1.1629  0.4390  1.7651
 3355SOL     OW21718   0.445   2.908   5.430  0.1764 -0.0004  0.2653
 3355SOL    HW121719   0.530   2.891   5.380 -0.0472 -1.6219  0.3934
 3355SOL    HW221720   0.441   2.848   5.510 -0.9208  0.3227  0.4648
 3356SOL     OW21721   3.050   8.304   1.544 -0.5121  0.8214  0.3871
 3356SOL    HW121722   2.951   8.312   1.552 -0.6988  1.0707 -1.7948
 3356SOL    HW221723   3.073   8.225   1.486  0.5825  0.3716  1.4100
 3357SOL     OW21724   8.768   8.098   7.867  0.1340 -0.0233 -0.1395
 3357SOL    HW121725   8.832   8.168   7.898 -0.5980  1.2781 -1.4980
 3357SOL    HW221726   8.681   8.108   7.916  0.0368  0.0100 -0.3175
 3358SOL     OW21727   4.504   0.316   4.977  0.6004  0.3439 -0.0929
 3358SOL    HW121728   4.447   0.236   4.998  0.1315  0.4902 -0.8072
 3358SOL    HW221729   4.601   0.291   4.986  0.4392 -0.0017  0.7684
 3359SOL     OW21730   0.192   0.709   6.435 -0.4473 -0.4847 -0.0889
 3359SOL    HW121731   0.220   0.766   6.513  0.1713  1.3201 -1.5774
 3359SOL    HW221732   0.143   0.766   6.369  0.3130 -1.6542 -1.6897
 3360SOL     OW21733   2.056   7.345   1.060 -1.0089 -0.0220 -0.3117
 3360SOL    HW121734   1.985   7.415   1.055 -0.5976  0.4755  0.7659
 3360SOL    HW221735   2.106   7.342   0.973 -0.7496  1.3260 -0.2283
 3361SOL     OW21736   2.410   1.301   0.091  0.3939  0.6940  0.2283
 3361SOL    HW121737   2.461   1.339   0.169 -1.1639  1.4130  0.9127
 3361SOL    HW221738   2.391   1.205   0.108  2.5392  0.0961 -0.5721
 3362SOL     OW21739   9.032   6.446   1.297  0.0415  0.3190 -0.2526
 3362SOL    HW121740   9.097   6.429   1.371  1.6476 -1.4039 -1.9992
 3362SOL    HW221741   9.050   6.536   1.257  1.1552 -0.0031 -0.5024
 3363SOL     OW21742   1.280   9.129   6.176 -0.3030  0.2453 -0.3134
 3363SOL    HW121743   1.191   9.141   6.131  1.2106  0.4091 -3.3613
 3363SOL    HW221744   1.274   9.164   6.270 -2.6384  3.0001 -1.4132
 3364SOL     OW21745   7.821   6.164   1.825 -0.0035  0.4971 -0.1993
 3364SOL    HW121746   7.830   6.128   1.732  1.6536  1.8218 -0.5770
 3364SOL    HW221747   7.771   6.251   1.822  0.0587  0.5435  0.1408
 3365SOL     OW21748   9.628   5.499   1.836 -0.5376 -0.4670  0.0070
 3365SOL    HW121749   9.542   5.508   1.784  0.4789  0.7664 -1.5307
 3365SOL    HW221750   9.615   5.536   1.928 -1.3526  0.7851 -0.5920
 3366SOL     OW21751   3.705   6.212   0.369 -0.8277 -0.0999  0.2859
 3366SOL    HW121752   3.664   6.138   0.315 -0.9652  0.4450 -0.3677
 3366SOL    HW221753   3.662   6.299   0.344  0.3807  0.4109 -0.0535
 3367SOL     OW21754   1.301   3.716   1.745 -0.1142  0.0742 -0.5484
 3367SOL    HW121755   1.226   3.658   1.778  1.2520 -1.0195  0.6897
 3367SOL    HW221756   1.276   3.813   1.757 -1.3135 -0.2749 -0.1536
 3368SOL     OW21757   3.558   8.211   3.289 -0.2197  0.1430  0.3316
 3368SOL    HW121758   3.615   8.137   3.255  1.4394  1.5065  0.0921
 3368SOL    HW221759   3.552   8.206   3.389 -2.1777 -1.7555  0.1604
 3369SOL     OW21760   2.451   8.296   2.939  0.8079  0.1355  0.1801
 3369SOL    HW121761   2.451   8.395   2.924 -0.9354 -0.1573 -1.9345
 3369SOL    HW221762   2.368   8.270   2.989  0.6044 -0.4186 -0.4419
 3370SOL     OW21763   6.899   4.241   2.461 -0.4423  0.1141 -0.4412
 3370SOL    HW121764   6.907   4.178   2.539  1.1526  0.1734 -0.5379
 3370SOL    HW221765   6.833   4.313   2.483  0.5869  0.5871  1.1998
 3371SOL     OW21766   0.789   9.544   7.270  0.0650 -0.4156 -0.4531
 3371SOL    HW121767   0.812   9.506   7.180 -0.1532 -1.4953 -0.0577
 3371SOL    HW221768   0.788   9.471   7.338  0.5296  0.4549  0.4901
 3372SOL     OW21769   5.630   1.046   2.191  0.1202 -0.0360  0.2681
 3372SOL    HW121770   5.563   0.981   2.225  0.2884  0.0532  0.7768
 3372SOL    HW221771   5.718   1.030   2.235  0.5229 -0.3635 -0.6381
 3373SOL     OW21772   2.949   1.543   3.016  0.4293 -0.1083  0.4164
 3373SOL    HW121773   2.951   1.447   2.988 -1.0295  0.1410 -0.5976
 3373SOL    HW221774   2.882   1.556   3.089  0.0374  0.2768 -0.0074
 3374SOL     OW21775   0.051   8.506   2.505  0.1847 -0.3137  0.5170
 3374SOL    HW121776   0.150   8.493   2.514  0.7884  2.4517 -1.6426
 3374SOL    HW221777   0.027   8.517   2.409 -2.0507  0.5278  1.1345
 3375SOL     OW21778   3.347   0.983   4.679  0.1045 -0.1244 -0.2081
 3375SOL    HW121779   3.310   0.991   4.586  0.0923 -1.3036 -0.3044
 3375SOL    HW221780   3.310   1.057   4.735 -1.9286 -0.8986 -0.4737
 3376SOL     OW21781   7.988   4.572   1.949  0.1769 -0.7110  0.3307
 3376SOL    HW121782   8.023   4.525   1.868  1.0088  2.1373 -1.0209
 3376SOL    HW221783   8.049   4.555   2.027  1.5246 -0.2983 -0.6242
 3377SOL     OW21784   8.642   9.515   0.949 -0.0096  0.0007  0.2994
 3377SOL    HW121785   8.669   9.602   0.909  1.0465 -0.5101 -0.1111
 3377SOL    HW221786   8.569   9.530   1.016 -0.0154  1.1576  0.0358
 3378SOL     OW21787   4.196   6.277   3.426 -0.6242  0.2032  0.4819
 3378SOL    HW121788   4.162   6.349   3.486 -0.7771  0.1566  0.4512
 3378SOL    HW221789   4.124   6.250   3.362 -1.1678 -1.2337  1.6591
 3379SOL     OW21790   0.948   8.656   3.340 -0.1972 -0.5407  0.4192
 3379SOL    HW121791   0.878   8.704   3.286 -0.6471  0.0174  1.4782
 3379SOL    HW221792   0.910   8.569   3.373  0.3711 -1.2867 -0.8899
 3380SOL     OW21793   8.872   0.071   7.893 -0.3529  0.0997  0.2143
 3380SOL    HW121794   8.893  -0.026   7.895 -0.9203 -0.0752 -1.4444
 3380SOL    HW221795   8.778   0.085   7.861 -0.9297  1.1212  2.2285
 3381SOL     OW21796   6.214   4.968   0.647 -0.2215 -0.1694  0.3129
 3381SOL    HW121797   6.173   4.981   0.738  1.0875  0.9256  0.7657
 3381SOL    HW221798   6.195   5.049   0.591 -1.5452 -1.1054 -0.5980
 3382SOL     OW21799   6.501   2.172   2.007  0.3770  0.1956 -0.4717
 3382SOL    HW121800   6.573   2.148   1.942 -0.2453 -0.1603 -1.0299
 3382SOL    HW221801   6.515   2.265   2.039  0.6587  0.3922 -1.1539
 3383SOL     OW21802   7.309   5.550   0.250  0.1707 -0.2932  0.2834
 3383SOL    HW121803   7.377   5.533   0.321  0.5444 -1.2390 -0.2838
 3383SOL    HW221804   7.220   5.565   0.293  0.4935 -0.3216  0.9762
 3384SOL     OW21805   2.996   8.248   1.046  0.0379  0.7069  0.4491
 3384SOL    HW121806   3.018   8.270   0.951  0.1257  1.3200  0.6076
 3384SOL    HW221807   3.039   8.161   1.071 -0.0826  0.4855 -0.1058
 3385SOL     OW21808   4.407   5.921   3.421 -0.0018  0.2412  0.2038
 3385SOL    HW121809   4.393   5.989   3.349 -1.0207 -1.3933 -1.1862
 3385SOL    HW221810   4.492   5.941   3.471 -0.7736  3.0502  0.4504
 3386SOL     OW21811   9.601   6.966   6.170  0.2894 -0.1357  0.1073
 3386SOL    HW121812   9.582   6.952   6.267  0.1776 -0.0219  0.1029
 3386SOL    HW221813   9.590   7.063   6.148  2.5082  0.2086  0.4600
 3387SOL     OW21814   1.449   1.863   2.593 -0.3167  0.2780  0.2658
 3387SOL    HW121815   1.522   1.796   2.585  0.8219  1.1830  2.6132
 3387SOL    HW221816   1.448   1.921   2.511  3.4963  2.0757  1.3739
 3388SOL     OW21817   7.106   7.684   2.275 -0.5950  0.5967 -0.0010
 3388SOL    HW121818   7.115   7.614   2.204  1.5869 -0.8110  1.5802
 3388SOL    HW221819   7.086   7.772   2.233 -1.6434 -0.6298 -2.1696
 3389SOL     OW21820   4.427   8.854   4.680 -0.0715 -0.1039 -0.1622
 3389SOL    HW121821   4.519   8.881   4.652  0.1026  0.2711  0.7522
 3389SOL    HW221822   4.360   8.887   4.613  0.4232 -0.0975 -0.6573
 3390SOL     OW21823   1.443   2.509   3.745  0.1624 -0.0517 -0.2414
 3390SOL    HW121824   1.436   2.465   3.834  1.7668  0.8996  0.3782
 3390SOL    HW221825   1.407   2.602   3.750  1.6900  0.5576 -0.1541
 3391SOL     OW21826   2.746   4.640   6.571 -0.3991  0.4352  0.0407
 3391SOL    HW121827   2.742   4.640   6.471 -0.9835  0.6771  0.0669
 3391SOL    HW221828   2.804   4.564   6.602  1.9634  1.9422 -0.5679
 3392SOL     OW21829   1.143   3.886   1.372  0.0407  0.2679  0.3882
 3392SOL    HW121830   1.109   3.904   1.280 -2.9455  0.4831  1.4580
 3392SOL    HW221831   1.204   3.960   1.400 -0.5334  1.1737 -0.7199
 3393SOL     OW21832   6.224   7.327   2.849  0.4415 -0.1069  0.3605
 3393SOL    HW121833   6.244   7.330   2.947  0.7754 -2.5258  0.3971
 3393SOL    HW221834   6.154   7.257   2.832  0.0423  0.6346 -1.0695
 3394SOL     OW21835   4.605   9.756   1.910  0.4525  0.2979 -0.1367
 3394SOL    HW121836   4.675   9.782   1.977  0.6656 -0.9423  0.1301
 3394SOL    HW221837   4.586   9.659   1.918 -2.2679  0.8415  0.7126
 3395SOL     OW21838   6.811   8.448   7.465 -0.1638 -0.2608 -0.4441
 3395SOL    HW121839   6.878   8.406   7.526  1.1769  0.9615 -1.0571
 3395SOL    HW221840   6.736   8.485   7.519  0.3367 -0.3874  0.3557
 3396SOL     OW21841   5.450   2.808   4.871  0.2864 -0.1063  0.5833
 3396SOL    HW121842   5.381   2.880   4.867  0.0552 -0.3647 -0.2247
 3396SOL    HW221843   5.541   2.847   4.853  0.2375  0.0837  0.7503
 3397SOL     OW21844   1.689   9.186   2.423  0.1871 -0.0676  0.7071
 3397SOL    HW121845   1.616   9.240   2.381 -0.1433 -1.2222 -0.2143
 3397SOL    HW221846   1.771   9.191   2.367 -0.4223 -2.0628 -0.4242
 3398SOL     OW21847   8.974   8.556   2.391  0.4036 -0.0583  0.0444
 3398SOL    HW121848   8.919   8.611   2.454 -0.3194 -1.6053  0.7985
 3398SOL    HW221849   9.012   8.477   2.440  0.3526 -0.9433 -1.3006
 3399SOL     OW21850   3.890   4.294   1.751  0.6672 -0.5017  0.7107
 3399SOL    HW121851   3.975   4.346   1.744 -0.1871  0.7911 -0.1771
 3399SOL    HW221852   3.890   4.242   1.836  1.1657  1.6212  2.0416
 3400SOL     OW21853   5.230   8.777   7.717 -0.0739  0.1102  0.3958
 3400SOL    HW121854   5.280   8.862   7.700 -0.0027 -0.1265 -0.5829
 3400SOL    HW221855   5.286   8.717   7.774  2.3152 -1.6108 -3.5728
 3401SOL     OW21856   7.329   3.700   3.065 -0.1413 -0.1943  0.0577
 3401SOL    HW121857   7.242   3.747   3.081 -0.5319 -0.8526 -0.0986
 3401SOL    HW221858   7.398   3.735   3.127 -0.1574  1.3181 -0.7415
 3402SOL     OW21859   2.864   2.653   7.868 -0.3680  0.1867  0.3817
 3402SOL    HW121860   2.920   2.728   7.902 -2.1302  1.3700  0.7227
 3402SOL    HW221861   2.901   2.621   7.780  0.6889  1.1059  0.4824
 3403SOL     OW21862   1.985   1.416   0.561  0.0565 -0.0786 -0.1970
 3403SOL    HW121863   1.935   1.406   0.647  0.9671  1.1923  0.4974
 3403SOL    HW221864   1.933   1.474   0.499  0.1750  0.3945  0.1390
 3404SOL     OW21865   8.386   9.968   3.802  0.0820  0.0609 -0.0064
 3404SOL    HW121866   8.424   9.893   3.747  1.2034  1.6681 -1.4629
 3404SOL    HW221867   8.343   9.930   3.884  2.8542 -1.9729  0.5585
 3405SOL     OW21868   3.958   3.847   0.281  0.2422 -0.9419 -0.4133
 3405SOL    HW121869   3.919   3.929   0.238  0.4276 -0.9592 -0.6157
 3405SOL    HW221870   3.910   3.828   0.367  1.1309  0.1928  0.3441
 3406SOL     OW21871   3.745   3.235   0.383 -0.1124 -0.1399 -0.2906
 3406SOL    HW121872   3.826   3.193   0.424 -0.6397 -0.9390 -0.0741
 3406SOL    HW221873   3.663   3.191   0.417 -0.7918  2.4712  1.6237
 3407SOL     OW21874   1.394   6.588   6.511  0.4966  0.2793 -0.7676
 3407SOL    HW121875   1.436   6.497   6.522  1.1655  0.6803  0.1148
 3407SOL    HW221876   1.299   6.578   6.482 -1.3106 -0.9871  4.8066
 3408SOL     OW21877   5.223   9.997   3.730 -0.3821 -0.2221  0.5082
 3408SOL    HW121878   5.296  10.066   3.724 -0.4581 -0.2081 -0.3075
 3408SOL    HW221879   5.135  10.043   3.741 -0.3228 -0.2270  1.0456
 3409SOL     OW21880   2.311   1.639   3.852 -0.0843  0.8369 -0.6647
 3409SOL    HW121881   2.258   1.566   3.808  0.2890 -1.0797  1.8831
 3409SOL    HW221882   2.408   1.625   3.834  0.3096 -1.4286  2.5703
 3410SOL     OW21883   5.664   0.072   6.184  0.1967 -0.4218 -0.7084
 3410SOL    HW121884   5.676   0.007   6.260 -0.1219  0.1702 -0.1404
 3410SOL    HW221885   5.575   0.056   6.141 -0.2881  0.2520  0.0355
 3411SOL     OW21886   7.252   0.822   0.845 -0.4359  0.7291  0.9506
 3411SOL    HW121887   7.233   0.917   0.821 -0.2321  0.8906  1.4357
 3411SOL    HW221888   7.347   0.814   0.877 -0.2628  0.2592  0.3434
 3412SOL     OW21889   9.742   3.446   1.921 -0.4877  0.2124  0.2242
 3412SOL    HW121890   9.688   3.486   1.995  0.3322  0.1355  0.8674
 3412SOL    HW221891   9.691   3.371   1.879 -1.5108  1.1260 -0.1640
 3413SOL     OW21892   2.364   4.018   0.649  0.2127 -0.3872  0.2919
 3413SOL    HW121893   2.416   4.014   0.564  1.6382  2.2131  0.9908
 3413SOL    HW221894   2.427   4.030   0.726 -1.1344 -1.5310  1.6100
 3414SOL     OW21895   9.660   5.701   0.548 -0.3807  0.4549  0.2173
 3414SOL    HW121896   9.589   5.758   0.589 -1.1092 -1.2496  1.3741
 3414SOL    HW221897   9.619   5.630   0.492  0.2736 -1.6836  2.3627
 3415SOL     OW21898   9.613   8.565   2.565 -0.3654 -0.1378 -0.2599
 3415SOL    HW121899   9.667   8.595   2.487  0.0151 -2.4990 -0.9509
 3415SOL    HW221900   9.672   8.554   2.645 -0.5417  1.0531  0.0553
 3416SOL     OW21901   0.846   3.779   7.863 -0.1206 -0.5644 -0.4429
 3416SOL    HW121902   0.927   3.762   7.807  2.9231  0.5220  3.4271
 3416SOL    HW221903   0.846   3.716   7.941 -2.3316  0.2973  0.2887
 3417SOL     OW21904   6.788   1.265   4.858 -0.3591 -0.4803  0.0001
 3417SOL    HW121905   6.694   1.298   4.852 -0.9086 -2.0584 -0.3354
 3417SOL    HW221906   6.792   1.188   4.922  0.7089 -0.4247  0.0110
 3418SOL     OW21907   9.434   6.044   4.542  0.2625  0.1967  0.6515
 3418SOL    HW121908   9.409   5.995   4.625 -1.4604  1.3650  0.8590
 3418SOL    HW221909   9.394   6.136   4.544  1.0810  0.6139 -0.9836
 3419SOL     OW21910   1.589   3.912   7.957 -0.8097 -0.1230 -0.4004
 3419SOL    HW121911   1.604   3.877   7.864  2.4058  2.0729 -0.8243
 3419SOL    HW221912   1.640   3.856   8.022 -1.5103 -0.5203 -0.1944
 3420SOL     OW21913   9.031   2.908   2.822  0.1947  0.7158  0.1211
 3420SOL    HW121914   9.012   2.930   2.726 -2.4549  1.5276  0.7790
 3420SOL    HW221915   9.122   2.941   2.847 -0.2865  3.1883 -1.2890
 3421SOL     OW21916   7.690   3.465   3.196 -0.4158  0.4468 -0.1435
 3421SOL    HW121917   7.772   3.412   3.219  0.1259 -0.1343 -3.2664
 3421SOL    HW221918   7.714   3.561   3.184 -0.6668  0.7169  1.3188
 3422SOL     OW21919   8.206   2.021   0.326  0.1657  0.4784 -0.5848
 3422SOL    HW121920   8.272   2.097   0.319  0.7552 -0.0607 -0.9438
 3422SOL    HW221921   8.246   1.939   0.286 -0.0784 -0.2959  0.7453
 3423SOL     OW21922   4.042   1.093   2.590 -0.2276 -0.0036 -0.4980
 3423SOL    HW121923   4.023   1.178   2.542 -0.2566 -0.3960 -1.1860
 3423SOL    HW221924   4.039   1.017   2.525  3.3183 -0.1383 -0.6275
 3424SOL     OW21925   7.449   2.065   4.137  0.1863 -0.2802  0.2666
 3424SOL    HW121926   7.505   1.983   4.123 -1.2471 -1.2127 -0.1031
 3424SOL    HW221927   7.353   2.039   4.147 -0.2595  1.3401  0.4038
 3425SOL     OW21928   2.853   3.561   0.963 -0.3612 -0.4522  0.1022
 3425SOL    HW121929   2.911   3.615   1.024 -3.6324  0.0236  2.8920
 3425SOL    HW221930   2.837   3.471   1.002 -1.5239 -0.5737 -0.6249
 3426SOL     OW21931   7.667   7.904   0.925 -0.0671  0.4605  0.1371
 3426SOL    HW121932   7.703   7.814   0.950 -1.6060  0.2981  1.9148
 3426SOL    HW221933   7.589   7.893   0.863  0.7823  0.6487 -0.9669
 3427SOL     OW21934   8.747   8.530   1.434  0.5760 -0.0667  0.4042
 3427SOL    HW121935   8.726   8.517   1.338  0.3114  0.2856  0.4147
 3427SOL    HW221936   8.678   8.485   1.490  0.0048  0.8154  0.4350
 3428SOL     OW21937   0.468   8.862   0.844  0.3051  0.1516 -0.2889
 3428SOL    HW121938   0.378   8.847   0.885  1.4791  0.1293  2.4222
 3428SOL    HW221939   0.458   8.881   0.747 -2.6231  0.2743 -0.0065
 3429SOL     OW21940   5.617   1.069   6.560 -0.2508 -0.2573 -0.0857
 3429SOL    HW121941   5.700   1.014   6.549 -0.2822 -0.2433 -0.4060
 3429SOL    HW221942   5.622   1.148   6.499  0.3085  0.7241  1.2106
 3430SOL     OW21943   5.766   6.362   0.714  0.0596 -0.5494 -0.4140
 3430SOL    HW121944   5.816   6.359   0.800 -1.5827  2.3151  0.7095
 3430SOL    HW221945   5.677   6.316   0.725 -0.1705 -0.1419 -0.5743
 3431SOL     OW21946   1.541   8.648   5.366 -0.2045  0.2315 -0.2941
 3431SOL    HW121947   1.597   8.570   5.339  0.9225  1.3295 -1.1704
 3431SOL    HW221948   1.582   8.732   5.332 -2.1112  1.1093 -0.4763
 3432SOL     OW21949   1.650   3.325   0.530 -0.1334  0.4539 -0.7901
 3432SOL    HW121950   1.709   3.332   0.449  0.4081  1.0838 -0.3400
 3432SOL    HW221951   1.584   3.400   0.530 -0.7902 -0.1037 -1.1559
 3433SOL     OW21952   8.213   0.377   2.786 -0.1197  0.2711 -0.3472
 3433SOL    HW121953   8.202   0.324   2.870  0.5061 -0.1627 -0.5341
 3433SOL    HW221954   8.179   0.323   2.708 -1.7535  1.1194 -0.2397
 3434SOL     OW21955   3.938   9.744   5.305  0.4908  0.4207  0.3738
 3434SOL    HW121956   3.918   9.822   5.364  1.1648 -0.3206  1.6065
 3434SOL    HW221957   3.937   9.774   5.210 -1.3387  1.4685  0.7027
 3435SOL     OW21958   1.674   5.098   5.640  0.6839 -0.3091  0.5533
 3435SOL    HW121959   1.754   5.106   5.580 -1.0819 -0.7611 -1.9252
 3435SOL    HW221960   1.626   5.186   5.642  0.2291 -0.5616  0.5640
 3436SOL     OW21961   7.492   7.980   5.461 -0.1052 -0.2799  0.3171
 3436SOL    HW121962   7.477   8.031   5.546 -0.9966 -0.0753  0.0362
 3436SOL    HW221963   7.440   8.022   5.387  0.0572 -0.9222 -0.1651
 3437SOL     OW21964   2.959   5.197   5.671 -0.2087  0.4374  0.8326
 3437SOL    HW121965   2.944   5.242   5.583  1.5621  0.9186  0.7570
 3437SOL    HW221966   2.880   5.213   5.731 -0.8104  1.2855 -0.1717
 3438SOL     OW21967   0.254   3.562   1.312  0.1013 -0.1342 -0.4049
 3438SOL    HW121968   0.242   3.638   1.376 -0.5012 -1.3929  1.0169
 3438SOL    HW221969   0.183   3.493   1.328  1.3013 -1.5146 -0.8942
 3439SOL     OW21970   3.827   6.337   3.025  0.3450 -0.2468 -0.0548
 3439SOL    HW121971   3.738   6.292   3.035 -0.8237  1.7390 -1.2754
 3439SOL    HW221972   3.837   6.407   3.095 -0.2892  1.4774 -1.6532
 3440SOL     OW21973   7.515   4.623   3.180  0.1588 -0.5147 -0.5838
 3440SOL    HW121974   7.518   4.721   3.159  1.5429 -0.8028 -1.7725
 3440SOL    HW221975   7.539   4.571   3.098 -1.6444 -1.8993 -0.2727
 3441SOL     OW21976   0.581   1.883   0.667  0.3191  0.5627 -0.0260
 3441SOL    HW121977   0.546   1.806   0.614 -0.9133  1.0159  0.1150
 3441SOL    HW221978   0.586   1.858   0.763 -0.6085  0.8365  0.0964
 3442SOL     OW21979   7.136   0.993   2.160  0.8150  0.4824 -0.3496
 3442SOL    HW121980   7.182   0.944   2.085  1.5928  1.8946 -0.8254
 3442SOL    HW221981   7.127   1.089   2.135  0.9443  0.9333  1.3266
 3443SOL     OW21982   6.735   9.968   2.715  0.8464 -0.2356 -0.6105
 3443SOL    HW121983   6.643   9.932   2.727  0.4829 -0.2689 -3.2313
 3443SOL    HW221984   6.768  10.005   2.802 -0.6332 -2.5124  0.9627
 3444SOL     OW21985   5.086   5.436   1.537 -0.4681  0.1179  0.3157
 3444SOL    HW121986   5.060   5.455   1.632 -0.0305 -1.3941  0.7471
 3444SOL    HW221987   5.017   5.474   1.475 -0.8913  0.8792  1.2485
 3445SOL     OW21988   9.856   5.345   1.877  0.1366 -0.6177  0.3542
 3445SOL    HW121989   9.942   5.390   1.851  0.4240 -0.1922  2.0004
 3445SOL    HW221990   9.779   5.394   1.836  0.5537  0.2708  0.6366
 3446SOL     OW21991   6.178   1.631   5.796 -0.1842 -0.4476  0.0791
 3446SOL    HW121992   6.194   1.685   5.878 -1.2588 -0.7845  0.5114
 3446SOL    HW221993   6.082   1.639   5.769 -0.4587 -2.4537  0.3706
 3447SOL     OW21994   4.616   9.413   6.120 -0.2490 -0.2044 -0.2523
 3447SOL    HW121995   4.715   9.397   6.115 -0.3444 -1.0039  0.2528
 3447SOL    HW221996   4.571   9.370   6.043 -0.3345 -0.9780  0.2236
 3448SOL     OW21997   0.179   0.041   1.955  0.2994 -0.3251  0.1516
 3448SOL    HW121998   0.275   0.024   1.931  0.2172 -0.1100 -0.3316
 3448SOL    HW221999   0.135   0.093   1.882 -0.5424 -1.5670 -0.2453
 3449SOL     OW22000   0.053   8.221   1.064 -0.1185 -0.1914  0.0713
 3449SOL    HW122001  -0.037   8.187   1.090  0.1098 -1.7388 -1.1183
 3449SOL    HW222002   0.123   8.161   1.102  0.3996  0.6345  0.4404
 3450SOL     OW22003   8.260   4.458   3.136 -0.1178 -0.0805  0.0672
 3450SOL    HW122004   8.297   4.538   3.183  0.6011  0.6924 -1.7628
 3450SOL    HW222005   8.324   4.382   3.147 -0.0347  0.0411  0.4683
 3451SOL     OW22006   4.912   8.102   6.025 -0.0083 -0.2168 -0.3554
 3451SOL    HW122007   4.863   8.190   6.032  0.1542 -0.0679 -1.0879
 3451SOL    HW222008   5.010   8.118   6.029  0.0331 -0.3230 -0.9926
 3452SOL     OW22009   0.375   9.976   7.524 -0.2489  0.6080 -0.2951
 3452SOL    HW122010   0.472   9.996   7.509 -0.1168  0.1306 -0.0766
 3452SOL    HW222011   0.321  10.016   7.450  0.2166 -0.0723 -1.0061
 3453SOL     OW22012   0.195   0.428   1.806 -0.4104 -0.5202  0.3266
 3453SOL    HW122013   0.141   0.355   1.764 -2.2671  1.2215 -0.3762
 3453SOL    HW222014   0.164   0.442   1.900 -0.1921 -0.5032  0.3962
 3454SOL     OW22015   1.384   1.620   1.275 -0.4195  0.6151  0.2280
 3454SOL    HW122016   1.402   1.617   1.176  0.2986  1.7492  0.3084
 3454SOL    HW222017   1.363   1.714   1.301 -0.4819  0.3384  1.1827
 3455SOL     OW22018   6.449   1.685   2.643 -0.1182  0.1528  1.0621
 3455SOL    HW122019   6.392   1.606   2.665  0.8868 -0.6511  0.8187
 3455SOL    HW222020   6.459   1.742   2.724 -1.4479  0.4286  1.0513
 3456SOL     OW22021   4.715   5.951   1.928 -0.1403  0.6085 -0.2345
 3456SOL    HW122022   4.782   5.937   1.856  0.0266  1.9013 -0.3526
 3456SOL    HW222023   4.743   5.902   2.011  0.1614 -0.0910 -0.7471
 3457SOL     OW22024   4.965   8.317   5.598 -0.0247  0.3037 -0.1540
 3457SOL    HW122025   5.025   8.268   5.662  1.2484  2.5425  0.4394
 3457SOL    HW222026   4.917   8.390   5.648 -3.4090 -1.5526 -0.5908
 3458SOL     OW22027   2.956   2.385   3.974  0.1829  0.1580  0.6910
 3458SOL    HW122028   3.013   2.459   3.939  0.6571  0.2850  1.7070
 3458SOL    HW222029   2.859   2.411   3.968  0.2847  0.3933  0.0081
 3459SOL     OW22030   8.878   5.766   6.021  0.3564  0.5704  0.2919
 3459SOL    HW122031   8.816   5.756   5.943  1.6553 -0.9654 -0.5510
 3459SOL    HW222032   8.885   5.863   6.045 -2.0556  0.8192  0.1550
 3460SOL     OW22033   7.079   1.934   6.719 -0.2800 -0.1987 -0.3826
 3460SOL    HW122034   7.100   1.967   6.627  0.8006 -1.5398 -0.6246
 3460SOL    HW222035   6.982   1.911   6.725 -0.7675  1.6719 -0.6163
 3461SOL     OW22036   8.358   6.239   1.226 -0.4004  0.4878 -0.2790
 3461SOL    HW122037   8.301   6.164   1.259  1.2112 -0.9322 -0.6250
 3461SOL    HW222038   8.302   6.306   1.178 -1.8546 -0.5422 -0.0378
 3462SOL     OW22039   5.370   0.251   7.622  0.0143 -0.4442  0.4654
 3462SOL    HW122040   5.313   0.192   7.679  2.4172 -2.0388  1.2895
 3462SOL    HW222041   5.439   0.295   7.679  1.7038 -1.1334 -1.0016
 3463SOL     OW22042   2.171   9.799   6.947 -0.5159 -0.0708  0.5630
 3463SOL    HW122043   2.267   9.809   6.975 -0.0277 -0.2875 -0.9470
 3463SOL    HW222044   2.139   9.884   6.907 -0.6725 -0.2507  0.3005
 3464SOL     OW22045   3.670   9.416   6.711 -0.0696 -0.7726 -0.1650
 3464SOL    HW122046   3.703   9.416   6.617  1.9582 -0.6593  0.5261
 3464SOL    HW222047   3.733   9.364   6.769 -0.5566  0.3121  1.3854
 3465SOL     OW22048   9.631   6.643   6.684 -0.0433  0.4666  0.1546
 3465SOL    HW122049   9.672   6.571   6.628  0.8612  0.6328  0.5956
 3465SOL    HW222050   9.659   6.632   6.779  0.4130  1.6208  0.1656
 3466SOL     OW22051   9.783   9.299   3.629 -0.0725  0.0307 -0.4115
 3466SOL    HW122052   9.728   9.257   3.557  0.0351  2.2187 -1.7905
 3466SOL    HW222053   9.726   9.359   3.685  0.4137  0.3833 -0.2917
 3467SOL     OW22054   1.642   4.710   0.273 -0.2599  0.0607  0.1702
 3467SOL    HW122055   1.641   4.610   0.266 -0.0096  0.2144 -3.0297
 3467SOL    HW222056   1.731   4.745   0.243 -0.6208  1.2840  0.4725
 3468SOL     OW22057   6.338   9.468   2.154 -0.2140  0.8336 -0.1175
 3468SOL    HW122058   6.332   9.520   2.240 -2.1474  0.2392  0.1382
 3468SOL    HW222059   6.373   9.527   2.082  1.5482  1.3140  1.0985
 3469SOL     OW22060   8.620   6.761   3.708  0.3754 -0.0959 -0.1281
 3469SOL    HW122061   8.602   6.720   3.797 -0.4969 -0.0132 -0.2540
 3469SOL    HW222062   8.592   6.857   3.709  1.5335  0.2469 -0.1170
 3470SOL     OW22063   8.485   3.470   1.695  0.1887  0.1299  0.0326
 3470SOL    HW122064   8.527   3.379   1.696  0.5300  0.2027 -2.7733
 3470SOL    HW222065   8.554   3.539   1.714  0.3142 -0.0696  0.3077
 3471SOL     OW22066   1.572   9.425   6.494 -0.3106 -0.0474 -0.3227
 3471SOL    HW122067   1.512   9.448   6.571  1.5417  2.9299  0.3178
 3471SOL    HW222068   1.535   9.463   6.410 -1.3519 -1.6651 -0.6141
 3472SOL     OW22069   3.403   8.239   1.613 -0.0475  0.0648  0.1657
 3472SOL    HW122070   3.490   8.240   1.563 -1.1221 -0.2533 -1.7899
 3472SOL    HW222071   3.379   8.333   1.640  0.3590  0.3012 -0.2772
 3473SOL     OW22072   1.679   8.626   0.361 -0.2945 -0.2324  0.4272
 3473SOL    HW122073   1.683   8.533   0.398 -1.0674 -0.4725 -0.0863
 3473SOL    HW222074   1.702   8.691   0.433  1.5251 -0.8954  0.4605
 3474SOL     OW22075   4.311   5.283   1.819  0.0291 -0.3841 -0.3311
 3474SOL    HW122076   4.399   5.243   1.843 -1.1469 -1.3730  2.5568
 3474SOL    HW222077   4.270   5.232   1.743  0.7096 -1.6444  0.1466
 3475SOL     OW22078   8.579   0.017   6.423  0.2757 -0.4752 -0.6400
 3475SOL    HW122079   8.484   0.047   6.424 -0.4104 -2.4603 -2.4801
 3475SOL    HW222080   8.639   0.096   6.407 -1.0647  0.7120  0.0914
 3476SOL     OW22081   8.775   6.361   2.225  0.1242 -0.3446 -1.1460
 3476SOL    HW122082   8.780   6.290   2.154 -1.9953  0.9843 -2.6938
 3476SOL    HW222083   8.680   6.372   2.253  0.5213  1.5096 -0.5205
 3477SOL     OW22084   2.399   3.396   5.543  0.4950 -0.2491 -0.4153
 3477SOL    HW122085   2.465   3.402   5.468  1.8190  1.2610  0.8384
 3477SOL    HW222086   2.403   3.305   5.584  3.8097  0.6225  1.4037
 3478SOL     OW22087   1.976   6.854   7.064  0.0413 -0.4366  0.6449
 3478SOL    HW122088   1.983   6.929   6.998 -0.0766 -0.6495  0.3884
 3478SOL    HW222089   1.967   6.891   7.156  1.4555 -0.1375  0.6772
 3479SOL     OW22090   7.575   3.206   5.848  0.0443 -0.3137 -0.0993
 3479SOL    HW122091   7.589   3.112   5.819  0.2782 -0.2569 -0.1729
 3479SOL    HW222092   7.663   3.255   5.847  0.2251 -0.5590  1.5898
 3480SOL     OW22093   3.490   3.836   5.971  0.3087  0.0414  0.2221
 3480SOL    HW122094   3.571   3.890   5.948  0.3538 -0.8337 -1.7964
 3480SOL    HW222095   3.408   3.889   5.953  0.3669 -0.3311 -1.1993
 3481SOL     OW22096   1.737   2.065   2.457 -0.2581  0.0322  0.4656
 3481SOL    HW122097   1.695   1.976   2.436 -0.0911  0.3809 -1.4245
 3481SOL    HW222098   1.836   2.054   2.461 -0.3302 -0.1564  1.7021
 3482SOL     OW22099   5.119   7.950   3.593 -0.5435  0.6904 -0.1421
 3482SOL    HW122100   5.029   7.990   3.572 -0.2615  0.8676 -1.0171
 3482SOL    HW222101   5.116   7.852   3.578 -0.8717  0.5454  0.7960
 3483SOL     OW22102   2.112   7.402   3.135  0.3386 -0.2390  0.1588
 3483SOL    HW122103   2.093   7.399   3.037  0.8426  0.7615  0.0173
 3483SOL    HW222104   2.030   7.430   3.184  0.3123  0.0833 -0.0638
 3484SOL     OW22105   7.394   8.539   7.819  0.5769 -0.3597  0.0809
 3484SOL    HW122106   7.387   8.566   7.723  0.2365  0.0768  0.2284
 3484SOL    HW222107   7.307   8.498   7.849  0.0116  1.2735  0.7436
 3485SOL     OW22108   8.064   0.568   6.921  1.2728  0.2829  0.1552
 3485SOL    HW122109   8.063   0.526   7.013  1.7946  1.7193  0.8287
 3485SOL    HW222110   8.074   0.667   6.930 -0.8547  0.6662 -1.3954
 3486SOL     OW22111   7.734   1.432   2.332 -0.3824 -0.2617 -0.1069
 3486SOL    HW122112   7.639   1.443   2.362 -0.3026 -0.1517  0.1060
 3486SOL    HW222113   7.753   1.493   2.256 -0.1379  0.5886  0.6225
 3487SOL     OW22114   4.437   7.168   3.302  0.0476  0.1305  0.8754
 3487SOL    HW122115   4.432   7.069   3.316  1.8222 -0.2597 -1.1044
 3487SOL    HW222116   4.499   7.208   3.370 -0.4005 -0.1553  1.4571
 3488SOL     OW22117   6.355   1.315   3.079  0.4819 -0.0604 -0.2248
 3488SOL    HW122118   6.289   1.333   3.006 -0.1986  3.2201  1.1127
 3488SOL    HW222119   6.420   1.390   3.084  1.9610 -1.3950  1.0323
 3489SOL     OW22120   0.489   0.519   1.419 -0.1757  0.0821 -0.1726
 3489SOL    HW122121   0.488   0.616   1.396 -1.3489 -0.1392 -1.1295
 3489SOL    HW222122   0.580   0.481   1.399  0.0004  0.7780 -0.7136
 3490SOL     OW22123   2.372   4.822   0.064  0.2036  0.3182 -0.1187
 3490SOL    HW122124   2.328   4.736   0.038  0.2108 -0.0622  1.0968
 3490SOL    HW222125   2.337   4.896   0.007 -0.9424 -0.2275 -0.1422
 3491SOL     OW22126   5.015   9.212   5.108 -0.3510  0.2788 -0.1240
 3491SOL    HW122127   4.953   9.247   5.038  2.3002  2.5022 -1.4845
 3491SOL    HW222128   5.028   9.283   5.178  1.3976  0.2549 -0.4011
 3492SOL     OW22129   1.029   8.745   0.314 -0.1840 -0.1907 -0.1298
 3492SOL    HW122130   1.090   8.822   0.299  1.2038 -1.3120 -0.3404
 3492SOL    HW222131   0.973   8.730   0.232 -0.3302  0.4750 -0.1517
 3493SOL     OW22132   2.043   3.918   5.017  0.2978  0.0170  0.1843
 3493SOL    HW122133   1.975   3.988   5.039 -0.9340 -0.9802 -0.3705
 3493SOL    HW222134   2.132   3.962   5.002  0.0368  1.2244  1.9938
 3494SOL     OW22135   7.388   1.501   0.613 -0.2873  0.1980  0.4815
 3494SOL    HW122136   7.370   1.594   0.581  0.3660  0.2211  0.1665
 3494SOL    HW222137   7.345   1.435   0.552 -2.1815  0.3166  1.6366
 3495SOL     OW22138   7.361   8.793   3.951  0.5384  0.7301 -0.4403
 3495SOL    HW122139   7.378   8.880   3.906  1.9300  0.8485  0.3079
 3495SOL    HW222140   7.445   8.759   3.993 -0.7724  0.7383  2.3084
 3496SOL     OW22141   2.852   9.715   3.466  0.3060  0.0403  0.0423
 3496SOL    HW122142   2.881   9.763   3.384 -3.1974 -1.4485 -2.1847
 3496SOL    HW222143   2.838   9.781   3.540 -0.6221  1.9403 -1.7823
 3497SOL     OW22144   0.349   0.337   3.729  0.3413  0.3348 -0.0577
 3497SOL    HW122145   0.401   0.291   3.656  3.2887  0.3750  1.8948
 3497SOL    HW222146   0.252   0.321   3.716  1.0538 -3.5396 -1.4672
 3498SOL     OW22147   2.322   7.432   3.638  0.2170 -0.6508  0.8537
 3498SOL    HW122148   2.302   7.425   3.736  0.1821  0.8710  0.9702
 3498SOL    HW222149   2.251   7.488   3.594  0.1476 -1.4593 -0.0646
 3499SOL     OW22150   4.775   1.890   6.682  0.1917  0.1919 -0.4520
 3499SOL    HW122151   4.725   1.963   6.635  1.5754  0.5635 -1.3636
 3499SOL    HW222152   4.871   1.914   6.688  0.0408  0.2318  2.7619
 3500SOL     OW22153   3.999   5.076   4.706  0.7529 -0.5118  0.5062
 3500SOL    HW122154   3.994   4.992   4.758 -0.8761 -2.1103 -2.0811
 3500SOL    HW222155   3.918   5.133   4.726  0.6647 -0.6385  0.5098
 3501SOL     OW22156   8.911   6.724   5.202  0.1804  0.2033  0.5284
 3501SOL    HW122157   8.975   6.648   5.191 -0.4896 -0.2334 -0.4244
 3501SOL    HW222158   8.912   6.780   5.119 -2.5124 -1.2391 -0.5489
 3502SOL     OW22159   9.792   8.202   6.736 -0.3348 -0.2211 -0.5878
 3502SOL    HW122160   9.725   8.194   6.810 -0.9353 -3.0275 -1.3808
 3502SOL    HW222161   9.878   8.162   6.765 -0.3418 -0.6375 -1.1471
 3503SOL     OW22162   2.386   9.210   0.708 -0.5895 -0.3826 -0.2901
 3503SOL    HW122163   2.477   9.172   0.724 -0.6474 -1.9627 -3.3805
 3503SOL    HW222164   2.394   9.307   0.688  0.4489 -0.5626 -0.7966
 3504SOL     OW22165   7.895   3.156   4.748  0.5852 -0.5753  0.2909
 3504SOL    HW122166   7.856   3.159   4.656  0.8102 -0.1460  0.2058
 3504SOL    HW222167   7.833   3.198   4.813  0.2981 -1.1380  0.3848
 3505SOL     OW22168   3.185   2.524   0.513 -0.0698  0.4256  0.4112
 3505SOL    HW122169   3.233   2.485   0.434  0.3825 -1.9098  1.7922
 3505SOL    HW222170   3.120   2.456   0.549 -1.4654  2.0711  1.0593
 3506SOL     OW22171   9.590   5.802   0.258 -0.6060  0.6012  0.6296
 3506SOL    HW122172   9.687   5.820   0.274  0.1489 -0.5256 -2.4655
 3506SOL    HW222173   9.539   5.887   0.266  0.6852  1.3068  1.7253
 3507SOL     OW22174   9.125   2.368   7.634  0.0457  0.8090  0.5432
 3507SOL    HW122175   9.053   2.397   7.698 -0.3604  0.6694  0.1526
 3507SOL    HW222176   9.087   2.300   7.571  1.1029 -0.9103  1.7323
 3508SOL     OW22177   9.515   1.183   4.087  0.0834  0.1710 -0.1601
 3508SOL    HW122178   9.503   1.271   4.041  0.3215 -0.3255 -1.1978
 3508SOL    HW222179   9.570   1.123   4.028 -1.8925 -1.4115 -0.4179
 3509SOL     OW22180   5.069   4.917   1.804  0.5910  0.2229  0.0740
 3509SOL    HW122181   4.986   4.909   1.858 -0.4632  0.1041 -1.5240
 3509SOL    HW222182   5.075   5.009   1.765  0.7955 -0.0008 -0.4370
 3510SOL     OW22183   1.300   8.069   6.544  0.2929 -0.1847 -0.5504
 3510SOL    HW122184   1.349   8.124   6.611 -1.2166 -0.1939  0.5650
 3510SOL    HW222185   1.366   8.033   6.477  1.5320  1.4621 -0.2524
 3511SOL     OW22186   3.608   0.932   4.771 -0.3583 -0.1635 -0.0235
 3511SOL    HW122187   3.580   0.911   4.864 -0.3044  0.8332  0.2239
 3511SOL    HW222188   3.528   0.956   4.716 -0.3021  0.0152 -0.0285
 3512SOL     OW22189   1.921   3.577   4.939 -0.0452 -0.8235  0.0362
 3512SOL    HW122190   1.922   3.539   5.031 -0.1040 -1.4863 -0.2348
 3512SOL    HW222191   2.016   3.590   4.908 -0.0259 -0.7613  0.1197
 3513SOL     OW22192   6.056   8.194   6.977 -0.2155  0.0731  0.2965
 3513SOL    HW122193   6.045   8.096   6.965  0.1849  0.2271 -1.4342
 3513SOL    HW222194   6.016   8.243   6.900  1.4295  1.1606  0.0874
 3514SOL     OW22195   2.166   8.644   8.042  0.0976  0.1061  0.0094
 3514SOL    HW122196   2.068   8.650   8.024  0.2862 -0.3153 -1.2067
 3514SOL    HW222197   2.184   8.666   8.138 -1.4839 -2.3903  0.9237
 3515SOL     OW22198   4.025   9.541   4.013  0.4375 -0.2494  0.0435
 3515SOL    HW122199   3.926   9.551   4.026  0.0649  0.0985 -2.7236
 3515SOL    HW222200   4.073   9.612   4.064 -0.8547  0.5967  0.1023
 3516SOL     OW22201   4.087   0.856   2.456  0.7777  0.2397 -0.0117
 3516SOL    HW122202   4.026   0.777   2.452  0.4971  0.5602 -3.6570
 3516SOL    HW222203   4.173   0.830   2.499 -0.1481 -1.4498  0.8657
 3517SOL     OW22204   2.026   0.060   0.328 -0.1238 -0.9208  0.1400
 3517SOL    HW122205   2.096   0.007   0.376  0.3287  0.0470  0.5711
 3517SOL    HW222206   2.048   0.064   0.231 -1.2123 -3.1562 -0.2410
 3518SOL     OW22207   0.823   3.383   3.103  0.4937  0.1134  0.3467
 3518SOL    HW122208   0.879   3.420   3.029 -0.4990  1.1662  0.1085
 3518SOL    HW222209   0.866   3.300   3.139  1.4656  0.1197 -0.7697
 3519SOL     OW22210   0.992   7.236   4.950  0.4625 -0.3981  0.6470
 3519SOL    HW122211   1.092   7.231   4.952  0.4936 -0.1642 -0.4511
 3519SOL    HW222212   0.963   7.331   4.963  0.4907  0.0965 -2.5281
 3520SOL     OW22213   5.088   2.703   2.271 -0.1506  0.1450  0.7327
 3520SOL    HW122214   5.057   2.673   2.181  1.5432 -1.3270  0.6096
 3520SOL    HW222215   5.009   2.721   2.330 -1.2602 -2.7859  0.2032
 3521SOL     OW22216   3.818   0.858   1.343  0.4685  0.5911 -0.5514
 3521SOL    HW122217   3.738   0.798   1.336 -0.4224  1.9486 -2.6900
 3521SOL    HW222218   3.821   0.899   1.434 -1.4092  0.6790 -0.5000
 3522SOL     OW22219   6.866   1.369   4.151 -0.0326 -0.2017 -0.3850
 3522SOL    HW122220   6.814   1.437   4.202  0.7978  0.5015 -0.4480
 3522SOL    HW222221   6.883   1.289   4.208 -0.5840 -0.1445 -0.1407
 3523SOL     OW22222   9.882   3.870   0.826  0.5292 -0.0102 -0.0951
 3523SOL    HW122223   9.899   3.904   0.919  2.2263 -1.1293  0.0351
 3523SOL    HW222224   9.827   3.936   0.775  0.1539  0.9234  1.4930
 3524SOL     OW22225   7.666   8.332   6.404 -0.0077  0.0879 -0.0487
 3524SOL    HW122226   7.684   8.317   6.501  0.0175 -1.1781 -0.2436
 3524SOL    HW222227   7.741   8.294   6.350 -0.9604 -0.9676 -0.6488
 3525SOL     OW22228   3.451   6.220   4.342 -0.2226  1.1835  0.2919
 3525SOL    HW122229   3.481   6.168   4.262  0.0510  2.2105 -0.2819
 3525SOL    HW222230   3.532   6.248   4.395 -0.3920  0.6800  0.8209
 3526SOL     OW22231   9.157   5.094   5.121 -0.7094  0.2886  0.5609
 3526SOL    HW122232   9.131   5.020   5.059  2.7953  0.3883 -1.0898
 3526SOL    HW222233   9.149   5.182   5.074  1.2660  0.4257  0.4606
 3527SOL     OW22234   0.132   6.037   2.044  0.8207  0.2228  0.3092
 3527SOL    HW122235   0.114   6.000   1.954  1.3415  1.1049 -0.1666
 3527SOL    HW222236   0.173   5.967   2.102 -1.3225 -0.9369  0.4857
 3528SOL     OW22237   6.019   6.011   1.557 -0.1104  0.1654 -0.4627
 3528SOL    HW122238   6.041   6.088   1.497 -2.5243  0.0185 -1.6052
 3528SOL    HW222239   5.925   5.981   1.540  0.3821 -2.2673  0.8096
 3529SOL     OW22240   0.161   0.045   6.605 -0.1412  0.0779 -0.0026
 3529SOL    HW122241   0.131  -0.006   6.525  1.4281 -0.8380 -0.0241
 3529SOL    HW222242   0.093   0.037   6.678 -0.5104 -0.9582 -0.4671
 3530SOL     OW22243   4.218   1.036   2.958 -0.0040  0.1269  0.2750
 3530SOL    HW122244   4.257   0.987   3.036 -0.1411 -0.1171  0.1907
 3530SOL    HW222245   4.121   1.054   2.976 -0.3366 -0.9917 -0.3505
 3531SOL     OW22246   1.056   0.413   3.589  0.3351 -0.6295 -0.3408
 3531SOL    HW122247   1.128   0.408   3.658 -0.1922 -1.6633  0.1434
 3531SOL    HW222248   0.967   0.395   3.631  0.0911 -2.0507 -1.4019
 3532SOL     OW22249   1.931   7.289   6.529  0.2479  0.0662  0.2487
 3532SOL    HW122250   1.909   7.220   6.460 -3.9353  0.7934  0.7513
 3532SOL    HW222251   1.981   7.245   6.604 -0.3829 -1.9422 -0.4602
 3533SOL     OW22252   8.435   4.088   6.830 -0.2125 -0.2827  0.0346
 3533SOL    HW122253   8.479   4.161   6.881  0.7609 -1.3162  0.6945
 3533SOL    HW222254   8.497   4.009   6.824 -0.7228 -0.5722 -1.8106
 3534SOL     OW22255   7.352   2.659   3.853  0.0159 -0.1134 -0.6555
 3534SOL    HW122256   7.424   2.608   3.900  0.9442  0.5599 -1.3168
 3534SOL    HW222257   7.290   2.595   3.807  0.4745 -0.6816 -0.4817
 3535SOL     OW22258   8.075   5.219   6.588  0.1142 -0.2692  0.1188
 3535SOL    HW122259   8.038   5.264   6.507  2.3967  0.1921 -0.7008
 3535SOL    HW222260   8.149   5.158   6.561  1.4737  0.5409  1.9365
 3536SOL     OW22261   7.948   2.427   6.530  1.1137  0.0451  0.7778
 3536SOL    HW122262   7.852   2.455   6.525  0.9049 -1.0827 -2.0057
 3536SOL    HW222263   7.955   2.342   6.583  0.1829 -1.5012 -1.5221
 3537SOL     OW22264   1.578   2.148   1.546  0.2710 -0.1764 -0.3770
 3537SOL    HW122265   1.567   2.188   1.455  1.9731  0.8154 -0.1619
 3537SOL    HW222266   1.601   2.051   1.537  1.0638  0.0670 -1.0203
 3538SOL     OW22267   8.108   9.318   8.104 -0.1748 -0.4050  0.4581
 3538SOL    HW122268   8.185   9.345   8.046 -0.2672 -0.9159  0.0961
 3538SOL    HW222269   8.023   9.331   8.053 -0.2738 -0.5722  0.5851
 3539SOL     OW22270   3.732   8.886   7.357 -0.2675  0.0385 -0.6362
 3539SOL    HW122271   3.633   8.872   7.352 -0.5958  1.6713  0.7302
 3539SOL    HW222272   3.752   8.984   7.350  1.2569 -0.2868 -0.9724
 3540SOL     OW22273   6.394   0.027   2.930  0.1872  0.4546  0.7214
 3540SOL    HW122274   6.458   0.037   3.006  0.7835  2.3366  0.0034
 3540SOL    HW222275   6.327   0.102   2.933  0.5652  0.8751 -0.9261
 3541SOL     OW22276   3.108   5.811   3.110 -0.9781 -0.0615 -0.0383
 3541SOL    HW122277   3.133   5.718   3.139 -0.0706  0.3072  0.3520
 3541SOL    HW222278   3.149   5.829   3.021 -0.3328  0.3364  0.3430
 3542SOL     OW22279   2.974   2.698   4.227 -0.2846 -0.1559  0.6124
 3542SOL    HW122280   3.001   2.604   4.206  1.7497  0.5255  0.1006
 3542SOL    HW222281   3.041   2.762   4.189 -2.3349  1.5877 -0.2382
 3543SOL     OW22282   7.519   3.003   4.439 -0.2468  0.0077  0.8549
 3543SOL    HW122283   7.495   2.913   4.476  3.3350 -0.0948  3.1629
 3543SOL    HW222284   7.470   3.073   4.492 -1.1704 -0.4567  0.6364
 3544SOL     OW22285   0.555   3.899   7.591  0.1384 -0.5859  0.2357
 3544SOL    HW122286   0.563   3.901   7.691 -0.1609 -1.4184  0.2792
 3544SOL    HW222287   0.607   3.975   7.552  1.2882 -0.9874  0.9559
 3545SOL     OW22288   7.727   4.421   2.422 -0.3549 -0.7742 -0.2407
 3545SOL    HW122289   7.638   4.383   2.398  0.0837 -2.4174  0.6671
 3545SOL    HW222290   7.714   4.504   2.477 -1.3482 -1.8178  1.1320
 3546SOL     OW22291   1.118   9.247   6.636 -0.3589 -0.0859  0.5138
 3546SOL    HW122292   1.108   9.313   6.710 -1.4092  0.7624 -0.3818
 3546SOL    HW222293   1.028   9.220   6.603  0.1203  0.4877 -1.2953
 3547SOL     OW22294   5.838   9.597   5.364 -0.4831 -0.9505  0.1803
 3547SOL    HW122295   5.836   9.696   5.359 -0.4524 -0.9184  0.7297
 3547SOL    HW222296   5.747   9.563   5.389 -0.9518 -1.1763 -1.7437
 3548SOL     OW22297   5.389   9.060   7.725 -0.1390  0.0604  0.2386
 3548SOL    HW122298   5.489   9.059   7.720 -0.0762 -0.0472  1.5332
 3548SOL    HW222299   5.353   9.092   7.637  0.9746 -1.3122 -0.7559
 3549SOL     OW22300   0.810   6.975   0.800 -0.0747 -0.0694 -0.0944
 3549SOL    HW122301   0.800   6.894   0.857 -0.7519  0.2152  0.2003
 3549SOL    HW222302   0.834   7.053   0.859 -0.5821  0.1839 -0.2212
 3550SOL     OW22303   8.691   4.930   5.273 -0.2118  0.1145  0.1440
 3550SOL    HW122304   8.603   4.937   5.320 -0.0346  0.1942  0.4594
 3550SOL    HW222305   8.759   4.985   5.320  0.3702 -1.0904  0.7353
 3551SOL     OW22306   8.767   1.264   2.152  0.0278 -0.1043  0.0681
 3551SOL    HW122307   8.752   1.167   2.169 -0.7724  0.2539  1.5409
 3551SOL    HW222308   8.814   1.305   2.230  2.1016  0.3240 -1.3624
 3552SOL     OW22309   0.599   8.637   3.365  0.3892 -0.3595 -0.1166
 3552SOL    HW122310   0.501   8.644   3.348  0.1303 -1.3975  0.8897
 3552SOL    HW222311   0.647   8.705   3.309 -0.9651  0.7902  0.0851
 3553SOL     OW22312   8.289   6.632   4.179 -0.2867  0.0359 -0.1269
 3553SOL    HW122313   8.285   6.563   4.107  0.9023 -1.1139  0.8992
 3553SOL    HW222314   8.229   6.605   4.254 -0.2670  0.4180  0.0246
 3554SOL     OW22315   4.848   8.118   1.034 -0.4600 -0.2606  0.0436
 3554SOL    HW122316   4.866   8.217   1.037  1.1338 -0.5424  0.0300
 3554SOL    HW222317   4.757   8.101   1.071 -0.6110  1.1839  0.3999
 3555SOL     OW22318   9.955   5.710   0.918  0.0000  0.4648 -0.5569
 3555SOL    HW122319  10.044   5.695   0.874 -0.0631  0.2319 -0.6036
 3555SOL    HW222320   9.882   5.675   0.860 -0.2820  2.5784 -1.5091
 3556SOL     OW22321   7.313   4.230   2.139 -0.2206  0.1458 -0.3044
 3556SOL    HW122322   7.244   4.271   2.199  1.3817 -0.2025  1.8388
 3556SOL    HW222323   7.319   4.282   2.054 -0.8668  2.0800  0.8024
 3557SOL     OW22324   5.443   0.809   2.261  0.5043 -0.3244 -0.7392
 3557SOL    HW122325   5.512   0.737   2.250  1.9355  0.8883  0.1125
 3557SOL    HW222326   5.423   0.821   2.358 -0.3084 -0.1090 -0.9314
 3558SOL     OW22327   1.122   0.933   6.900  0.2572  0.0547  0.1833
 3558SOL    HW122328   1.133   0.872   6.979 -1.1420 -1.0711 -0.4493
 3558SOL    HW222329   1.126   1.028   6.931  0.7358 -0.3634  1.4640
 3559SOL     OW22330   1.463   0.708   5.808 -0.0980  0.4759  0.1389
 3559SOL    HW122331   1.531   0.635   5.807 -1.3691 -0.7187 -0.7193
 3559SOL    HW222332   1.489   0.778   5.742  0.2737  0.0234 -0.1979
 3560SOL     OW22333   1.360   0.968   4.702 -0.0084  0.0262  0.2396
 3560SOL    HW122334   1.454   0.977   4.670 -0.0458 -0.5808 -0.0517
 3560SOL    HW222335   1.360   0.955   4.802  0.2621 -0.7244  0.1460
 3561SOL     OW22336   0.945   9.976   4.520  0.3143  0.0599 -0.0188
 3561SOL    HW122337   0.977   9.887   4.489  0.4461  0.7255 -1.8625
 3561SOL    HW222338   1.023  10.032   4.548  0.3706  0.1382 -0.3296
 3562SOL     OW22339   0.610   3.358   6.048 -0.6739 -0.0271  0.4527
 3562SOL    HW122340   0.510   3.366   6.053 -0.9231 -2.2483 -0.4128
 3562SOL    HW222341   0.636   3.337   5.954  0.6111  0.5052  0.6872
 3563SOL     OW22342   3.390   2.451   6.377 -0.0709  0.2937  0.8595
 3563SOL    HW122343   3.454   2.374   6.379 -2.9338 -2.3336 -1.6566
 3563SOL    HW222344   3.305   2.425   6.424 -1.2442  1.7009 -0.4344
 3564SOL     OW22345   8.985   6.701   1.182 -0.1784 -0.2448  0.4021
 3564SOL    HW122346   9.005   6.798   1.193 -0.2343 -0.1949  0.0826
 3564SOL    HW222347   8.887   6.689   1.164  0.1265 -0.2025 -1.3825
 3565SOL     OW22348   2.744   8.518   0.759  0.5092  0.4995 -0.0329
 3565SOL    HW122349   2.790   8.606   0.745  0.5849  0.4791  0.0866
 3565SOL    HW222350   2.737   8.500   0.857 -1.7609  1.5409  0.0278
 3566SOL     OW22351   0.150   8.175   6.563  0.6200 -0.1231 -0.4022
 3566SOL    HW122352   0.215   8.201   6.634 -1.8001  1.7639  1.2507
 3566SOL    HW222353   0.114   8.258   6.519 -1.2392 -1.0727 -0.7119
 3567SOL     OW22354   7.715   5.907   3.080  0.5036  0.3392 -0.3514
 3567SOL    HW122355   7.648   5.967   3.125  0.8062 -0.7944  1.6893
 3567SOL    HW222356   7.807   5.933   3.109  0.8425  0.6580 -1.6611
 3568SOL     OW22357   2.554   4.968   6.025 -0.2658  0.0962  0.2257
 3568SOL    HW122358   2.549   4.917   6.111 -1.1715 -0.3773 -0.0982
 3568SOL    HW222359   2.462   4.991   5.994  0.1786  3.1796  1.0719
 3569SOL     OW22360   0.736   4.384   5.943 -0.7068  0.1705  0.2366
 3569SOL    HW122361   0.816   4.335   5.975 -0.3519  0.1990 -0.5836
 3569SOL    HW222362   0.728   4.374   5.844 -3.1483 -1.9631  0.5839
 3570SOL     OW22363   8.467   8.107   7.953 -0.5939 -0.7219 -0.5318
 3570SOL    HW122364   8.382   8.142   7.993 -1.2823 -0.4452 -2.2202
 3570SOL    HW222365   8.447   8.028   7.894  0.1627  0.0749 -1.8799
 3571SOL     OW22366   0.223   8.611   7.738 -0.3970  0.1525 -0.3368
 3571SOL    HW122367   0.244   8.580   7.645 -1.5651  0.0259 -0.5736
 3571SOL    HW222368   0.279   8.561   7.804 -0.2032 -0.4008 -0.9166
 3572SOL     OW22369   9.985   8.212   7.238 -0.2456 -0.9303 -0.1615
 3572SOL    HW122370  10.019   8.133   7.290  0.7214  1.7639  3.5401
 3572SOL    HW222371   9.902   8.247   7.282 -0.8676 -0.0617 -1.9751
 3573SOL     OW22372   3.353   9.354   1.411 -0.1136 -0.4769 -0.0934
 3573SOL    HW122373   3.426   9.286   1.405  1.3219  1.2086 -4.3264
 3573SOL    HW222374   3.278   9.318   1.465  2.2111 -3.8342  1.0870
 3574SOL     OW22375   2.531   1.472   1.054 -0.2590  0.0326  0.0169
 3574SOL    HW122376   2.585   1.439   1.132  0.1793  0.1009 -0.2580
 3574SOL    HW222377   2.542   1.409   0.977 -2.0144 -0.9504  0.5290
 3575SOL     OW22378   2.254   5.299   6.252 -0.5444 -0.2196 -0.3561
 3575SOL    HW122379   2.244   5.273   6.156 -1.3086  0.0821 -0.3615
 3575SOL    HW222380   2.332   5.362   6.261  0.3682 -1.3005 -0.5637
 3576SOL     OW22381   1.550   9.903   4.145  0.2873  0.1015  0.2689
 3576SOL    HW122382   1.471   9.849   4.116  1.1273 -0.6778 -0.5964
 3576SOL    HW222383   1.522   9.999   4.158 -0.7858 -0.1666 -0.0624
 3577SOL     OW22384   4.159   1.089   0.520 -0.2973 -0.0087  0.4952
 3577SOL    HW122385   4.155   1.009   0.580  1.9987  2.0982  3.6078
 3577SOL    HW222386   4.245   1.090   0.470 -1.6207 -1.0204 -1.9250
 3578SOL     OW22387   4.231   5.134   0.218  0.5279 -0.1390 -0.0623
 3578SOL    HW122388   4.151   5.193   0.207  0.7145  0.1853  0.3093
 3578SOL    HW222389   4.261   5.136   0.314  0.7611 -0.5422 -0.1262
 3579SOL     OW22390   6.948   0.106   3.367 -0.1685 -0.0681  0.8927
 3579SOL    HW122391   6.890   0.188   3.376  0.5091  0.4826  0.2420
 3579SOL    HW222392   6.890   0.024   3.372 -0.6708  0.3826  3.2466
 3580SOL     OW22393   6.074   0.541   6.036  0.0128 -0.4069  0.1223
 3580SOL    HW122394   6.123   0.456   6.018  1.6648  0.7229 -0.7659
 3580SOL    HW222395   6.128   0.599   6.097 -0.3906  0.6779 -0.5441
 3581SOL     OW22396   0.367   1.005   0.113 -0.3674 -0.4993  1.0760
 3581SOL    HW122397   0.444   0.951   0.148  0.6888  0.2504 -0.0519
 3581SOL    HW222398   0.290   0.944   0.095 -0.0481 -1.2636  2.2099
 3582SOL     OW22399   4.706   3.720   2.769  0.2842 -0.0877 -0.0712
 3582SOL    HW122400   4.619   3.726   2.818 -1.0312 -2.0660 -2.0256
 3582SOL    HW222401   4.742   3.812   2.753 -2.0772  0.8259 -0.3091
 3583SOL     OW22402   3.197   1.302   4.556  0.2811 -0.1343  0.4202
 3583SOL    HW122403   3.151   1.388   4.580 -3.0641 -1.8928  0.6283
 3583SOL    HW222404   3.226   1.306   4.461  0.5554  1.3750  0.5456
 3584SOL     OW22405   1.188   4.321   2.866  0.4867 -0.6285 -0.2482
 3584SOL    HW122406   1.108   4.283   2.913  1.0795 -3.0816 -1.1661
 3584SOL    HW222407   1.262   4.335   2.931 -0.3296  0.6897  0.4206
 3585SOL     OW22408   8.281   9.241   2.002 -0.7515 -0.2633  0.1665
 3585SOL    HW122409   8.317   9.182   1.930 -1.1618 -0.2786 -0.0254
 3585SOL    HW222410   8.188   9.212   2.026 -1.2126  0.7092 -0.3947
 3586SOL     OW22411   4.470   4.880   4.974  0.1289 -0.6036  0.5238
 3586SOL    HW122412   4.449   4.976   4.993  0.1026 -0.4999 -0.0403
 3586SOL    HW222413   4.498   4.870   4.879 -2.4772 -1.5706 -0.1818
 3587SOL     OW22414   9.489   4.157   6.213  0.0250 -0.3456 -0.2687
 3587SOL    HW122415   9.545   4.076   6.195 -1.1175 -0.6332 -2.8156
 3587SOL    HW222416   9.479   4.210   6.129  1.4987  2.9652  1.5419
 3588SOL     OW22417   4.304   9.096   6.068  0.9125  0.4978 -0.8334
 3588SOL    HW122418   4.268   9.155   6.141  2.2534 -0.8488  0.9617
 3588SOL    HW222419   4.233   9.033   6.038  0.3646  1.0295 -0.6580
 3589SOL     OW22420   9.399   5.715   3.300  0.9031  0.1913  0.1483
 3589SOL    HW122421   9.319   5.759   3.259 -0.4540 -2.1418  0.1872
 3589SOL    HW222422   9.456   5.675   3.229 -0.7259 -2.6568  0.3926
 3590SOL     OW22423   8.783   8.257   0.567 -0.0282 -0.3513  0.2112
 3590SOL    HW122424   8.691   8.267   0.605  0.5705 -0.2648  1.7084
 3590SOL    HW222425   8.809   8.161   0.568  0.6418 -0.1685  1.6601
 3591SOL     OW22426   6.444   0.991   5.967 -0.5365  0.4686 -0.5439
 3591SOL    HW122427   6.437   0.933   6.048 -0.1294  1.5377  0.2670
 3591SOL    HW222428   6.356   1.036   5.950 -0.1363  1.6585  0.3983
 3592SOL     OW22429   6.574   1.811   3.681 -0.1543  0.1268  0.1414
 3592SOL    HW122430   6.493   1.753   3.682 -0.2702  0.3006  0.7929
 3592SOL    HW222431   6.655   1.754   3.664 -0.3877 -0.0734 -0.2971
 3593SOL     OW22432   5.116   6.802   2.678 -0.0291 -0.3044 -0.2182
 3593SOL    HW122433   5.147   6.851   2.760  0.7696 -0.0296 -0.6757
 3593SOL    HW222434   5.022   6.828   2.657  0.4194  1.1265 -0.5175
 3594SOL     OW22435   8.865   2.212   3.485  0.6246  0.2822 -0.2114
 3594SOL    HW122436   8.904   2.163   3.563  1.8050  0.7328 -0.5050
 3594SOL    HW222437   8.791   2.158   3.445 -0.0030  0.0594  1.2296
 3595SOL     OW22438   9.522   7.428   1.915  0.2572  0.3284  0.3035
 3595SOL    HW122439   9.562   7.345   1.954  0.9595  1.5240  2.2275
 3595SOL    HW222440   9.530   7.426   1.816  2.1037 -0.9681  0.4599
 3596SOL     OW22441   1.819   5.260   3.082  0.0872 -0.2382  0.4855
 3596SOL    HW122442   1.843   5.302   3.170 -1.0296  0.6357  0.3852
 3596SOL    HW222443   1.903   5.234   3.034  0.7074 -0.6159  1.7560
 3597SOL     OW22444   9.006   8.602   5.342 -0.0210  0.3581  0.4367
 3597SOL    HW122445   9.054   8.531   5.290  1.8479  1.1020  1.1127
 3597SOL    HW222446   9.052   8.616   5.430 -1.3073  1.3042  0.9686
 3598SOL     OW22447   0.911   8.430   2.950  0.5630 -0.3080  0.0048
 3598SOL    HW122448   0.970   8.491   2.896  0.8187 -1.3944 -0.9650
 3598SOL    HW222449   0.966   8.355   2.986  0.2802  0.1287  1.3594
 3599SOL     OW22450   9.107   6.917   6.035  0.3370  0.1864  0.0300
 3599SOL    HW122451   9.018   6.930   6.078  0.7567 -1.3544  1.4049
 3599SOL    HW222452   9.178   6.960   6.090  0.5021  1.0359 -0.8373
 3600SOL     OW22453   9.300   9.059   4.004  0.2441  0.2965  0.0041
 3600SOL    HW122454   9.329   8.963   4.006 -2.3302 -0.5720 -1.5369
 3600SOL    HW222455   9.231   9.074   4.074  1.2011  1.2204  0.7454
 3601SOL     OW22456   8.628   6.747   1.596  0.1360  0.4920 -0.2091
 3601SOL    HW122457   8.591   6.778   1.683  0.3040 -0.7659  0.3237
 3601SOL    HW222458   8.650   6.650   1.602  2.8623  1.0337 -0.7199
 3602SOL     OW22459   6.826   9.398   5.921 -0.5766 -0.1930  0.2180
 3602SOL    HW122460   6.852   9.493   5.938 -2.2290  0.1973  0.6294
 3602SOL    HW222461   6.795   9.356   6.006 -1.5144 -0.5698 -0.3046
 3603SOL     OW22462   3.520   7.555   5.650  0.1492 -0.0043 -0.0803
 3603SOL    HW122463   3.511   7.641   5.599 -1.2620 -0.4704 -0.6596
 3603SOL    HW222464   3.566   7.487   5.593 -0.1527 -0.1006 -0.2103
 3604SOL     OW22465   2.346   7.751   5.938 -0.0009 -0.3428  0.3238
 3604SOL    HW122466   2.310   7.673   5.989 -0.1905  1.1029  2.4961
 3604SOL    HW222467   2.289   7.832   5.956  2.3317  1.1704  1.1414
 3605SOL     OW22468   7.276   1.620   5.456  0.0776  0.5326  0.2264
 3605SOL    HW122469   7.355   1.673   5.427 -1.2129  1.7300 -1.2246
 3605SOL    HW222470   7.210   1.615   5.381 -1.0181 -0.8356  1.2496
 3606SOL     OW22471   0.342   5.713   1.351  0.3627 -0.4811 -0.0498
 3606SOL    HW122472   0.302   5.789   1.301 -0.4858 -0.1034  1.1843
 3606SOL    HW222473   0.269   5.661   1.397  1.1777 -0.4252  1.3285
 3607SOL     OW22474   8.331   6.954   6.763  0.0704 -0.0948  0.2695
 3607SOL    HW122475   8.407   7.019   6.769  1.1589 -1.4106  1.1075
 3607SOL    HW222476   8.291   6.958   6.671  1.0471  0.7316 -0.1307
 3608SOL     OW22477   2.025   6.549   6.766  0.3449 -0.0692  0.0380
 3608SOL    HW122478   2.077   6.528   6.683 -0.2280  1.0143 -0.6100
 3608SOL    HW222479   1.935   6.583   6.741  0.3157  0.6673  1.0996
 3609SOL     OW22480   0.054   9.848   6.445  0.2462 -0.6452 -0.7457
 3609SOL    HW122481   0.001   9.877   6.365 -1.6081  0.6727  0.9290
 3609SOL    HW222482  -0.006   9.803   6.511  1.2391  0.5965  1.0495
 3610SOL     OW22483   4.604   7.447   4.024  0.2733  0.0626  0.0298
 3610SOL    HW122484   4.569   7.418   4.113 -0.0584 -0.4984 -0.2791
 3610SOL    HW222485   4.543   7.515   3.984  1.2479  1.4683  0.9195
 3611SOL     OW22486   9.432   0.251   0.665  0.8133 -0.2465  0.0576
 3611SOL    HW122487   9.371   0.314   0.712 -0.3542 -3.5267  3.1694
 3611SOL    HW222488   9.392   0.223   0.577 -0.2669  0.6706  0.2597
 3612SOL     OW22489   2.931   7.732   5.177  0.1463 -0.4048 -0.2082
 3612SOL    HW122490   2.905   7.643   5.214  0.5994  0.1376  1.4463
 3612SOL    HW222491   3.022   7.756   5.209 -0.4374  1.1644  0.3139
 3613SOL     OW22492   7.289   7.995   8.437  0.5796 -0.1811 -0.2582
 3613SOL    HW122493   7.364   8.044   8.393  0.8242 -0.0472  0.3145
 3613SOL    HW222494   7.303   7.897   8.426  0.3399 -0.1401 -0.9815
 3614SOL     OW22495   1.499   3.501   5.221  0.3506  0.1128 -0.2582
 3614SOL    HW122496   1.406   3.483   5.251  0.2837  1.5572  0.4365
 3614SOL    HW222497   1.499   3.526   5.124 -0.1476  1.4718  0.0870
 3615SOL     OW22498   1.042   2.085   0.993 -0.8023 -0.5875 -0.4399
 3615SOL    HW122499   1.141   2.083   0.981 -0.9029  0.3317 -1.4085
 3615SOL    HW222500   1.008   1.991   0.997  0.1733 -0.9187  0.5442
 3616SOL     OW22501   4.191   2.556   9.913  0.4298  0.4309  0.3693
 3616SOL    HW122502   4.267   2.617   9.935  0.1630  1.0874 -0.5058
 3616SOL    HW222503   4.179   2.551   9.814 -1.1553  0.9473  0.5232
 3617SOL     OW22504   1.852   4.554   6.044 -0.2924  0.4885  0.3152
 3617SOL    HW122505   1.898   4.560   6.132 -1.6024 -1.0295  1.1168
 3617SOL    HW222506   1.920   4.531   5.973  0.6531  1.1225  0.9970
 3618SOL     OW22507   0.782   1.319   5.424  0.4997  0.1527 -0.0541
 3618SOL    HW122508   0.826   1.233   5.397  1.4559  0.7373 -0.3823
 3618SOL    HW222509   0.837   1.364   5.494 -0.1420  0.3671  0.3128
 3619SOL     OW22510   7.794   0.823   6.326  0.5657 -0.5929  0.0706
 3619SOL    HW122511   7.859   0.752   6.353  0.7054 -0.8765 -0.9820
 3619SOL    HW222512   7.702   0.784   6.326  0.6771 -0.8571 -0.8011
 3620SOL     OW22513   9.750   6.943   3.908  0.6543  0.0838 -0.1291
 3620SOL    HW122514   9.697   6.878   3.854  1.7749  0.1191 -1.3099
 3620SOL    HW222515   9.822   6.894   3.957  1.3590  0.3900 -0.8419
 3621SOL     OW22516   3.444   3.065   4.577  0.0907 -0.1655 -0.3725
 3621SOL    HW122517   3.486   3.109   4.656  1.1602 -0.1132 -0.9600
 3621SOL    HW222518   3.487   3.098   4.493  0.8231 -2.1930 -0.8370
 3622SOL     OW22519   5.377   0.351   3.500 -0.7288 -0.1738 -0.1193
 3622SOL    HW122520   5.396   0.449   3.495 -1.7578  0.0411  0.1283
 3622SOL    HW222521   5.459   0.300   3.472 -0.1747  0.7477 -0.2021
 3623SOL     OW22522   9.358   0.013   7.364 -0.5583 -0.2839 -0.0431
 3623SOL    HW122523   9.324  -0.076   7.331 -0.5017 -0.6071  0.7717
 3623SOL    HW222524   9.281   0.074   7.380 -0.5433  0.1968 -1.6561
 3624SOL     OW22525   0.363   4.807   5.524  0.1759 -0.3312  0.1028
 3624SOL    HW122526   0.326   4.895   5.552  1.2483  0.2194 -0.1930
 3624SOL    HW222527   0.316   4.734   5.575 -0.7570  0.3939  0.2975
 3625SOL     OW22528   9.192   7.303   3.974  0.1215 -0.3338  0.7912
 3625SOL    HW122529   9.098   7.271   3.987  0.5773 -1.8199  0.5932
 3625SOL    HW222530   9.191   7.399   3.945 -1.2869 -0.0649  1.6830
 3626SOL     OW22531   8.996   0.793   2.613 -0.2611  0.3939  0.1693
 3626SOL    HW122532   9.022   0.789   2.710  0.5140  1.8638  0.0273
 3626SOL    HW222533   8.898   0.775   2.604 -0.2664 -0.1098  1.1938
 3627SOL     OW22534   9.140   8.022   3.530 -0.1005 -0.3901 -0.0425
 3627SOL    HW122535   9.147   7.949   3.598 -1.4957  2.4370  3.2495
 3627SOL    HW222536   9.091   7.989   3.450 -2.1036 -2.6075  2.0528
 3628SOL     OW22537   7.794   4.553   0.863 -0.5127  0.1769  0.0723
 3628SOL    HW122538   7.857   4.524   0.791  0.9792  3.1804  0.0926
 3628SOL    HW222539   7.801   4.490   0.940  0.4779 -1.0559 -0.9951
 3629SOL     OW22540   9.160   9.864   5.231  0.3018  0.1087 -0.3245
 3629SOL    HW122541   9.108   9.834   5.310 -0.7778 -1.2608 -1.5127
 3629SOL    HW222542   9.217   9.788   5.198 -0.1583  0.2813 -1.5500
 3630SOL     OW22543   2.209   8.648   0.521  0.0117 -0.4948 -0.8420
 3630SOL    HW122544   2.165   8.570   0.477 -3.5763  0.1067  1.4930
 3630SOL    HW222545   2.296   8.618   0.562  0.4881 -2.3689 -3.1278
 3631SOL     OW22546   9.327   8.318   1.571  0.1072  0.6738 -0.8024
 3631SOL    HW122547   9.281   8.241   1.526 -1.1346 -0.8243  2.8620
 3631SOL    HW222548   9.259   8.388   1.593  0.4602  0.7613  0.0049
 3632SOL     OW22549   3.226   1.831   6.776  0.2721  0.2495 -0.1690
 3632SOL    HW122550   3.210   1.862   6.870  0.2501 -1.1325  0.2877
 3632SOL    HW222551   3.173   1.888   6.713 -0.5671  0.4976  0.7459
 3633SOL     OW22552   3.445   2.807   1.184 -0.5195  0.5991 -0.6214
 3633SOL    HW122553   3.528   2.780   1.233 -1.2839 -0.0286  0.3446
 3633SOL    HW222554   3.439   2.757   1.098 -0.8463 -0.7548  0.1811
 3634SOL     OW22555   9.663   0.196   0.774 -0.1127 -0.1856  0.4969
 3634SOL    HW122556   9.732   0.223   0.707  0.7816 -0.0791  1.4547
 3634SOL    HW222557   9.573   0.229   0.744  0.1258 -0.8915 -1.0832
 3635SOL     OW22558   0.790   5.837   6.233  0.0968  0.3064 -0.2305
 3635SOL    HW122559   0.788   5.860   6.136  0.8181  1.0671 -0.0752
 3635SOL    HW222560   0.716   5.773   6.255  0.3603 -0.4100 -1.4189
 3636SOL     OW22561   7.725   4.035   2.277 -0.2426  0.3904  0.7839
 3636SOL    HW122562   7.718   3.987   2.190 -0.1058  0.5174  0.7020
 3636SOL    HW222563   7.640   4.084   2.296 -0.8940 -0.9895  1.5226
 3637SOL     OW22564   2.606   3.517   1.252 -0.1525 -0.0769 -0.2593
 3637SOL    HW122565   2.672   3.455   1.208 -0.7663  0.1537 -1.5423
 3637SOL    HW222566   2.513   3.493   1.222 -0.4783  0.8664 -0.0296
 3638SOL     OW22567   9.185   4.768   7.127  0.4146  0.1985 -0.9439
 3638SOL    HW122568   9.229   4.728   7.046  1.5576 -1.5200  0.4621
 3638SOL    HW222569   9.184   4.699   7.200  1.6582  2.4950  1.2976
 3639SOL     OW22570   2.610   8.290   6.840 -0.1489  0.5221 -1.1907
 3639SOL    HW122571   2.559   8.308   6.756 -1.8718 -1.4269 -0.6034
 3639SOL    HW222572   2.574   8.208   6.885  1.9272  0.4775  0.5235
 3640SOL     OW22573   9.760   7.542   0.341 -0.1467 -0.1203 -0.5204
 3640SOL    HW122574   9.677   7.596   0.325 -1.2018 -1.1312  1.3836
 3640SOL    HW222575   9.816   7.589   0.409 -0.0691 -0.3705 -0.4128
 3641SOL     OW22576   4.379   5.140   4.983  0.3068 -0.1687  0.2648
 3641SOL    HW122577   4.289   5.128   5.025 -0.3089 -0.4971 -1.0894
 3641SOL    HW222578   4.374   5.214   4.916  1.1073 -0.0443  0.3392
 3642SOL     OW22579   9.030   5.556   6.479 -0.1074 -0.3376  0.0858
 3642SOL    HW122580   9.027   5.581   6.382  1.6236 -0.5692 -0.0373
 3642SOL    HW222581   9.077   5.469   6.490  1.2911  0.5555  1.3005
 3643SOL     OW22582   9.664   4.625   4.606  0.6513  0.1207 -0.3603
 3643SOL    HW122583   9.642   4.718   4.638  2.1587  0.6664 -0.8534
 3643SOL    HW222584   9.641   4.559   4.677 -1.2121  0.7863 -0.3210
 3644SOL     OW22585   7.834   1.409   0.913 -0.1707  0.1221  0.5386
 3644SOL    HW122586   7.919   1.459   0.903  0.1955  0.0307  2.9096
 3644SOL    HW222587   7.759   1.462   0.874  0.5607  1.4557  0.9220
 3645SOL     OW22588   8.161   1.570   5.358 -0.3776  0.2519 -0.5708
 3645SOL    HW122589   8.178   1.583   5.456 -1.5001  0.8936 -0.4584
 3645SOL    HW222590   8.223   1.500   5.323 -0.1984 -0.2200  0.6707
 3646SOL     OW22591   4.970   4.017   1.916 -0.1012  0.2722 -0.3184
 3646SOL    HW122592   4.908   4.096   1.924 -1.1482 -0.6188  0.4521
 3646SOL    HW222593   4.954   3.954   1.991  1.7211 -0.0175 -0.1500
 3647SOL     OW22594   1.551   5.949   1.396  0.7763 -0.2930 -0.4535
 3647SOL    HW122595   1.494   5.874   1.429 -1.1035  1.0232 -0.5764
 3647SOL    HW222596   1.578   5.932   1.301 -0.7127 -0.2285 -0.8993
 3648SOL     OW22597   4.841   3.643   1.728 -0.5892  0.0858 -0.2890
 3648SOL    HW122598   4.790   3.617   1.810  1.9885 -1.8636  0.7487
 3648SOL    HW222599   4.869   3.561   1.678 -1.5967  1.2202 -2.8597
 3649SOL     OW22600   7.322   9.378   6.767  0.3996 -0.0501  0.6436
 3649SOL    HW122601   7.307   9.308   6.836  2.5955 -0.7819  0.4235
 3649SOL    HW222602   7.347   9.464   6.812  0.9770 -0.2997  0.8117
 3650SOL     OW22603   9.703   0.231   1.473 -0.1373  0.5367 -0.6660
 3650SOL    HW122604   9.640   0.256   1.400 -1.1582  1.2176  0.4321
 3650SOL    HW222605   9.700   0.133   1.488 -0.7990  0.5447 -0.7378
 3651SOL     OW22606   6.693   9.026   4.301  0.1444  0.0648  0.2927
 3651SOL    HW122607   6.647   8.939   4.316 -1.2473  0.7431  0.1295
 3651SOL    HW222608   6.790   9.011   4.280 -0.0562 -1.4175  0.4317
 3652SOL     OW22609   3.972   9.146   4.233 -0.4533 -0.2006 -0.2109
 3652SOL    HW122610   4.053   9.096   4.202 -0.9633 -1.4392  0.4527
 3652SOL    HW222611   3.999   9.209   4.306  0.0066 -0.2522 -0.3365
 3653SOL     OW22612   0.770   6.181   0.384  0.0190  0.1067 -0.3598
 3653SOL    HW122613   0.728   6.115   0.445 -2.0629  1.4230 -0.3145
 3653SOL    HW222614   0.782   6.268   0.431 -0.0935  0.6609 -1.3297
 3654SOL     OW22615   2.147   4.310   9.661 -0.9368 -0.2585  0.0271
 3654SOL    HW122616   2.124   4.225   9.707  1.2047 -1.6213 -1.3416
 3654SOL    HW222617   2.216   4.293   9.590 -1.3248  2.4065 -1.0776
 3655SOL     OW22618   9.017   0.409   1.546 -0.0637 -0.2461 -0.3944
 3655SOL    HW122619   8.981   0.319   1.568  1.0734 -0.7900 -0.7370
 3655SOL    HW222620   9.060   0.450   1.627  0.6080 -0.5819 -0.5765
 3656SOL     OW22621   0.584   0.883   2.396  0.5576 -0.1383 -0.0416
 3656SOL    HW122622   0.539   0.841   2.475  1.3829  0.0936  0.5569
 3656SOL    HW222623   0.529   0.959   2.362 -0.4232 -1.0336 -0.4746
 3657SOL     OW22624   7.167   4.756   1.852 -0.5501  0.2055  0.1163
 3657SOL    HW122625   7.218   4.840   1.834 -0.7413 -0.0056 -1.4829
 3657SOL    HW222626   7.211   4.705   1.927  0.7386  0.7341 -0.2686
 3658SOL     OW22627   1.557   7.134   2.384 -0.4145  0.8230  0.6541
 3658SOL    HW122628   1.610   7.153   2.301 -1.7018  0.1792 -0.3306
 3658SOL    HW222629   1.605   7.171   2.463  1.1923  0.8028 -0.2929
 3659SOL     OW22630   0.078   7.692   6.342 -0.1748 -0.1470  0.3689
 3659SOL    HW122631   0.052   7.774   6.394 -1.2264  0.1434 -0.5857
 3659SOL    HW222632   0.071   7.712   6.244  0.1464 -1.2112  0.1260
 3660SOL     OW22633   2.993   8.325   5.787 -0.4402 -0.4247 -0.0992
 3660SOL    HW122634   3.013   8.282   5.875  1.1654  0.4069 -0.0298
 3660SOL    HW222635   3.049   8.407   5.777 -0.4954 -0.5956 -1.9514
 3661SOL     OW22636   8.420   8.816   7.434 -0.5485  0.3794  0.1591
 3661SOL    HW122637   8.326   8.841   7.454 -0.7873  0.3199 -0.8577
 3661SOL    HW222638   8.422   8.733   7.378  0.1588 -0.5661  1.5567
 3662SOL     OW22639   3.275   5.409   7.646  0.0032 -0.1476 -0.1662
 3662SOL    HW122640   3.370   5.417   7.617  0.0117 -1.0814 -0.4306
 3662SOL    HW222641   3.217   5.464   7.585  0.5408  1.7846  1.0321
 3663SOL     OW22642   9.265   5.175   4.293 -0.3959 -0.0654 -0.2747
 3663SOL    HW122643   9.190   5.143   4.235 -0.2643 -1.8972  0.5160
 3663SOL    HW222644   9.231   5.190   4.386 -0.2019  1.0067 -0.3786
 3664SOL     OW22645   2.634   1.172   0.426  0.2608 -0.4623  0.1382
 3664SOL    HW122646   2.656   1.231   0.503  2.9152 -0.2951 -0.6992
 3664SOL    HW222647   2.658   1.218   0.340  1.0645 -2.1735 -0.5874
 3665SOL     OW22648   1.728   4.717   4.555 -0.0338  0.7360  0.2945
 3665SOL    HW122649   1.690   4.629   4.526  3.2824 -0.2392 -1.3564
 3665SOL    HW222650   1.729   4.780   4.476  1.4802  0.8271  0.3788
 3666SOL     OW22651   8.261   0.263   0.499 -0.3700 -0.3647 -0.1164
 3666SOL    HW122652   8.292   0.238   0.408 -0.0402  0.0021 -0.1041
 3666SOL    HW222653   8.314   0.213   0.567 -0.2037 -0.1793 -0.1101
 3667SOL     OW22654   8.243   1.139   4.033 -0.2850  0.4211 -0.0341
 3667SOL    HW122655   8.330   1.141   3.985 -0.2951 -0.5944 -0.0982
 3667SOL    HW222656   8.259   1.121   4.130 -0.2884  2.1415  0.3050
 3668SOL     OW22657   3.217   1.966   5.862  0.0522  0.2282  0.1876
 3668SOL    HW122658   3.174   2.020   5.789  0.2757  0.2853  0.0967
 3668SOL    HW222659   3.315   1.958   5.844 -0.1095 -0.8658 -0.1987
 3669SOL     OW22660   1.464   1.579   2.141  0.7168 -0.2485  0.3583
 3669SOL    HW122661   1.516   1.501   2.106  2.0189  0.5110  0.5770
 3669SOL    HW222662   1.380   1.590   2.088  0.5776 -1.7288  0.2622
 3670SOL     OW22663   3.569   6.784   3.959 -1.0624 -0.5743  0.0217
 3670SOL    HW122664   3.627   6.847   3.908 -1.2088 -0.0462  0.4963
 3670SOL    HW222665   3.625   6.731   4.023 -1.0030 -0.5879 -0.0421
 3671SOL     OW22666   1.257   4.616   9.916 -0.2827  0.3820 -0.1831
 3671SOL    HW122667   1.303   4.684   9.858  0.2377  0.0234 -0.1892
 3671SOL    HW222668   1.315   4.594   9.994 -0.8208  0.5771  0.2795
 3672SOL     OW22669   3.863   6.309   2.776 -0.1128 -0.4629 -0.1400
 3672SOL    HW122670   3.909   6.389   2.738 -0.0080 -0.5212 -0.1353
 3672SOL    HW222671   3.846   6.324   2.874 -0.8408 -0.1002 -0.3160
 3673SOL     OW22672   2.363   9.344   6.864 -0.4177  0.9442  0.0228
 3673SOL    HW122673   2.398   9.306   6.778 -0.4552  1.7870 -0.3673
 3673SOL    HW222674   2.295   9.414   6.845 -0.9501  0.6321  0.7577
 3674SOL     OW22675   4.518   3.401   5.004  0.3522  0.0191 -0.1334
 3674SOL    HW122676   4.606   3.448   4.996  0.7764 -0.6192  0.7309
 3674SOL    HW222677   4.446   3.468   5.022  1.0928  0.2771  2.0559
 3675SOL     OW22678   3.883   3.539   3.557 -0.2270 -0.0283  0.1895
 3675SOL    HW122679   3.957   3.514   3.620  1.1529 -1.1043 -1.7903
 3675SOL    HW222680   3.814   3.591   3.606  1.0927 -0.3293  2.4543
 3676SOL     OW22681   9.164   7.841   7.904  0.6806 -0.1399  0.2027
 3676SOL    HW122682   9.093   7.828   7.973 -1.2168  2.4069 -1.1818
 3676SOL    HW222683   9.251   7.862   7.949 -0.5433  1.5427  1.8590
 3677SOL     OW22684   7.924   3.336   2.717 -0.2357  0.5864  0.1014
 3677SOL    HW122685   7.971   3.364   2.633 -0.8641 -2.3794 -1.2973
 3677SOL    HW222686   7.826   3.325   2.698 -0.6249  1.2755  1.6156
 3678SOL     OW22687   4.959   3.815   2.153  0.7571 -0.3639 -0.1669
 3678SOL    HW122688   5.055   3.789   2.153  0.5551 -1.2549 -2.1471
 3678SOL    HW222689   4.903   3.735   2.132 -0.4001  0.1753  0.8317
 3679SOL     OW22690   6.820   8.383   3.833 -0.3049 -0.0862  0.1681
 3679SOL    HW122691   6.784   8.428   3.751 -1.2971 -0.2846  0.4842
 3679SOL    HW222692   6.895   8.437   3.871 -0.2971  0.3635 -0.4758
 3680SOL     OW22693   2.328   3.599   2.599  0.5012 -0.3135 -0.2928
 3680SOL    HW122694   2.374   3.571   2.515 -0.2473  1.0022 -1.1713
 3680SOL    HW222695   2.231   3.575   2.594  0.5183 -0.5137  0.3253
 3681SOL     OW22696   2.376   8.676   1.792 -0.2372 -0.0412 -0.0740
 3681SOL    HW122697   2.460   8.626   1.775 -0.3207  0.0515 -0.7448
 3681SOL    HW222698   2.305   8.613   1.824 -0.9472 -0.7253 -2.8451
 3682SOL     OW22699   5.060   0.891   3.450  0.1069 -0.0133 -0.5155
 3682SOL    HW122700   5.003   0.948   3.509  0.1700  0.4236 -0.8715
 3682SOL    HW222701   5.034   0.795   3.460 -0.9764  0.2277 -0.9953
 3683SOL     OW22702   6.474   4.363   0.150  0.1147 -0.0982  0.3029
 3683SOL    HW122703   6.524   4.436   0.196  0.1725 -0.8176  1.3914
 3683SOL    HW222704   6.375   4.380   0.159  0.0973 -1.0556  2.0520
 3684SOL     OW22705   8.854   7.113   5.807  0.7026 -0.2531 -0.4365
 3684SOL    HW122706   8.904   7.104   5.721  0.3255  0.4123 -0.7337
 3684SOL    HW222707   8.914   7.155   5.876  0.7554 -0.0323 -0.6147
 3685SOL     OW22708   9.855   1.195   3.074  0.4359  0.2176  0.5318
 3685SOL    HW122709   9.893   1.150   3.154  0.8864 -0.7805 -0.2422
 3685SOL    HW222710   9.838   1.128   3.002 -2.3098  0.7012  0.6647
 3686SOL     OW22711   8.751   4.597   2.883 -0.7607 -0.4496  0.0756
 3686SOL    HW122712   8.734   4.684   2.929 -0.1942 -0.1051 -0.3551
 3686SOL    HW222713   8.850   4.587   2.867 -0.8080 -1.2444  0.2738
 3687SOL     OW22714   3.227   5.796   2.859 -0.6317 -0.1322  0.1098
 3687SOL    HW122715   3.161   5.780   2.787 -1.3816 -2.3546  1.2374
 3687SOL    HW222716   3.298   5.724   2.856 -0.4752 -0.0397  1.3324
 3688SOL     OW22717   7.243   7.678   2.695 -0.0324  0.1339  0.3672
 3688SOL    HW122718   7.246   7.589   2.742  0.5823 -0.7491 -1.3102
 3688SOL    HW222719   7.179   7.672   2.618  1.0536  0.7484 -0.5829
 3689SOL     OW22720   6.257   9.047   7.881  0.5932 -0.2164 -0.1426
 3689SOL    HW122721   6.277   9.025   7.976 -0.4945  1.7668  0.5703
 3689SOL    HW222722   6.170   9.004   7.854  0.8851 -0.7492 -0.2469
 3690SOL     OW22723   1.685   9.746   3.334 -0.7230 -0.1587 -0.2146
 3690SOL    HW122724   1.720   9.820   3.276 -0.6539 -0.4879 -0.5964
 3690SOL    HW222725   1.761   9.697   3.375 -0.6858 -1.5354 -1.8706
 3691SOL     OW22726   4.391   5.160   3.814 -0.3003 -0.4698 -0.2493
 3691SOL    HW122727   4.330   5.229   3.853 -0.1525 -0.9204  0.7809
 3691SOL    HW222728   4.357   5.133   3.724 -0.3479  0.9632 -0.6837
 3692SOL     OW22729   7.331   3.144   4.605 -0.2968  0.9268  0.5049
 3692SOL    HW122730   7.260   3.171   4.539 -0.5014 -0.1621  0.2745
 3692SOL    HW222731   7.324   3.046   4.623  2.0910  0.5044 -0.6531
 3693SOL     OW22732   9.691   2.613   4.671  0.0410  0.0606 -0.4971
 3693SOL    HW122733   9.757   2.551   4.627 -1.5113 -1.6665 -0.4654
 3693SOL    HW222734   9.599   2.592   4.637 -0.7234  1.1734  0.8566
 3694SOL     OW22735   9.353   9.856   2.818  0.1067  0.5674 -0.1852
 3694SOL    HW122736   9.412   9.844   2.738  0.4679  1.2436 -0.0297
 3694SOL    HW222737   9.401   9.911   2.887 -0.1092 -0.2249  0.6061
 3695SOL     OW22738   9.783   8.509   1.449 -0.1592 -0.6563  0.3043
 3695SOL    HW122739   9.813   8.591   1.399 -0.2871 -1.4751 -1.1596
 3695SOL    HW222740   9.842   8.432   1.424 -1.0207 -1.3659  0.4559
 3696SOL     OW22741   4.033   2.395   2.003 -0.3324 -0.0420 -0.4772
 3696SOL    HW122742   4.071   2.485   1.979 -1.7135  0.9096  0.8496
 3696SOL    HW222743   3.937   2.405   2.030 -0.7909 -2.0705 -1.3107
 3697SOL     OW22744   3.104   9.189   7.575 -0.5181  0.5250  0.5458
 3697SOL    HW122745   3.115   9.288   7.584 -1.0335  0.8537 -2.0651
 3697SOL    HW222746   3.016   9.169   7.532 -0.2930 -1.0475  0.7946
 3698SOL     OW22747   9.401   9.550   5.948 -0.0779  0.2864 -0.1550
 3698SOL    HW122748   9.386   9.576   5.852  0.3040  1.2868  0.0452
 3698SOL    HW222749   9.424   9.453   5.953 -1.2168 -0.0427 -0.9668
 3699SOL     OW22750   1.680   9.344   7.385 -0.2567 -0.0638 -0.1847
 3699SOL    HW122751   1.648   9.439   7.389 -1.3360 -0.4203 -0.1178
 3699SOL    HW222752   1.722   9.320   7.473  1.4121  0.8154 -0.7176
 3700SOL     OW22753   9.210   9.154   0.637 -0.5159  0.7836 -0.0962
 3700SOL    HW122754   9.291   9.152   0.695  0.7407  0.6644 -1.8455
 3700SOL    HW222755   9.225   9.099   0.555 -2.2263  1.0541 -0.6245
 3701SOL     OW22756   7.849   6.055   7.727 -0.0456 -0.1674  0.7745
 3701SOL    HW122757   7.760   6.097   7.708  1.3084  1.7503 -1.5469
 3701SOL    HW222758   7.845   5.957   7.706 -0.9920  0.3292 -1.4405
 3702SOL     OW22759   2.910   4.440   4.658 -0.2988 -0.2119  0.2683
 3702SOL    HW122760   2.867   4.434   4.748 -1.0324  0.9413  0.0080
 3702SOL    HW222761   2.844   4.411   4.588  0.3958 -1.4820  0.1358
 3703SOL     OW22762   3.875   0.484   5.473 -0.2986  0.4670 -0.4697
 3703SOL    HW122763   3.839   0.429   5.398 -0.7581 -1.3699  1.0482
 3703SOL    HW222764   3.964   0.448   5.501  0.2923  1.7068 -0.7346
 3704SOL     OW22765   7.746   1.993   2.555 -0.1139  0.3355 -0.3591
 3704SOL    HW122766   7.843   2.014   2.559  0.0837 -0.5297 -0.6406
 3704SOL    HW222767   7.733   1.897   2.531 -1.0343  0.4119 -0.1911
 3705SOL     OW22768   4.395   7.540   4.239 -0.1595 -0.1234 -0.3108
 3705SOL    HW122769   4.300   7.550   4.268  0.7372 -0.2667  2.9318
 3705SOL    HW222770   4.448   7.618   4.274  0.8112  0.2873 -2.6346
 3706SOL     OW22771   1.106   9.432   5.126 -0.4024 -0.2875 -0.5274
 3706SOL    HW122772   1.164   9.367   5.174  1.2503  0.0959 -1.9519
 3706SOL    HW222773   1.162   9.507   5.091 -1.8883  0.5336 -1.1831
 3707SOL     OW22774   6.853   8.199   5.414  0.3671 -0.0500  0.4057
 3707SOL    HW122775   6.767   8.150   5.429 -0.0122  1.3463  3.1924
 3707SOL    HW222776   6.929   8.141   5.441  0.1883 -0.6797 -0.4474
 3708SOL     OW22777   1.953   9.649   7.455 -0.3720 -0.3957  0.1253
 3708SOL    HW122778   2.023   9.611   7.394  0.1850  1.3814 -0.3990
 3708SOL    HW222779   1.913   9.576   7.510 -0.6064 -1.9983 -2.0853
 3709SOL     OW22780   3.635   9.570   6.447 -0.3878 -0.2868 -0.1391
 3709SOL    HW122781   3.595   9.656   6.414  0.0637  0.1696  0.4822
 3709SOL    HW222782   3.645   9.575   6.547 -1.7815 -1.6616  0.0881
 3710SOL     OW22783   0.319   4.308   1.596  0.5610  0.2944 -0.8330
 3710SOL    HW122784   0.230   4.277   1.562 -1.4081  1.0586  3.3443
 3710SOL    HW222785   0.377   4.229   1.616 -1.1411 -0.4603  1.3110
 3711SOL     OW22786   0.060   9.964   5.788 -0.0668 -0.1352 -0.1865
 3711SOL    HW122787   0.079  10.028   5.714 -0.4215  2.1653  1.6401
 3711SOL    HW222788  -0.039   9.956   5.800 -0.0112  0.4021  0.7400
 3712SOL     OW22789   0.821   0.726   1.459  0.0616 -0.2299 -0.3853
 3712SOL    HW122790   0.744   0.744   1.397  0.9457  1.4248 -1.0480
 3712SOL    HW222791   0.790   0.734   1.554 -0.2600  2.0962 -0.6485
 3713SOL     OW22792   9.910   9.807   6.015  0.5903 -0.1100  0.0233
 3713SOL    HW122793   9.860   9.893   6.018  0.6633 -0.0857  0.7954
 3713SOL    HW222794   9.901   9.761   6.104  1.7622 -0.2125  0.0890
 3714SOL     OW22795   7.563   0.209   0.857  0.2392  0.1152  0.0641
 3714SOL    HW122796   7.510   0.292   0.838  0.4181  0.2817  0.2899
 3714SOL    HW222797   7.632   0.229   0.927  1.2663  0.1649 -0.9463
 3715SOL     OW22798   8.304   2.183   7.385 -0.1133  0.1216 -0.0477
 3715SOL    HW122799   8.386   2.181   7.328 -0.2120 -1.7253 -0.1599
 3715SOL    HW222800   8.324   2.138   7.472 -0.8865  0.0112  0.0696
 3716SOL     OW22801   3.836   2.646   2.100  0.5396  0.3763  0.4521
 3716SOL    HW122802   3.772   2.641   2.023  0.1200  0.7767  0.7726
 3716SOL    HW222803   3.905   2.716   2.081  0.4530  0.4548  0.4233
 3717SOL     OW22804   0.712   7.932   7.659 -0.3197  0.4461  0.0064
 3717SOL    HW122805   0.686   7.922   7.563 -1.1794 -0.6579  0.3411
 3717SOL    HW222806   0.689   7.848   7.708  1.8897  0.2699  0.7878
 3718SOL     OW22807   9.488   8.642   1.349  0.0793  0.1742 -0.4051
 3718SOL    HW122808   9.481   8.612   1.444  1.3579 -0.5396 -0.5349
 3718SOL    HW222809   9.539   8.574   1.296  1.9205  1.9508 -0.9669
 3719SOL     OW22810   9.705   2.258   3.996 -0.1013  0.0019  0.4075
 3719SOL    HW122811   9.684   2.348   3.958 -2.2660 -0.0878  1.3382
 3719SOL    HW222812   9.667   2.187   3.936  0.4591 -0.2666  0.3654
 3720SOL     OW22813   2.103   3.654   3.062 -0.0947 -0.2872 -0.1664
 3720SOL    HW122814   2.177   3.630   2.998 -0.9591  1.0980 -1.7167
 3720SOL    HW222815   2.017   3.660   3.012 -0.8873  0.2099  1.2516
 3721SOL     OW22816   0.651   2.731   2.309 -0.1365  0.3509  0.2788
 3721SOL    HW122817   0.582   2.750   2.379  0.1290  1.0800  0.3461
 3721SOL    HW222818   0.629   2.645   2.263 -1.6216  1.0497 -0.3537
 3722SOL     OW22819   2.595   4.688   1.064 -0.4514 -0.5540 -0.0656
 3722SOL    HW122820   2.502   4.684   1.028 -0.0684 -1.5904 -0.9465
 3722SOL    HW222821   2.654   4.736   0.999 -0.6608  1.4051  1.1493
 3723SOL     OW22822   7.375   1.375   5.538  0.2577 -0.3129  0.6543
 3723SOL    HW122823   7.409   1.385   5.631  0.8946 -0.4333  0.4390
 3723SOL    HW222824   7.333   1.461   5.508 -2.2160 -1.0392  1.9349
 3724SOL     OW22825   0.466   2.195   1.909  0.0447  0.3577  0.3306
 3724SOL    HW122826   0.439   2.203   2.005  0.9448 -1.0343  0.7205
 3724SOL    HW222827   0.484   2.099   1.888 -0.0896  0.6647 -1.2247
 3725SOL     OW22828   2.104   1.331   1.157 -0.4937 -0.2681  0.3997
 3725SOL    HW122829   2.102   1.423   1.118 -0.8106  1.0410  3.3599
 3725SOL    HW222830   2.146   1.268   1.092  0.2310  2.0679 -1.4683
 3726SOL     OW22831   9.389   8.594   4.688  0.1900 -0.0068  0.4582
 3726SOL    HW122832   9.407   8.664   4.618  1.9951  0.6699  1.5692
 3726SOL    HW222833   9.314   8.536   4.658  0.6969  0.4992 -1.9021
 3727SOL     OW22834   0.387   6.258   2.331 -0.1208 -0.3509  0.4305
 3727SOL    HW122835   0.328   6.187   2.369  0.5562 -1.6161 -0.8293
 3727SOL    HW222836   0.353   6.285   2.241 -0.8285  1.5218  1.2262
 3728SOL     OW22837   0.812   3.868   6.922  0.1154 -0.6179  0.0636
 3728SOL    HW122838   0.792   3.932   6.995  0.5838 -2.4679  1.8712
 3728SOL    HW222839   0.731   3.811   6.905  0.6715 -1.5927  0.6251
 3729SOL     OW22840   5.337   9.150   1.703  0.8438  0.3095  0.6051
 3729SOL    HW122841   5.423   9.192   1.674 -0.4563  2.3982 -0.4038
 3729SOL    HW222842   5.304   9.195   1.786  1.1121 -1.0102  1.4309
 3730SOL     OW22843   4.011   5.356   1.841 -0.0377  0.4230 -0.3127
 3730SOL    HW122844   4.103   5.317   1.837  1.3869  3.3539  1.9082
 3730SOL    HW222845   4.014   5.450   1.806 -2.2383  0.4725 -0.4084
 3731SOL     OW22846   9.856   3.013   6.909 -0.6451  0.7670 -0.5650
 3731SOL    HW122847   9.938   2.972   6.948 -0.4009  2.0345  0.2779
 3731SOL    HW222848   9.794   2.941   6.878  0.7847 -0.1945 -1.2205
 3732SOL     OW22849   6.778   8.936   4.680  0.3412  0.1140  0.0638
 3732SOL    HW122850   6.784   8.910   4.777  1.9727 -3.8928 -0.9898
 3732SOL    HW222851   6.849   9.003   4.659 -0.0275  1.0201  1.6039
 3733SOL     OW22852   0.012   4.802   1.290  0.0995  0.0150  0.7549
 3733SOL    HW122853  -0.018   4.712   1.259  1.1276  0.5976 -2.0585
 3733SOL    HW222854   0.075   4.791   1.367  0.0040 -1.6444  0.6202
 3734SOL     OW22855   0.187   3.497   5.937 -0.1540 -0.1080  0.6432
 3734SOL    HW122856   0.166   3.549   6.020  1.5484  2.1218 -0.2603
 3734SOL    HW222857   0.175   3.556   5.857  1.4695 -1.2111 -0.4310
 3735SOL     OW22858   6.666   5.860   0.871  0.4505  0.3473  0.3538
 3735SOL    HW122859   6.720   5.887   0.951  0.3991  2.0206 -0.1558
 3735SOL    HW222860   6.694   5.769   0.841  2.6919  0.9781  0.3947
 3736SOL     OW22861   0.949   6.397   1.586 -0.1994  0.8272  0.1856
 3736SOL    HW122862   0.863   6.357   1.553  0.7165 -1.3946  0.3676
 3736SOL    HW222863   0.973   6.356   1.674  1.3640  0.9573 -0.1646
 3737SOL     OW22864   3.519   3.932   6.937  0.2779  0.1968 -0.0748
 3737SOL    HW122865   3.549   4.004   6.999 -0.8653 -0.1134  0.8430
 3737SOL    HW222866   3.512   3.846   6.987 -0.4119 -0.1058 -0.6957
 3738SOL     OW22867   4.329   8.905   0.968  0.5153  0.2902 -0.0374
 3738SOL    HW122868   4.242   8.923   1.014 -0.0383 -0.8240 -0.6433
 3738SOL    HW222869   4.321   8.822   0.913  1.2654  1.4158 -1.8738
 3739SOL     OW22870   9.755   5.571   0.785 -0.2306  0.0552 -0.5688
 3739SOL    HW122871   9.756   5.472   0.770  0.0287 -0.0703  0.2411
 3739SOL    HW222872   9.733   5.618   0.700  1.8651 -0.6021 -1.4975
 3740SOL     OW22873   8.447   6.518   1.762  0.1061  0.2319  0.1138
 3740SOL    HW122874   8.382   6.572   1.709 -0.1913  0.1100  0.3524
 3740SOL    HW222875   8.519   6.484   1.701  0.0527  0.5257 -0.1158
 3741SOL     OW22876   0.878   3.260   7.084  0.4399  0.0837 -0.4380
 3741SOL    HW122877   0.977   3.271   7.084  0.5050 -0.4390  0.3260
 3741SOL    HW222878   0.841   3.290   7.172 -0.1246  0.6718 -0.8785
 3742SOL     OW22879   5.047   0.312   4.750  0.4114  0.8009  0.1014
 3742SOL    HW122880   5.073   0.361   4.667 -2.3162  2.2968  0.0766
 3742SOL    HW222881   4.952   0.334   4.773 -0.3399 -3.1250  1.0917
 3743SOL     OW22882   1.207   8.320   7.669  0.4916  0.4201 -0.1857
 3743SOL    HW122883   1.276   8.292   7.603 -0.4966 -1.9539 -0.2495
 3743SOL    HW222884   1.215   8.265   7.752 -1.3825  0.0637 -0.2250
 3744SOL     OW22885   7.320   9.773   6.633  0.0203 -0.2390 -0.3027
 3744SOL    HW122886   7.278   9.840   6.572  0.5712  1.2101  0.8970
 3744SOL    HW222887   7.248   9.729   6.688 -0.0787  1.2423  0.7608
 3745SOL     OW22888   2.086   5.304   6.485 -0.0676 -0.5297 -0.1666
 3745SOL    HW122889   2.125   5.289   6.395  0.6413  2.7822 -0.4809
 3745SOL    HW222890   2.021   5.380   6.481  1.0143  0.5970  2.3399
 3746SOL     OW22891   8.201   6.404   5.914 -0.2590 -0.2094 -0.0206
 3746SOL    HW122892   8.125   6.442   5.862 -0.5609  2.1978  2.1202
 3746SOL    HW222893   8.171   6.379   6.006  1.3816  0.3558  0.7062
 3747SOL     OW22894   8.260   1.760   7.388 -0.6099 -0.5386  0.1109
 3747SOL    HW122895   8.346   1.723   7.354 -0.3296  1.0170 -0.9340
 3747SOL    HW222896   8.234   1.840   7.333 -2.1292 -0.3050  1.1388
 3748SOL     OW22897   3.002   0.172   5.225 -0.1135 -0.7259  0.3232
 3748SOL    HW122898   2.913   0.212   5.203  1.0068  1.8566  0.3221
 3748SOL    HW222899   3.051   0.152   5.140  0.5095  0.6437  0.3602
 3749SOL     OW22900   8.430   2.219   0.295 -0.2853  0.0998  0.2388
 3749SOL    HW122901   8.518   2.184   0.326 -1.2569 -0.7164  2.1535
 3749SOL    HW222902   8.441   2.313   0.265  1.1972  0.0920  0.6972
 3750SOL     OW22903   4.545   4.007   2.132  0.0592  1.2102  0.0823
 3750SOL    HW122904   4.532   4.106   2.129  0.8043  1.3057 -0.1748
 3750SOL    HW222905   4.623   3.985   2.191 -1.1421  0.6666  1.4835
 3751SOL     OW22906   3.787   9.636   1.891  0.6873 -0.1504  0.5574
 3751SOL    HW122907   3.689   9.648   1.905  0.7534  1.1252  0.0382
 3751SOL    HW222908   3.835   9.655   1.977  0.4076 -2.0756  1.1711
 3752SOL     OW22909   8.822   5.698   5.323 -0.3289 -0.4760  0.1840
 3752SOL    HW122910   8.724   5.711   5.334 -0.4783  0.3881 -1.8629
 3752SOL    HW222911   8.856   5.633   5.391 -2.1644 -0.1692  1.4137
 3753SOL     OW22912   4.347   2.294   5.263 -0.0280 -0.1397  0.2997
 3753SOL    HW122913   4.415   2.270   5.194 -0.7647 -1.6561  0.0760
 3753SOL    HW222914   4.365   2.242   5.347 -0.0132  0.5819  0.7404
 3754SOL     OW22915   2.867   7.005   3.614 -0.6117  0.4547 -0.4793
 3754SOL    HW122916   2.804   6.978   3.687 -0.5352  1.8107  0.1048
 3754SOL    HW222917   2.816   7.049   3.540 -0.5954 -0.2377 -0.9027
 3755SOL     OW22918   9.129   6.061   2.711 -0.3440  0.2756 -0.2790
 3755SOL    HW122919   9.169   6.151   2.728  0.1996 -0.0995  0.4885
 3755SOL    HW222920   9.134   6.006   2.795 -2.2759  0.1350 -0.2267
 3756SOL     OW22921   9.500   3.838   4.089 -0.4362  0.1957  0.0991
 3756SOL    HW122922   9.410   3.822   4.128 -0.6218  1.0556  0.0393
 3756SOL    HW222923   9.552   3.899   4.149 -0.1643  0.2894 -0.2297
 3757SOL     OW22924   5.496   9.125   8.545  0.8952 -0.0356 -0.1382
 3757SOL    HW122925   5.557   9.168   8.611  0.8380  1.7703 -1.2127
 3757SOL    HW222926   5.416   9.184   8.530 -1.2717 -2.4724  1.4406
 3758SOL     OW22927   7.065   1.272   2.129  0.3253  0.2614 -0.9504
 3758SOL    HW122928   6.991   1.306   2.187  2.5998 -0.3299  2.4258
 3758SOL    HW222929   7.109   1.349   2.083  0.0028  0.9925 -0.0541
 3759SOL     OW22930   7.380   2.070   5.364 -1.0324  0.7509 -0.3856
 3759SOL    HW122931   7.388   2.152   5.306 -3.0728  0.9808 -0.3938
 3759SOL    HW222932   7.336   2.094   5.450 -1.9172 -0.3633 -0.5016
 3760SOL     OW22933   9.536   2.726   6.987 -0.2599  0.2977 -0.3941
 3760SOL    HW122934   9.619   2.696   7.035  1.0619 -1.0744 -3.3879
 3760SOL    HW222935   9.458   2.672   7.019  0.2952  0.4984  1.3252
 3761SOL     OW22936   3.347   4.547   5.263 -0.3690 -0.1315  0.0658
 3761SOL    HW122937   3.425   4.566   5.204 -1.7842 -0.1221 -1.8370
 3761SOL    HW222938   3.374   4.559   5.358  2.0276 -0.4376 -0.5469
 3762SOL     OW22939   8.407   4.932   5.339  0.1942 -0.8964 -0.2048
 3762SOL    HW122940   8.382   4.974   5.251  0.3661 -2.1208 -0.8546
 3762SOL    HW222941   8.346   4.965   5.410  1.4594  1.8475 -0.3370
 3763SOL     OW22942   5.555   6.175  10.078  0.0613  0.0087 -0.2127
 3763SOL    HW122943   5.468   6.179  10.127 -0.5559  3.8174 -1.4107
 3763SOL    HW222944   5.619   6.242  10.117  1.4199 -0.6559 -1.2392
 3764SOL     OW22945   3.171   0.974   3.051 -1.1758 -0.2095 -0.1868
 3764SOL    HW122946   3.240   0.997   2.983 -0.5789  0.7494  0.7241
 3764SOL    HW222947   3.089   1.028   3.036 -1.0360  0.0176 -0.1378
 3765SOL     OW22948   6.219   9.869   3.270 -0.4155  0.1426 -0.1932
 3765SOL    HW122949   6.134   9.820   3.290 -0.9269  0.0004 -2.5062
 3765SOL    HW222950   6.198   9.967   3.260  0.2927  0.6150  2.5856
 3766SOL     OW22951   0.225   2.303   3.818  0.6074  0.7557 -0.2455
 3766SOL    HW122952   0.285   2.297   3.738  0.1927  1.1617 -0.5867
 3766SOL    HW222953   0.164   2.381   3.808  2.4153  2.4974  1.7472
 3767SOL     OW22954   2.638   5.238   6.793 -0.5145  0.0254  0.1816
 3767SOL    HW122955   2.641   5.320   6.852 -0.2187  0.7748 -0.8639
 3767SOL    HW222956   2.611   5.159   6.848  2.7320  0.0897  2.0217
 3768SOL     OW22957   0.395   0.751   3.820  0.0694  0.6430  0.2147
 3768SOL    HW122958   0.455   0.829   3.836 -1.4649  1.8206  0.3846
 3768SOL    HW222959   0.405   0.685   3.895  1.6696  0.4694 -0.1369
 3769SOL     OW22960   5.769   2.335   4.523 -0.2693  0.5304 -0.9328
 3769SOL    HW122961   5.799   2.430   4.522  0.8242  0.3154  2.9535
 3769SOL    HW222962   5.845   2.276   4.497  0.3622  0.5011  0.8871
 3770SOL     OW22963   1.129   5.369   0.079 -0.0081  0.0728 -0.3749
 3770SOL    HW122964   1.139   5.441   0.010 -1.6221  0.6489 -0.0385
 3770SOL    HW222965   1.139   5.408   0.170  1.7679 -0.6255 -0.2615
 3771SOL     OW22966   2.806   6.927   2.266  0.2720 -0.4722 -0.1677
 3771SOL    HW122967   2.755   6.939   2.351  0.7334 -0.0772  0.0577
 3771SOL    HW222968   2.806   6.831   2.240 -3.0699 -0.1471 -1.7058
 3772SOL     OW22969   4.870   0.568   4.179  0.3524  0.2184  0.4104
 3772SOL    HW122970   4.940   0.561   4.108 -1.4375  0.3886 -1.4205
 3772SOL    HW222971   4.865   0.663   4.211  1.3995  0.0733  1.0231
 3773SOL     OW22972   4.409   1.774   7.635  0.4563  0.3906  0.2265
 3773SOL    HW122973   4.369   1.849   7.582 -0.2130  0.0693  0.2702
 3773SOL    HW222974   4.403   1.690   7.582  0.5751  0.2347  0.4626
 3774SOL     OW22975   4.798   8.572   7.157 -0.5539  0.7328  0.0665
 3774SOL    HW122976   4.715   8.621   7.129  0.2235  1.7239 -0.5119
 3774SOL    HW222977   4.878   8.616   7.116  0.3125  0.1601  1.1331
 3775SOL     OW22978   3.255   6.755   6.200  0.5698  0.3530 -0.3546
 3775SOL    HW122979   3.190   6.827   6.173  0.1426 -0.4667 -1.5087
 3775SOL    HW222980   3.304   6.785   6.282 -1.2098  1.0243  0.4951
 3776SOL     OW22981   7.466   9.355   1.572 -0.3154 -0.0301  0.7702
 3776SOL    HW122982   7.549   9.329   1.621 -0.1789  0.2514  0.6919
 3776SOL    HW222983   7.482   9.348   1.474  0.1651  1.6476  0.7092
 3777SOL     OW22984   4.909   3.376   1.618 -0.3795  0.0829 -0.3858
 3777SOL    HW122985   4.844   3.311   1.579 -0.2664  0.5530 -1.3714
 3777SOL    HW222986   5.002   3.343   1.604 -0.4172 -1.2984  2.2884
 3778SOL     OW22987   5.946   0.670   4.259 -0.5942  0.2912 -0.1854
 3778SOL    HW122988   5.910   0.577   4.249 -0.5030 -0.0775  2.4531
 3778SOL    HW222989   5.967   0.687   4.355 -0.9964  3.2029 -0.5678
 3779SOL     OW22990   1.175   4.852   1.046  0.0059  0.2020 -0.1629
 3779SOL    HW122991   1.177   4.929   0.982 -0.3552  0.2432 -0.1256
 3779SOL    HW222992   1.106   4.786   1.017 -2.4003  1.7043  1.8742
 3780SOL     OW22993   3.821   9.263   7.580 -0.0624 -0.0384 -0.4844
 3780SOL    HW122994   3.898   9.321   7.553 -0.9686  0.1695 -2.7173
 3780SOL    HW222995   3.795   9.284   7.674  0.4230  2.3373 -0.8481
 3781SOL     OW22996   0.749   4.878   5.428  0.3611 -0.5172  0.1642
 3781SOL    HW122997   0.816   4.804   5.413  0.9487  0.3186 -1.4926
 3781SOL    HW222998   0.664   4.855   5.382  0.9575  0.3771 -1.4418
 3782SOL     OW22999   3.098   4.817   2.519 -0.1166 -1.0805 -0.0126
 3782SOL    HW123000   3.009   4.795   2.478  0.1304 -0.0623 -1.1277
 3782SOL    HW223001   3.170   4.802   2.451  0.2795  0.8259 -0.0202
 3783SOL     OW23002   2.410   6.953   2.844  0.0028 -0.1139  0.5627
 3783SOL    HW123003   2.394   6.906   2.758 -1.4698  0.2207  0.6437
 3783SOL    HW223004   2.324   6.961   2.895  0.5003  1.3245  1.2237
 3784SOL     OW23005   3.177   1.848   5.129  0.2843  0.0354 -0.0354
 3784SOL    HW123006   3.237   1.787   5.078 -0.6668 -0.7408 -0.2311
 3784SOL    HW223007   3.085   1.810   5.131 -0.8841  2.5782 -2.1799
 3785SOL     OW23008   4.134   1.494   1.107  0.5475  0.3273 -0.3205
 3785SOL    HW123009   4.151   1.400   1.078  0.2361 -0.1202  0.9052
 3785SOL    HW223010   4.170   1.557   1.039 -0.6189 -0.6923 -1.9085
 3786SOL     OW23011   0.760   4.545   7.307  0.1607  0.1677  0.1773
 3786SOL    HW123012   0.772   4.622   7.370 -1.2675  1.3543 -0.9703
 3786SOL    HW223013   0.849   4.501   7.290  0.7879  0.7844  1.8011
 3787SOL     OW23014   3.559   5.344   6.427 -0.2798  0.0024 -0.7561
 3787SOL    HW123015   3.509   5.283   6.365 -1.0100 -0.6408  0.4554
 3787SOL    HW223016   3.497   5.413   6.463  0.0826  0.2117 -0.5331
 3788SOL     OW23017   4.281   5.589   0.109  0.1168 -0.5405  0.3981
 3788SOL    HW123018   4.189   5.585   0.070  1.0302 -1.4478 -1.7984
 3788SOL    HW223019   4.292   5.517   0.177 -0.8806 -0.2227  0.9038
 3789SOL     OW23020   4.002   9.401   1.402  0.2566  0.5136 -0.2721
 3789SOL    HW123021   4.087   9.448   1.376 -0.1869  2.1317  1.1005
 3789SOL    HW223022   3.934   9.469   1.431 -0.8055 -0.9146  0.6478
 3790SOL     OW23023   0.598   0.934   2.718 -0.1697 -0.8822  0.6367
 3790SOL    HW123024   0.691   0.968   2.702 -0.6456  0.5829  0.8334
 3790SOL    HW223025   0.573   0.949   2.814 -2.0654  2.5977 -0.2949
 3791SOL     OW23026   0.317   1.874   4.042 -0.9476 -0.3985  0.0698
 3791SOL    HW123027   0.260   1.955   4.026 -0.4114  0.0966  0.6151
 3791SOL    HW223028   0.329   1.862   4.140  0.0317 -0.3935 -0.0449
 3792SOL     OW23029   4.818   9.593   8.496  0.8485 -0.3270 -0.0741
 3792SOL    HW123030   4.759   9.554   8.566  1.5419 -0.8119  0.2431
 3792SOL    HW223031   4.909   9.607   8.533  1.0350  0.0763 -0.6709
 3793SOL     OW23032   2.818   0.967   2.682 -0.2729  0.5310  0.9087
 3793SOL    HW123033   2.896   1.029   2.685 -0.8944  1.3127  1.0509
 3793SOL    HW223034   2.742   1.006   2.733 -0.3424 -0.8121  1.8786
 3794SOL     OW23035   4.538   2.332   0.628  0.4945  0.2444  0.4049
 3794SOL    HW123036   4.464   2.322   0.694  0.8723  0.1248  0.8151
 3794SOL    HW223037   4.593   2.413   0.652  0.7554  0.0792  0.3578
 3795SOL     OW23038   3.501   4.873   6.799 -0.6653  0.0815  0.2672
 3795SOL    HW123039   3.402   4.878   6.807 -0.7215  0.6718 -0.7151
 3795SOL    HW223040   3.527   4.786   6.758 -0.6873 -0.6055  1.6521
 3796SOL     OW23041   6.230   9.448   7.869 -0.7343 -0.3253 -0.3913
 3796SOL    HW123042   6.307   9.392   7.842 -0.7135  0.2678 -1.5867
 3796SOL    HW223043   6.173   9.398   7.935 -0.7491 -1.7597 -1.4690
 3797SOL     OW23044   5.446   0.637   6.841 -0.1190  0.2111 -0.1580
 3797SOL    HW123045   5.357   0.673   6.811 -0.0659  0.4855  0.0116
 3797SOL    HW223046   5.518   0.676   6.783 -0.0952  0.1052 -0.1994
 3798SOL     OW23047   0.768   2.029   3.561  0.5989  0.5159 -0.0461
 3798SOL    HW123048   0.816   2.106   3.602  0.2050 -0.1050  1.6250
 3798SOL    HW223049   0.731   1.970   3.633  0.4845 -0.9831 -1.2973
 3799SOL     OW23050   3.282   3.548   6.567  0.4880 -0.9246  0.6036
 3799SOL    HW123051   3.190   3.508   6.567  0.6996 -1.4461  2.6645
 3799SOL    HW223052   3.310   3.567   6.661  2.8828 -1.6673  0.0540
 3800SOL     OW23053   0.905   8.079   2.231 -0.1440 -0.8533 -0.2471
 3800SOL    HW123054   0.883   8.095   2.327  2.4053 -0.9509  0.3783
 3800SOL    HW223055   0.911   8.166   2.183 -0.9739 -0.7808 -0.2411
 3801SOL     OW23056   7.935   4.286   6.119 -0.3473 -0.1969  0.1026
 3801SOL    HW123057   7.937   4.357   6.188 -0.6559 -2.0820  2.1108
 3801SOL    HW223058   7.895   4.203   6.158  0.5316 -1.6490 -1.9998
 3802SOL     OW23059   1.985   0.224  10.040  0.5387 -0.2963 -0.7769
 3802SOL    HW123060   2.046   0.149  10.062 -0.0090 -0.0620  1.6535
 3802SOL    HW223061   1.890   0.194  10.052  0.2780  0.3277 -1.2635
 3803SOL     OW23062   9.457   1.833   4.782  0.1982  0.3009  0.3111
 3803SOL    HW123063   9.548   1.867   4.759  0.3421  0.2141  0.7541
 3803SOL    HW223064   9.390   1.907   4.774  0.1110  0.0810 -1.2073
 3804SOL     OW23065   9.647   2.048   2.255  0.3067 -0.4949 -0.4068
 3804SOL    HW123066   9.699   2.033   2.339 -3.5417  1.5050  2.4812
 3804SOL    HW223067   9.662   2.141   2.223 -1.0896 -0.0562  0.1865
 3805SOL     OW23068   7.592   0.242   7.866  0.1599 -0.7612 -0.2537
 3805SOL    HW123069   7.495   0.265   7.871  0.6532  0.9891  1.9415
 3805SOL    HW223070   7.630   0.274   7.779 -0.7818  0.3461 -0.2649
 3806SOL     OW23071   6.265   5.411   0.170  0.1469 -0.4473  0.6359
 3806SOL    HW123072   6.358   5.429   0.202 -0.4055 -0.4594  2.2672
 3806SOL    HW223073   6.201   5.470   0.218 -0.6749 -0.2803 -0.6499
 3807SOL     OW23074   7.488   3.654   1.509 -0.4805 -0.6564  0.2422
 3807SOL    HW123075   7.576   3.680   1.469 -0.2551 -0.1530  1.0360
 3807SOL    HW223076   7.422   3.636   1.437 -0.8414  2.8267 -0.4001
 3808SOL     OW23077   3.254   3.569   5.701 -0.6053 -0.2770 -0.3991
 3808SOL    HW123078   3.253   3.498   5.772 -0.0157  0.4292  0.3313
 3808SOL    HW223079   3.203   3.649   5.734 -0.9263 -0.2137 -1.0541
 3809SOL     OW23080   8.971   9.473   4.185 -0.2098  0.0500 -0.4481
 3809SOL    HW123081   9.001   9.459   4.091  0.5927  1.9151 -0.5166
 3809SOL    HW223082   8.909   9.551   4.189 -0.9895 -0.6040  0.4434
 3810SOL     OW23083   8.844   6.029   6.366  0.1401 -0.0324 -0.2345
 3810SOL    HW123084   8.911   6.102   6.376  0.4920 -0.6446  2.2916
 3810SOL    HW223085   8.804   6.008   6.455 -1.7078 -1.2807 -1.3222
 3811SOL     OW23086   0.978   1.807   2.281  0.6632  0.3220 -0.0447
 3811SOL    HW123087   0.912   1.773   2.348 -0.9561  0.2834 -1.6197
 3811SOL    HW223088   1.067   1.764   2.297  0.0853 -0.3296  1.5278
 3812SOL     OW23089   6.946   4.035   0.623  0.1978  0.7192 -0.1859
 3812SOL    HW123090   6.861   4.015   0.574  0.3005 -0.5509  0.1212
 3812SOL    HW223091   6.924   4.064   0.716  0.0715  1.1998 -0.3647
 3813SOL     OW23092   8.299   5.343   3.464  0.1017 -0.1481  0.3254
 3813SOL    HW123093   8.268   5.378   3.552 -3.7156 -1.0131 -0.5784
 3813SOL    HW223094   8.326   5.420   3.405 -0.2392  0.6480  1.2007
 3814SOL     OW23095   9.329   8.268   6.040 -0.0881  0.4067  0.0855
 3814SOL    HW123096   9.287   8.289   5.952 -1.2824  1.2947  0.8466
 3814SOL    HW223097   9.425   8.242   6.026 -0.5146 -0.3766 -1.5583
 3815SOL     OW23098   5.847   1.938   5.169  0.6452 -1.0437 -0.0461
 3815SOL    HW123099   5.853   1.997   5.250  1.3235  0.9220 -1.4906
 3815SOL    HW223100   5.754   1.900   5.163 -0.1293  0.7248  0.3317
 3816SOL     OW23101   3.444   7.971   5.820  0.5270 -0.0293 -0.6198
 3816SOL    HW123102   3.367   8.034   5.814 -0.1058 -0.6575  0.8515
 3816SOL    HW223103   3.446   7.928   5.910  0.2891 -2.9354 -1.9330
 3817SOL     OW23104   0.357   1.920   1.832  0.4896 -0.2032  0.3294
 3817SOL    HW123105   0.368   1.840   1.774  1.1780 -0.4595  0.8016
 3817SOL    HW223106   0.306   1.991   1.783  2.1509  0.0641 -1.0545
 3818SOL     OW23107   2.088   2.843   9.911  0.0852  0.2349 -0.2542
 3818SOL    HW123108   2.075   2.754   9.956  1.4493 -0.5173 -1.3050
 3818SOL    HW223109   2.159   2.894   9.961  0.5454  0.0046 -0.6646
 3819SOL     OW23110   7.512   7.419   8.336  0.4005 -0.0900 -0.0833
 3819SOL    HW123111   7.607   7.402   8.364  0.2734 -2.8216 -1.0660
 3819SOL    HW223112   7.463   7.331   8.332 -1.8981  1.1808 -0.5450
 3820SOL     OW23113   9.830   8.457   6.610 -0.2880  0.2141 -0.6014
 3820SOL    HW123114   9.904   8.504   6.659 -0.4153  0.5569 -0.7362
 3820SOL    HW223115   9.817   8.366   6.649  1.1322 -0.3788 -1.4576
 3821SOL     OW23116   9.251   5.946   5.967  0.1456  0.0231  0.4160
 3821SOL    HW123117   9.278   5.904   6.054  0.8116  2.1898  1.2907
 3821SOL    HW223118   9.296   5.898   5.892 -1.8380 -3.0410  1.0626
 3822SOL     OW23119   2.455   9.894   2.541 -0.0781 -0.2339 -0.2183
 3822SOL    HW123120   2.444   9.979   2.592  1.1919  0.9405 -1.8293
 3822SOL    HW223121   2.370   9.873   2.493 -0.2304  0.4121 -0.2294
 3823SOL     OW23122   8.593   0.063   1.042  0.0751 -0.2958  0.2274
 3823SOL    HW123123   8.677   0.070   1.094 -0.3473  1.9881  0.6698
 3823SOL    HW223124   8.610   0.091   0.947 -0.2152  0.3618  0.3662
 3824SOL     OW23125   8.470   9.178   2.179  0.5075  0.1470 -0.5223
 3824SOL    HW123126   8.403   9.195   2.106  0.8043  0.9991 -0.5969
 3824SOL    HW223127   8.428   9.197   2.268  1.6042  3.8399 -0.7300
 3825SOL     OW23128   7.576   8.479   7.994  0.3711 -0.6597  0.0726
 3825SOL    HW123129   7.501   8.490   7.929 -1.1720 -0.7644  1.7858
 3825SOL    HW223130   7.624   8.394   7.975 -1.6689 -1.9610  0.6415
 3826SOL     OW23131   0.159   8.560   1.086  0.4629  0.0293 -0.1000
 3826SOL    HW123132   0.245   8.594   1.048  0.7049  0.4383  0.8032
 3826SOL    HW223133   0.143   8.467   1.054  0.2763  0.6297 -1.8248
 3827SOL     OW23134   5.575   9.277   5.146 -0.6254 -0.2585 -0.0258
 3827SOL    HW123135   5.548   9.348   5.081 -0.3827 -0.1983 -0.0612
 3827SOL    HW223136   5.669   9.293   5.176 -1.2035  0.5423  1.4288
 3828SOL     OW23137   7.570   0.177   3.169 -0.0144  0.2648  0.4348
 3828SOL    HW123138   7.535   0.084   3.165  1.5423 -0.2829 -1.4897
 3828SOL    HW223139   7.500   0.238   3.205 -1.0754 -1.6315  1.6411
 3829SOL     OW23140   4.256   1.489   6.999 -0.1806 -0.2316  0.0944
 3829SOL    HW123141   4.212   1.422   6.938  1.0304  0.2958 -1.4101
 3829SOL    HW223142   4.208   1.576   6.993 -0.5417 -0.4042  0.5000
 3830SOL     OW23143   1.971   1.216   1.865 -0.0382 -0.6141  0.2194
 3830SOL    HW123144   1.930   1.144   1.809  1.6383 -1.4765  0.0529
 3830SOL    HW223145   1.999   1.292   1.806  0.4010 -0.8933  0.0618
 3831SOL     OW23146   9.843   0.417   6.601 -0.4180 -0.1043 -0.1961
 3831SOL    HW123147   9.762   0.432   6.657  0.3276  0.5133  0.7222
 3831SOL    HW223148   9.852   0.320   6.581 -0.0092 -0.4957  1.7924
 3832SOL     OW23149   2.151   0.288   3.744 -0.4116  0.2354 -0.3777
 3832SOL    HW123150   2.182   0.340   3.664 -1.3032 -2.1155 -2.3280
 3832SOL    HW223151   2.213   0.212   3.760 -1.0135 -0.1094  0.3215
 3833SOL     OW23152   0.044   8.522   6.781  0.1684 -0.5064 -0.1107
 3833SOL    HW123153   0.032   8.489   6.874  0.1381 -2.1264 -0.6803
 3833SOL    HW223154   0.141   8.541   6.764  0.6633 -3.4649 -0.8045
 3834SOL     OW23155   2.230   2.861   6.622 -0.1855  0.3085 -0.2196
 3834SOL    HW123156   2.251   2.769   6.654  0.7901  1.2161  1.9130
 3834SOL    HW223157   2.315   2.906   6.594 -0.5713  0.7585 -0.6719
 3835SOL     OW23158   9.202   8.885   5.214 -0.3886  0.2658 -0.2258
 3835SOL    HW123159   9.269   8.950   5.178 -1.9587  1.3991 -1.1660
 3835SOL    HW223160   9.149   8.928   5.286  0.5067 -0.9421  1.1988
 3836SOL     OW23161   0.928   1.216   0.631  0.1052  0.5479  0.8095
 3836SOL    HW123162   0.980   1.139   0.596  1.9044  2.0876  0.0221
 3836SOL    HW223163   0.911   1.282   0.558  0.6146  2.0057  1.9744
 3837SOL     OW23164   0.487   2.805   7.755 -0.0054  0.4964  0.6198
 3837SOL    HW123165   0.529   2.715   7.740  2.3132  1.5546  0.4423
 3837SOL    HW223166   0.429   2.829   7.677  0.1623 -0.4177  0.2101
 3838SOL     OW23167   3.890   3.640   3.292 -0.3956 -0.4362  0.1754
 3838SOL    HW123168   3.879   3.582   3.373  0.0446 -0.8982 -0.0940
 3838SOL    HW223169   3.914   3.733   3.322 -2.0713 -0.1413  0.6373
 3839SOL     OW23170   9.252   0.564   1.334  0.1556 -0.5047 -0.6439
 3839SOL    HW123171   9.218   0.596   1.423  1.7418  0.4648 -0.3606
 3839SOL    HW223172   9.193   0.492   1.299 -0.9910 -0.2737  0.7889
 3840SOL     OW23173   3.800   2.605   3.168 -0.0491  0.4234  0.2198
 3840SOL    HW123174   3.712   2.566   3.196  0.2142 -0.2652  0.0870
 3840SOL    HW223175   3.788   2.656   3.083 -0.3654  0.5270  0.3228
 3841SOL     OW23176   6.175   6.386   1.011 -0.4987 -0.3190  0.2199
 3841SOL    HW123177   6.165   6.375   0.912  1.0001  0.4766 -0.0379
 3841SOL    HW223178   6.157   6.299   1.057 -0.4122 -0.8869 -0.8097
 3842SOL     OW23179   5.166   0.138   4.471 -0.4057  0.7834 -0.1641
 3842SOL    HW123180   5.220   0.130   4.555 -1.4071  0.0514  0.4248
 3842SOL    HW223181   5.193   0.065   4.408 -0.4645  0.6323 -0.0142
 3843SOL     OW23182   2.336   8.126   1.788 -0.1219  0.1467  0.1172
 3843SOL    HW123183   2.258   8.119   1.851  0.4374  0.4116  0.8419
 3843SOL    HW223184   2.322   8.204   1.728 -0.0565  0.6473  0.7481
 3844SOL     OW23185   0.865   1.012   0.321  0.4007 -0.3478 -0.0805
 3844SOL    HW123186   0.827   0.921   0.303  1.4808 -0.4934 -1.6533
 3844SOL    HW223187   0.946   1.003   0.379 -0.2300 -0.2682  0.8308
 3845SOL     OW23188   1.974   6.004   5.596 -0.0280  0.1404  0.2452
 3845SOL    HW123189   1.948   6.099   5.581 -0.3271  0.1577  0.8520
 3845SOL    HW223190   1.978   5.986   5.694  1.6977 -0.0085  0.1641
 3846SOL     OW23191   9.379   6.130   7.667  0.3798  0.2391  0.6774
 3846SOL    HW123192   9.304   6.170   7.612 -0.5906 -2.0497  0.2800
 3846SOL    HW223193   9.466   6.154   7.625 -0.1873  1.5655  0.1991
 3847SOL     OW23194   9.175   2.744   3.900  0.5903  0.4923 -0.3882
 3847SOL    HW123195   9.137   2.736   3.808 -0.5043 -0.5985  0.1305
 3847SOL    HW223196   9.207   2.837   3.915 -0.2441  0.9710 -1.4885
 3848SOL     OW23197   9.510   5.891   1.871 -0.0860 -0.1140 -0.5224
 3848SOL    HW123198   9.479   5.860   1.961 -0.1126 -0.2673 -0.5843
 3848SOL    HW223199   9.559   5.977   1.881 -2.9817  1.6385 -0.7496
 3849SOL     OW23200   8.341   6.257   3.131 -0.0416  0.3966 -0.0000
 3849SOL    HW123201   8.341   6.351   3.165  1.8383  0.2514  0.4395
 3849SOL    HW223202   8.432   6.233   3.099 -0.6982 -1.0229 -0.8472
 3850SOL     OW23203   1.462   7.198   0.034 -0.1929  0.1789  0.3286
 3850SOL    HW123204   1.495   7.130  -0.031 -0.4283 -0.2503  0.6587
 3850SOL    HW223205   1.535   7.264   0.053 -0.7130  1.4135 -1.8172
 3851SOL     OW23206   6.313   9.900   7.340  0.1397 -0.0234  0.0614
 3851SOL    HW123207   6.283   9.902   7.244 -0.8514  0.5378  0.3692
 3851SOL    HW223208   6.271   9.822   7.387  2.5675 -1.7513 -0.5510
 3852SOL     OW23209   5.030   6.099   2.578  0.1253 -0.4323 -0.6271
 3852SOL    HW123210   5.047   6.029   2.647 -1.4314 -0.2323 -0.0234
 3852SOL    HW223211   4.937   6.089   2.541  0.4572  0.2968 -1.7169
 3853SOL     OW23212   0.288   2.874   1.765 -0.1898  0.3221  0.2988
 3853SOL    HW123213   0.194   2.899   1.788 -0.6492 -1.5839  0.5598
 3853SOL    HW223214   0.351   2.941   1.806 -1.4212  1.6570  0.0392
 3854SOL     OW23215   3.217   2.472   1.399  0.1712  0.2635 -0.1660
 3854SOL    HW123216   3.206   2.416   1.481  0.4849 -1.2592 -1.1444
 3854SOL    HW223217   3.310   2.462   1.364 -0.1972  0.2656 -1.1509
 3855SOL     OW23218   0.955   5.239   0.294  0.4316 -0.1969 -0.6226
 3855SOL    HW123219   1.030   5.185   0.257  0.4905 -0.9928  0.6565
 3855SOL    HW223220   0.900   5.276   0.218  1.8343  0.0131 -1.5496
 3856SOL     OW23221   8.533   0.203   3.868  0.4289 -0.4730  0.0473
 3856SOL    HW123222   8.511   0.273   3.800 -1.2793 -0.6893  0.3493
 3856SOL    HW223223   8.501   0.114   3.836 -0.8678 -0.4958  1.3334
 3857SOL     OW23224   2.469   2.466   1.648  0.2242 -0.1459 -0.4944
 3857SOL    HW123225   2.391   2.500   1.596 -0.2690 -0.3718  0.0982
 3857SOL    HW223226   2.535   2.540   1.662 -0.1519  0.1885 -0.4997
 3858SOL     OW23227   9.631   5.228   5.301 -0.6220 -0.1187  0.2502
 3858SOL    HW123228   9.606   5.279   5.219  0.5513  1.6983  0.9827
 3858SOL    HW223229   9.628   5.130   5.281  0.0472  0.2974 -2.0933
 3859SOL     OW23230   3.834   2.125   6.683  0.4618  0.5220 -0.2392
 3859SOL    HW123231   3.816   2.182   6.762 -0.8514 -0.2612  0.0422
 3859SOL    HW223232   3.766   2.052   6.678  0.1900  0.8814 -2.3922
 3860SOL     OW23233   1.872   0.039   6.388  0.3895 -0.3264  0.5316
 3860SOL    HW123234   1.925   0.078   6.462 -0.0710 -0.7132  1.0681
 3860SOL    HW223235   1.915  -0.046   6.356  2.1569  1.2742 -1.5556
 3861SOL     OW23236   2.097   1.626   2.470  0.6475  0.1677  0.8760
 3861SOL    HW123237   2.055   1.717   2.474  1.2120  0.4890 -0.4551
 3861SOL    HW223238   2.087   1.581   2.559 -0.1249  1.3095  1.3735
 3862SOL     OW23239   4.186   9.338   0.910  0.0143 -0.1071 -0.3222
 3862SOL    HW123240   4.264   9.285   0.943 -1.2856 -0.8507  1.6392
 3862SOL    HW223241   4.110   9.277   0.891 -1.1062  0.9088  0.7921
 3863SOL     OW23242   8.381   8.930   6.450 -0.0846 -0.3515  0.6687
 3863SOL    HW123243   8.439   9.001   6.490 -0.6780 -0.2538  1.3794
 3863SOL    HW223244   8.313   8.973   6.390  0.9220 -0.5129 -0.6086
 3864SOL     OW23245   2.952   9.699   1.036  0.1867  0.3251  0.3835
 3864SOL    HW123246   3.006   9.784   1.033  2.5860 -1.1812 -0.6363
 3864SOL    HW223247   2.858   9.719   1.006  0.7004  2.6171  0.1422
 3865SOL     OW23248   3.782   0.525   3.318  0.3913 -0.2975  0.4962
 3865SOL    HW123249   3.704   0.522   3.381 -0.1349 -0.6111 -0.1729
 3865SOL    HW223250   3.749   0.525   3.224  1.1394  1.6308  0.2196
 3866SOL     OW23251   8.741   1.017   0.757  0.1218 -0.1091 -0.9132
 3866SOL    HW123252   8.673   0.948   0.731 -0.2663  0.6741 -1.9979
 3866SOL    HW223253   8.696   1.104   0.776  0.5625 -0.2771  0.9633
 3867SOL     OW23254   0.410   3.668  10.060 -0.3367 -0.6101  0.1931
 3867SOL    HW123255   0.400   3.748  10.001 -1.4526 -0.2737  0.8235
 3867SOL    HW223256   0.448   3.697  10.148  0.8943 -1.0422 -0.1857
 3868SOL     OW23257   5.065   6.509   1.851 -0.2385  0.4706 -0.4677
 3868SOL    HW123258   5.022   6.426   1.818  0.9610 -1.1880  1.9935
 3868SOL    HW223259   5.004   6.555   1.916 -0.1251  0.4933 -0.3757
 3869SOL     OW23260   9.809   8.624   0.528 -1.0363  0.2557 -0.0506
 3869SOL    HW123261   9.714   8.657   0.527 -0.0150  3.3580  0.0899
 3869SOL    HW223262   9.860   8.668   0.455  0.3679 -1.2846 -0.0266
 3870SOL     OW23263   9.732   0.398   0.162  0.2402 -0.1137 -0.5212
 3870SOL    HW123264   9.651   0.416   0.219  0.8898 -0.1447  0.4273
 3870SOL    HW223265   9.748   0.299   0.158 -0.0824 -0.1412 -1.1533
 3871SOL     OW23266   9.163   8.013   2.462 -0.2187 -0.0736 -0.8493
 3871SOL    HW123267   9.182   8.071   2.383 -0.2171 -1.5162 -1.9457
 3871SOL    HW223268   9.081   7.958   2.443 -0.9605  0.5079  0.6788
 3872SOL     OW23269   3.197   9.266   4.540 -0.1356  0.1782 -0.2585
 3872SOL    HW123270   3.114   9.323   4.542  0.0802  0.6538 -3.0716
 3872SOL    HW223271   3.172   9.172   4.518 -0.1252 -0.0963  0.8870
 3873SOL     OW23272   0.739   6.466   1.048  0.5193 -0.0072 -0.3078
 3873SOL    HW123273   0.769   6.386   1.101  1.9282  1.0931  0.5814
 3873SOL    HW223274   0.819   6.518   1.019 -0.2265 -0.5054 -3.4448
 3874SOL     OW23275   0.801   9.448   3.612 -0.0504 -0.2586  0.8510
 3874SOL    HW123276   0.834   9.365   3.656 -2.9304 -1.4556  0.8823
 3874SOL    HW223277   0.877   9.511   3.597  1.9053 -2.2153  2.3048
 3875SOL     OW23278   3.761   9.383   0.044 -0.9830 -0.4141 -0.0112
 3875SOL    HW123279   3.842   9.338   0.008 -1.6559 -0.0726 -2.0521
 3875SOL    HW223280   3.787   9.468   0.091 -0.1158 -0.5660 -0.2185
 3876SOL     OW23281   0.534   9.412   6.858  0.0155 -0.1550 -0.3477
 3876SOL    HW123282   0.622   9.460   6.867 -0.5265  0.8382 -0.3669
 3876SOL    HW223283   0.535   9.355   6.776  1.0040 -0.9092  0.1723
 3877SOL     OW23284   8.529   2.486   0.261 -0.1439 -0.1943  0.3089
 3877SOL    HW123285   8.582   2.499   0.178 -0.2388 -0.7880  0.1537
 3877SOL    HW223286   8.444   2.538   0.255  1.0475  1.9312  1.1511
 3878SOL     OW23287   4.483   3.449   1.215  0.3629 -0.3951  0.0219
 3878SOL    HW123288   4.471   3.369   1.273 -0.0881  0.3988  1.0405
 3878SOL    HW223289   4.446   3.530   1.262 -0.8004  0.1162 -1.7240
 3879SOL     OW23290   1.472   7.991   6.283 -0.5668  0.4827  0.2551
 3879SOL    HW123291   1.470   8.091   6.286  0.9779  0.5651 -0.8427
 3879SOL    HW223292   1.449   7.961   6.190 -0.7113 -0.1675  0.5039
 3880SOL     OW23293   3.813   8.553   2.840 -0.0012 -0.2707 -0.0990
 3880SOL    HW123294   3.806   8.461   2.803 -1.5614  0.2678 -1.2017
 3880SOL    HW223295   3.891   8.600   2.800  0.5397 -0.9669  0.1390
 3881SOL     OW23296   3.412   6.757   0.618 -0.1609 -0.4169  0.0513
 3881SOL    HW123297   3.418   6.657   0.619  0.4481 -0.3993 -0.7746
 3881SOL    HW223298   3.354   6.786   0.541 -0.6077 -0.1403  0.4858
 3882SOL     OW23299   3.133   3.501   1.025 -0.1307  0.5440 -0.2026
 3882SOL    HW123300   3.151   3.599   1.015 -0.7579  0.7945  0.9621
 3882SOL    HW223301   3.104   3.463   0.938  1.3193  1.1363 -0.9560
 3883SOL     OW23302   7.868   8.470   2.399 -0.1963  0.2714 -0.1840
 3883SOL    HW123303   7.787   8.412   2.407 -0.4288  0.7573  1.0542
 3883SOL    HW223304   7.950   8.417   2.420 -0.3669  0.2778  0.4973
 3884SOL     OW23305   6.849   1.807   7.591  0.7863  0.1155  0.7837
 3884SOL    HW123306   6.798   1.765   7.667  1.5832  0.0152  1.2694
 3884SOL    HW223307   6.812   1.899   7.574 -0.3860 -0.4345  0.2941
 3885SOL     OW23308   4.923   7.538   2.465 -0.3893 -0.3098 -0.0058
 3885SOL    HW123309   5.009   7.573   2.503 -0.5367  2.2845 -1.9257
 3885SOL    HW223310   4.891   7.600   2.393 -2.5467 -2.6071 -1.0878
 3886SOL     OW23311   8.093   0.386   6.453 -0.0034  0.1874  0.6315
 3886SOL    HW123312   8.116   0.336   6.537 -1.7757 -1.5323  0.1083
 3886SOL    HW223313   8.066   0.479   6.477  0.3253 -0.0226  1.8943
 3887SOL     OW23314   9.807   9.615   6.289 -0.0961 -0.0765 -0.8370
 3887SOL    HW123315   9.777   9.689   6.350  1.9456  0.7630 -0.7987
 3887SOL    HW223316   9.843   9.540   6.344  0.3543  0.0540 -0.9501
 3888SOL     OW23317   9.184   3.555   6.397 -0.1348  0.4056 -0.1611
 3888SOL    HW123318   9.254   3.618   6.431 -0.0530  0.5732 -0.6217
 3888SOL    HW223319   9.206   3.530   6.302 -1.3223  1.3897 -0.7046
 3889SOL     OW23320   0.216   4.694   0.610  0.1188  0.2995  0.2120
 3889SOL    HW123321   0.238   4.597   0.620 -1.2477  0.0744  1.1526
 3889SOL    HW223322   0.210   4.737   0.700  1.2565  1.3877 -0.2249
 3890SOL     OW23323   1.100   3.896   3.390 -0.0786 -0.3782 -0.2702
 3890SOL    HW123324   1.104   3.995   3.405 -1.7101 -0.0709 -1.7144
 3890SOL    HW223325   1.019   3.859   3.435 -1.4909 -0.4535 -2.7921
 3891SOL     OW23326   3.236   9.783   2.600 -0.1887  0.0391 -0.3977
 3891SOL    HW123327   3.143   9.816   2.582  0.6307  1.6742 -1.7656
 3891SOL    HW223328   3.237   9.683   2.598 -1.7997  0.0109 -0.9347
 3892SOL     OW23329   8.043   1.828   2.910 -0.5032  0.2644 -0.1339
 3892SOL    HW123330   8.101   1.864   2.836  0.4484  0.3062  0.6226
 3892SOL    HW223331   8.038   1.728   2.903  1.5881  0.0319  1.1561
 3893SOL     OW23332   4.623   5.717   2.509  0.2197 -0.0309  0.4873
 3893SOL    HW123333   4.614   5.623   2.475 -1.8475  0.4763 -0.4798
 3893SOL    HW223334   4.719   5.739   2.524  0.9398 -1.3335 -2.0460
 3894SOL     OW23335   3.783   2.785   3.864  0.1815  0.2122 -0.1763
 3894SOL    HW123336   3.761   2.773   3.961  1.3058 -0.0539  0.0491
 3894SOL    HW223337   3.799   2.882   3.845  0.1502  0.2416 -0.0524
 3895SOL     OW23338   6.638   4.987   9.713  0.0894  0.3200 -0.5162
 3895SOL    HW123339   6.565   4.922   9.692  0.4913 -0.0060 -0.9005
 3895SOL    HW223340   6.715   4.939   9.754  0.3158  0.5741 -0.6409
 3896SOL     OW23341   6.856   9.802   2.261  0.3008  0.1210 -0.6563
 3896SOL    HW123342   6.786   9.866   2.230  1.4740  1.2106 -1.1126
 3896SOL    HW223343   6.869   9.812   2.360 -0.9453 -0.8570 -0.3842
 3897SOL     OW23344   1.061   9.864   5.971 -0.3524  0.3820  0.6187
 3897SOL    HW123345   1.005   9.945   5.952  1.5428  1.4800 -0.5108
 3897SOL    HW223346   1.151   9.894   6.005  0.0591 -1.2906  1.0340
 3898SOL     OW23347   1.813   4.201   0.669 -0.1326 -0.1794  0.2019
 3898SOL    HW123348   1.827   4.254   0.753  0.8025  1.1210 -0.7504
 3898SOL    HW223349   1.889   4.218   0.606 -0.3927 -1.8111 -0.5788
 3899SOL     OW23350   1.076   6.096   5.904 -0.6764 -0.1032  0.5875
 3899SOL    HW123351   1.148   6.027   5.890 -0.5854 -0.3566  2.1439
 3899SOL    HW223352   1.006   6.058   5.965 -1.1802  0.8065  0.5810
 3900SOL     OW23353   4.270   9.584   6.753 -0.2936  0.1120  0.2780
 3900SOL    HW123354   4.294   9.673   6.715  0.1051  0.0586  0.3977
 3900SOL    HW223355   4.207   9.596   6.830  2.3965  0.5343  2.4930
 3901SOL     OW23356   4.614   7.183   2.154 -0.0726 -0.2608 -0.0218
 3901SOL    HW123357   4.623   7.262   2.093 -0.1979  0.6114  1.0847
 3901SOL    HW223358   4.691   7.121   2.140  1.4809  1.3877  1.0250
 3902SOL     OW23359   7.168   9.405   8.693  0.3667  0.2480  0.2373
 3902SOL    HW123360   7.152   9.320   8.743 -0.7819  1.2092  1.5603
 3902SOL    HW223361   7.254   9.445   8.723  0.9194 -0.4546 -0.4022
 3903SOL     OW23362   8.139   3.393   6.281  0.3061  0.1927  0.2815
 3903SOL    HW123363   8.210   3.428   6.219 -0.4879  2.2493  0.4896
 3903SOL    HW223364   8.144   3.293   6.284  0.7206  0.0577 -2.6959
 3904SOL     OW23365   9.031   3.969   2.301 -0.5864  0.2605  0.3123
 3904SOL    HW123366   9.058   3.936   2.391  1.1141 -0.3838 -0.4015
 3904SOL    HW223367   8.941   4.012   2.306 -0.1216  1.0115  2.4625
 3905SOL     OW23368   3.246   5.065   6.222 -0.1249 -0.1995 -0.3171
 3905SOL    HW123369   3.232   5.007   6.302 -0.8102  0.5151  0.0875
 3905SOL    HW223370   3.158   5.097   6.187  0.2574  0.9230 -0.2917
 3906SOL     OW23371   5.965   9.445   4.949 -0.1612 -0.0438  0.3613
 3906SOL    HW123372   5.932   9.351   4.962 -0.7010  0.1020  0.0587
 3906SOL    HW223373   6.065   9.446   4.958 -0.1381 -0.6718  0.2409
 3907SOL     OW23374   1.352   6.812   6.973 -0.8618 -0.6626 -0.1155
 3907SOL    HW123375   1.284   6.762   6.919 -2.7838 -0.1490  1.7429
 3907SOL    HW223376   1.333   6.910   6.968  0.4971 -0.4150 -0.5625
 3908SOL     OW23377   7.118   2.479   2.693  0.0827 -0.2191 -0.3605
 3908SOL    HW123378   7.128   2.578   2.705 -0.3879 -0.2803  0.6540
 3908SOL    HW223379   7.201   2.441   2.651  0.9778  0.3549  0.8554
 3909SOL     OW23380   0.850   1.551   0.147 -0.0922  0.3526  0.3282
 3909SOL    HW123381   0.912   1.488   0.099 -0.0945 -0.5661  1.5039
 3909SOL    HW223382   0.778   1.498   0.192 -1.0196  1.3254 -0.0002
 3910SOL     OW23383   3.901   4.722   7.015  0.4002 -0.5008  0.0938
 3910SOL    HW123384   3.810   4.697   7.048 -0.3985  0.9237 -0.9631
 3910SOL    HW223385   3.934   4.803   7.066  0.0491  0.4322 -1.1379
 3911SOL     OW23386   2.791   2.106   3.096 -0.0924  0.5549  0.5180
 3911SOL    HW123387   2.719   2.099   3.027  0.8206  0.9450 -0.4956
 3911SOL    HW223388   2.829   2.015   3.114 -2.3094  0.0189  2.6806
 3912SOL     OW23389   8.383   2.581   6.264  0.3431 -0.4865 -0.8804
 3912SOL    HW123390   8.333   2.495   6.258 -0.2131 -0.1919 -0.4753
 3912SOL    HW223391   8.463   2.569   6.323 -0.9899 -0.1302  1.0204
 3913SOL     OW23392   4.680   2.102   6.025 -0.2374 -0.0736 -0.7293
 3913SOL    HW123393   4.705   2.196   6.003  0.1960 -0.0712 -0.2426
 3913SOL    HW223394   4.732   2.039   5.966 -1.1347  0.0116 -1.6217
 3914SOL     OW23395   8.593   8.858   1.821 -0.3776  0.2846 -0.7586
 3914SOL    HW123396   8.648   8.926   1.870 -0.6467 -0.2114  0.2536
 3914SOL    HW223397   8.506   8.845   1.868 -0.4867 -0.4735 -1.1561
 3915SOL     OW23398   8.787   6.799   4.676  0.4688  0.1280  0.0894
 3915SOL    HW123399   8.810   6.857   4.598 -0.1541  0.4584  0.1499
 3915SOL    HW223400   8.690   6.811   4.699  0.8310  0.6057  1.3901
 3916SOL     OW23401   3.278   8.466   1.869  0.0361  0.2277 -0.0440
 3916SOL    HW123402   3.288   8.368   1.885  2.2052  0.0321 -2.2705
 3916SOL    HW223403   3.359   8.514   1.903 -0.0258  0.9882 -0.9623
 3917SOL     OW23404   0.298   0.189   2.298 -0.0551  0.0284  0.3295
 3917SOL    HW123405   0.234   0.230   2.363 -1.3313 -0.5378 -0.5613
 3917SOL    HW223406   0.343   0.261   2.245  0.6015  0.4644  1.4506
 3918SOL     OW23407   2.518   7.164   1.709  0.3444  0.3338 -0.3589
 3918SOL    HW123408   2.542   7.221   1.630 -0.7780  1.9378  0.4249
 3918SOL    HW223409   2.600   7.117   1.741  0.9367  0.1022 -2.1147
 3919SOL     OW23410   2.936   3.415   3.649 -0.2105 -0.3179  0.1032
 3919SOL    HW123411   2.890   3.328   3.631  0.4572 -0.6316 -0.0973
 3919SOL    HW223412   2.881   3.490   3.614 -0.9399 -0.6359  0.5471
 3920SOL     OW23413   2.874   4.288   2.714 -0.1439  0.3921 -0.0039
 3920SOL    HW123414   2.832   4.349   2.647  0.0372  0.8478  0.2927
 3920SOL    HW223415   2.819   4.205   2.723 -1.1175  1.0783  0.5468
 3921SOL     OW23416   6.031   4.636   0.237  0.0886 -0.1094 -0.0935
 3921SOL    HW123417   6.090   4.659   0.159 -1.8921 -0.2111 -1.6405
 3921SOL    HW223418   6.016   4.537   0.240 -0.2700 -0.0498  0.0985
 3922SOL     OW23419   2.468   6.672   4.440  0.1075 -0.3704 -0.3873
 3922SOL    HW123420   2.424   6.588   4.407  2.4030 -1.6423 -0.2917
 3922SOL    HW223421   2.526   6.709   4.368 -0.0901  0.5658 -0.0633
 3923SOL     OW23422   9.439   2.920   5.520  0.2543 -0.0734 -0.8182
 3923SOL    HW123423   9.419   2.836   5.469  0.1708 -1.4434  1.3882
 3923SOL    HW223424   9.382   2.994   5.486  0.7330 -0.7551 -3.1819
 3924SOL     OW23425   1.571   7.808   2.314  0.3980  0.2156  0.3005
 3924SOL    HW123426   1.515   7.726   2.323 -0.4194  0.7026 -0.2869
 3924SOL    HW223427   1.544   7.874   2.384 -1.6048  1.4920 -1.5914
 3925SOL     OW23428   4.820   0.418   2.452 -0.3379  0.4484  0.3833
 3925SOL    HW123429   4.911   0.382   2.431 -0.7522 -1.2768  1.4355
 3925SOL    HW223430   4.769   0.432   2.367  0.3779 -0.0120 -0.1226
 3926SOL     OW23431   9.389   1.106   2.662  0.0264  0.2274  0.3941
 3926SOL    HW123432   9.429   1.188   2.701 -1.4656  1.1010  0.1212
 3926SOL    HW223433   9.395   1.110   2.562  0.0687 -0.0610  0.3840
 3927SOL     OW23434   9.541   7.760   3.629 -0.0051  0.1161  0.1687
 3927SOL    HW123435   9.558   7.702   3.550  1.8754  0.8085  0.0340
 3927SOL    HW223436   9.548   7.706   3.712  0.2715 -0.1506 -0.0257
 3928SOL     OW23437   1.054   0.068   2.487  0.3253 -0.2058  0.9344
 3928SOL    HW123438   1.005   0.131   2.427 -0.0114  0.8117  2.2789
 3928SOL    HW223439   1.056  -0.023   2.444 -1.6857  0.0163  0.2997
 3929SOL     OW23440   6.557   8.501   4.827 -0.1883 -0.2436 -0.0138
 3929SOL    HW123441   6.491   8.438   4.869 -1.9450 -0.5716 -3.0897
 3929SOL    HW223442   6.517   8.592   4.821  0.6303  0.1458  0.3697
 3930SOL     OW23443   2.179   8.425   2.186  0.4267  0.6000 -0.3492
 3930SOL    HW123444   2.138   8.336   2.204  1.6301 -0.0065 -0.5307
 3930SOL    HW223445   2.166   8.450   2.090 -0.0916  0.7239 -0.2502
 3931SOL     OW23446   8.416   4.819   2.570  0.4401  0.6574  0.1518
 3931SOL    HW123447   8.325   4.788   2.542  0.6195 -0.6464  0.9618
 3931SOL    HW223448   8.462   4.745   2.620  0.5389  2.5519  2.9370
 3932SOL     OW23449   9.029   5.380   3.485  0.2526 -0.1726  0.2641
 3932SOL    HW123450   8.963   5.365   3.411  0.9263 -1.0421 -0.1677
 3932SOL    HW223451   9.065   5.473   3.478  0.2693 -0.2265 -0.4880
 3933SOL     OW23452   3.147   5.337   0.240  0.0260  0.6051 -0.5843
 3933SOL    HW123453   3.171   5.254   0.290  0.1071  0.3250 -1.0932
 3933SOL    HW223454   3.052   5.362   0.262  0.1753  0.6843 -0.0119
 3934SOL     OW23455   1.788   8.467   6.313 -0.4236 -0.1777 -0.3210
 3934SOL    HW123456   1.754   8.401   6.246  0.4068 -0.3071 -0.6185
 3934SOL    HW223457   1.881   8.442   6.340  0.3328  1.5274 -1.2880
 3935SOL     OW23458   1.742   9.936   6.133 -0.1316  0.0795  0.5952
 3935SOL    HW123459   1.786  10.013   6.086  1.7317 -0.4115  1.4943
 3935SOL    HW223460   1.790   9.918   6.218 -2.5727  0.0044  1.9882
 3936SOL     OW23461   0.148   3.102   7.378  0.3702  0.3459 -0.2288
 3936SOL    HW123462   0.097   3.147   7.451  1.2058 -0.8778  1.1643
 3936SOL    HW223463   0.174   3.169   7.309 -0.6484  1.4955  0.4765
 3937SOL     OW23464   2.577   2.945   4.500  0.0341  0.3682  0.5982
 3937SOL    HW123465   2.597   3.042   4.485  3.1862 -0.3103  0.0452
 3937SOL    HW223466   2.561   2.928   4.597  0.0422  1.3157  0.7685
 3938SOL     OW23467   9.662   7.270   7.483  0.0168  0.0294 -0.0444
 3938SOL    HW123468   9.742   7.212   7.498  0.4835  0.8781  0.7776
 3938SOL    HW223469   9.682   7.363   7.513 -1.8269 -0.0986  1.6753
 3939SOL     OW23470   6.893   0.516   4.396  0.1600  0.0423 -0.6721
 3939SOL    HW123471   6.874   0.419   4.407  0.6712  0.1622  1.3798
 3939SOL    HW223472   6.848   0.568   4.469  0.1944  1.3158 -1.5378
 3940SOL     OW23473   3.679   4.918   2.582 -0.4066 -0.1851  0.4195
 3940SOL    HW123474   3.625   4.860   2.521  0.6228  0.6347 -1.3176
 3940SOL    HW223475   3.636   5.009   2.589  0.6299  0.4181 -0.8433
 3941SOL     OW23476   7.199   0.253   3.393  0.2690  0.1045 -0.3821
 3941SOL    HW123477   7.106   0.218   3.408  0.2700  0.0573 -0.4833
 3941SOL    HW223478   7.265   0.196   3.443  0.2671 -0.0087 -0.5108
 3942SOL     OW23479   6.917   7.377   5.811  0.2220 -0.6316 -0.0339
 3942SOL    HW123480   6.958   7.354   5.723  1.4500 -0.3922  0.4637
 3942SOL    HW223481   6.821   7.404   5.797  0.5796  0.0042 -1.3588
 3943SOL     OW23482   0.659   1.513   1.695 -0.4055 -0.6170  0.3638
 3943SOL    HW123483   0.669   1.420   1.732  0.6520  0.0388  1.7427
 3943SOL    HW223484   0.748   1.556   1.689 -0.9656  0.5399  0.2987
 3944SOL     OW23485   3.493   7.933   7.536  0.3979 -0.0859 -0.8284
 3944SOL    HW123486   3.571   7.980   7.579 -1.4831  1.8263  0.6394
 3944SOL    HW223487   3.475   7.848   7.585 -0.3676  1.0094  0.8250
 3945SOL     OW23488   0.760   7.076   6.351  0.2575 -0.5141 -0.4392
 3945SOL    HW123489   0.660   7.069   6.348  0.2276 -0.0638 -0.4917
 3945SOL    HW223490   0.796   7.068   6.258  0.3019 -1.1080 -0.3743
 3946SOL     OW23491   3.223   4.715   6.851 -0.1619 -0.2280  0.5591
 3946SOL    HW123492   3.232   4.617   6.868  1.8684 -0.2075 -0.2344
 3946SOL    HW223493   3.233   4.765   6.938  0.2316 -0.6546  0.7594
 3947SOL     OW23494   8.436   7.654   5.690  0.2652 -0.5139 -0.5463
 3947SOL    HW123495   8.386   7.642   5.776 -1.7939 -0.7502 -1.7331
 3947SOL    HW223496   8.457   7.750   5.676 -0.4480 -0.3210 -0.3229
 3948SOL     OW23497   2.041   1.712   1.209  0.5128 -0.0470 -0.1733
 3948SOL    HW123498   2.124   1.691   1.157 -0.2495 -2.3810 -0.5021
 3948SOL    HW223499   2.062   1.717   1.307  1.2628  0.6817 -0.3685
 3949SOL     OW23500   4.364   0.749   5.532 -0.0670 -0.1288  0.0481
 3949SOL    HW123501   4.331   0.782   5.620 -2.8046  0.4624 -1.1272
 3949SOL    HW223502   4.350   0.820   5.462  0.6568 -1.1394 -1.1553
 3950SOL     OW23503   1.148   5.575   5.905 -0.0050 -1.1754  0.0752
 3950SOL    HW123504   1.069   5.540   5.854 -1.2801  0.8146  0.6097
 3950SOL    HW223505   1.218   5.606   5.842 -1.5945  1.3290 -0.5140
 3951SOL     OW23506   7.456   5.394   1.436 -0.6174 -0.1869 -0.4292
 3951SOL    HW123507   7.410   5.306   1.431  1.7415 -1.3905 -1.7291
 3951SOL    HW223508   7.550   5.381   1.469 -0.6082  1.9849  0.4865
 3952SOL     OW23509   3.954   3.810   4.143 -0.1612  0.4761 -0.2156
 3952SOL    HW123510   3.976   3.713   4.137 -0.7639  0.2037  1.7492
 3952SOL    HW223511   4.039   3.864   4.140  0.2604 -0.1733 -0.0139
 3953SOL     OW23512   1.063   9.518   2.837 -0.0094  0.0204 -0.1936
 3953SOL    HW123513   1.119   9.483   2.913  2.0548  0.9948 -1.2430
 3953SOL    HW223514   1.006   9.593   2.870  0.6999  0.2905  0.4297
 3954SOL     OW23515   4.907   7.279   2.229 -0.2172 -0.3108 -0.0311
 3954SOL    HW123516   4.833   7.235   2.279  0.6394 -1.0017  0.6503
 3954SOL    HW223517   4.923   7.370   2.267 -0.0701 -0.5408  0.4651
 3955SOL     OW23518   9.863   7.096   6.821  0.6223 -0.7583 -0.5021
 3955SOL    HW123519   9.886   7.149   6.902 -1.5217 -0.7743  0.1495
 3955SOL    HW223520   9.899   7.003   6.830  1.9454 -0.2408 -0.3917
 3956SOL     OW23521   1.190   2.185   3.349 -0.1005 -0.6505 -0.3015
 3956SOL    HW123522   1.115   2.232   3.301  0.6554 -0.4486 -1.2978
 3956SOL    HW223523   1.255   2.149   3.282  0.7592 -0.7177  0.5671
 3957SOL     OW23524   1.648   1.773   2.106 -0.0174 -0.5637  0.4097
 3957SOL    HW123525   1.743   1.763   2.135 -0.2100  1.0946  1.6977
 3957SOL    HW223526   1.595   1.693   2.137  0.4825 -0.3873  1.7437
 3958SOL     OW23527   2.496   0.324   2.036 -0.5729 -0.2350 -0.0768
 3958SOL    HW123528   2.512   0.335   1.938  0.1392 -1.9305 -0.1685
 3958SOL    HW223529   2.554   0.251   2.072 -1.3320 -0.1104  1.4797
 3959SOL     OW23530   3.397   1.700   7.675  0.1498  0.2789  0.6752
 3959SOL    HW123531   3.377   1.795   7.699 -0.5381  0.1293  0.6843
 3959SOL    HW223532   3.483   1.697   7.623  0.3243  0.8742  0.9230
 3960SOL     OW23533   8.113   2.704   3.624 -0.2509  0.3023  0.5080
 3960SOL    HW123534   8.174   2.774   3.587 -2.4207  2.2150  0.4629
 3960SOL    HW223535   8.089   2.726   3.718 -0.9009 -0.4273  0.5209
 3961SOL     OW23536   3.991   8.726   5.511  0.0660  0.1855 -0.3570
 3961SOL    HW123537   3.953   8.803   5.562 -1.5318 -0.8252  0.0179
 3961SOL    HW223538   4.077   8.698   5.552  0.7914  1.9306 -0.6559
 3962SOL     OW23539   5.571   9.132   7.422 -0.0161  0.4388  0.1026
 3962SOL    HW123540   5.473   9.142   7.404 -0.1079 -0.4655  0.0844
 3962SOL    HW223541   5.599   9.201   7.488 -0.4036  1.5177 -0.8534
 3963SOL     OW23542   0.030   0.846   3.483 -0.4078 -0.4012  0.2634
 3963SOL    HW123543  -0.052   0.846   3.541 -0.0142 -1.2733  0.8284
 3963SOL    HW223544   0.111   0.864   3.539  0.1745 -2.9478  0.3025
 3964SOL     OW23545   9.930   1.632   3.504  0.4736 -0.4603 -0.1918
 3964SOL    HW123546   9.890   1.719   3.531  1.6853  0.0111  0.1264
 3964SOL    HW223547   9.927   1.622   3.405 -0.3043 -0.3693 -0.1740
 3965SOL     OW23548   1.345   5.416   1.908 -0.7369  0.3359 -0.2828
 3965SOL    HW123549   1.266   5.478   1.910  1.2480  3.1522 -3.1082
 3965SOL    HW223550   1.338   5.357   1.827 -0.0801  0.4235 -0.4036
 3966SOL     OW23551   9.084   5.353   4.980 -0.4643 -0.5633 -0.3376
 3966SOL    HW123552   8.989   5.375   4.957 -0.8607 -1.9530 -0.1283
 3966SOL    HW223553   9.132   5.436   5.008 -2.2757 -0.1854  1.7985
 3967SOL     OW23554   8.470   2.051   3.621  0.2115  0.8583  0.3295
 3967SOL    HW123555   8.375   2.077   3.601 -0.1106 -0.0184  0.6774
 3967SOL    HW223556   8.492   2.077   3.714 -0.1171 -0.0874  0.6840
 3968SOL     OW23557   7.514   1.533   3.817  0.2992  0.2247  0.3826
 3968SOL    HW123558   7.509   1.586   3.902  1.6629  1.2181 -0.1443
 3968SOL    HW223559   7.464   1.447   3.829  0.9978  0.0732  2.4011
 3969SOL     OW23560   3.602   9.175   1.698 -0.1735 -0.7268  0.3877
 3969SOL    HW123561   3.567   9.229   1.774 -0.8321 -0.1330 -0.3200
 3969SOL    HW223562   3.614   9.080   1.726 -0.0701 -0.4350  1.3301
 3970SOL     OW23563   0.993   1.523   0.847  0.0036 -0.4974  0.5013
 3970SOL    HW123564   1.075   1.576   0.870  1.1091 -1.6074 -0.8070
 3970SOL    HW223565   0.912   1.581   0.858  1.0727  1.0805  0.2898
 3971SOL     OW23566   0.600   3.529   2.971 -0.3141 -0.1762  0.0869
 3971SOL    HW123567   0.530   3.467   3.006  0.3705 -1.1995 -0.3143
 3971SOL    HW223568   0.687   3.512   3.018 -0.1808  0.6577  0.1527
 3972SOL     OW23569   3.901   3.948   1.721  0.1384 -0.4176  0.0874
 3972SOL    HW123570   3.895   3.850   1.699 -1.4649 -0.3144  0.0027
 3972SOL    HW223571   3.935   3.959   1.815  0.6912 -1.0447 -0.0359
 3973SOL     OW23572   0.908   7.106   2.905 -0.1584 -0.0233  0.8619
 3973SOL    HW123573   0.823   7.055   2.917 -0.3424 -0.6678 -2.5414
 3973SOL    HW223574   0.960   7.066   2.830  2.1445  1.6868  1.4979
 3974SOL     OW23575   3.426   4.348   4.654 -0.6086 -0.1178  0.1499
 3974SOL    HW123576   3.425   4.266   4.711  0.9240 -1.1165 -1.2020
 3974SOL    HW223577   3.333   4.367   4.621 -1.0583 -1.0103  0.8940
 3975SOL     OW23578   8.012   2.265   1.082 -0.0198  0.2175 -0.2341
 3975SOL    HW123579   8.044   2.317   1.161  0.9107 -2.1847  1.0070
 3975SOL    HW223580   8.090   2.221   1.038 -1.1766 -3.2224  1.0156
 3976SOL     OW23581   1.044   2.563   3.127 -0.1818  0.4672 -0.4137
 3976SOL    HW123582   0.964   2.572   3.187  0.5496 -0.0489  0.6639
 3976SOL    HW223583   1.112   2.631   3.153  0.5201 -0.3757 -0.0298
 3977SOL     OW23584   8.384   4.127   3.425 -0.1032 -0.0088  0.0738
 3977SOL    HW123585   8.334   4.211   3.448  0.1762  0.1688  0.0422
 3977SOL    HW223586   8.478   4.134   3.459  0.1014 -0.0484 -0.4776
 3978SOL     OW23587   3.998   0.564   1.373  0.0956 -0.0714 -0.0477
 3978SOL    HW123588   4.090   0.592   1.399  0.6527 -1.9738  0.0685
 3978SOL    HW223589   3.938   0.569   1.453  0.3038  0.3043  0.0856
 3979SOL     OW23590   1.174   6.344   6.288 -0.0848  0.1130  0.3973
 3979SOL    HW123591   1.105   6.301   6.346 -0.1469 -1.6251 -0.9332
 3979SOL    HW223592   1.254   6.286   6.281  0.3460  0.7873 -0.4051
 3980SOL     OW23593   3.004   5.263   4.577 -0.6343  0.5004 -0.1789
 3980SOL    HW123594   2.984   5.165   4.573 -1.0569  0.6060 -0.6879
 3980SOL    HW223595   2.966   5.302   4.660 -0.2922  0.1905  0.1224
 3981SOL     OW23596   2.891   5.410   0.361  0.3224  0.0624  0.1010
 3981SOL    HW123597   2.922   5.504   0.342 -1.3408  0.9231  1.5216
 3981SOL    HW223598   2.803   5.395   0.316 -0.1272 -0.3150  1.0990
 3982SOL     OW23599   9.113   1.282   5.045 -0.1271 -0.0296 -0.2683
 3982SOL    HW123600   9.103   1.352   4.973  1.9955  1.1018  0.4804
 3982SOL    HW223601   9.084   1.320   5.133 -1.3315 -0.9323 -0.2668
 3983SOL     OW23602   2.093   2.765   4.815 -0.0214 -0.3343  0.1350
 3983SOL    HW123603   2.074   2.686   4.873 -1.3908 -1.4897 -1.8205
 3983SOL    HW223604   2.036   2.841   4.842 -1.8293 -1.3670 -0.6718
 3984SOL     OW23605   2.301   7.304   3.327  0.2018  0.4433  0.2584
 3984SOL    HW123606   2.355   7.380   3.364  0.9399  0.6471 -1.2032
 3984SOL    HW223607   2.245   7.337   3.251 -0.3940 -0.2315  0.3990
 3985SOL     OW23608   4.250   8.176   6.852 -0.0195 -0.3201  0.1686
 3985SOL    HW123609   4.349   8.161   6.853  0.1137  0.5754  1.0906
 3985SOL    HW223610   4.208   8.114   6.786  1.4227  1.0665 -2.1451
 3986SOL     OW23611   9.019   2.125   4.427  0.2622 -0.2001 -0.1897
 3986SOL    HW123612   8.991   2.087   4.515 -1.0107 -1.2109 -1.0117
 3986SOL    HW223613   9.118   2.141   4.427  0.6117 -2.2126  0.6774
 3987SOL     OW23614   2.261   3.305   2.725  0.0399  0.1196  0.3589
 3987SOL    HW123615   2.257   3.401   2.752 -0.6765  0.5253 -1.1530
 3987SOL    HW223616   2.172   3.262   2.740  0.8056 -0.7673  2.6039
 3988SOL     OW23617   2.957   4.587   1.671 -0.6871  0.4407  0.1462
 3988SOL    HW123618   2.982   4.503   1.720  0.0357  0.1734 -0.6630
 3988SOL    HW223619   3.039   4.628   1.632 -1.2634  0.5915 -0.9247
 3989SOL     OW23620   9.087   6.702   4.280 -0.1158  0.3637  0.8303
 3989SOL    HW123621   9.001   6.685   4.232  1.5395 -2.5289 -1.3246
 3989SOL    HW223622   9.152   6.746   4.217  0.5600  0.8441  1.8569
 3990SOL     OW23623   8.134   9.959   7.492 -0.1731 -0.4153  0.6378
 3990SOL    HW123624   8.111  10.051   7.522 -0.9528 -0.1981 -0.5829
 3990SOL    HW223625   8.053   9.900   7.503 -0.6963 -0.1674 -1.6414
 3991SOL     OW23626   2.297   5.814   1.335 -0.2501 -0.0574  0.1492
 3991SOL    HW123627   2.234   5.737   1.327  0.2526 -0.4542 -0.0154
 3991SOL    HW223628   2.331   5.821   1.429 -0.2134 -0.1011  0.1390
 3992SOL     OW23629   5.222   7.436   1.626  0.2726 -0.6191  0.0956
 3992SOL    HW123630   5.267   7.355   1.589  1.0704 -0.7186  1.2465
 3992SOL    HW223631   5.162   7.476   1.557  1.5191 -0.9505 -1.1945
 3993SOL     OW23632   8.276   9.503   4.958  0.1277 -0.1576 -0.1272
 3993SOL    HW123633   8.236   9.588   4.925 -2.7001 -1.8094 -1.1276
 3993SOL    HW223634   8.365   9.522   4.999 -0.0262  3.1222 -1.1635
 3994SOL     OW23635   1.409   5.377   7.698 -0.0543 -0.5184 -0.0362
 3994SOL    HW123636   1.414   5.396   7.796  0.0471 -0.8314  0.0191
 3994SOL    HW223637   1.449   5.287   7.679  0.5453 -0.1751 -0.4497
 3995SOL     OW23638   1.440   4.677   1.469  0.1754  0.3693  0.2504
 3995SOL    HW123639   1.429   4.771   1.438 -3.4517 -0.1851 -0.4061
 3995SOL    HW223640   1.407   4.668   1.563  2.1447  0.0842  0.9332
 3996SOL     OW23641   1.253   0.560   5.902  0.0961  0.6229  0.4730
 3996SOL    HW123642   1.200   0.533   5.821  0.3384  1.8947 -0.1184
 3996SOL    HW223643   1.324   0.625   5.875  1.2284 -0.1794  1.4506
 3997SOL     OW23644   0.102   0.001   0.354 -0.0686  0.7084  0.0383
 3997SOL    HW123645   0.144   0.055   0.281 -0.7574  1.2440  0.0325
 3997SOL    HW223646   0.104   0.053   0.439  1.1130 -0.0805  0.5045
 3998SOL     OW23647   3.720   4.132   3.227  0.4876 -0.5288  0.1828
 3998SOL    HW123648   3.778   4.168   3.300 -1.9748  0.9503  1.4641
 3998SOL    HW223649   3.625   4.133   3.257 -0.8090  1.7773 -3.6751
 3999SOL     OW23650   7.999   9.747   6.762  0.0733 -0.8085 -0.0411
 3999SOL    HW123651   8.045   9.658   6.764  0.8968 -0.3809  1.2654
 3999SOL    HW223652   8.061   9.815   6.724 -0.6391 -0.8291 -1.2485
 4000SOL     OW23653   9.413   2.794   3.598 -0.0665  0.0212 -0.5440
 4000SOL    HW123654   9.476   2.759   3.668 -3.0669 -0.6314  1.9771
 4000SOL    HW223655   9.436   2.889   3.577  1.6494 -0.1583  0.4305
 4001SOL     OW23656   9.197   6.164   1.573 -0.0667 -0.1540  0.3373
 4001SOL    HW123657   9.229   6.166   1.668  2.1070  0.5572 -0.3883
 4001SOL    HW223658   9.203   6.255   1.533 -0.6475 -0.5177 -0.6163
 4002SOL     OW23659   0.696   1.938   6.485 -0.0744 -0.4600 -0.5079
 4002SOL    HW123660   0.647   1.915   6.569  0.2299  0.2257 -0.1396
 4002SOL    HW223661   0.699   2.037   6.473  0.4816 -0.5238 -0.9669
 4003SOL     OW23662   9.393   0.969   6.311  0.0394  0.1128 -0.5304
 4003SOL    HW123663   9.393   0.869   6.311 -1.1221  0.1052 -1.2739
 4003SOL    HW223664   9.370   1.002   6.402  0.6972 -0.2878 -0.2105
 4004SOL     OW23665   0.793   6.998   3.974  0.1109  0.9166  0.2029
 4004SOL    HW123666   0.774   7.032   4.066  0.4511 -1.0725  1.0367
 4004SOL    HW223667   0.842   7.068   3.922  1.7200  1.3222  2.1970
 4005SOL     OW23668   3.759   0.776   7.334  0.9182 -0.2817 -0.2006
 4005SOL    HW123669   3.780   0.682   7.307 -0.7263 -0.4237 -1.0601
 4005SOL    HW223670   3.750   0.833   7.252 -1.7166 -0.1894  0.0964
 4006SOL     OW23671   0.821   4.520   5.215 -0.1031  0.1290  0.4275
 4006SOL    HW123672   0.850   4.600   5.268 -0.0651 -0.2423  0.9791
 4006SOL    HW223673   0.864   4.523   5.125 -0.4168  0.9366  0.2987
 4007SOL     OW23674   9.657   1.941   3.053  0.0685  0.0288 -0.1745
 4007SOL    HW123675   9.646   1.950   2.954 -0.4218  0.6349 -0.0656
 4007SOL    HW223676   9.602   2.010   3.100  0.6150  0.0068  0.5140
 4008SOL     OW23677   2.173   7.720   2.324 -0.2257 -0.4953  0.2376
 4008SOL    HW123678   2.266   7.684   2.320  0.4249  1.2971 -1.1776
 4008SOL    HW223679   2.174   7.819   2.316 -2.1482 -0.2743  2.1200
 4009SOL     OW23680   7.955   2.190   0.655  0.3044  0.3050  0.0104
 4009SOL    HW123681   7.963   2.289   0.664  1.0284  0.4255 -1.7668
 4009SOL    HW223682   7.860   2.165   0.637  0.3568  0.8036 -0.9686
 4010SOL     OW23683   6.586   5.201   0.764 -0.1192 -0.1904 -0.4047
 4010SOL    HW123684   6.576   5.105   0.790  0.4679 -0.5722 -1.5117
 4010SOL    HW223685   6.579   5.259   0.845 -0.5050 -1.1649  0.2708
 4011SOL     OW23686   6.990   0.162   5.915 -0.0448 -0.1377 -0.8682
 4011SOL    HW123687   7.076   0.147   5.964  0.9046  0.6583 -2.2592
 4011SOL    HW223688   6.914   0.167   5.981  1.2996  1.7324  0.5743
 4012SOL     OW23689   1.645   7.754   4.259  0.7551  0.8628 -0.7316
 4012SOL    HW123690   1.555   7.732   4.222  0.4847  0.9148 -0.1200
 4012SOL    HW223691   1.680   7.675   4.309 -0.2879  1.8171  1.6110
 4013SOL     OW23692   4.587   5.330   2.872  0.2656  0.0637 -0.3959
 4013SOL    HW123693   4.625   5.420   2.895 -2.8204  1.7194 -1.4556
 4013SOL    HW223694   4.567   5.326   2.775 -0.9040 -1.2845 -0.1166
 4014SOL     OW23695   2.245   8.382   4.630 -0.7831  0.2727  0.3282
 4014SOL    HW123696   2.195   8.391   4.544 -0.7318 -1.1835  0.1237
 4014SOL    HW223697   2.343   8.382   4.611 -0.7787 -0.4163  0.3407
 4015SOL     OW23698   7.453   0.451   7.446  0.0531 -0.5514  0.1400
 4015SOL    HW123699   7.482   0.383   7.379 -1.2602  1.0203 -2.0726
 4015SOL    HW223700   7.516   0.529   7.443  1.0939 -1.2768  2.1130
 4016SOL     OW23701   8.944   1.071   4.975 -0.1567 -0.4517  0.0896
 4016SOL    HW123702   8.994   1.145   5.020 -1.7790 -1.5365  3.8797
 4016SOL    HW223703   8.956   1.078   4.876  0.8486  4.0468  0.4177
 4017SOL     OW23704   7.135   8.470   4.947 -0.1469 -0.0795 -0.2247
 4017SOL    HW123705   7.050   8.465   4.894 -1.6372 -0.5113  2.1502
 4017SOL    HW223706   7.136   8.554   5.001  1.6336  0.6509 -1.3514
 4018SOL     OW23707   5.122   8.806   3.792 -0.4565  0.3548 -0.9979
 4018SOL    HW123708   5.043   8.745   3.795 -1.3010  1.4600  0.0329
 4018SOL    HW223709   5.205   8.753   3.777 -0.9766 -1.2470  1.4134
 4019SOL     OW23710   9.327   3.139   6.306  0.0812  0.6657  0.1905
 4019SOL    HW123711   9.229   3.156   6.294 -0.5843 -1.9406  1.5759
 4019SOL    HW223712   9.353   3.163   6.399  0.8295  1.5406 -0.2369
 4020SOL     OW23713   0.323   6.269   7.174  0.7960 -0.0049  0.0718
 4020SOL    HW123714   0.362   6.251   7.084 -0.9610  1.8218 -1.1177
 4020SOL    HW223715   0.262   6.193   7.200  2.1068 -1.0239  0.2097
 4021SOL     OW23716   4.808   3.458   2.866  0.0527 -0.1573  0.1421
 4021SOL    HW123717   4.813   3.557   2.855 -1.7145  0.2905  2.9500
 4021SOL    HW223718   4.717   3.426   2.841  0.4286 -1.0188 -0.1600
 4022SOL     OW23719   1.941   5.809   2.628 -0.0432 -0.4386  0.4786
 4022SOL    HW123720   1.908   5.736   2.687  0.5217 -1.0599  0.0273
 4022SOL    HW223721   1.952   5.893   2.681 -0.4623 -0.7424  1.0452
 4023SOL     OW23722   9.409   6.375   4.190 -0.2143 -0.1221  0.3250
 4023SOL    HW123723   9.394   6.404   4.284  0.9026  2.7430 -0.3202
 4023SOL    HW223724   9.326   6.388   4.137 -0.2909  0.0288  0.4835
 4024SOL     OW23725   3.635   5.629   3.004  0.1343 -0.2647 -0.2321
 4024SOL    HW123726   3.684   5.714   2.986 -1.5381  0.8266  0.2172
 4024SOL    HW223727   3.659   5.595   3.096 -1.6661  1.5046  0.9258
 4025SOL     OW23728   1.149   2.893   7.645  0.3916 -0.0788 -0.1143
 4025SOL    HW123729   1.052   2.911   7.627  0.8752  2.0890 -0.7941
 4025SOL    HW223730   1.174   2.934   7.733  0.7188 -0.5032 -0.0110
 4026SOL     OW23731   4.404   5.986   3.039  0.3871  0.1213  0.0544
 4026SOL    HW123732   4.319   5.984   2.986  0.6918 -1.1561 -0.4006
 4026SOL    HW223733   4.398   6.058   3.109 -0.0523  1.7469 -1.6261
 4027SOL     OW23734   9.909   6.409   3.161  0.5233  0.0218  0.0078
 4027SOL    HW123735   9.858   6.388   3.244  1.1146  1.9363  0.8755
 4027SOL    HW223736  10.005   6.386   3.174  0.8353  1.4484  0.3013
 4028SOL     OW23737   4.778   7.575   4.329  0.5821  0.3496 -0.0051
 4028SOL    HW123738   4.835   7.650   4.364  1.1106 -0.1452  0.1986
 4028SOL    HW223739   4.829   7.523   4.261  0.5126 -0.3339  0.4623
 4029SOL     OW23740   0.796   1.207   4.930  0.3300  0.0734  0.0376
 4029SOL    HW123741   0.886   1.199   4.973 -0.0764  0.0488  0.9094
 4029SOL    HW223742   0.801   1.270   4.852  1.8456 -2.5559 -2.0433
 4030SOL     OW23743   3.534   1.248   4.757  0.0644  0.1549  0.3182
 4030SOL    HW123744   3.492   1.185   4.822  0.1547 -0.6248 -0.3861
 4030SOL    HW223745   3.625   1.214   4.731 -0.2864  0.0648 -0.8107
 4031SOL     OW23746   2.059   3.044   3.646 -0.5459  0.1404  0.2504
 4031SOL    HW123747   2.058   2.956   3.599  4.4845 -0.4906  0.9562
 4031SOL    HW223748   2.048   3.030   3.744 -2.7516  0.6345  0.0893
 4032SOL     OW23749   9.943   5.058   2.191  0.1425 -0.0475 -0.1193
 4032SOL    HW123750   9.891   5.143   2.177 -2.6578 -1.6859 -0.0962
 4032SOL    HW223751   9.947   5.007   2.106  0.9119 -0.3690  0.1121
 4033SOL     OW23752   4.626   1.780   4.754  0.1384 -0.1268 -0.1702
 4033SOL    HW123753   4.565   1.822   4.687 -0.2627 -2.1264 -1.1015
 4033SOL    HW223754   4.575   1.713   4.808  0.7377  0.6095  1.3331
 4034SOL     OW23755   3.726   3.858   4.954  0.1641  0.0136  0.0546
 4034SOL    HW123756   3.675   3.808   4.883  1.0962 -0.9603  0.0704
 4034SOL    HW223757   3.822   3.829   4.953  0.8541  2.2373 -0.3392
 4035SOL     OW23758   4.420   5.471   6.980  0.1842 -0.0541  0.0110
 4035SOL    HW123759   4.458   5.493   6.890 -0.0509  2.3790  0.4694
 4035SOL    HW223760   4.321   5.482   6.978 -0.2817 -3.9281 -0.4902
 4036SOL     OW23761   5.343   4.651   0.408 -0.3533 -0.0400  0.6840
 4036SOL    HW123762   5.290   4.578   0.451 -0.4001 -0.4484 -0.0559
 4036SOL    HW223763   5.311   4.740   0.441 -0.0055 -0.3624  1.9212
 4037SOL     OW23764   4.608   3.840   7.492 -0.3596 -0.4357  0.3025
 4037SOL    HW123765   4.616   3.848   7.393  0.2416 -0.5868  0.3346
 4037SOL    HW223766   4.515   3.813   7.516 -0.4270 -0.6936 -0.2404
 4038SOL     OW23767   8.288   7.262   3.712  0.0042 -0.1925  0.1763
 4038SOL    HW123768   8.193   7.283   3.691 -0.3202 -0.6712  1.1404
 4038SOL    HW223769   8.292   7.180   3.769  0.9092  0.6000  1.2676
 4039SOL     OW23770   2.098   9.989   2.727  0.2955  0.1695 -0.0779
 4039SOL    HW123771   2.143   9.910   2.768  0.5781  1.0934  1.4171
 4039SOL    HW223772   2.167  10.055   2.697  0.0151  0.4798 -0.0437
 4040SOL     OW23773   7.246   1.985   4.576 -0.2138  0.0626  0.0422
 4040SOL    HW123774   7.219   1.897   4.538 -0.8861 -1.1107  3.0898
 4040SOL    HW223775   7.210   1.994   4.669  0.2125  3.3782 -0.0412
 4041SOL     OW23776   8.788   0.068   3.376 -0.3115 -0.2071  0.3706
 4041SOL    HW123777   8.782   0.168   3.378  0.5035 -0.1687  1.2666
 4041SOL    HW223778   8.709   0.031   3.328  1.0961  1.0487 -3.0977
 4042SOL     OW23779   6.540   7.376   6.435 -0.9160 -0.1556 -0.0854
 4042SOL    HW123780   6.625   7.377   6.382 -0.3282  0.2826  0.8562
 4042SOL    HW223781   6.464   7.401   6.375 -0.1096  1.4382 -0.4849
 4043SOL     OW23782   4.930   0.885   6.168  0.0588  0.7514 -0.7720
 4043SOL    HW123783   4.890   0.897   6.077  0.1059 -0.8236 -1.0106
 4043SOL    HW223784   4.903   0.796   6.205  0.2419  1.2772  0.6614
 4044SOL     OW23785   5.814   8.167   2.174  0.6258  0.7919  0.4547
 4044SOL    HW123786   5.883   8.111   2.128  0.2242  0.1383  0.6438
 4044SOL    HW223787   5.856   8.252   2.206  0.7575  1.5624 -1.7121
 4045SOL     OW23788   1.164   1.073   2.127  0.6269 -0.3349  0.3684
 4045SOL    HW123789   1.207   1.016   2.197  0.5259  0.6805  1.2633
 4045SOL    HW223790   1.093   1.130   2.169 -0.3362 -0.6670 -0.7845
 4046SOL     OW23791   2.697   1.131   6.499 -0.2208  0.1162  0.2421
 4046SOL    HW123792   2.672   1.223   6.468  0.7591  0.2372 -0.2154
 4046SOL    HW223793   2.705   1.131   6.599 -2.1229  0.0387  0.4166
 4047SOL     OW23794   1.410   2.328   7.280 -0.1728  0.3245  0.2138
 4047SOL    HW123795   1.412   2.321   7.181 -2.3640 -1.7373  0.2637
 4047SOL    HW223796   1.400   2.424   7.307  1.0917  0.9636 -1.5065
 4048SOL     OW23797   1.131   3.061   6.460 -0.1100  0.1949 -0.3224
 4048SOL    HW123798   1.181   3.062   6.373 -2.7735  0.9718 -1.8912
 4048SOL    HW223799   1.045   3.110   6.449 -0.2904  0.7105  2.9156
 4049SOL     OW23800   4.242   5.190   4.596  0.0019  0.8880 -0.1595
 4049SOL    HW123801   4.184   5.130   4.651 -0.3033  1.0272 -0.3266
 4049SOL    HW223802   4.297   5.247   4.657 -0.2944  1.0027  0.0058
 4050SOL     OW23803   9.882   3.437   7.799 -0.0939 -0.2907  0.0659
 4050SOL    HW123804   9.891   3.340   7.823  1.0769  0.3265  2.3070
 4050SOL    HW223805   9.967   3.484   7.822 -0.8270  1.3630 -0.5609
 4051SOL     OW23806   4.212   2.906   5.050  0.6532 -0.3524  0.0765
 4051SOL    HW123807   4.137   2.932   5.111 -0.9765 -0.5863 -1.7779
 4051SOL    HW223808   4.298   2.906   5.101 -0.7138 -0.9605  2.4717
 4052SOL     OW23809   8.452   1.755   6.734 -0.3848  0.1287 -0.3262
 4052SOL    HW123810   8.551   1.754   6.744 -0.1741  1.0397 -2.2540
 4052SOL    HW223811   8.419   1.849   6.742 -1.2563 -0.3021  1.5745
 4053SOL     OW23812   9.976   8.444   5.452 -0.4435 -0.0199 -0.2987
 4053SOL    HW123813  10.053   8.494   5.490 -0.7616  0.3605 -0.1502
 4053SOL    HW223814   9.933   8.497   5.379  0.8268 -1.2201 -1.9507
 4054SOL     OW23815   3.830   7.535   0.058  0.2110  0.0482  0.9006
 4054SOL    HW123816   3.906   7.520   0.120 -0.5138  0.0444  1.8096
 4054SOL    HW223817   3.837   7.627   0.019  1.5740 -0.5481 -0.3237
 4055SOL     OW23818   1.702   4.606   4.791 -0.1608 -0.0623  0.5575
 4055SOL    HW123819   1.614   4.560   4.791 -0.4197  0.4249  0.8401
 4055SOL    HW223820   1.713   4.659   4.707 -0.1394 -0.1252  0.5215
 4056SOL     OW23821   2.933   2.067   7.095 -0.3794  0.3184 -0.0501
 4056SOL    HW123822   2.853   2.121   7.120  2.5721  4.9524 -0.2002
 4056SOL    HW223823   2.987   2.047   7.177 -0.4330 -0.8072 -0.2740
 4057SOL     OW23824   6.339   9.056   2.702  0.2001 -0.4460 -0.0605
 4057SOL    HW123825   6.296   9.139   2.739  1.1759  0.2117 -0.3719
 4057SOL    HW223826   6.424   9.081   2.656  0.8141 -1.7145  0.3765
 4058SOL     OW23827   6.995   0.721   7.992  0.6205 -0.1542  0.6747
 4058SOL    HW123828   7.080   0.733   7.942  0.5763  0.7393  0.7945
 4058SOL    HW223829   6.931   0.794   7.966 -0.4469 -1.3484 -0.1092
 4059SOL     OW23830   4.895   9.156   5.755 -0.2590 -0.3046  0.8981
 4059SOL    HW123831   4.871   9.190   5.665 -1.9706 -0.3789  1.3139
 4059SOL    HW223832   4.994   9.140   5.759 -0.2876 -1.2154 -1.2719
 4060SOL     OW23833   8.221   3.889   5.682 -0.1674 -0.0625  0.4324
 4060SOL    HW123834   8.129   3.855   5.663  0.2512 -1.2509  0.4633
 4060SOL    HW223835   8.216   3.980   5.722 -1.2111  1.1677 -2.3608
 4061SOL     OW23836   8.767   8.168   1.242 -0.1069  0.6210  0.2184
 4061SOL    HW123837   8.751   8.253   1.192 -0.5803  1.5413  1.9006
 4061SOL    HW223838   8.715   8.094   1.199  0.0381  1.2340 -1.0486
 4062SOL     OW23839   8.333   4.836   3.148 -0.2642  0.4835  0.0846
 4062SOL    HW123840   8.395   4.913   3.164  0.5223 -0.2883  0.7340
 4062SOL    HW223841   8.338   4.809   3.052 -0.8844  1.5283 -0.2562
 4063SOL     OW23842   5.380   3.501   5.455 -0.0910  0.0305  0.1934
 4063SOL    HW123843   5.301   3.469   5.403  0.0632 -0.6462  0.3635
 4063SOL    HW223844   5.464   3.460   5.417  0.1568  0.5953  0.1292
 4064SOL     OW23845   0.532   7.152   5.151  0.6664 -0.6286  0.3386
 4064SOL    HW123846   0.580   7.132   5.066 -4.6575 -1.8524 -2.5766
 4064SOL    HW223847   0.519   7.251   5.159 -0.0183 -0.5967 -1.0308
 4065SOL     OW23848   6.344   8.924   5.528 -0.2092 -0.3816 -0.3548
 4065SOL    HW123849   6.354   8.953   5.433  0.1807 -2.4062 -0.9649
 4065SOL    HW223850   6.273   8.853   5.534 -0.9095  0.3989  1.0290
 4066SOL     OW23851   5.522   4.100   1.293  0.5683 -0.3050  0.0148
 4066SOL    HW123852   5.528   4.006   1.326  0.0270 -0.5628 -0.6253
 4066SOL    HW223853   5.522   4.162   1.371  0.4368 -0.8616  0.4621
 4067SOL     OW23854   2.142   8.001  10.021 -0.3871  0.2219 -0.4155
 4067SOL    HW123855   2.181   7.944   9.948  0.6660 -0.4295  0.6511
 4067SOL    HW223856   2.054   7.962  10.049 -0.0865 -0.3770 -0.2979
 4068SOL     OW23857   2.514   9.077   1.140 -0.6815 -0.4068  0.1046
 4068SOL    HW123858   2.576   9.034   1.074 -2.4026  0.5373 -2.2021
 4068SOL    HW223859   2.438   9.016   1.159 -0.3165 -0.5756  1.0553
 4069SOL     OW23860   3.868   8.501   1.983 -0.2067 -0.0258  0.5829
 4069SOL    HW123861   3.856   8.434   1.910  1.1524  0.9864 -0.6066
 4069SOL    HW223862   3.953   8.552   1.968 -0.6826  1.2488  2.0450
 4070SOL     OW23863   4.525   3.744   4.108 -0.1106 -0.6297 -0.9722
 4070SOL    HW123864   4.504   3.656   4.152 -2.4284  0.5038  0.2862
 4070SOL    HW223865   4.624   3.757   4.106  0.1846 -2.2970  0.8136
 4071SOL     OW23866   6.057   3.294   2.729  0.0179  0.6664 -0.0474
 4071SOL    HW123867   6.136   3.292   2.791 -0.5478  0.9972  0.7018
 4071SOL    HW223868   5.981   3.341   2.775 -0.4006  0.9354 -1.0116
 4072SOL     OW23869   7.639   0.440   6.465  0.4344 -0.3966  0.1936
 4072SOL    HW123870   7.556   0.387   6.453  1.3095 -1.8666  0.5507
 4072SOL    HW223871   7.705   0.389   6.520  1.5587  0.7649 -0.0244
 4073SOL     OW23872   8.879   9.772   7.341 -0.5706  0.2737  0.1379
 4073SOL    HW123873   8.907   9.830   7.418 -1.7490 -0.3681  1.0663
 4073SOL    HW223874   8.866   9.828   7.260  0.3545  1.0048  0.4804
 4074SOL     OW23875   8.417   9.829   3.528 -0.2524  0.0293  0.2398
 4074SOL    HW123876   8.418   9.748   3.470 -1.4226 -1.0825  1.7462
 4074SOL    HW223877   8.491   9.824   3.595 -0.3700  0.1657  0.3807
 4075SOL     OW23878   0.631   4.933   2.628  0.2511 -0.9995 -0.1091
 4075SOL    HW123879   0.532   4.931   2.639  0.2307 -1.2217 -0.3542
 4075SOL    HW223880   0.658   5.018   2.583  0.2507 -0.5165  0.7924
 4076SOL     OW23881   0.786   0.814   4.980  0.3073 -0.0036  0.1705
 4076SOL    HW123882   0.760   0.899   5.026  0.0466  0.3057 -0.5522
 4076SOL    HW223883   0.747   0.736   5.030 -1.6785  0.4288 -0.6845
 4077SOL     OW23884   1.381   6.193   6.193  0.0007 -0.1877 -0.0052
 4077SOL    HW123885   1.341   6.132   6.124 -0.8209  0.9348 -0.5432
 4077SOL    HW223886   1.438   6.262   6.147 -1.1023  0.9899  0.3639
 4078SOL     OW23887   5.801   0.399   5.360  0.3550  0.8732 -0.1025
 4078SOL    HW123888   5.795   0.458   5.280  0.1326  1.4393  0.3285
 4078SOL    HW223889   5.710   0.364   5.383  0.2921  1.3310  0.3598
 4079SOL     OW23890   2.638   7.839   0.819  0.5196  0.4214  0.2296
 4079SOL    HW123891   2.573   7.763   0.828 -1.1849  1.9284  0.8963
 4079SOL    HW223892   2.731   7.804   0.828 -0.2369 -1.5922  0.5223
 4080SOL     OW23893   4.828   0.214   8.027  0.0455 -0.3490 -0.1271
 4080SOL    HW123894   4.870   0.158   7.956  1.8535  1.3442 -0.4491
 4080SOL    HW223895   4.751   0.265   7.988  0.3006 -0.3146 -0.5879
 4081SOL     OW23896   1.869   1.756   2.284 -0.0599  0.4708 -0.0689
 4081SOL    HW123897   1.936   1.694   2.243 -1.3241 -0.5384 -0.6505
 4081SOL    HW223898   1.905   1.849   2.284  1.8788 -0.2590  0.8436
 4082SOL     OW23899   3.757   4.746   3.051  0.2655 -0.8524  0.6692
 4082SOL    HW123900   3.769   4.829   2.997  0.7845 -1.1856  0.2667
 4082SOL    HW223901   3.792   4.762   3.144  1.7258 -1.0749  0.1704
 4083SOL     OW23902   4.230   8.735   2.870 -0.0814 -0.4065 -0.0810
 4083SOL    HW123903   4.282   8.651   2.885  1.1879 -0.2636 -3.2992
 4083SOL    HW223904   4.159   8.720   2.802 -0.9150  0.7182  0.5139
 4084SOL     OW23905   1.828   5.689   0.271 -0.1202 -0.0895 -1.0762
 4084SOL    HW123906   1.864   5.712   0.181 -0.1011 -0.9693 -1.2953
 4084SOL    HW223907   1.759   5.618   0.262  3.4983 -3.9305  0.0843
 4085SOL     OW23908   8.986   4.676   4.338 -0.7707 -0.4774  0.0315
 4085SOL    HW123909   8.964   4.620   4.417 -0.5331 -1.0767 -0.3193
 4085SOL    HW223910   8.913   4.668   4.270 -1.6505  1.1442  0.7672
 4086SOL     OW23911   0.759   0.910   5.349 -0.2959  0.4049  0.1320
 4086SOL    HW123912   0.682   0.870   5.399  0.8776 -0.2770  1.3941
 4086SOL    HW223913   0.729   0.934   5.256 -1.7221 -0.8859  0.2438
 4087SOL     OW23914   8.536   1.963   3.162  0.0252  0.6196  0.2359
 4087SOL    HW123915   8.502   1.885   3.213  0.6204  0.3736  0.2574
 4087SOL    HW223916   8.496   1.963   3.070 -0.0108  0.3173  0.2508
 4088SOL     OW23917   7.370   1.920   5.696 -0.4556  0.0816  0.5818
 4088SOL    HW123918   7.357   2.015   5.666  1.2989  0.5150  1.1457
 4088SOL    HW223919   7.409   1.867   5.621 -0.5495  0.0235  0.5745
 4089SOL     OW23920   2.108   4.059   4.052  0.0311 -0.3939 -0.3911
 4089SOL    HW123921   2.109   4.032   4.148 -2.6166 -1.3406 -0.5862
 4089SOL    HW223922   2.148   3.986   3.996  0.2231 -0.4701 -0.1550
 4090SOL     OW23923   3.460   3.759   0.679 -0.3850 -0.5458 -0.6246
 4090SOL    HW123924   3.373   3.715   0.659  0.4982 -1.7499 -1.9188
 4090SOL    HW223925   3.526   3.737   0.608  1.7340 -1.7083  1.6155
 4091SOL     OW23926   3.518   5.514   5.339 -0.2911 -0.7148  0.0705
 4091SOL    HW123927   3.469   5.597   5.364 -0.1552 -0.5996 -0.0420
 4091SOL    HW223928   3.585   5.492   5.410  1.2229  0.5142 -0.9378
 4092SOL     OW23929   0.936   4.090   1.122 -0.1404 -0.3077 -0.1631
 4092SOL    HW123930   0.915   4.005   1.170 -0.3126  0.5602  1.3257
 4092SOL    HW223931   0.930   4.167   1.186  1.1622  0.6952 -1.2162
 4093SOL     OW23932   2.539   5.700   0.237  0.1184 -0.3601 -0.6436
 4093SOL    HW123933   2.599   5.715   0.315 -0.2148  0.5876 -0.5631
 4093SOL    HW223934   2.571   5.755   0.160 -0.1234 -0.5466 -0.8788
 4094SOL     OW23935   4.540   8.932   5.709 -0.1616  0.0285 -0.3851
 4094SOL    HW123936   4.454   8.909   5.663 -1.4884  0.9092  1.6087
 4094SOL    HW223937   4.617   8.901   5.653 -1.7282  0.7987 -3.0458
 4095SOL     OW23938   0.386   2.295   3.575 -0.4551 -0.2731  0.2592
 4095SOL    HW123939   0.306   2.256   3.529 -0.1642 -0.1140 -0.3892
 4095SOL    HW223940   0.420   2.230   3.642 -0.4768 -0.7933 -0.2288
 4096SOL     OW23941   5.372   5.293   0.074 -0.2145 -0.2920 -0.6669
 4096SOL    HW123942   5.467   5.318   0.059  0.9896 -3.1146  1.8198
 4096SOL    HW223943   5.345   5.223   0.008 -0.0898 -0.5524 -0.4454
 4097SOL     OW23944   6.040   0.192   4.379  0.1689 -0.4345 -0.0522
 4097SOL    HW123945   6.135   0.167   4.360 -0.6419 -1.3501 -3.2636
 4097SOL    HW223946   6.006   0.137   4.456  1.8035 -1.1461  0.1850
 4098SOL     OW23947   1.310   9.775   3.788  0.3115  0.8489  0.2188
 4098SOL    HW123948   1.384   9.726   3.743 -0.3624 -0.6760  0.7265
 4098SOL    HW223949   1.342   9.864   3.819  1.1377  1.4130 -2.1197
 4099SOL     OW23950   5.767   9.175   1.449  0.2278 -0.1627  0.0693
 4099SOL    HW123951   5.849   9.122   1.470 -0.2292 -1.3854 -1.1634
 4099SOL    HW223952   5.711   9.183   1.532  1.1690 -0.0673  0.7052
 4100SOL     OW23953   3.108   5.882   3.385  0.4542 -0.4002  0.4000
 4100SOL    HW123954   3.135   5.977   3.371  4.1661 -1.3885  0.3171
 4100SOL    HW223955   3.080   5.842   3.298  1.8056 -0.2290 -0.1178
 4101SOL     OW23956   0.760   9.791   2.624 -0.2756  0.3058 -0.1046
 4101SOL    HW123957   0.700   9.839   2.688  0.7977  1.6942 -0.1233
 4101SOL    HW223958   0.708   9.717   2.580 -1.7623  0.9907  0.4395
 4102SOL     OW23959   6.451   1.039   5.236  0.3230 -0.0846 -0.2442
 4102SOL    HW123960   6.461   0.942   5.211  0.2527  0.0601 -0.8395
 4102SOL    HW223961   6.465   1.049   5.334 -1.5771 -0.9954  0.1485
 4103SOL     OW23962   8.937   8.491   7.595  0.0333  0.3058  0.1895
 4103SOL    HW123963   8.985   8.404   7.582 -0.8112  0.1011 -1.7009
 4103SOL    HW223964   8.979   8.561   7.537 -3.1812 -0.3672 -3.1166
 4104SOL     OW23965   0.701   2.754   2.863  0.4868 -0.3275 -0.2954
 4104SOL    HW123966   0.713   2.657   2.841  1.7061 -0.0729 -0.8062
 4104SOL    HW223967   0.739   2.772   2.954  1.2082 -0.1205 -0.6386
 4105SOL     OW23968   3.338   2.502   2.172  0.1181 -0.1988 -0.3525
 4105SOL    HW123969   3.369   2.543   2.086  0.2724  2.9912  1.1273
 4105SOL    HW223970   3.403   2.433   2.201  0.3992 -0.8663 -2.4594
 4106SOL     OW23971   1.714   6.407   4.862  0.0971  0.3664 -0.0260
 4106SOL    HW123972   1.661   6.330   4.896 -1.3156  1.0355 -0.6602
 4106SOL    HW223973   1.806   6.404   4.901 -0.4478 -0.7165  1.2165
 4107SOL     OW23974   5.179   2.369   5.174 -0.1510  0.3977  0.5965
 4107SOL    HW123975   5.254   2.382   5.109 -0.7669  1.6599  0.1179
 4107SOL    HW223976   5.093   2.358   5.124 -0.0978 -2.6524  1.0887
 4108SOL     OW23977   2.718   4.065   5.208 -0.1854  0.2759  0.3958
 4108SOL    HW123978   2.761   3.990   5.258  0.9740 -0.0015 -0.9798
 4108SOL    HW223979   2.715   4.146   5.265 -1.1237 -0.7136  1.7803
 4109SOL     OW23980   3.227   3.122   6.391 -0.0433  0.5868  0.2132
 4109SOL    HW123981   3.271   3.155   6.308 -0.9276 -0.7157 -0.8063
 4109SOL    HW223982   3.256   3.027   6.409 -0.9612  0.3670  0.5790
 4110SOL     OW23983   8.460   4.243   3.729 -0.0353  0.2708  0.0559
 4110SOL    HW123984   8.379   4.188   3.710  0.4643 -0.3145 -0.4092
 4110SOL    HW223985   8.516   4.197   3.799 -0.4853  1.0557  0.9508
 4111SOL     OW23986   9.726   7.155   6.612  0.3816 -0.2134  0.4713
 4111SOL    HW123987   9.782   7.137   6.693 -0.5295  0.2235  1.2039
 4111SOL    HW223988   9.684   7.070   6.581  0.0335 -0.2295  0.9810
 4112SOL     OW23989   3.891   4.703   6.022 -0.1764  0.2532 -0.3156
 4112SOL    HW123990   3.843   4.673   6.104 -0.1333  0.0068 -0.3814
 4112SOL    HW223991   3.852   4.658   5.942 -0.8803  1.2473 -0.5411
 4113SOL     OW23992   7.606   0.213   7.310 -0.2896 -0.0314 -0.4215
 4113SOL    HW123993   7.641   0.285   7.251  2.1524  0.5968  1.7417
 4113SOL    HW223994   7.647   0.125   7.284  1.2709  0.3458  0.6780
 4114SOL     OW23995   2.412   7.537   6.665  0.1812 -0.0761 -0.4681
 4114SOL    HW123996   2.365   7.625   6.675  0.0123  0.1381 -2.8900
 4114SOL    HW223997   2.401   7.504   6.572  1.1584 -2.1715  0.1293
 4115SOL     OW23998   2.555   6.059   2.307 -0.5678 -0.6013  0.0855
 4115SOL    HW123999   2.590   5.966   2.303 -0.5426 -0.5251 -1.9749
 4115SOL    HW224000   2.567   6.095   2.399  1.2865 -1.9197  0.3958
 4116SOL     OW24001   8.861   7.262   8.002 -0.1860  0.1975 -0.3451
 4116SOL    HW124002   8.781   7.244   8.059  0.9159  2.2553  1.9130
 4116SOL    HW224003   8.917   7.180   7.995 -1.3652 -0.6307 -0.1465
 4117SOL     OW24004   4.610   1.907   7.228  1.0541  0.3057 -0.2769
 4117SOL    HW124005   4.669   1.920   7.148 -1.5238  0.7950 -2.1471
 4117SOL    HW224006   4.585   1.996   7.266  0.7448  0.1302 -0.0683
 4118SOL     OW24007   1.714   3.328   4.037 -0.3497 -0.1269 -0.7120
 4118SOL    HW124008   1.727   3.421   4.073 -1.1920 -0.5160  0.6541
 4118SOL    HW224009   1.672   3.334   3.947 -1.5296  0.8180 -0.1278
 4119SOL     OW24010   3.978   3.467   7.293  0.1548  0.1128 -0.1157
 4119SOL    HW124011   3.995   3.376   7.255  1.1091 -0.0887  0.7621
 4119SOL    HW224012   3.894   3.465   7.347  0.0434 -0.1781 -0.2923
 4120SOL     OW24013   3.737   9.621   0.444 -0.6884  0.2050 -0.0100
 4120SOL    HW124014   3.703   9.707   0.484 -1.7565 -0.3369  0.2774
 4120SOL    HW224015   3.823   9.596   0.488 -0.5512  0.9431  0.1531
 4121SOL     OW24016   3.557   6.278   7.344 -0.7683 -0.5769 -0.2537
 4121SOL    HW124017   3.473   6.263   7.395 -0.8289  1.4183  0.2565
 4121SOL    HW224018   3.635   6.246   7.399 -1.0316 -0.6537  0.0767
 4122SOL     OW24019   6.336   8.392   4.562 -0.1002 -0.5740 -0.1132
 4122SOL    HW124020   6.315   8.466   4.497 -3.4330 -2.6110 -1.4803
 4122SOL    HW224021   6.410   8.336   4.526 -1.1200 -0.9860 -1.5962
 4123SOL     OW24022   1.729   7.896   1.227  0.3113  0.5366 -0.4376
 4123SOL    HW124023   1.744   7.804   1.262  2.8356  1.0875 -0.0007
 4123SOL    HW224024   1.761   7.964   1.293 -2.5771  1.8027 -0.2438
 4124SOL     OW24025   3.937   8.966   7.833 -0.2047  0.0779 -0.0209
 4124SOL    HW124026   3.888   8.920   7.759  1.1555 -2.5003  0.6343
 4124SOL    HW224027   3.908   8.930   7.921  1.6072 -0.2856  0.4579
 4125SOL     OW24028   4.045   3.270   1.682  0.0081 -0.0380 -0.1283
 4125SOL    HW124029   4.136   3.300   1.654 -0.8680  1.9254 -0.9726
 4125SOL    HW224030   4.045   3.248   1.779  1.2236  0.5604  0.0156
 4126SOL     OW24031   7.134   1.148   3.146 -0.1813  0.1957  0.2280
 4126SOL    HW124032   7.153   1.053   3.172 -0.4385 -0.2341 -1.0729
 4126SOL    HW224033   7.165   1.210   3.218  0.2009 -0.8626  0.9873
 4127SOL     OW24034   0.719   6.651   7.385  0.1890  0.1399  0.3618
 4127SOL    HW124035   0.742   6.730   7.328  0.3903  0.0191  0.2771
 4127SOL    HW224036   0.796   6.628   7.444  0.7063 -0.9730 -0.7373
 4128SOL     OW24037   9.109   8.123   7.784 -0.2827  0.3616 -0.3951
 4128SOL    HW124038   9.076   8.029   7.787  0.0825  0.1246 -3.0641
 4128SOL    HW224039   9.059   8.174   7.714  2.3974  1.0075 -1.9098
 4129SOL     OW24040   8.470   4.055   1.440 -0.5654 -0.0479 -0.3749
 4129SOL    HW124041   8.530   4.001   1.381 -1.5175 -0.8911 -0.5991
 4129SOL    HW224042   8.523   4.124   1.489  0.1584  1.1669 -2.7756
 4130SOL     OW24043   7.441   2.247   1.419 -0.0029  0.5015  0.3457
 4130SOL    HW124044   7.432   2.344   1.398  1.0157  1.4370  3.8715
 4130SOL    HW224045   7.423   2.232   1.517  0.6661 -2.7352  0.0303
 4131SOL     OW24046   9.562   0.876   5.741 -0.1208  0.3630 -0.6185
 4131SOL    HW124047   9.615   0.860   5.825 -1.2263  0.7663  0.1733
 4131SOL    HW224048   9.625   0.900   5.667  0.7052  2.7477  0.7728
 4132SOL     OW24049   3.434   5.221   0.166 -0.2528  0.0723  0.2313
 4132SOL    HW124050   3.364   5.191   0.230  0.2314  0.3132  0.8750
 4132SOL    HW224051   3.493   5.143   0.143 -0.7276 -0.1302 -0.3095
 4133SOL     OW24052   0.232   1.651   3.566 -0.0114 -0.5840  0.1997
 4133SOL    HW124053   0.252   1.585   3.639 -0.3215  0.2669  1.0730
 4133SOL    HW224054   0.139   1.638   3.533 -0.3675 -0.0348  0.9713
 4134SOL     OW24055   8.784   6.397   4.819  0.1154  0.5744  0.1536
 4134SOL    HW124056   8.749   6.438   4.903 -0.5425  1.0888 -0.3658
 4134SOL    HW224057   8.864   6.448   4.787  0.3799  0.3643  0.4751
 4135SOL     OW24058   3.727   1.813   6.447 -0.4555 -0.5956 -0.3738
 4135SOL    HW124059   3.635   1.784   6.474 -0.4397  0.4242  0.8244
 4135SOL    HW224060   3.745   1.905   6.483  0.6934 -0.4175 -1.3698
 4136SOL     OW24061   3.840   6.058   1.972 -0.2641 -0.5986  0.4728
 4136SOL    HW124062   3.790   6.031   1.890 -0.5482 -0.8418  0.7253
 4136SOL    HW224063   3.909   6.126   1.948 -1.2270  0.3095  0.2434
 4137SOL     OW24064   5.806   2.420   5.919  0.3019  0.3903 -0.1619
 4137SOL    HW124065   5.717   2.464   5.908  0.4356  0.7788  0.2712
 4137SOL    HW224066   5.807   2.368   6.004  1.9230  3.9494  2.0854
 4138SOL     OW24067   3.629   7.916   3.267 -0.0620 -0.4795 -0.0093
 4138SOL    HW124068   3.532   7.893   3.272  0.1966 -1.3028  1.6452
 4138SOL    HW224069   3.675   7.853   3.205 -0.3929 -0.7666  0.0346
 4139SOL     OW24070   6.806   8.389   6.650 -0.0703 -0.1719 -0.1920
 4139SOL    HW124071   6.806   8.488   6.666  2.7319  0.0278 -1.2064
 4139SOL    HW224072   6.719   8.362   6.608  0.6459  2.5200 -3.6083
 4140SOL     OW24073   0.199   8.505   3.472  0.1409  0.4066  0.1788
 4140SOL    HW124074   0.115   8.462   3.438  1.5276 -1.2228 -1.2886
 4140SOL    HW224075   0.200   8.500   3.572 -0.1793 -2.1939  0.0904
 4141SOL     OW24076   2.701   9.714   5.556  0.3948 -0.4710  0.2726
 4141SOL    HW124077   2.657   9.627   5.536 -0.7147 -0.5864  2.9773
 4141SOL    HW224078   2.677   9.743   5.648  2.1464  1.8613  0.0505
 4142SOL     OW24079   3.495   3.370   5.990 -0.2066  0.2498  0.3036
 4142SOL    HW124080   3.521   3.462   5.959  1.1536  0.1953  1.2286
 4142SOL    HW224081   3.494   3.308   5.912 -0.0535  0.8145 -0.1530
 4143SOL     OW24082   3.253   6.944   1.126  0.0607  0.2866  0.6375
 4143SOL    HW124083   3.251   6.847   1.100  0.2289  0.7860 -1.3723
 4143SOL    HW224084   3.345   6.980   1.110 -0.0647  0.8401  1.1524
 4144SOL     OW24085   4.248   6.542   3.184  0.0879  0.2030 -0.2206
 4144SOL    HW124086   4.340   6.540   3.145  0.1450  1.4399 -0.1778
 4144SOL    HW224087   4.185   6.492   3.125  0.7819 -0.6604 -0.2471
 4145SOL     OW24088   7.632   1.318   7.293  0.2896 -0.0399  0.1903
 4145SOL    HW124089   7.544   1.272   7.278  0.3353 -0.5223  1.3230
 4145SOL    HW224090   7.702   1.276   7.234  0.3484 -1.5170  1.2810
 4146SOL     OW24091   2.674   9.109   5.705 -0.3346 -0.2648  0.0256
 4146SOL    HW124092   2.756   9.161   5.685  0.4721 -1.8420 -0.8327
 4146SOL    HW224093   2.691   9.047   5.782 -0.3479 -1.4678 -0.9352
 4147SOL     OW24094   7.624   6.200   6.938 -0.3539  0.0472  0.2831
 4147SOL    HW124095   7.550   6.235   6.995 -2.3719 -2.1421 -0.8892
 4147SOL    HW224096   7.614   6.236   6.845 -0.8345 -1.3981 -0.2412
 4148SOL     OW24097   5.918   3.975   2.671 -0.6812 -0.3854 -0.6717
 4148SOL    HW124098   5.990   4.042   2.652 -0.3783  0.6602  3.5306
 4148SOL    HW224099   5.831   4.008   2.633  0.3119  0.2565 -2.4076
 4149SOL     OW24100   3.109   3.062   7.519  0.1759 -0.1565  0.3509
 4149SOL    HW124101   3.042   3.135   7.508 -0.8570 -1.3538 -1.4707
 4149SOL    HW224102   3.165   3.054   7.437 -0.2428 -1.9124  0.2035
 4150SOL     OW24103   2.336   1.481   4.657 -0.2325  0.0335  0.2002
 4150SOL    HW124104   2.279   1.550   4.700 -1.0316 -0.4472 -0.0850
 4150SOL    HW224105   2.370   1.417   4.726  0.7758  0.8927  0.5130
 4151SOL     OW24106   2.800   9.958   5.179 -0.1633  0.1695  0.6169
 4151SOL    HW124107   2.791   9.859   5.190  0.7888  0.1544  1.4372
 4151SOL    HW224108   2.885   9.978   5.131  0.5735  0.6479  2.0905
 4152SOL     OW24109   8.186   8.132   5.692 -0.3084 -0.1520  0.4544
 4152SOL    HW124110   8.096   8.109   5.654 -0.3393 -0.8376  0.9377
 4152SOL    HW224111   8.215   8.059   5.754  0.5853  0.0640  0.2853
 4153SOL     OW24112   3.989   2.745   1.402 -0.2237 -0.3887  0.3093
 4153SOL    HW124113   3.954   2.822   1.349  0.0216  0.6493  1.6207
 4153SOL    HW224114   4.086   2.758   1.420 -0.6525  0.0835  2.3795
 4154SOL     OW24115   0.275   8.803   7.442 -0.0062  0.1624  0.3191
 4154SOL    HW124116   0.359   8.815   7.495  2.0912 -2.1132 -2.3327
 4154SOL    HW224117   0.261   8.706   7.423 -3.2436  0.4918  0.6049
 4155SOL     OW24118   2.965   0.482   7.539  0.3225  0.1690 -0.3386
 4155SOL    HW124119   2.967   0.394   7.492  1.2309 -1.6454  2.9348
 4155SOL    HW224120   3.045   0.490   7.599 -1.4369  1.7953  1.8879
 4156SOL     OW24121   4.588   1.438   5.585  0.1524 -0.1455 -0.2558
 4156SOL    HW124122   4.543   1.480   5.506 -0.4268  1.6693  0.9864
 4156SOL    HW224123   4.680   1.409   5.560  0.3599  1.3839 -1.3349
 4157SOL     OW24124   1.974   9.512   1.793 -0.0469  0.3993 -0.0747
 4157SOL    HW124125   1.954   9.574   1.869  0.6624  1.5703 -0.8304
 4157SOL    HW224126   1.966   9.562   1.706  3.7396  0.3323 -0.5504
 4158SOL     OW24127   2.299   1.144   1.061  0.0396  0.4605 -0.2793
 4158SOL    HW124128   2.351   1.072   1.015 -0.3853 -0.2324  0.3063
 4158SOL    HW224129   2.346   1.170   1.145 -0.1478  0.3984 -0.1553
 4159SOL     OW24130   4.321   7.282   3.912  0.3163 -0.0952  0.5053
 4159SOL    HW124131   4.233   7.313   3.949  0.6192  0.8343  0.4588
 4159SOL    HW224132   4.321   7.182   3.906 -0.9366 -0.0763 -0.0035
 4160SOL     OW24133   3.147   1.894   4.339 -0.1492 -0.6187  0.2705
 4160SOL    HW124134   3.178   1.860   4.428  1.7299 -1.4140 -0.6688
 4160SOL    HW224135   3.065   1.843   4.311 -0.9667 -0.1275  1.6736
 4161SOL     OW24136   5.684   9.528   2.794  0.1254 -0.3131  0.0934
 4161SOL    HW124137   5.637   9.602   2.843 -1.0054 -2.1125  1.8165
 4161SOL    HW224138   5.670   9.538   2.696 -2.0690  0.3774  0.4616
 4162SOL     OW24139   1.756   1.586   4.074  0.5609  0.3007  0.1532
 4162SOL    HW124140   1.817   1.544   4.007 -0.2965 -1.5406  0.4885
 4162SOL    HW224141   1.662   1.554   4.058 -0.0419  1.7432  0.7235
 4163SOL     OW24142   1.130   3.402   0.228  0.3711 -0.0812  0.5886
 4163SOL    HW124143   1.040   3.443   0.213  0.3757  0.0756  0.9935
 4163SOL    HW224144   1.120   3.305   0.246  0.3075 -0.1237  0.3307
 4164SOL     OW24145   2.866   9.682   5.111  0.2892  0.2311  0.2880
 4164SOL    HW124146   2.905   9.591   5.121  0.9394  0.7705  3.0618
 4164SOL    HW224147   2.938   9.746   5.085  0.5671  0.5468  1.7561
 4165SOL     OW24148   9.198   0.110   7.749 -0.2234  0.0564  0.1385
 4165SOL    HW124149   9.256   0.178   7.705 -0.8765  0.7571  0.3642
 4165SOL    HW224150   9.253   0.054   7.811  0.0914  1.0798  0.7777
 4166SOL     OW24151   0.994   9.753   6.776 -0.1057  0.1156  0.2208
 4166SOL    HW124152   0.983   9.719   6.870  2.1139  0.1588  0.5205
 4166SOL    HW224153   1.027   9.679   6.718  0.9564  0.7477  0.0205
 4167SOL     OW24154   7.695   4.300   1.353 -0.4859 -0.2080  0.6627
 4167SOL    HW124155   7.712   4.218   1.407  0.1868 -1.1590 -0.9632
 4167SOL    HW224156   7.597   4.314   1.343 -0.5969 -1.0418  0.5926
 4168SOL     OW24157   8.492   1.230   5.134  0.0495 -0.0950  0.2974
 4168SOL    HW124158   8.592   1.228   5.133  0.0253 -1.9668  0.2959
 4168SOL    HW224159   8.460   1.276   5.216  0.9170 -0.6938  0.9737
 4169SOL     OW24160   8.424   6.440   2.698 -0.2484 -0.2747  0.0630
 4169SOL    HW124161   8.357   6.450   2.771  0.3213 -0.7218  0.6512
 4169SOL    HW224162   8.400   6.361   2.641  1.0837 -1.9442  1.7136
 4170SOL     OW24163   2.844   3.722   0.144  0.0982 -0.0439  0.7708
 4170SOL    HW124164   2.882   3.630   0.138 -0.1098 -0.2968  2.7922
 4170SOL    HW224165   2.916   3.787   0.167  0.6579  0.6815 -2.7652
 4171SOL     OW24166   2.591   7.578   1.084 -0.6501 -0.0949  0.0932
 4171SOL    HW124167   2.538   7.535   1.011 -2.3460  1.2440  0.4940
 4171SOL    HW224168   2.668   7.628   1.045 -0.2723 -1.1971 -0.5856
 4172SOL     OW24169   1.491   6.594   2.946 -0.0716 -0.6749 -0.0617
 4172SOL    HW124170   1.477   6.689   2.915  2.3663 -0.3210 -0.1974
 4172SOL    HW224171   1.588   6.580   2.966 -0.5592 -2.9032  0.8402
 4173SOL     OW24172   9.024   5.065   0.586  0.3501 -0.1608  0.4505
 4173SOL    HW124173   9.102   5.016   0.624  0.4215 -0.9825 -0.7155
 4173SOL    HW224174   9.042   5.163   0.586  3.4817 -0.5873 -4.3574
 4174SOL     OW24175   9.455   3.870   9.866  0.4343  0.0583 -0.0679
 4174SOL    HW124176   9.395   3.901   9.940 -0.0531  0.0754 -0.4642
 4174SOL    HW224177   9.548   3.902   9.883  0.4866 -0.5991  0.9392
 4175SOL     OW24178   9.280   4.887   0.654 -0.3459  0.4077  0.2190
 4175SOL    HW124179   9.380   4.895   0.650 -0.3636  0.2781 -0.5611
 4175SOL    HW224180   9.252   4.801   0.611 -0.7311 -0.0220  1.3184
 4176SOL     OW24181   9.555   9.207  10.038  0.5552  0.1860  0.0094
 4176SOL    HW124182   9.565   9.306  10.034  1.8764  0.0865  0.6871
 4176SOL    HW224183   9.479   9.185  10.100  1.3791  0.7339  1.2360
 4177SOL     OW24184   6.649   3.659   0.282  0.4538 -0.2705  0.3766
 4177SOL    HW124185   6.660   3.670   0.183  1.3546 -1.2394  0.3675
 4177SOL    HW224186   6.554   3.634   0.302 -0.0100  0.9829 -0.1365
 4178SOL     OW24187   3.358   8.585   5.518  0.0179  0.3103  0.7599
 4178SOL    HW124188   3.330   8.490   5.536 -0.3654  0.1993 -0.4220
 4178SOL    HW224189   3.447   8.586   5.475  0.4449  0.5396  1.6303
 4179SOL     OW24190   4.168   7.634   5.089 -0.2699  0.2281  0.1632
 4179SOL    HW124191   4.225   7.713   5.110  0.8540 -0.7327  0.7469
 4179SOL    HW224192   4.095   7.626   5.157  0.5197 -0.1021  0.9873
 4180SOL     OW24193   8.557   8.527   2.397 -0.2038 -0.2598  0.1460
 4180SOL    HW124194   8.461   8.548   2.414 -0.6846 -1.2253 -1.2664
 4180SOL    HW224195   8.596   8.597   2.337 -0.2908 -0.3637 -0.0350
 4181SOL     OW24196   0.289   5.603   5.406 -0.1811  0.0743 -0.2627
 4181SOL    HW124197   0.214   5.638   5.462  1.8063  2.3973  1.0413
 4181SOL    HW224198   0.326   5.519   5.447 -2.0742 -1.1353 -0.9658
 4182SOL     OW24199   6.636   9.245   3.248 -0.4142 -0.3872  0.0282
 4182SOL    HW124200   6.654   9.167   3.308  1.6204 -0.1420 -0.2546
 4182SOL    HW224201   6.596   9.212   3.162 -1.2466 -0.9338  0.6065
 4183SOL     OW24202   3.358   9.596   7.363  0.0231  0.4694  0.2262
 4183SOL    HW124203   3.450   9.621   7.395 -0.4630  3.3284 -0.4644
 4183SOL    HW224204   3.290   9.643   7.419 -0.9954 -0.6393 -0.0731
 4184SOL     OW24205   6.153   4.080   2.566 -0.3044 -0.7362  0.2261
 4184SOL    HW124206   6.151   4.011   2.494  0.2452 -1.7267  1.1550
 4184SOL    HW224207   6.248   4.106   2.585 -0.4852  0.0128  0.1383
 4185SOL     OW24208   5.336   9.463   5.335  0.2100 -0.7846 -0.2243
 4185SOL    HW124209   5.291   9.551   5.349 -0.4647 -0.9246 -1.5239
 4185SOL    HW224210   5.327   9.435   5.240  0.1541 -2.4074  0.2404
 4186SOL     OW24211   0.152   9.682   6.723 -0.0004 -1.0721 -0.0940
 4186SOL    HW124212   0.226   9.674   6.656 -0.0638 -2.1463 -0.0410
 4186SOL    HW224213   0.188   9.718   6.808  0.7608 -2.9358  0.4034
 4187SOL     OW24214   1.778   6.358   1.865 -0.3750 -0.2634 -0.5736
 4187SOL    HW124215   1.860   6.394   1.909  0.6900 -1.4811 -1.5108
 4187SOL    HW224216   1.697   6.388   1.915  0.5805  1.7744 -0.2179
 4188SOL     OW24217   9.670   8.689   6.602  0.6028 -0.4016  0.8315
 4188SOL    HW124218   9.670   8.591   6.585  0.8374 -0.4496  1.0982
 4188SOL    HW224219   9.733   8.710   6.677  0.5271 -0.0523  0.7994
 4189SOL     OW24220   1.891   2.917   1.771 -0.1297 -0.3083  0.0541
 4189SOL    HW124221   1.928   2.882   1.857 -0.0518  1.9216  0.9864
 4189SOL    HW224222   1.791   2.915   1.774 -0.1463  0.9493  0.7405
 4190SOL     OW24223   3.610   8.834   5.593 -0.2482 -0.6441 -0.1296
 4190SOL    HW124224   3.517   8.857   5.567  0.0753  1.2165  0.2974
 4190SOL    HW224225   3.673   8.863   5.521  0.0344 -1.6272 -0.2861
 4191SOL     OW24226   6.320   3.537   1.519  0.3813 -0.3219 -0.5178
 4191SOL    HW124227   6.416   3.557   1.499  0.2556  0.6291 -0.1950
 4191SOL    HW224228   6.273   3.622   1.544 -0.2967 -0.9477  0.3554
 4192SOL     OW24229   1.299   1.530   2.368  0.2485  0.4832 -0.6228
 4192SOL    HW124230   1.387   1.507   2.325  0.1134 -0.9055 -0.2089
 4192SOL    HW224231   1.268   1.619   2.337  1.6351  0.8217 -1.0599
 4193SOL     OW24232   0.211   5.019   3.374 -0.3442  0.1381 -0.4189
 4193SOL    HW124233   0.188   5.083   3.448  1.2615 -0.4685  0.6235
 4193SOL    HW224234   0.283   5.059   3.318 -1.1607  0.3466 -1.3233
 4194SOL     OW24235   0.439   0.491   3.927  0.3593  0.1165  1.0736
 4194SOL    HW124236   0.429   0.433   3.846  1.5352 -2.0119  2.3917
 4194SOL    HW224237   0.486   0.439   3.999  0.1946  2.2805  2.7852
 4195SOL     OW24238   3.689   4.130   0.097 -0.1716  0.0694  0.1349
 4195SOL    HW124239   3.789   4.139   0.101 -0.1306  0.4567 -1.3332
 4195SOL    HW224240   3.647   4.210   0.141  0.1347 -1.0035  2.4588
 4196SOL     OW24241   3.543   8.324   2.311 -0.1559  0.5630  0.4638
 4196SOL    HW124242   3.601   8.287   2.383 -1.1248  1.3671  1.6738
 4196SOL    HW224243   3.589   8.402   2.268  0.1400  0.4944  0.6570
 4197SOL     OW24244   3.990   7.362   1.286  0.1054 -0.1742 -0.4656
 4197SOL    HW124245   3.990   7.383   1.383  1.1966  1.5146 -0.8082
 4197SOL    HW224246   3.913   7.409   1.242  0.7608  0.6418 -0.7393
 4198SOL     OW24247   6.009   7.538   6.827  0.3242 -0.4326 -0.2467
 4198SOL    HW124248   6.099   7.494   6.828  0.2480 -0.5781  0.6830
 4198SOL    HW224249   5.944   7.482   6.879 -1.4598 -2.7294 -4.6211
 4199SOL     OW24250   9.553   3.441   7.026  0.0131 -0.0941  0.1915
 4199SOL    HW124251   9.604   3.357   7.047 -0.3632 -0.4511 -0.2992
 4199SOL    HW224252   9.579   3.473   6.934 -0.7395 -0.3469 -0.1130
 4200SOL     OW24253   6.303   9.258   1.316  0.4197 -0.0945 -0.1383
 4200SOL    HW124254   6.213   9.219   1.295 -0.0868  0.3659  1.1164
 4200SOL    HW224255   6.372   9.185   1.314 -0.5857 -1.2036  2.6008
 4201SOL     OW24256   4.041   5.806   5.053 -0.3524 -0.4007  0.4284
 4201SOL    HW124257   3.961   5.818   4.993  0.1949  0.1229 -0.2074
 4201SOL    HW224258   4.014   5.822   5.148 -0.6928  1.2180  0.0751
 4202SOL     OW24259   9.683   7.055   7.848 -0.0413  0.3350  0.3098
 4202SOL    HW124260   9.772   7.099   7.838  0.3194  0.0026  1.9327
 4202SOL    HW224261   9.623   7.114   7.902 -0.5976  0.2616 -0.2235
 4203SOL     OW24262   8.541   6.148   2.933  0.1951 -0.0185 -0.2740
 4203SOL    HW124263   8.496   6.159   2.845 -2.2495 -1.1693  0.7848
 4203SOL    HW224264   8.563   6.052   2.948 -0.2657  0.0258  0.7728
 4204SOL     OW24265   2.452   0.885   7.305 -0.0710  0.5029  0.0834
 4204SOL    HW124266   2.372   0.919   7.356  0.5939  1.2961  0.6234
 4204SOL    HW224267   2.480   0.953   7.238  0.3259  0.3570  0.0976
 4205SOL     OW24268   7.584   1.938   0.316  0.4130  0.3208  0.1291
 4205SOL    HW124269   7.645   1.974   0.246 -1.6956  1.6768 -1.0731
 4205SOL    HW224270   7.554   1.846   0.290  0.7707  0.2490 -0.0294
 4206SOL     OW24271   6.719   4.687   2.547  0.0762 -0.6576  0.5361
 4206SOL    HW124272   6.794   4.746   2.516  1.5194 -0.9316  3.3181
 4206SOL    HW224273   6.638   4.743   2.565  0.0974 -0.1313 -0.9536
 4207SOL     OW24274   4.445   0.922   3.470  0.1530 -0.4308 -0.1130
 4207SOL    HW124275   4.346   0.911   3.471  0.0932  0.1219  1.1481
 4207SOL    HW224276   4.487   0.855   3.532  0.5176 -0.2534 -0.1631
 4208SOL     OW24277   9.600   2.423   7.447  0.0772  0.4222 -0.0084
 4208SOL    HW124278   9.509   2.426   7.488  0.0281  0.4358 -0.1183
 4208SOL    HW224279   9.627   2.328   7.431 -0.0747  0.4342 -0.3261
 4209SOL     OW24280   2.436   5.139   5.737  0.2538 -0.6938 -0.0960
 4209SOL    HW124281   2.353   5.186   5.708  0.2588 -0.1974  0.6784
 4209SOL    HW224282   2.444   5.052   5.689  0.6427  0.4405 -2.1176
 4210SOL     OW24283   7.585   8.636   2.865  0.2411 -0.2816 -0.1190
 4210SOL    HW124284   7.539   8.669   2.782 -0.4204 -1.3306 -0.1683
 4210SOL    HW224285   7.518   8.620   2.937  0.6369 -0.8476  0.1313
 4211SOL     OW24286   8.094   9.721   7.017  0.0729 -0.2209  0.3396
 4211SOL    HW124287   8.118   9.799   7.075  0.8457 -0.7446  0.7336
 4211SOL    HW224288   8.049   9.754   6.934  2.1122  0.7852 -0.3891
 4212SOL     OW24289   0.638   1.114   0.480 -0.3219  0.3350 -0.3865
 4212SOL    HW124290   0.652   1.115   0.580  0.3875 -0.8386 -0.4600
 4212SOL    HW224291   0.719   1.075   0.436 -0.8339  0.4086 -1.3947
 4213SOL     OW24292   1.421   0.512   6.457  0.0815  0.1142 -0.3099
 4213SOL    HW124293   1.376   0.433   6.414 -0.5215  0.5769 -0.5344
 4213SOL    HW224294   1.353   0.567   6.505  0.7434 -0.3993  1.2723
 4214SOL     OW24295   7.950   2.962   1.878  0.0149 -0.0185  0.4443
 4214SOL    HW124296   7.984   3.000   1.964  0.9723  1.2287 -0.4707
 4214SOL    HW224297   7.976   3.021   1.802 -0.9245 -1.0431 -0.7055
 4215SOL     OW24298   9.299   0.588   6.613  0.2109  0.6702 -0.0908
 4215SOL    HW124299   9.388   0.633   6.622  0.0728  0.6688  1.3949
 4215SOL    HW224300   9.226   0.653   6.632 -0.0329  0.1700  0.7156
 4216SOL     OW24301   0.906   3.909   5.955  0.0698 -0.5880 -0.3324
 4216SOL    HW124302   0.903   3.956   5.867 -1.1693 -0.9696 -0.5050
 4216SOL    HW224303   0.955   3.965   6.021 -2.2087  1.4333 -0.2762
 4217SOL     OW24304   4.689   4.942   1.990  0.3512 -0.4247 -0.1377
 4217SOL    HW124305   4.772   4.888   2.002  0.6460 -0.0033 -0.3035
 4217SOL    HW224306   4.610   4.881   1.993  0.6758 -0.8505 -0.1796
 4218SOL     OW24307   5.872   9.854   2.723 -0.0068  0.5819  0.2256
 4218SOL    HW124308   5.858   9.951   2.706  0.6844  0.6111 -0.2140
 4218SOL    HW224309   5.919   9.813   2.645 -0.2186 -0.0849  0.4467
 4219SOL     OW24310   5.179   7.595   2.570 -0.3128 -0.1909  0.0305
 4219SOL    HW124311   5.246   7.646   2.516 -0.9422  0.8211  0.1894
 4219SOL    HW224312   5.146   7.653   2.645 -2.9879  0.1082 -1.3297
 4220SOL     OW24313   9.399   1.705   5.423 -0.2196 -0.0213  0.9705
 4220SOL    HW124314   9.353   1.785   5.461 -1.4423 -0.9256  1.4202
 4220SOL    HW224315   9.331   1.644   5.382  0.6413 -1.0930  1.1178
 4221SOL     OW24316   0.524   8.092   5.917  0.7088 -0.6338 -0.4937
 4221SOL    HW124317   0.516   8.120   5.822 -0.5638  0.8169  0.0285
 4221SOL    HW224318   0.620   8.073   5.938  1.4569  2.2039 -1.1940
 4222SOL     OW24319   9.507   7.221   6.788 -0.7760  0.8286 -0.5222
 4222SOL    HW124320   9.567   7.159   6.738 -0.3583 -0.0397  1.0073
 4222SOL    HW224321   9.446   7.268   6.724  0.3508  0.4289 -1.9131
 4223SOL     OW24322   3.160   5.410   4.169  0.2663 -0.0114  0.0503
 4223SOL    HW124323   3.235   5.419   4.102 -0.5543  1.4429 -0.6915
 4223SOL    HW224324   3.136   5.501   4.204 -0.1708 -0.6357  1.3860
 4224SOL     OW24325   9.630   3.705   4.628  0.0533 -0.5027  0.2699
 4224SOL    HW124326   9.632   3.617   4.581 -1.3322  0.4988 -1.7412
 4224SOL    HW224327   9.702   3.764   4.592  0.1343 -0.3368  0.6959
 4225SOL     OW24328   0.002   5.192   6.453 -0.6691  0.0811 -0.2911
 4225SOL    HW124329  -0.032   5.262   6.391  0.0410  0.1158 -0.6451
 4225SOL    HW224330   0.023   5.108   6.402 -0.0661  0.1134 -0.1106
 4226SOL     OW24331   8.887   1.067   4.693  0.1640  0.5639  0.0900
 4226SOL    HW124332   8.801   1.023   4.717  1.4394 -2.1593 -0.0459
 4226SOL    HW224333   8.873   1.132   4.619 -2.1547  1.9082  1.6662
 4227SOL     OW24334   7.597   0.502   3.807 -0.6613  0.6383  0.3815
 4227SOL    HW124335   7.649   0.507   3.722 -0.3109  1.1620  0.6248
 4227SOL    HW224336   7.504   0.469   3.787  0.0732 -1.3109  0.0933
 4228SOL     OW24337   0.420   0.276   7.100  0.4362  0.5096  0.1991
 4228SOL    HW124338   0.342   0.219   7.073  0.1777  0.9068  0.1041
 4228SOL    HW224339   0.500   0.218   7.115  0.0577  0.0702  0.5360
 4229SOL     OW24340   1.269   2.564   2.307 -0.3691  0.6549  0.2046
 4229SOL    HW124341   1.196   2.591   2.369 -0.2625 -0.6173  0.9189
 4229SOL    HW224342   1.262   2.465   2.290 -0.9591  1.1561 -2.5645
 4230SOL     OW24343   1.564   6.477  10.063  0.0317  0.7263 -0.4636
 4230SOL    HW124344   1.490   6.415  10.038  0.2005 -0.6702  2.3797
 4230SOL    HW224345   1.613   6.441  10.142  2.0891  2.9600 -0.6671
 4231SOL     OW24346   6.455   7.145   6.560  0.1310 -0.1510  0.0399
 4231SOL    HW124347   6.478   7.237   6.528 -1.2612  0.3718  0.5236
 4231SOL    HW224348   6.466   7.140   6.659  1.1194 -0.7868 -0.0953
 4232SOL     OW24349   0.906   7.175   0.627 -0.0953  0.6481 -0.2706
 4232SOL    HW124350   0.865   7.100   0.678  0.7759 -0.8353 -1.7137
 4232SOL    HW224351   0.946   7.241   0.690 -1.4646  0.2558  1.0254
 4233SOL     OW24352   1.262   6.204   1.406  0.4475  0.2610  0.3941
 4233SOL    HW124353   1.306   6.188   1.318 -0.6103 -2.1029  0.2655
 4233SOL    HW224354   1.266   6.301   1.428  1.8605  0.6926 -1.6471
 4234SOL     OW24355   1.467   1.277   3.488  0.2008  0.4057 -0.3583
 4234SOL    HW124356   1.446   1.337   3.411  1.4544 -0.1237 -1.1112
 4234SOL    HW224357   1.548   1.309   3.536  0.6667 -0.4825 -0.5410
 4235SOL     OW24358   5.603   2.076   5.744  0.1274 -0.4036 -0.0223
 4235SOL    HW124359   5.621   1.982   5.775  3.1502  0.0347 -0.3292
 4235SOL    HW224360   5.570   2.074   5.650 -0.8999 -1.2119  0.3436
 4236SOL     OW24361   7.184   7.753   3.140 -0.2623  0.0266 -0.3420
 4236SOL    HW124362   7.261   7.689   3.139 -0.5061 -0.3340  1.9981
 4236SOL    HW224363   7.212   7.839   3.098  0.0706 -1.5556 -3.5726
 4237SOL     OW24364   0.429   9.782   4.174  0.2179  0.5026 -0.0217
 4237SOL    HW124365   0.514   9.808   4.221  0.2712 -2.7633  1.8361
 4237SOL    HW224366   0.351   9.827   4.219  0.7188  1.4718 -0.1031
 4238SOL     OW24367   8.698   7.420   6.137 -0.1659 -0.8110  0.3628
 4238SOL    HW124368   8.762   7.496   6.143 -1.7783  0.6046  0.0463
 4238SOL    HW224369   8.703   7.379   6.046  0.7117 -1.1068  0.5374
 4239SOL     OW24370   1.978   1.768   0.527  0.2734  0.7108  0.1702
 4239SOL    HW124371   1.897   1.718   0.497 -0.5493  2.0731  0.0832
 4239SOL    HW224372   2.055   1.746   0.467 -0.8825  1.9811 -1.8479
 4240SOL     OW24373   4.188   3.637   7.238 -0.2832  0.4381 -0.7181
 4240SOL    HW124374   4.117   3.574   7.270  0.1496  1.0349  1.5227
 4240SOL    HW224375   4.269   3.586   7.210 -0.5405 -0.0769 -0.5236
 4241SOL     OW24376   5.898   1.213   5.083 -0.7254  0.4625  1.0005
 4241SOL    HW124377   5.829   1.142   5.096 -0.4217 -0.2081 -0.9535
 4241SOL    HW224378   5.988   1.170   5.070 -0.4078  1.2260  0.6335
 4242SOL     OW24379   4.642   1.122   3.554  0.2812  0.1933  0.3762
 4242SOL    HW124380   4.588   1.203   3.532  1.3210  1.1343  1.2184
 4242SOL    HW224381   4.586   1.040   3.544 -0.5734  0.9555 -1.2219
 4243SOL     OW24382   9.798   2.349   2.921  0.0912  0.6285 -0.7528
 4243SOL    HW124383   9.717   2.346   2.979  0.1806  1.5947 -0.5584
 4243SOL    HW224384   9.770   2.351   2.825 -0.0691 -0.5845 -0.7368
 4244SOL     OW24385   2.790   2.810   0.605 -0.2975  0.2815 -0.1445
 4244SOL    HW124386   2.843   2.760   0.537  1.4758  2.1516 -0.1783
 4244SOL    HW224387   2.818   2.905   0.606 -3.2330  1.2038  0.3052
 4245SOL     OW24388   2.065   1.887   9.957 -0.2052 -0.9105 -0.1725
 4245SOL    HW124389   1.987   1.935   9.996 -1.5816 -2.3784 -1.0756
 4245SOL    HW224390   2.149   1.920   9.999 -1.3702  0.1124  1.3858
 4246SOL     OW24391   5.316   3.428   1.914  0.2347  0.2120  0.5971
 4246SOL    HW124392   5.245   3.387   1.856 -0.3386 -0.5515  1.8219
 4246SOL    HW224393   5.324   3.525   1.893 -0.1943  0.0081 -0.5442
 4247SOL     OW24394   6.185   0.134   4.946  0.0011  0.6629 -0.0299
 4247SOL    HW124395   6.215   0.134   5.042  0.7203  0.9823 -0.2510
 4247SOL    HW224396   6.201   0.045   4.905  0.3594  0.7409 -0.0578
 4248SOL     OW24397   2.325   7.246   0.591  0.1627 -0.1597  0.1204
 4248SOL    HW124398   2.295   7.170   0.533 -0.0561  0.3524 -0.4452
 4248SOL    HW224399   2.327   7.330   0.537 -0.5600  0.4253  1.0003
 4249SOL     OW24400   3.143   6.470   2.031  0.0411  0.4346 -0.3482
 4249SOL    HW124401   3.044   6.466   2.014  0.0200 -0.1939 -0.1010
 4249SOL    HW224402   3.162   6.435   2.122  0.3675  1.7861  0.1050
 4250SOL     OW24403   1.646   5.889   4.773  0.0532 -0.1691 -0.0367
 4250SOL    HW124404   1.603   5.818   4.718  1.1290 -0.2723 -0.7454
 4250SOL    HW224405   1.582   5.917   4.846 -1.0290 -0.6417 -0.7823
 4251SOL     OW24406   9.548   2.963   1.169  0.1134  0.7783 -0.3320
 4251SOL    HW124407   9.536   3.042   1.229 -0.1484  1.4507 -1.2580
 4251SOL    HW224408   9.567   2.994   1.076  0.2053 -0.2488 -0.6648
 4252SOL     OW24409   7.548   5.808   6.609  0.1982 -0.3027  0.6215
 4252SOL    HW124410   7.584   5.882   6.666 -1.5440  0.6955  0.4614
 4252SOL    HW224411   7.460   5.836   6.570  0.2375 -1.8921 -0.6424
 4253SOL     OW24412   9.155   9.383   0.484  0.2805  0.3405  0.1717
 4253SOL    HW124413   9.180   9.297   0.529  0.1865  0.3013  0.1482
 4253SOL    HW224414   9.187   9.460   0.540  0.1382  0.2913  0.3212
 4254SOL     OW24415   8.406   5.408   6.117 -0.3721  0.5433  0.1632
 4254SOL    HW124416   8.466   5.412   6.197 -1.5854 -0.5403  1.1631
 4254SOL    HW224417   8.311   5.401   6.148 -1.0380  2.2816 -1.3780
 4255SOL     OW24418   9.396   7.122   4.064 -0.5578 -0.2603 -0.2762
 4255SOL    HW124419   9.491   7.153   4.064 -0.4892 -0.4519 -1.2262
 4255SOL    HW224420   9.335   7.201   4.067 -0.3677 -0.1221 -0.0762
 4256SOL     OW24421   6.421   8.578   6.174 -0.4074 -0.5495  0.6348
 4256SOL    HW124422   6.414   8.593   6.272 -2.2978 -0.8078  0.5618
 4256SOL    HW224423   6.399   8.482   6.154 -2.6005  0.1152 -0.2724
 4257SOL     OW24424   2.335   5.479   0.226  0.3403  0.3510 -0.0581
 4257SOL    HW124425   2.299   5.492   0.319  0.6573 -0.2240  0.1493
 4257SOL    HW224426   2.415   5.537   0.213  0.1765  0.5827 -0.0402
 4258SOL     OW24427   0.704   2.313   6.225 -0.3750 -0.5477 -0.0808
 4258SOL    HW124428   0.684   2.215   6.220  0.9697 -1.0774  3.4165
 4258SOL    HW224429   0.787   2.333   6.173 -0.7584 -1.1881 -0.9603
 4259SOL     OW24430   1.661   8.372   7.170 -0.1078  0.3436  0.0635
 4259SOL    HW124431   1.726   8.324   7.227 -0.3074 -0.0905 -0.0706
 4259SOL    HW224432   1.657   8.329   7.080 -0.2510  0.6383 -0.0738
 4260SOL     OW24433   7.702   6.422   3.903  0.1916  0.0788 -0.8798
 4260SOL    HW124434   7.605   6.405   3.915  0.2036  0.4730 -0.2007
 4260SOL    HW224435   7.748   6.418   3.991  0.5577  1.3168 -1.0037
 4261SOL     OW24436   5.867   8.863   6.416 -0.1779  0.1163  0.3895
 4261SOL    HW124437   5.909   8.933   6.358 -2.5879  1.8836  0.6824
 4261SOL    HW224438   5.889   8.772   6.381  2.0177  1.0513 -0.7153
 4262SOL     OW24439   3.142   7.433   9.833  0.9759 -0.5771 -0.2795
 4262SOL    HW124440   3.119   7.337   9.852 -3.0334  0.4371  0.5284
 4262SOL    HW224441   3.119   7.454   9.738  0.0272  0.0526  0.0838
 4263SOL     OW24442   8.387   4.433   5.115  0.0727 -0.0789  0.0709
 4263SOL    HW124443   8.418   4.363   5.180  0.4257  0.5350  0.5775
 4263SOL    HW224444   8.466   4.484   5.081 -0.1859  0.1077 -0.2516
 4264SOL     OW24445   1.026   0.577   6.195  0.0565  0.1324  0.2375
 4264SOL    HW124446   1.060   0.592   6.288  1.4964 -0.5432 -0.1538
 4264SOL    HW224447   1.091   0.519   6.145 -1.8403 -1.4641 -0.4644
 4265SOL     OW24448   9.090   2.734   1.208  0.1468 -0.2808 -0.0162
 4265SOL    HW124449   9.067   2.709   1.115  0.6105  0.9804 -0.4772
 4265SOL    HW224450   9.124   2.828   1.211  1.0075 -0.6017  1.2777
 4266SOL     OW24451   6.494   9.143   8.184 -0.4223 -0.1089 -0.2190
 4266SOL    HW124452   6.486   9.240   8.162 -0.5930 -0.1858 -0.4933
 4266SOL    HW224453   6.586   9.111   8.164 -0.2624  0.0801  0.1981
 4267SOL     OW24454   4.431   7.570   3.200 -0.7325  0.0424 -0.2389
 4267SOL    HW124455   4.376   7.634   3.255  0.4248 -0.3212  1.3697
 4267SOL    HW224456   4.379   7.486   3.186 -1.4762  0.5584 -0.6875
 4268SOL     OW24457   2.306   5.238   2.647  0.1981 -0.2342 -0.3253
 4268SOL    HW124458   2.320   5.192   2.734  1.5562 -0.9730 -0.9149
 4268SOL    HW224459   2.288   5.335   2.662  1.8379 -0.0840  0.7067
 4269SOL     OW24460   7.427   2.573   2.992 -0.5150  0.1445 -0.2464
 4269SOL    HW124461   7.397   2.530   3.077  0.5932  1.8154  1.0172
 4269SOL    HW224462   7.357   2.637   2.961 -0.8484 -0.3476 -0.5247
 4270SOL     OW24463   9.628   8.883   4.246  0.1615 -0.4786 -0.6067
 4270SOL    HW124464   9.703   8.851   4.188  0.0487 -0.5891 -0.6902
 4270SOL    HW224465   9.589   8.966   4.208 -0.5562 -1.0909 -1.2234
 4271SOL     OW24466   8.933   0.654   1.229  0.4753  0.2964 -0.0450
 4271SOL    HW124467   8.993   0.714   1.281  0.5040 -0.6304  1.0074
 4271SOL    HW224468   8.935   0.562   1.268  1.3190 -0.6872 -2.3286
 4272SOL     OW24469   9.835   6.825   6.108 -0.1394 -0.1026  0.2062
 4272SOL    HW124470   9.872   6.857   6.021 -0.5991 -1.1211 -0.3782
 4272SOL    HW224471   9.754   6.879   6.132  0.0633  0.2646  0.0674
 4273SOL     OW24472   7.478   9.561   5.350 -0.3668  0.0035  0.1913
 4273SOL    HW124473   7.390   9.604   5.335 -0.7208 -0.7292  0.1323
 4273SOL    HW224474   7.496   9.495   5.276  1.0823  1.5118 -0.8334
 4274SOL     OW24475   3.405   9.414   6.406  0.8618 -0.2472  0.2841
 4274SOL    HW124476   3.501   9.441   6.417  0.6454  0.3657  0.6738
 4274SOL    HW224477   3.379   9.422   6.310  1.3602 -0.9437  0.0894
 4275SOL     OW24478   8.013   7.382   1.471 -0.2651  0.1028 -0.5432
 4275SOL    HW124479   8.097   7.328   1.468 -1.5807 -2.0434  0.2566
 4275SOL    HW224480   8.033   7.475   1.440  2.4629 -0.2678 -0.0767
 4276SOL     OW24481   1.707   5.142   4.389 -0.1925 -0.4416 -0.1618
 4276SOL    HW124482   1.648   5.137   4.470 -0.8001  0.1049 -0.5677
 4276SOL    HW224483   1.659   5.190   4.315 -0.1776 -2.1398 -1.3073
 4277SOL     OW24484   0.787   6.355   5.563  0.2481 -0.4958 -0.2196
 4277SOL    HW124485   0.754   6.390   5.475 -0.2486 -0.6085 -0.0810
 4277SOL    HW224486   0.886   6.363   5.567  0.2998 -0.7664 -0.9084
 4278SOL     OW24487   0.658   7.008   0.076  0.0528  0.3625  0.6804
 4278SOL    HW124488   0.658   7.105   0.099  1.9827  1.1942 -2.5177
 4278SOL    HW224489   0.747   6.968   0.096  0.7115  0.3494 -1.9883
 4279SOL     OW24490   6.295   3.229   1.023 -0.3140  0.6638  0.4999
 4279SOL    HW124491   6.357   3.297   1.063  1.6219 -0.0059 -1.2837
 4279SOL    HW224492   6.229   3.275   0.963  0.6813  1.0365 -0.3240
 4280SOL     OW24493   8.698   3.658   5.240  0.2649 -0.3843  0.4467
 4280SOL    HW124494   8.602   3.629   5.245  0.0742  0.0396 -0.6110
 4280SOL    HW224495   8.726   3.696   5.328 -0.8527  0.4681  0.4494
 4281SOL     OW24496   7.978   9.089   7.392  0.0626  0.4045  0.7025
 4281SOL    HW124497   7.924   9.158   7.441  0.5829  0.8528  0.6463
 4281SOL    HW224498   8.017   9.130   7.309 -1.2761 -0.5022 -0.4017
 4282SOL     OW24499   8.326   3.065   6.474 -0.9522 -0.8806 -0.4990
 4282SOL    HW124500   8.302   3.045   6.379 -0.9094 -1.3499 -0.4147
 4282SOL    HW224501   8.306   2.985   6.530 -4.5919  0.6598  0.5490
 4283SOL     OW24502   2.205   4.277   6.814 -0.7791  0.3935 -0.1336
 4283SOL    HW124503   2.195   4.258   6.716 -0.3011 -1.4072  0.1550
 4283SOL    HW224504   2.123   4.245   6.862  0.0821 -1.1316  0.3706
 4284SOL     OW24505   6.859   9.015   2.415 -0.0046 -0.7117 -0.2003
 4284SOL    HW124506   6.815   8.999   2.503 -0.1724  0.1968 -0.1191
 4284SOL    HW224507   6.864   9.113   2.398  1.4870 -0.8208 -0.4522
 4285SOL     OW24508   9.301   2.878   6.707 -0.4051  0.2890  0.3900
 4285SOL    HW124509   9.227   2.900   6.643 -1.3867 -1.8745  0.7377
 4285SOL    HW224510   9.334   2.785   6.689  0.3833  0.2480  2.0136
 4286SOL     OW24511   3.324   4.937   4.778  0.4483  0.3328  0.4831
 4286SOL    HW124512   3.320   5.013   4.713 -0.6747  0.3502  0.5704
 4286SOL    HW224513   3.330   4.851   4.728  1.8675  0.4780  0.3840
 4287SOL     OW24514   5.450   5.790   1.758 -0.0175 -0.0572 -0.0499
 4287SOL    HW124515   5.410   5.699   1.747  1.7877 -0.7241 -1.3971
 4287SOL    HW224516   5.445   5.839   1.671  2.0531 -0.1638 -0.2648
 4288SOL     OW24517   9.501   7.235   7.958 -0.7018 -0.3362  0.7922
 4288SOL    HW124518   9.538   7.309   8.015 -0.5478  0.8897 -0.8778
 4288SOL    HW224519   9.411   7.261   7.924 -0.7323 -1.0015  0.3529
 4289SOL     OW24520   6.428   1.347   7.430 -0.2619  0.2654  0.4035
 4289SOL    HW124521   6.520   1.306   7.434 -0.6299 -0.7662 -1.0944
 4289SOL    HW224522   6.423   1.424   7.493  1.4565 -0.0407  0.9440
 4290SOL     OW24523   6.703   2.117   6.261 -0.1566 -0.4134 -0.2933
 4290SOL    HW124524   6.634   2.139   6.329 -0.6370 -0.8051 -0.6498
 4290SOL    HW224525   6.665   2.052   6.195  0.8095 -1.3017  0.0020
 4291SOL     OW24526   3.454   7.916   1.058 -0.1921 -0.0520  0.5422
 4291SOL    HW124527   3.385   7.966   1.005 -0.1652 -0.7353 -0.1419
 4291SOL    HW224528   3.494   7.978   1.126  0.7253  1.2192 -1.1096
 4292SOL     OW24529   8.745   9.905   4.647 -0.5149 -0.0526  0.2295
 4292SOL    HW124530   8.840   9.880   4.664  0.1342  1.7150 -0.7108
 4292SOL    HW224531   8.725   9.892   4.550 -1.4937 -1.2210  0.5756
 4293SOL     OW24532   3.054   1.420   6.418  0.2786 -0.0026 -0.8393
 4293SOL    HW124533   3.008   1.468   6.492  0.4666 -0.6109 -0.3214
 4293SOL    HW224534   3.072   1.484   6.343 -0.4269  0.4814 -0.5999
 4294SOL     OW24535   9.966   7.292   7.000 -0.3272  0.1836 -0.1273
 4294SOL    HW124536   9.916   7.348   7.066  0.6551  0.7541  0.1335
 4294SOL    HW224537  10.026   7.229   7.048 -1.0911 -0.8018 -0.4329
 4295SOL     OW24538   3.149   7.056   3.382 -0.4944 -0.3918 -0.0911
 4295SOL    HW124539   3.202   6.974   3.407  2.1933  0.2775 -3.3172
 4295SOL    HW224540   3.135   7.111   3.464  1.2154 -2.0716  1.4167
 4296SOL     OW24541   8.833   2.221   1.711 -0.5569 -0.0061  0.3506
 4296SOL    HW124542   8.791   2.137   1.744 -2.2532  0.6302 -0.1238
 4296SOL    HW224543   8.762   2.290   1.695  0.5653  0.8029 -1.3791
 4297SOL     OW24544   9.257   5.383   4.089  0.1316 -0.7166  0.0788
 4297SOL    HW124545   9.217   5.327   4.016 -1.6888 -0.2295  0.6667
 4297SOL    HW224546   9.272   5.326   4.169 -0.0877 -0.7510  0.0970
 4298SOL     OW24547   2.689   2.476   3.304  0.1096 -0.2987 -0.5843
 4298SOL    HW124548   2.603   2.518   3.272  0.5370  0.2748 -0.9941
 4298SOL    HW224549   2.766   2.534   3.278  0.5484 -0.2996  0.6924
 4299SOL     OW24550   2.798   5.683   4.411 -0.1043 -0.0749  1.0539
 4299SOL    HW124551   2.843   5.707   4.497 -0.5741 -0.1690  1.3227
 4299SOL    HW224552   2.754   5.594   4.420  0.5026 -0.4413  0.4732
 4300SOL     OW24553   6.023   4.530   1.460 -0.5738 -0.0327 -0.2840
 4300SOL    HW124554   5.961   4.498   1.532 -0.6474  1.0640  0.1406
 4300SOL    HW224555   5.969   4.571   1.386 -0.3261  1.3963  0.3225
 4301SOL     OW24556   7.542   1.671   0.234  0.6814  0.1947  0.1153
 4301SOL    HW124557   7.585   1.604   0.174  0.7372  0.7756 -0.5076
 4301SOL    HW224558   7.458   1.634   0.272  1.3048 -0.6454  0.6877
 4302SOL     OW24559   2.798   8.323   1.533 -0.3884 -0.3053  1.1201
 4302SOL    HW124560   2.778   8.269   1.452  0.2203  1.2661 -0.0944
 4302SOL    HW224561   2.722   8.315   1.598 -0.6088 -2.0350  0.6628
 4303SOL     OW24562   4.620   5.412  10.068 -0.5625 -0.7478 -0.5060
 4303SOL    HW124563   4.597   5.504  10.036 -0.6247 -0.0540  1.4154
 4303SOL    HW224564   4.538   5.356  10.072 -0.5365 -0.8792 -1.6164
 4304SOL     OW24565   3.578   4.139   6.329 -0.1294  0.1118  0.3197
 4304SOL    HW124566   3.526   4.140   6.243  0.3247 -0.6855  0.0260
 4304SOL    HW224567   3.525   4.090   6.399  0.1453 -0.5529  0.0679
 4305SOL     OW24568   6.546   7.498   6.684  0.7191 -0.6884 -0.4407
 4305SOL    HW124569   6.539   7.448   6.597 -0.0061 -0.7012 -0.3796
 4305SOL    HW224570   6.632   7.476   6.729  2.2690  1.2685 -2.3698
 4306SOL     OW24571   6.057   0.462   2.223  0.0620 -0.0491  0.2910
 4306SOL    HW124572   5.993   0.533   2.253  0.3734  0.1945  0.3799
 4306SOL    HW224573   6.018   0.413   2.145 -0.8505 -0.8493  1.2442
 4307SOL     OW24574   0.377   4.644   6.806 -0.0945 -0.6570 -0.1219
 4307SOL    HW124575   0.317   4.723   6.817 -0.9951 -1.5756  1.8002
 4307SOL    HW224576   0.415   4.619   6.895  0.1296 -2.4340 -0.7011
 4308SOL     OW24577   4.688   5.738   3.410  0.2880 -0.2552  0.4617
 4308SOL    HW124578   4.678   5.743   3.310  1.0940 -0.7726  0.3535
 4308SOL    HW224579   4.650   5.652   3.443  0.0850 -0.1151  0.5961
 4309SOL     OW24580   5.232   8.616   1.694 -0.1551  0.3717 -0.4702
 4309SOL    HW124581   5.237   8.620   1.594 -0.5587 -0.0835 -0.5128
 4309SOL    HW224582   5.262   8.703   1.732 -0.9361  0.8895 -1.0269
 4310SOL     OW24583   2.935   3.075   1.531  0.1203 -0.3648  0.1391
 4310SOL    HW124584   2.851   3.111   1.490 -0.7748 -1.1461  1.2539
 4310SOL    HW224585   2.944   2.978   1.507  0.5808 -0.3444  0.2266
 4311SOL     OW24586   1.202   9.190   5.587 -0.1849 -0.0977  0.0810
 4311SOL    HW124587   1.219   9.091   5.590  1.4726  0.1972  0.5804
 4311SOL    HW224588   1.274   9.238   5.637 -0.1490  1.4784 -1.4588
 4312SOL     OW24589   7.308   0.299   4.222  0.0700 -0.0556  0.3004
 4312SOL    HW124590   7.334   0.300   4.126 -1.6021 -0.5840 -0.1657
 4312SOL    HW224591   7.262   0.384   4.246 -0.1353 -0.2073  0.4537
 4313SOL     OW24592   9.193   8.792   6.466 -0.0237  0.6136 -0.4588
 4313SOL    HW124593   9.208   8.745   6.378  0.7327 -0.7340  0.3647
 4313SOL    HW224594   9.223   8.887   6.458  0.0967  0.4885 -1.6548
 4314SOL     OW24595   5.196   3.557   1.368  0.0957 -0.0425  0.1136
 4314SOL    HW124596   5.270   3.490   1.355 -0.8519 -1.1723  0.4197
 4314SOL    HW224597   5.192   3.583   1.464  0.8062  0.8664 -0.0995
 4315SOL     OW24598   3.837   2.453   0.432  0.3466  0.8297  0.3674
 4315SOL    HW124599   3.897   2.442   0.353 -0.0168  1.8089 -0.0545
 4315SOL    HW224600   3.849   2.544   0.471 -0.9850  1.1107  0.1565
 4316SOL     OW24601   3.547   4.115   1.901  0.7263 -0.3002  0.2297
 4316SOL    HW124602   3.525   4.119   1.803 -0.6108 -0.8073  0.5031
 4316SOL    HW224603   3.646   4.107   1.912  0.7546 -2.0655 -1.1331
 4317SOL     OW24604   5.338   3.647   7.380  0.5453 -0.0413  0.0326
 4317SOL    HW124605   5.239   3.637   7.368  0.2988  1.8907  0.2560
 4317SOL    HW224606   5.371   3.578   7.445 -0.3772 -1.6823 -1.1893
 4318SOL     OW24607   4.104   5.248   0.900  0.3612  0.0927 -0.6458
 4318SOL    HW124608   4.023   5.292   0.938  0.3186 -0.1168 -0.4914
 4318SOL    HW224609   4.083   5.152   0.880  0.8233 -0.1810  0.1809
 4319SOL     OW24610   0.890   2.020   4.872 -0.1558  0.6195  0.0600
 4319SOL    HW124611   0.817   1.956   4.848 -1.5083  2.3492 -0.5400
 4319SOL    HW224612   0.961   2.018   4.801  0.4508 -1.1364  0.6960
 4320SOL     OW24613   0.342   6.178   5.448  0.7726 -0.0432  0.5295
 4320SOL    HW124614   0.248   6.184   5.484  0.7524 -2.6534  1.0075
 4320SOL    HW224615   0.406   6.216   5.516  0.0548  2.3367 -0.0588
 4321SOL     OW24616   9.023   4.370   0.040 -0.1499 -0.5915  0.3576
 4321SOL    HW124617   9.038   4.438   0.111  0.3467  2.0890 -2.2049
 4321SOL    HW224618   9.110   4.329   0.013 -0.4274 -2.2053  1.7692
 4322SOL     OW24619   0.697   9.330   4.559  0.0007 -0.1961 -0.0560
 4322SOL    HW124620   0.647   9.412   4.533 -1.1512 -0.3893  1.4517
 4322SOL    HW224621   0.795   9.348   4.556 -0.2247  0.9891 -0.5342
 4323SOL     OW24622   8.015   0.244   3.753 -0.1003  0.4217  0.5798
 4323SOL    HW124623   7.953   0.256   3.831 -0.2427  1.2342  0.3436
 4323SOL    HW224624   8.050   0.150   3.752 -0.5702  0.2388  1.2733
 4324SOL     OW24625   2.721   0.818   0.163 -0.9041  0.4113  0.3929
 4324SOL    HW124626   2.811   0.844   0.126  0.0247 -0.8883  1.6556
 4324SOL    HW224627   2.700   0.724   0.135 -0.5779 -0.2783  2.3862
 4325SOL     OW24628   7.573   8.324   1.700 -0.6905 -0.2960  0.2236
 4325SOL    HW124629   7.509   8.248   1.711 -0.9206  0.1365  2.0434
 4325SOL    HW224630   7.667   8.290   1.704 -0.8001 -0.5956  0.2327
 4326SOL     OW24631   4.315   9.970   3.121  0.3143 -0.3563  0.0236
 4326SOL    HW124632   4.297   9.884   3.074  0.2832 -0.7993  0.8285
 4326SOL    HW224633   4.413   9.979   3.138  0.3066 -0.2791  0.0264
 4327SOL     OW24634   4.849   7.395   1.611  0.0405  0.0680 -0.8069
 4327SOL    HW124635   4.750   7.385   1.621  0.0670 -0.1134 -0.7244
 4327SOL    HW224636   4.874   7.492   1.617 -0.0166  0.0187  0.1690
 4328SOL     OW24637   1.513   0.733   3.644 -0.4237  0.2210  0.1776
 4328SOL    HW124638   1.441   0.728   3.576 -0.5686  0.8179  0.2816
 4328SOL    HW224639   1.567   0.649   3.642  0.3015  0.6981 -1.4800
 4329SOL     OW24640   2.370   6.772   3.228 -0.5071  0.0195  0.1090
 4329SOL    HW124641   2.299   6.717   3.183 -3.0034  2.3411  1.0191
 4329SOL    HW224642   2.436   6.805   3.161 -2.7165  1.3012 -1.4956
 4330SOL     OW24643   4.040   5.224   3.107 -0.7077 -0.0420  0.2957
 4330SOL    HW124644   3.967   5.291   3.120 -0.4116 -0.0916  2.4787
 4330SOL    HW224645   4.018   5.141   3.157  0.0357 -0.7084 -0.4659
 4331SOL     OW24646   1.534   3.108   7.646 -0.2332 -0.1993 -0.1256
 4331SOL    HW124647   1.501   3.016   7.624 -0.2514 -0.1674 -0.2313
 4331SOL    HW224648   1.510   3.171   7.572 -0.3733 -0.0734  0.0244
 4332SOL     OW24649   8.336   8.478   3.791  0.6670  0.3259 -0.0412
 4332SOL    HW124650   8.264   8.547   3.779  0.4774  0.4036  1.4084
 4332SOL    HW224651   8.395   8.506   3.867  0.7412 -0.9944  0.3897
 4333SOL     OW24652   9.218   0.075   3.774  0.3326  0.3964  0.0568
 4333SOL    HW124653   9.191   0.159   3.820 -0.5547 -0.8026  1.8095
 4333SOL    HW224654   9.279   0.096   3.697  0.4905  2.5746  0.7573
 4334SOL     OW24655   9.655   8.032   6.544 -0.3801 -0.0927  0.7194
 4334SOL    HW124656   9.711   7.953   6.571 -0.8123 -0.6091  0.1028
 4334SOL    HW224657   9.692   8.114   6.587  0.6343 -0.4893  0.6196
 4335SOL     OW24658   1.544   5.199   5.300 -0.2374 -0.4879 -0.8413
 4335SOL    HW124659   1.640   5.224   5.291 -0.0187  0.9122  3.7237
 4335SOL    HW224660   1.528   5.109   5.260  2.9322 -0.6917 -1.7350
 4336SOL     OW24661   8.060   7.111   3.130  0.6541 -0.1978 -0.1215
 4336SOL    HW124662   8.008   7.054   3.194 -1.7521  1.4366 -0.5521
 4336SOL    HW224663   8.090   7.056   3.052 -0.3526 -1.2017  0.1996
 4337SOL     OW24664   8.130   1.104   1.600 -0.1942 -0.0346  0.9370
 4337SOL    HW124665   8.087   1.073   1.516  0.3549 -1.8409  1.2908
 4337SOL    HW224666   8.188   1.031   1.637  2.0212  1.8107  1.2378
 4338SOL     OW24667   9.157   7.660   5.775 -0.2070  0.3170 -0.8165
 4338SOL    HW124668   9.253   7.631   5.779 -0.1494  0.6079 -0.0214
 4338SOL    HW224669   9.153   7.758   5.756 -0.2286  1.0499  2.5063
 4339SOL     OW24670   8.259   0.003   5.887 -0.1094 -0.2008 -0.6691
 4339SOL    HW124671   8.219  -0.089   5.884 -0.4059 -0.1491  1.2419
 4339SOL    HW224672   8.201   0.065   5.834 -1.7615 -0.4548  0.7770
 4340SOL     OW24673   9.725   9.979   7.652  0.1431  0.3499 -0.3384
 4340SOL    HW124674   9.755  10.033   7.574  3.0103  1.9969  1.8158
 4340SOL    HW224675   9.631  10.004   7.676 -0.5897  0.1889 -2.8870
 4341SOL     OW24676   5.046   4.108   1.248  0.0394 -0.2259  0.5772
 4341SOL    HW124677   5.065   4.188   1.305  0.9954  1.1885 -1.6450
 4341SOL    HW224678   5.133   4.068   1.217 -0.4592 -0.6993 -0.2360
 4342SOL     OW24679   0.512   9.839   4.497 -0.5821  0.2456  0.1483
 4342SOL    HW124680   0.550   9.927   4.468 -0.5223  0.4596  0.8647
 4342SOL    HW224681   0.416   9.851   4.522 -0.3871  0.2401  0.8941
 4343SOL     OW24682   0.562   3.630   1.478 -0.3847  0.1512 -0.7077
 4343SOL    HW124683   0.542   3.725   1.454 -0.7563  0.5493  1.1263
 4343SOL    HW224684   0.513   3.569   1.415 -1.3338  1.1604 -0.9636
 4344SOL     OW24685   9.784   3.951   7.160 -0.3319  0.2726 -0.4058
 4344SOL    HW124686   9.695   3.932   7.118  0.0988  0.2492 -1.3160
 4344SOL    HW224687   9.771   4.012   7.238 -1.4245 -1.6938  0.9812
 4345SOL     OW24688   3.174   5.679   1.867 -0.6342  0.1789  0.0143
 4345SOL    HW124689   3.154   5.638   1.778  1.6460 -0.2304 -0.3515
 4345SOL    HW224690   3.209   5.771   1.854  0.2539 -0.0922  0.4358
 4346SOL     OW24691   8.196   6.065   1.845 -0.4266  0.5969  0.2220
 4346SOL    HW124692   8.152   5.975   1.839 -0.5916  0.6611  0.4841
 4346SOL    HW224693   8.163   6.123   1.770  0.5528  0.0585 -0.6291
 4347SOL     OW24694   6.617   7.494   5.446 -0.0455 -0.3759  0.1830
 4347SOL    HW124695   6.632   7.411   5.392 -0.4435 -1.0308  1.0502
 4347SOL    HW224696   6.545   7.549   5.404  1.1213  0.1760 -1.1047
 4348SOL     OW24697   4.030   1.079   4.829  0.2810 -0.0019  0.5943
 4348SOL    HW124698   3.978   1.051   4.909 -1.3820  0.3006 -0.3431
 4348SOL    HW224699   4.112   1.022   4.820 -0.1926 -0.8856  1.7651
 4349SOL     OW24700   1.255   0.233   3.476  0.3201  0.1982 -0.0454
 4349SOL    HW124701   1.307   0.285   3.408  1.1629 -0.6285 -0.0419
 4349SOL    HW224702   1.181   0.290   3.513  0.8916  1.2024 -0.4435
 4350SOL     OW24703   4.506   2.601   1.622  0.4808 -0.2162 -0.5415
 4350SOL    HW124704   4.410   2.616   1.601  0.3972 -0.1059 -0.0655
 4350SOL    HW224705   4.515   2.519   1.679  0.7322 -0.6466 -1.1868
 4351SOL     OW24706   7.242   3.005   3.049 -0.3505 -0.6802 -0.4252
 4351SOL    HW124707   7.298   3.079   3.013  1.0055 -2.0857 -1.2452
 4351SOL    HW224708   7.146   3.036   3.055  0.2846  1.3348 -0.1134
 4352SOL     OW24709   1.881   3.878   8.137 -0.3888 -0.6475  0.1993
 4352SOL    HW124710   1.870   3.817   8.059 -0.1687  1.0249 -1.1695
 4352SOL    HW224711   1.978   3.894   8.154 -0.4076  3.0844 -2.5345
 4353SOL     OW24712   1.538   7.835   6.634  0.2093 -0.1288  0.5788
 4353SOL    HW124713   1.616   7.778   6.659  0.1653  0.4164  1.9772
 4353SOL    HW224714   1.565   7.899   6.562  0.5189 -1.2370 -0.3159
 4354SOL     OW24715   2.855   3.004   5.575  0.0652 -0.4404 -0.2170
 4354SOL    HW124716   2.832   2.992   5.672 -0.6638  0.6928 -0.2466
 4354SOL    HW224717   2.893   3.095   5.561 -0.3828 -0.3884 -1.0946
 4355SOL     OW24718   9.659   3.598   2.156  0.2874  0.2231 -0.1468
 4355SOL    HW124719   9.601   3.661   2.105  0.9265  1.6190  0.8078
 4355SOL    HW224720   9.755   3.618   2.136  0.5047 -0.0189  0.6492
 4356SOL     OW24721   6.515   7.377   5.924 -0.5174 -0.5801 -0.0228
 4356SOL    HW124722   6.558   7.463   5.950  0.9380 -0.5735 -2.3062
 4356SOL    HW224723   6.507   7.318   6.004  0.9010  0.6253  1.0409
 4357SOL     OW24724   0.901   7.678   7.198  0.4465 -0.3896 -0.1003
 4357SOL    HW124725   0.987   7.632   7.175  0.8330 -1.0192  2.4291
 4357SOL    HW224726   0.920   7.772   7.227  0.4547 -0.8993  1.6219
 4358SOL     OW24727   4.745   2.530   0.643  0.1047 -0.0171  0.7632
 4358SOL    HW124728   4.739   2.607   0.707  0.9521  0.3255  0.4474
 4358SOL    HW224729   4.841   2.516   0.618 -0.2023 -0.2438 -0.3124
 4359SOL     OW24730   0.774   8.184   7.421  0.0766  0.4398  0.2830
 4359SOL    HW124731   0.838   8.234   7.480  1.3100 -0.6635 -0.0763
 4359SOL    HW224732   0.819   8.100   7.388 -0.0844  1.7067 -3.3225
 4360SOL     OW24733   6.418   2.760   2.740  0.1018 -0.5915 -0.2115
 4360SOL    HW124734   6.516   2.739   2.743  0.2639  0.0581 -0.9438
 4360SOL    HW224735   6.397   2.830   2.808  0.2953 -0.1170 -0.6400
 4361SOL     OW24736   0.478   7.397   5.226  0.3693  0.1145 -0.1276
 4361SOL    HW124737   0.401   7.391   5.290  0.5690 -1.1171  0.0164
 4361SOL    HW224738   0.544   7.464   5.259  0.7672 -0.9434  1.2897
 4362SOL     OW24739   4.999   2.619   1.642 -0.7582 -0.5571  0.2714
 4362SOL    HW124740   4.903   2.630   1.617 -1.2023 -1.3554  1.5516
 4362SOL    HW224741   5.038   2.542   1.593 -1.0561 -0.8505  0.4947
 4363SOL     OW24742   8.339   3.917   2.614 -0.1084  0.4659  0.1269
 4363SOL    HW124743   8.358   4.008   2.576  0.7449  0.6667  0.9892
 4363SOL    HW224744   8.308   3.926   2.709  1.4674 -0.2036  0.7308
 4364SOL     OW24745   5.599   5.890   0.710  0.3207 -0.1393 -0.4120
 4364SOL    HW124746   5.640   5.820   0.651 -0.6774 -0.9580 -0.1523
 4364SOL    HW224747   5.500   5.876   0.714  0.4109 -0.3004  1.7188
 4365SOL     OW24748   8.296   2.147   3.122 -0.2902 -0.3142 -0.0824
 4365SOL    HW124749   8.252   2.064   3.157  1.2909 -1.1492 -0.0466
 4365SOL    HW224750   8.280   2.154   3.023  0.5479 -1.2981 -0.3018
 4366SOL     OW24751   4.027   1.383   7.513 -0.3949 -0.1410 -0.1432
 4366SOL    HW124752   4.065   1.460   7.461 -0.5373  1.1788  1.6423
 4366SOL    HW224753   3.979   1.321   7.451  0.8844  0.4974 -1.8001
 4367SOL     OW24754   7.758   6.731   3.900 -0.1853 -0.0138 -0.2141
 4367SOL    HW124755   7.837   6.716   3.960 -0.8549  0.8242  0.8858
 4367SOL    HW224756   7.760   6.664   3.825  0.8917 -0.7838  0.4944
 4368SOL     OW24757   9.390   1.540   3.281 -0.2067 -0.0492 -0.3490
 4368SOL    HW124758   9.423   1.606   3.348  0.3449 -0.2051 -0.4605
 4368SOL    HW224759   9.310   1.577   3.233 -1.0947 -0.2635  0.9418
 4369SOL     OW24760   9.004   9.793   1.849  0.2431 -0.0012 -0.6154
 4369SOL    HW124761   9.044   9.793   1.941  1.2961 -1.1079 -1.0670
 4369SOL    HW224762   8.973   9.701   1.827 -0.7256  0.4268 -1.0802
 4370SOL     OW24763   6.092   9.667   2.117 -0.1649  0.2632 -0.9805
 4370SOL    HW124764   6.111   9.585   2.062  0.5198  0.2877 -0.7771
 4370SOL    HW224765   6.118   9.650   2.212 -0.9350  0.3771 -0.7432
 4371SOL     OW24766   3.742   2.543   1.748 -0.2204 -0.0054 -0.1320
 4371SOL    HW124767   3.651   2.578   1.772 -0.4153 -0.2973 -0.4396
 4371SOL    HW224768   3.742   2.443   1.756  0.4251  0.0776  1.0545
 4372SOL     OW24769   6.094   7.885   5.119  0.2551  0.4776 -0.1592
 4372SOL    HW124770   6.172   7.861   5.176  1.1621 -0.5734 -1.8147
 4372SOL    HW224771   6.118   7.962   5.060  0.5728 -0.8272 -1.7628
 4373SOL     OW24772   0.030   0.168   4.445  0.1875 -0.3308 -0.3793
 4373SOL    HW124773   0.000   0.183   4.350  2.0342 -0.6275 -1.0196
 4373SOL    HW224774   0.023   0.070   4.467  0.7990 -0.4185 -0.5712
 4374SOL     OW24775   1.329   3.884   2.216  0.0794  0.2388  0.1828
 4374SOL    HW124776   1.235   3.916   2.229 -0.1447 -0.2814 -0.1126
 4374SOL    HW224777   1.334   3.786   2.238  0.4607  0.1745 -0.1864
 4375SOL     OW24778   2.064   7.263   1.503 -0.2491 -0.6162 -0.6219
 4375SOL    HW124779   2.086   7.181   1.555  2.1079 -0.4014 -1.2253
 4375SOL    HW224780   2.073   7.244   1.406 -1.5958 -0.1640 -0.8406
 4376SOL     OW24781   5.412   1.605   7.497  0.2237  0.0300 -0.1718
 4376SOL    HW124782   5.482   1.676   7.498 -0.1741  0.4344  1.5641
 4376SOL    HW224783   5.342   1.628   7.430 -0.1139  1.5095  0.6639
 4377SOL     OW24784   1.194   8.882   0.975  0.3320 -0.4039  0.2383
 4377SOL    HW124785   1.227   8.878   1.069 -0.5411 -1.0075  0.5274
 4377SOL    HW224786   1.100   8.914   0.974  0.3677 -0.3147 -0.4385
 4378SOL     OW24787   7.831   4.041   6.325  0.0536 -0.3419  0.7948
 4378SOL    HW124788   7.879   3.955   6.342  1.3143  0.2451  0.2660
 4378SOL    HW224789   7.881   4.117   6.368  0.0254  0.3836 -0.4278
 4379SOL     OW24790   4.736   9.260   4.381 -0.1947  0.0969  0.0856
 4379SOL    HW124791   4.696   9.269   4.290  1.7201  1.8489 -0.6183
 4379SOL    HW224792   4.829   9.224   4.373 -0.4063 -0.7917  1.4411
 4380SOL     OW24793   4.566   3.235   4.283 -0.3115 -0.0410  1.3127
 4380SOL    HW124794   4.569   3.143   4.243 -2.1154  0.5586 -0.2985
 4380SOL    HW224795   4.601   3.232   4.376  3.8013 -1.5460 -0.1580
 4381SOL     OW24796   1.261   5.848   1.689  0.4111  0.5300 -0.1018
 4381SOL    HW124797   1.281   5.798   1.605  0.3033  3.1762 -1.7584
 4381SOL    HW224798   1.303   5.938   1.686 -3.2487  2.3997  0.6968
 4382SOL     OW24799   8.033   9.587   3.851 -0.2967 -0.2857 -0.5942
 4382SOL    HW124800   8.007   9.497   3.886 -0.2389  0.2919  1.0083
 4382SOL    HW224801   8.048   9.649   3.928  1.7652  0.5145 -1.5790
 4383SOL     OW24802   3.285   2.568   7.453  0.2287 -0.3705  0.4736
 4383SOL    HW124803   3.233   2.598   7.373 -0.0055 -0.8061  0.4556
 4383SOL    HW224804   3.232   2.585   7.535  0.9344  1.0966  0.6327
 4384SOL     OW24805   0.707   0.012   3.090 -0.4525 -0.2076  0.2007
 4384SOL    HW124806   0.715  -0.077   3.046  0.3590 -0.1992  0.3416
 4384SOL    HW224807   0.695   0.000   3.188  4.3536 -0.0581  0.8899
 4385SOL     OW24808   2.437   3.589   6.919  0.0842  0.3630 -0.6544
 4385SOL    HW124809   2.342   3.558   6.917  0.9214 -2.2451 -2.0140
 4385SOL    HW224810   2.470   3.604   6.826  1.3493  0.1738 -0.2434
 4386SOL     OW24811   6.550   1.751   4.550 -0.0196 -0.1509 -0.4680
 4386SOL    HW124812   6.546   1.821   4.621 -0.6052 -0.0110 -0.6363
 4386SOL    HW224813   6.635   1.699   4.558  0.3183  0.4488 -0.2196
 4387SOL     OW24814   8.796   5.745   4.947  0.2224  0.3660  0.2085
 4387SOL    HW124815   8.832   5.755   4.854  1.3006  0.8317  0.6658
 4387SOL    HW224816   8.753   5.655   4.956  0.1882  0.2813 -0.7128
 4388SOL     OW24817   4.211   0.833   1.551  0.3128  0.2801 -0.0810
 4388SOL    HW124818   4.269   0.887   1.612  0.8900  1.0618 -1.2859
 4388SOL    HW224819   4.116   0.838   1.582  0.5780  0.7669  0.6709
 4389SOL     OW24820   1.049   3.942   5.100 -0.1331 -0.1606 -0.2507
 4389SOL    HW124821   1.097   3.855   5.102 -1.6856 -1.0199  1.9118
 4389SOL    HW224822   1.109   4.014   5.134  0.8383 -0.5609 -1.1144
 4390SOL     OW24823   1.268   7.088   1.597  0.0713  0.0752 -0.0752
 4390SOL    HW124824   1.267   7.006   1.541 -0.1727 -0.0408  0.0967
 4390SOL    HW224825   1.233   7.166   1.544 -0.7961 -0.1696  0.1162
 4391SOL     OW24826   9.221   9.532   2.043  0.7219 -0.5798 -0.3804
 4391SOL    HW124827   9.315   9.515   2.074  1.0874 -2.1033 -2.2230
 4391SOL    HW224828   9.220   9.605   1.976  0.3533  0.5492  0.8358
 4392SOL     OW24829   7.162   5.691   1.806  0.2744 -0.2748  0.1335
 4392SOL    HW124830   7.258   5.675   1.830 -0.0973  0.6558  2.3692
 4392SOL    HW224831   7.103   5.639   1.868 -0.6862  0.8414  0.1745
 4393SOL     OW24832   2.477   8.128   4.604 -0.6899  0.4294 -0.4570
 4393SOL    HW124833   2.444   8.120   4.698 -1.7897  2.4928 -0.6377
 4393SOL    HW224834   2.412   8.083   4.543 -0.9370  0.7082 -0.4016
 4394SOL     OW24835   6.073   0.862   7.115  0.2102  0.1405 -0.9003
 4394SOL    HW124836   6.119   0.777   7.141 -0.1241  0.0721 -0.5309
 4394SOL    HW224837   6.031   0.903   7.195  1.6600  1.4605 -0.7971
 4395SOL     OW24838   0.652   3.554   7.084 -0.3637  0.2470 -0.1175
 4395SOL    HW124839   0.749   3.566   7.103 -0.0801 -1.7735 -0.1988
 4395SOL    HW224840   0.604   3.534   7.169 -0.4475 -0.4185 -0.3232
 4396SOL     OW24841   7.845   7.663   5.413 -0.6362  0.1195  0.0879
 4396SOL    HW124842   7.945   7.674   5.414 -0.5395 -0.7199  0.9340
 4396SOL    HW224843   7.803   7.736   5.465 -0.3280 -0.6014  1.3814
 4397SOL     OW24844   9.716   9.935   1.170  0.2021 -0.2361  0.5246
 4397SOL    HW124845   9.630   9.980   1.195  1.1692  1.7902  0.2501
 4397SOL    HW224846   9.697   9.863   1.103 -1.4587 -0.8273  1.5876
 4398SOL     OW24847   2.966   8.568   1.500  0.1883  0.4932 -0.2602
 4398SOL    HW124848   2.977   8.469   1.512  2.2089  0.8433  1.0832
 4398SOL    HW224849   3.034   8.601   1.435 -1.6919  0.7415 -2.1254
 4399SOL     OW24850   2.838   6.530   5.805  0.4053  0.0663  0.1283
 4399SOL    HW124851   2.909   6.516   5.875  0.7737 -2.0258 -0.6314
 4399SOL    HW224852   2.881   6.542   5.716 -0.1809 -0.9518 -0.2948
 4400SOL     OW24853   6.115   7.167   4.943  0.2950 -0.1782 -0.1108
 4400SOL    HW124854   6.144   7.084   4.895 -3.6990 -1.0172 -1.1860
 4400SOL    HW224855   6.091   7.237   4.877 -0.4542  0.3676  0.7287
 4401SOL     OW24856   1.713   9.797   4.915  0.1470 -0.2170 -0.2586
 4401SOL    HW124857   1.744   9.701   4.913  0.8142 -0.0508  1.6326
 4401SOL    HW224858   1.724   9.836   4.824  3.6518 -0.7795 -0.1437
 4402SOL     OW24859   6.885   0.591   2.237 -0.1960 -0.2546  0.2068
 4402SOL    HW124860   6.808   0.638   2.194 -0.2835 -0.3350  0.2749
 4402SOL    HW224861   6.966   0.649   2.233 -0.7219  0.5972  1.8091
 4403SOL     OW24862   1.855   7.078   2.200  0.0843 -0.5415 -0.2360
 4403SOL    HW124863   1.926   7.055   2.134 -2.2963 -0.7671 -2.8019
 4403SOL    HW224864   1.804   7.158   2.167 -1.0758 -0.5878  1.3905
 4404SOL     OW24865   1.203   4.772   0.149 -0.5646  0.2757  0.9004
 4404SOL    HW124866   1.169   4.678   0.161 -0.2289 -0.3948 -2.9077
 4404SOL    HW224867   1.292   4.770   0.104 -0.7326  2.4383  0.4172
 4405SOL     OW24868   4.287   1.530   0.439 -0.0114  0.2151  0.3790
 4405SOL    HW124869   4.198   1.573   0.456 -0.3690  0.6250 -2.2921
 4405SOL    HW224870   4.316   1.549   0.346  1.3684 -2.6328  0.1644
 4406SOL     OW24871   3.751   5.945   1.683 -0.1961 -0.5127  0.6741
 4406SOL    HW124872   3.726   6.024   1.627  1.7096 -1.0112 -0.9540
 4406SOL    HW224873   3.677   5.923   1.746 -1.5416  1.3526 -0.2268
 4407SOL     OW24874   8.431   2.602   0.602 -0.0879 -0.3347 -0.1700
 4407SOL    HW124875   8.399   2.518   0.558  1.3960 -0.5219 -0.9242
 4407SOL    HW224876   8.358   2.639   0.659 -1.1746 -1.4759 -0.7822
 4408SOL     OW24877   7.857   8.756   6.911 -0.6139  0.4594  0.0127
 4408SOL    HW124878   7.827   8.728   6.820 -0.2456 -0.0409  0.0433
 4408SOL    HW224879   7.815   8.843   6.935 -1.4897  0.1067 -0.2360
 4409SOL     OW24880   4.753   6.113   0.523 -0.1918  0.3770 -0.1999
 4409SOL    HW124881   4.848   6.110   0.492 -0.8755  0.6650 -2.4215
 4409SOL    HW224882   4.737   6.041   0.591  1.8827  1.0567  1.0335
 4410SOL     OW24883   6.111   8.992   5.988 -0.2448  0.3526 -0.8797
 4410SOL    HW124884   6.094   9.009   5.891  0.5072 -0.9334 -1.2490
 4410SOL    HW224885   6.164   8.908   5.999 -0.7598  0.2005  0.6747
 4411SOL     OW24886   5.489   9.671   2.353  0.1193 -0.3069  0.7076
 4411SOL    HW124887   5.465   9.698   2.260 -0.1318 -0.3027  0.7717
 4411SOL    HW224888   5.408   9.636   2.399  0.5758 -1.7404  0.4364
 4412SOL     OW24889   0.302   4.208   3.641  0.0852  0.6738  0.4424
 4412SOL    HW124890   0.206   4.234   3.651  0.2273  2.0350 -1.3694
 4412SOL    HW224891   0.340   4.187   3.731 -2.2024 -1.0392  1.0726
 4413SOL     OW24892   9.025   8.649   3.769  0.2967 -0.1525  0.2955
 4413SOL    HW124893   9.046   8.707   3.691  0.3453  0.8486  1.0412
 4413SOL    HW224894   9.107   8.599   3.796  0.8673  1.1682  1.0691
 4414SOL     OW24895   8.663   3.090   7.468 -0.6139 -0.6186  0.6900
 4414SOL    HW124896   8.742   3.107   7.527  0.9472  2.1559 -2.0336
 4414SOL    HW224897   8.598   3.166   7.477 -0.2629 -0.0708 -1.2806
 4415SOL     OW24898   0.312   8.539   2.592  0.4731 -0.1562  0.3179
 4415SOL    HW124899   0.389   8.539   2.655  2.1338  3.2102 -1.5850
 4415SOL    HW224900   0.345   8.544   2.498 -2.0536  0.0574 -0.6102
 4416SOL     OW24901   7.555   0.418   5.616 -0.0252 -0.2735 -0.1295
 4416SOL    HW124902   7.619   0.344   5.636  1.0691  0.3724 -1.1846
 4416SOL    HW224903   7.514   0.449   5.701  2.6134  0.6835  0.8566
 4417SOL     OW24904   0.945   1.862   6.415  0.5852 -0.6690  0.5094
 4417SOL    HW124905   0.854   1.892   6.445  0.6607  0.4587 -0.3537
 4417SOL    HW224906   0.935   1.788   6.349  0.2860 -0.4883  0.3478
 4418SOL     OW24907   9.973   8.472   2.222  0.0657  0.1621 -0.3975
 4418SOL    HW124908  10.014   8.389   2.261 -2.3829 -1.6415 -1.5567
 4418SOL    HW224909  10.006   8.484   2.128 -1.6357 -1.0231 -1.1636
 4419SOL     OW24910   2.944   6.063   0.160  0.3249  0.1417 -0.3486
 4419SOL    HW124911   2.869   6.054   0.226 -0.2914  1.1997 -0.8833
 4419SOL    HW224912   2.950   6.158   0.130  1.0443 -0.2005 -1.3026
 4420SOL     OW24913   2.863   9.372   0.678 -0.3644  0.0555 -0.3707
 4420SOL    HW124914   2.773   9.416   0.677 -0.3017  0.1681 -0.8579
 4420SOL    HW224915   2.913   9.401   0.760 -0.4695  0.5878 -0.4940
 4421SOL     OW24916   6.154   7.686   2.882  0.5846  0.1225 -0.3656
 4421SOL    HW124917   6.166   7.781   2.909 -0.0154  0.4275 -1.1463
 4421SOL    HW224918   6.083   7.680   2.812  1.3255 -0.7752 -1.0567
 4422SOL     OW24919   5.642   9.269   6.311 -0.2190 -0.1233 -0.1286
 4422SOL    HW124920   5.598   9.342   6.257  1.2707 -1.0857 -2.7332
 4422SOL    HW224921   5.574   9.198   6.332 -1.0436  0.7249  0.1369
 4423SOL     OW24922   1.425   2.365   4.586  0.4274  0.5718  0.0302
 4423SOL    HW124923   1.356   2.304   4.625  0.3030  1.1044  0.6495
 4423SOL    HW224924   1.383   2.423   4.516  0.4539  0.2596 -0.2499
 4424SOL     OW24925   7.214   1.575   6.936  0.0500  0.0965 -0.1672
 4424SOL    HW124926   7.155   1.538   6.864  1.3922 -2.2983 -0.0995
 4424SOL    HW224927   7.178   1.663   6.967 -2.1736 -0.2246 -1.7188
 4425SOL     OW24928   4.531   3.488   0.950  0.0153  0.4222  0.0173
 4425SOL    HW124929   4.525   3.510   1.047 -2.0925 -4.2830  1.0949
 4425SOL    HW224930   4.624   3.457   0.928  0.4286  1.2584  0.5819
 4426SOL     OW24931   4.452   5.296   1.500 -0.2250 -0.0040 -0.4833
 4426SOL    HW124932   4.412   5.215   1.545  0.9417 -0.3007  0.0241
 4426SOL    HW224933   4.545   5.309   1.532 -1.3393  3.2749  1.6932
 4427SOL     OW24934   0.905   2.720   0.740 -1.1733  0.1675 -0.1495
 4427SOL    HW124935   0.852   2.659   0.798 -1.3206  1.7672  1.4354
 4427SOL    HW224936   0.932   2.801   0.792  1.0794  0.3406 -1.5252
 4428SOL     OW24937   7.500   4.603   0.771 -0.3254 -0.6391 -0.0829
 4428SOL    HW124938   7.599   4.603   0.780 -0.4932 -0.2656  2.1556
 4428SOL    HW224939   7.464   4.693   0.795 -1.1688 -0.6039 -1.4272
 4429SOL     OW24940   7.684   9.815   7.078 -1.0967 -0.4230 -0.4111
 4429SOL    HW124941   7.705   9.877   7.003 -0.8248  0.4746  0.4059
 4429SOL    HW224942   7.769   9.777   7.114 -1.1271  0.3667  0.4829
 4430SOL     OW24943   8.632   4.189   5.694 -0.3098  0.8122  0.1731
 4430SOL    HW124944   8.697   4.194   5.618 -0.2706  0.7029  0.1984
 4430SOL    HW224945   8.663   4.250   5.768  0.0994  0.2943  0.4367
 4431SOL     OW24946   3.982   2.359   3.440  0.3475 -0.0280 -0.9019
 4431SOL    HW124947   4.014   2.415   3.364  2.0738 -3.0103 -2.4311
 4431SOL    HW224948   4.059   2.335   3.499 -0.6325  0.4576  0.6051
 4432SOL     OW24949   1.713   4.551   3.928 -0.0696 -0.0371  0.1859
 4432SOL    HW124950   1.652   4.544   3.849  1.3640  3.3141 -1.2853
 4432SOL    HW224951   1.788   4.486   3.918 -0.1153  0.0770 -1.0092
 4433SOL     OW24952   3.170   5.525   6.466  0.4355  0.0260  0.1514
 4433SOL    HW124953   3.204   5.617   6.485  1.4639 -0.4652  0.7406
 4433SOL    HW224954   3.195   5.499   6.372 -1.9963  1.2771 -0.8801
 4434SOL     OW24955   9.832   9.281   4.951  0.3297 -0.4903 -0.3210
 4434SOL    HW124956   9.860   9.224   4.874 -0.1334 -0.5975 -0.4138
 4434SOL    HW224957   9.891   9.361   4.957  0.8147 -0.8393 -0.3550
 4435SOL     OW24958   0.843   3.116   1.695  0.4706  0.1614 -0.5034
 4435SOL    HW124959   0.847   3.118   1.795  0.7571  0.0198 -0.5087
 4435SOL    HW224960   0.842   3.209   1.660  1.7782  0.2258 -0.4083
 4436SOL     OW24961   6.671   8.367   4.370  0.2575 -0.1110 -0.1946
 4436SOL    HW124962   6.591   8.307   4.375  0.7722 -0.8619 -0.8556
 4436SOL    HW224963   6.689   8.392   4.274  0.3577  0.6722  0.0255
 4437SOL     OW24964   4.084   3.639   1.931 -0.2879 -0.0366  0.5275
 4437SOL    HW124965   4.051   3.669   1.842 -2.0500 -0.2155  1.0992
 4437SOL    HW224966   4.056   3.544   1.947  1.8358 -0.7283  0.4073
 4438SOL     OW24967   2.732   6.489   6.824  0.2463  0.9763  0.1918
 4438SOL    HW124968   2.751   6.402   6.778  1.4450  1.8382 -1.0057
 4438SOL    HW224969   2.806   6.510   6.887  1.9356  2.9276 -2.3192
 4439SOL     OW24970   0.858   4.003   4.622 -1.1598 -0.3253  0.7655
 4439SOL    HW124971   0.875   3.973   4.715  1.1864  0.0964  0.5062
 4439SOL    HW224972   0.892   3.934   4.558 -0.8525  0.3314  0.2129
 4440SOL     OW24973   2.506   8.310   6.533  0.2297  0.4140  0.4586
 4440SOL    HW124974   2.587   8.316   6.475 -0.2129 -0.3826 -0.2604
 4440SOL    HW224975   2.434   8.260   6.484 -1.0604  2.0253  0.6899
 4441SOL     OW24976   9.476   3.944   3.610  0.0919 -0.4476  0.2243
 4441SOL    HW124977   9.415   3.919   3.686  1.3534 -0.6718  1.1823
 4441SOL    HW224978   9.509   3.860   3.565  1.2057 -0.4100  0.9391
 4442SOL     OW24979   2.778   4.391   9.956  0.3664  0.2204 -0.4550
 4442SOL    HW124980   2.835   4.326  10.006  1.7485  1.1263 -0.8411
 4442SOL    HW224981   2.735   4.345   9.878  0.0659 -0.6092  0.1890
 4443SOL     OW24982   5.738   0.915   5.266 -0.4600 -0.0004  0.2633
 4443SOL    HW124983   5.694   0.971   5.336 -1.8501 -0.6135 -0.0841
 4443SOL    HW224984   5.711   0.947   5.175  1.3374  0.7939 -0.0174
 4444SOL     OW24985   5.499   6.241   2.356  0.1611 -0.3622 -0.3363
 4444SOL    HW124986   5.421   6.209   2.302  1.9464 -2.1532 -1.9719
 4444SOL    HW224987   5.480   6.332   2.392 -1.9058  0.0414 -2.3238
 4445SOL     OW24988   2.995   9.418   2.915 -0.2203 -0.5489 -0.1703
 4445SOL    HW124989   2.934   9.475   2.971 -0.0516  0.3534 -0.8969
 4445SOL    HW224990   2.998   9.454   2.822 -1.5106 -2.7951 -1.1186
 4446SOL     OW24991   3.252   0.950   4.434  0.3609  0.1966 -0.3559
 4446SOL    HW124992   3.313   1.007   4.380  0.9523 -0.4656 -0.3967
 4446SOL    HW224993   3.179   0.914   4.376 -0.1812  1.1383 -0.2677
 4447SOL     OW24994   6.471   4.905   1.506  0.1537 -0.5513 -0.6209
 4447SOL    HW124995   6.382   4.863   1.491 -1.0511  1.0576  1.7615
 4447SOL    HW224996   6.514   4.926   1.418 -2.5772  0.2592 -1.8071
 4448SOL     OW24997   5.339   9.025   2.753 -0.1390  0.4542  0.7270
 4448SOL    HW124998   5.286   8.941   2.743 -1.4729  1.3666  0.0770
 4448SOL    HW224999   5.313   9.072   2.838 -0.3889  0.9172  0.3948
 4449SOL     OW25000   3.705   2.619   0.045  0.6127  0.0210 -0.1687
 4449SOL    HW125001   3.786   2.620   0.104  0.7347  2.2550 -0.3283
 4449SOL    HW225002   3.623   2.621   0.102  0.7074  0.5466 -0.0488
 4450SOL     OW25003   3.105   5.826   7.513 -0.1092  0.6878  0.5608
 4450SOL    HW125004   3.065   5.890   7.448  0.5526 -0.7501 -1.2897
 4450SOL    HW225005   3.204   5.825   7.502 -0.1617 -1.0741  0.1821
 4451SOL     OW25006   8.961   6.507   0.492  0.4683  0.7828 -0.0649
 4451SOL    HW125007   8.940   6.452   0.573  2.1240  2.2461  1.4053
 4451SOL    HW225008   8.920   6.465   0.411 -2.3049 -0.0479  1.7001
 4452SOL     OW25009   5.940   4.610   1.210 -0.4530  0.3189  0.5180
 4452SOL    HW125010   5.875   4.535   1.194  0.0539 -0.5422  2.3088
 4452SOL    HW225011   6.013   4.605   1.143  0.1215 -1.4441  1.2363
 4453SOL     OW25012   9.850   9.148   7.754  0.2215 -0.3749  0.6380
 4453SOL    HW125013   9.842   9.242   7.721 -1.3155 -0.3603  1.0326
 4453SOL    HW225014   9.943   9.115   7.735  1.4651  1.9318  2.4013
 4454SOL     OW25015   6.089   7.384   4.299  0.3166 -0.2923  0.0867
 4454SOL    HW125016   6.011   7.402   4.239 -0.7310  1.5739  1.9631
 4454SOL    HW225017   6.161   7.338   4.246 -1.2082 -0.1697 -2.1840
 4455SOL     OW25018   7.460   9.973   2.194 -0.3648 -0.0381 -0.2538
 4455SOL    HW125019   7.526   9.960   2.120 -1.0180 -1.6608 -0.5648
 4455SOL    HW225020   7.508   9.972   2.282  0.1754  0.0496 -0.5444
 4456SOL     OW25021   3.826   2.922   5.398  0.0217 -0.1765  0.1628
 4456SOL    HW125022   3.745   2.871   5.370  0.5374 -0.8533 -0.1005
 4456SOL    HW225023   3.817   2.948   5.494  0.0830 -1.4213  0.5152
 4457SOL     OW25024   0.471   4.453   0.886  0.2168 -0.1812 -0.3807
 4457SOL    HW125025   0.523   4.431   0.804  0.0207  0.1041 -0.5814
 4457SOL    HW225026   0.533   4.465   0.963  0.4690  0.4614 -0.6840
 4458SOL     OW25027   8.132   0.860   0.578  0.5875 -0.4621  0.0796
 4458SOL    HW125028   8.065   0.808   0.526  1.0397  0.1548 -1.1578
 4458SOL    HW225029   8.223   0.846   0.539  1.0945 -0.8245  1.3747
 4459SOL     OW25030   6.817   1.277   5.378  0.7010  0.3522  0.4826
 4459SOL    HW125031   6.898   1.228   5.349 -0.3577 -1.6167  0.7978
 4459SOL    HW225032   6.777   1.233   5.458 -0.7050  1.2708  0.3163
 4460SOL     OW25033   6.941   9.407   4.007 -0.3247 -0.1510 -0.1378
 4460SOL    HW125034   6.842   9.405   4.023 -0.4948 -0.9338 -1.2435
 4460SOL    HW225035   6.979   9.492   4.044 -1.2007 -0.4414  1.4719
 4461SOL     OW25036   1.851   1.120   4.655 -0.2188 -0.2381  0.3701
 4461SOL    HW125037   1.877   1.178   4.578 -1.0064  0.6493  0.7544
 4461SOL    HW225038   1.906   1.037   4.655  1.9747  1.1713  0.6499
 4462SOL     OW25039   1.195   1.441   6.801  0.4163 -0.4230 -0.0293
 4462SOL    HW125040   1.238   1.528   6.778 -0.8683  0.3753  0.5206
 4462SOL    HW225041   1.181   1.387   6.718 -2.3292  1.5644 -0.9567
 4463SOL     OW25042   6.178   0.711   5.616  0.7942 -0.7027 -0.1260
 4463SOL    HW125043   6.111   0.656   5.667  0.0859  0.4329  0.1803
 4463SOL    HW225044   6.130   0.772   5.554  1.5662 -0.0763 -0.1113
 4464SOL     OW25045   1.774   8.190   1.756  0.3009  0.4849 -0.0650
 4464SOL    HW125046   1.774   8.231   1.847  2.3913 -1.0024  0.6313
 4464SOL    HW225047   1.719   8.106   1.757  1.7861 -0.4890  0.2820
 4465SOL     OW25048   2.720   0.885   3.177 -0.6413  0.3440  0.7360
 4465SOL    HW125049   2.633   0.875   3.130 -0.5060 -0.1731  0.5916
 4465SOL    HW225050   2.704   0.923   3.268 -1.0699 -0.2073  0.8952
 4466SOL     OW25051   3.504   3.070   0.756 -0.9101 -0.0169 -0.0506
 4466SOL    HW125052   3.540   3.146   0.810 -0.4579  0.1894 -0.6411
 4466SOL    HW225053   3.413   3.093   0.723  0.1168  1.2111 -2.1292
 4467SOL     OW25054   9.825   4.655   6.756 -0.2290  0.1897  0.7050
 4467SOL    HW125055   9.856   4.737   6.707 -0.6807 -0.5818 -0.9264
 4467SOL    HW225056   9.880   4.642   6.838  2.4064  0.0060 -1.0375
 4468SOL     OW25057   0.490   8.127   0.612  0.3499  0.1433  0.4585
 4468SOL    HW125058   0.552   8.163   0.681 -0.4341  1.2180  0.6121
 4468SOL    HW225059   0.449   8.203   0.561  0.0991 -0.5994 -0.4662
 4469SOL     OW25060   4.941   9.523   5.759 -0.2040  0.4511  0.3239
 4469SOL    HW125061   4.894   9.518   5.671 -1.3025 -0.8266  0.9632
 4469SOL    HW225062   5.037   9.499   5.746 -0.2535  0.7211 -0.6011
 4470SOL     OW25063   8.786   3.401   0.275 -0.5610  0.7985 -0.7968
 4470SOL    HW125064   8.801   3.339   0.197 -0.6975 -2.7224  1.8394
 4470SOL    HW225065   8.850   3.379   0.348 -2.5407  1.7980  1.3103
 4471SOL     OW25066   3.225   3.242   1.933 -0.0420 -0.5449  0.4813
 4471SOL    HW125067   3.250   3.275   1.842 -0.8354  0.0676  0.4835
 4471SOL    HW225068   3.198   3.146   1.927  0.7529 -0.7604  0.2202
 4472SOL     OW25069   2.973   8.989   4.178 -0.6967 -0.0220 -0.0510
 4472SOL    HW125070   2.956   9.058   4.108  1.1733 -1.6689 -2.2079
 4472SOL    HW225071   3.025   9.029   4.254 -1.3502  1.3929 -0.3468
 4473SOL     OW25072   7.089   9.352   1.405  0.2722  0.0417  0.0747
 4473SOL    HW125073   6.994   9.372   1.384  0.4340 -0.0246 -0.7282
 4473SOL    HW225074   7.127   9.426   1.460  0.5462  1.4537 -1.9412
 4474SOL     OW25075   9.643   7.027   3.618 -0.2603  0.2489  0.1115
 4474SOL    HW125076   9.670   6.930   3.617  0.1852  0.3724 -0.8198
 4474SOL    HW225077   9.682   7.072   3.698  0.0028 -0.2148  0.2456
 4475SOL     OW25078   0.933   7.698   7.555  0.0145  0.2803  0.0775
 4475SOL    HW125079   0.856   7.644   7.521 -1.0637  1.6911  0.2404
 4475SOL    HW225080   1.016   7.672   7.506 -0.6076 -1.1167 -0.2401
 4476SOL     OW25081   8.217   0.152   3.012 -0.8867  0.1352  0.6478
 4476SOL    HW125082   8.183   0.072   3.061  0.2234  0.5571  2.1264
 4476SOL    HW225083   8.315   0.142   2.996 -0.9917  0.5994 -0.3544
 4477SOL     OW25084   3.704   7.465   5.451  0.8250 -0.5566  0.4543
 4477SOL    HW125085   3.754   7.482   5.537  0.1030 -3.2639  1.4699
 4477SOL    HW225086   3.770   7.448   5.378  1.4451 -1.9193  1.3042
 4478SOL     OW25087   4.147   8.300   5.488 -0.5604 -0.0760 -0.6926
 4478SOL    HW125088   4.133   8.286   5.586 -2.6323  1.5796 -0.7131
 4478SOL    HW225089   4.090   8.237   5.436 -0.9011  0.3344 -0.8207
 4479SOL     OW25090   5.822   1.413   4.879  0.1787  0.3703  0.3938
 4479SOL    HW125091   5.836   1.344   4.950 -0.7797  0.4500  0.6641
 4479SOL    HW225092   5.874   1.495   4.902 -0.3715  0.5088  1.1670
 4480SOL     OW25093   8.844   7.918   2.842  0.5635  0.0664  0.3406
 4480SOL    HW125094   8.812   8.005   2.805  1.4938  0.3189  0.1177
 4480SOL    HW225095   8.766   7.857   2.855  0.0070  0.6244 -0.3203
 4481SOL     OW25096   3.298   1.937   1.990 -0.7681  0.2036  0.0443
 4481SOL    HW125097   3.244   1.931   1.906  0.6541  0.7032 -0.9040
 4481SOL    HW225098   3.394   1.922   1.970 -0.4780 -0.2666  1.6840
 4482SOL     OW25099   4.731   5.898   0.719  0.4077  0.3944 -0.1251
 4482SOL    HW125100   4.642   5.860   0.743  1.0794 -0.6142  0.8586
 4482SOL    HW225101   4.791   5.824   0.689  0.2445  1.3623 -2.9171
 4483SOL     OW25102   2.377   6.674   5.812  0.1099 -0.4216  0.2807
 4483SOL    HW125103   2.430   6.608   5.758 -0.8530 -0.0523 -1.1038
 4483SOL    HW225104   2.281   6.646   5.815  0.2693 -0.8917  2.5011
 4484SOL     OW25105   1.018   6.012   4.262 -0.1032  0.2935 -0.5969
 4484SOL    HW125106   1.021   6.112   4.267 -2.8210  0.3332  1.0266
 4484SOL    HW225107   1.104   5.974   4.296  0.7226  2.0417 -0.6758
 4485SOL     OW25108   1.055   7.053   2.679  0.2431 -0.5616  0.3038
 4485SOL    HW125109   1.050   6.960   2.641  0.0557 -1.2785  2.0539
 4485SOL    HW225110   1.137   7.099   2.644  0.9601 -1.7886  0.3447
 4486SOL     OW25111   2.097   8.576   2.431 -0.7322  0.1483  0.4051
 4486SOL    HW125112   2.146   8.514   2.370  1.5060  0.4963  1.8063
 4486SOL    HW225113   2.066   8.656   2.379  0.2667 -0.0300 -0.4744
 4487SOL     OW25114   4.580   7.511   3.593 -0.4481 -0.7400  0.5312
 4487SOL    HW125115   4.675   7.541   3.592 -0.6770 -0.0488 -1.2943
 4487SOL    HW225116   4.571   7.424   3.545 -0.8929 -0.3217 -0.1510
 4488SOL     OW25117   8.016   8.514   1.709  0.1559  0.3665  0.0564
 4488SOL    HW125118   8.075   8.459   1.768 -1.1198 -0.1680  0.8501
 4488SOL    HW225119   8.062   8.600   1.687  1.3576 -0.1735  0.4044
 4489SOL     OW25120   5.308   2.560   1.414  0.2918 -0.8289 -0.2318
 4489SOL    HW125121   5.210   2.541   1.412  0.1808 -0.1810 -1.1317
 4489SOL    HW225122   5.341   2.556   1.509 -0.6756 -0.6470  0.1184
 4490SOL     OW25123   8.362   0.205   6.071 -0.3661  0.1428  0.0753
 4490SOL    HW125124   8.322   0.120   6.037  0.4560 -0.6463  1.0509
 4490SOL    HW225125   8.292   0.259   6.116 -0.3060 -1.3462  2.0119
 4491SOL     OW25126   0.406   7.547   7.800  0.5126  0.2832  0.2389
 4491SOL    HW125127   0.319   7.547   7.849 -0.3592 -0.4358 -1.2546
 4491SOL    HW225128   0.444   7.454   7.799 -0.2886 -0.0449 -1.7966
 4492SOL     OW25129   2.778   0.960   7.398 -0.2584  0.0914 -0.0247
 4492SOL    HW125130   2.856   0.955   7.461 -0.1520 -1.2677 -0.2424
 4492SOL    HW225131   2.700   0.912   7.438 -0.0178 -1.2898 -1.1557
 4493SOL     OW25132   5.797   0.745   1.648 -0.5695  0.0860  0.2748
 4493SOL    HW125133   5.799   0.814   1.721 -0.5367  0.0373  0.3205
 4493SOL    HW225134   5.866   0.767   1.579  1.4931 -1.4706  1.7452
 4494SOL     OW25135   2.341   2.240   1.278  0.0199 -0.1018 -0.3471
 4494SOL    HW125136   2.249   2.209   1.302 -0.3730 -0.0169 -1.7254
 4494SOL    HW225137   2.393   2.257   1.362 -0.8575 -1.2016  0.4447
 4495SOL     OW25138   9.057   9.512   3.669  0.3677  0.3483 -0.4064
 4495SOL    HW125139   9.066   9.421   3.628  0.5472  0.2936 -0.2438
 4495SOL    HW225140   9.011   9.504   3.758  2.1588  0.1798  0.5166
 4496SOL     OW25141   0.879   2.558   2.099  0.0543 -0.7973 -0.3600
 4496SOL    HW125142   0.807   2.609   2.052 -0.4236 -1.6126 -0.5193
 4496SOL    HW225143   0.876   2.579   2.197 -0.2434 -0.6451 -0.3993
 4497SOL     OW25144   9.690   2.260   5.187  0.4965 -0.4470  0.1369
 4497SOL    HW125145   9.707   2.332   5.254 -0.3555 -0.1725  0.0585
 4497SOL    HW225146   9.661   2.301   5.100  1.6051 -0.7991 -0.4135
 4498SOL     OW25147   3.844   1.734   6.222 -0.2155  0.2920 -0.1438
 4498SOL    HW125148   3.817   1.756   6.316  0.1142 -1.4714  0.3947
 4498SOL    HW225149   3.916   1.797   6.193  0.1985  0.4072  1.0734
 4499SOL     OW25150   4.187   1.273   1.794  0.0781  0.3342  0.5675
 4499SOL    HW125151   4.091   1.262   1.820  0.0379  0.8031  0.6242
 4499SOL    HW225152   4.194   1.287   1.695  0.0256  1.0688  0.6679
 4500SOL     OW25153   2.157   9.532   7.245  0.6456 -0.3539 -0.0661
 4500SOL    HW125154   2.185   9.441   7.274  1.0011 -0.6256 -1.2460
 4500SOL    HW225155   2.113   9.527   7.156  2.0961  0.8052 -0.8852
 4501SOL     OW25156   0.654   2.810   0.532 -0.0306  0.4601  0.1992
 4501SOL    HW125157   0.729   2.782   0.593  1.3218  0.4541 -1.4280
 4501SOL    HW225158   0.692   2.850   0.449 -1.7210 -2.6947 -2.2139
 4502SOL     OW25159   1.668   2.588   4.313  0.3663  0.8201 -0.3160
 4502SOL    HW125160   1.700   2.675   4.351  1.5052  0.3821 -0.2522
 4502SOL    HW225161   1.637   2.528   4.387 -0.3987  1.1575 -0.3584
 4503SOL     OW25162   2.981   8.225   5.355  0.2668  0.2685 -0.4424
 4503SOL    HW125163   2.912   8.282   5.400 -0.2552  1.4037 -2.5772
 4503SOL    HW225164   3.039   8.182   5.423 -0.8019  1.5361  1.3007
 4504SOL     OW25165   2.035   8.033   4.399  0.2913  0.1892 -0.6112
 4504SOL    HW125166   2.076   7.989   4.479  1.8151  1.7199 -0.5049
 4504SOL    HW225167   1.936   8.027   4.404  0.3983 -0.3125  1.0576
 4505SOL     OW25168   2.539   8.585   2.976 -0.1927  0.5067 -0.0028
 4505SOL    HW125169   2.567   8.677   2.950 -0.0793  0.6243  0.5327
 4505SOL    HW225170   2.463   8.589   3.040 -0.9674  0.1985 -0.8924
 4506SOL     OW25171   4.018   2.041   5.156 -0.2002 -0.2836 -0.2966
 4506SOL    HW125172   4.057   1.955   5.191 -0.6318 -0.7691 -0.9816
 4506SOL    HW225173   4.092   2.098   5.120  0.1567 -0.1033  0.7168
 4507SOL     OW25174   0.322   6.605   0.603  0.2618 -0.0546 -0.0015
 4507SOL    HW125175   0.388   6.622   0.530 -0.8288  0.5490 -0.8556
 4507SOL    HW225176   0.306   6.689   0.654  1.0488 -0.4813  0.9777
 4508SOL     OW25177   0.054   2.682   6.214  0.1673  0.4146 -0.0573
 4508SOL    HW125178   0.135   2.728   6.178  0.0219  3.0264  2.7974
 4508SOL    HW225179  -0.015   2.750   6.240 -2.6894 -1.7313 -1.7180
 4509SOL     OW25180   0.689   1.815   3.930  0.0373 -0.3147  0.1093
 4509SOL    HW125181   0.672   1.793   4.026 -0.0554 -0.4345  0.0658
 4509SOL    HW225182   0.620   1.769   3.873  1.3786 -2.0033 -0.1829
 4510SOL     OW25183   3.445   9.883   6.616 -0.0833  0.0058  0.4133
 4510SOL    HW125184   3.389   9.916   6.693 -0.7087  0.4625 -0.2320
 4510SOL    HW225185   3.505   9.809   6.648 -0.1237  0.3909  1.4092
 4511SOL     OW25186   1.578   1.374   0.399 -0.3894  0.0814 -0.3665
 4511SOL    HW125187   1.484   1.406   0.410 -0.3949  0.0584 -0.3490
 4511SOL    HW225188   1.601   1.312   0.473 -0.5723 -0.4255 -0.7336
 4512SOL     OW25189   7.844   6.123   3.375  0.3311  0.3074  0.0591
 4512SOL    HW125190   7.905   6.070   3.317  1.4920  0.2956  1.2602
 4512SOL    HW225191   7.892   6.150   3.458 -0.4524  2.6423 -0.2098
 4513SOL     OW25192   3.501   8.622   7.543  0.5515 -0.0130  0.1771
 4513SOL    HW125193   3.581   8.575   7.506  0.2407  0.3427 -0.9441
 4513SOL    HW225194   3.423   8.608   7.483 -0.0327  0.3230  0.8466
 4514SOL     OW25195   3.947   3.106   0.482  0.4752 -0.9507  0.3567
 4514SOL    HW125196   3.933   3.099   0.580 -2.0884 -2.4895 -0.0624
 4514SOL    HW225197   3.921   3.019   0.439  1.7974 -0.3812 -1.6709
 4515SOL     OW25198   1.723   1.259   4.839  0.0665  0.2825  0.3716
 4515SOL    HW125199   1.763   1.202   4.767 -2.5631  0.6478 -1.4428
 4515SOL    HW225200   1.708   1.351   4.805 -2.9768 -0.0282  0.6988
 4516SOL     OW25201   0.822   3.178   4.107 -0.0720 -0.1925  0.7080
 4516SOL    HW125202   0.914   3.183   4.145 -0.2339 -1.7266  1.3464
 4516SOL    HW225203   0.790   3.270   4.083  2.2297  0.1954 -0.9941
 4517SOL     OW25204   7.562   7.710   3.735 -0.0758 -0.1398  0.3648
 4517SOL    HW125205   7.533   7.678   3.644  2.0449 -2.3391  0.3952
 4517SOL    HW225206   7.511   7.792   3.759 -1.3835 -0.0636 -2.4054
 4518SOL     OW25207   3.679   4.795   4.176  0.7546 -0.4646 -0.4029
 4518SOL    HW125208   3.732   4.711   4.167 -2.0517 -2.5887  1.9535
 4518SOL    HW225209   3.716   4.851   4.250  0.3876 -1.4340  0.5272
 4519SOL     OW25210   2.531   1.125   1.226  0.4521 -0.6988 -0.0273
 4519SOL    HW125211   2.541   1.222   1.248 -1.2253 -0.7469  1.0610
 4519SOL    HW225212   2.616   1.091   1.186  0.8380  1.3717 -1.0364
 4520SOL     OW25213   1.927   9.922   2.159  0.7705  0.0138  0.1982
 4520SOL    HW125214   1.989   9.999   2.142  0.1407  0.0878 -1.9526
 4520SOL    HW225215   1.834   9.948   2.134  0.4220 -1.2123  0.1769
 4521SOL     OW25216   2.952   2.206   1.362  0.0206 -0.1464  0.2712
 4521SOL    HW125217   2.960   2.283   1.297 -0.1659  0.0455  0.4740
 4521SOL    HW225218   2.993   2.125   1.322  1.7379  0.4760  0.7456
 4522SOL     OW25219   8.513   5.115   6.093  0.1310  0.0675  0.2800
 4522SOL    HW125220   8.472   5.067   6.171  0.1412  2.6465  1.9440
 4522SOL    HW225221   8.469   5.205   6.083  1.7940  0.7367 -1.2101
 4523SOL     OW25222   0.499   6.833   5.788  0.0325  0.2041  0.6457
 4523SOL    HW125223   0.491   6.932   5.775  0.6363  0.3833  1.6294
 4523SOL    HW225224   0.529   6.791   5.702  1.5700  1.1027  0.7203
 4524SOL     OW25225   2.095   8.047   1.947  0.0687 -0.4628  0.9039
 4524SOL    HW125226   2.010   7.994   1.950 -0.2076 -0.0595  0.4033
 4524SOL    HW225227   2.171   7.989   1.975 -0.1020 -1.3874 -0.4707
 4525SOL     OW25228   9.157   1.932   7.479  0.2960  0.3721  0.1849
 4525SOL    HW125229   9.199   1.844   7.500  0.9336  0.7748  0.6352
 4525SOL    HW225230   9.228   1.997   7.452 -0.2940  0.4265 -1.2790
 4526SOL     OW25231   7.247   5.833   0.383 -0.0322  0.2713 -0.1780
 4526SOL    HW125232   7.302   5.838   0.299  0.8733 -3.7954  0.0754
 4526SOL    HW225233   7.152   5.856   0.363  0.0589 -1.2620 -2.4671
 4527SOL     OW25234   9.914   8.820   5.747  0.2057  0.1317 -0.1015
 4527SOL    HW125235   9.894   8.735   5.796 -1.6729  0.7780  0.3027
 4527SOL    HW225236   9.998   8.859   5.782  1.0961 -1.5614 -0.2916
 4528SOL     OW25237   3.594   2.205   3.654  0.0022  0.2779  0.2053
 4528SOL    HW125238   3.500   2.178   3.632 -0.5258  2.9259 -1.0410
 4528SOL    HW225239   3.603   2.304   3.643  2.6451  0.2106  1.4831
 4529SOL     OW25240   9.519   1.488   6.931 -0.5176  0.1953  0.6366
 4529SOL    HW125241   9.494   1.446   6.844 -1.1981  1.4832  0.1945
 4529SOL    HW225242   9.537   1.417   6.999 -0.2435 -0.8111 -0.4807
 4530SOL     OW25243   3.766   8.420   5.647 -0.3452 -0.1168  0.1644
 4530SOL    HW125244   3.756   8.501   5.705 -1.5529  0.4946 -0.8541
 4530SOL    HW225245   3.769   8.338   5.704 -1.1975  0.5009  1.1160
 4531SOL     OW25246   8.388   2.021   6.735  0.2734 -0.0149  0.1634
 4531SOL    HW125247   8.334   2.102   6.756 -1.9280 -1.1735 -0.8640
 4531SOL    HW225248   8.426   2.029   6.643 -1.2822 -0.8509 -0.5545
 4532SOL     OW25249   4.007   6.360   2.404 -0.0446  0.0029  0.2172
 4532SOL    HW125250   3.980   6.436   2.464 -0.3150 -1.0020  1.4097
 4532SOL    HW225251   4.106   6.350   2.405 -0.0619 -0.1523  0.6954
 4533SOL     OW25252   1.659   2.501   5.500  0.3822 -0.4708 -0.4471
 4533SOL    HW125253   1.731   2.561   5.534  0.4223 -0.5636 -0.3689
 4533SOL    HW225254   1.686   2.462   5.412 -0.5695  1.3649 -1.5948
 4534SOL     OW25255   8.706   3.768   5.517  0.0128 -0.1001  0.2758
 4534SOL    HW125256   8.633   3.755   5.583  0.8629 -1.8493  0.9124
 4534SOL    HW225257   8.793   3.737   5.556  1.0134  1.4131 -0.6593
 4535SOL     OW25258   8.557   8.367   1.572  0.3138 -0.5668  0.1411
 4535SOL    HW125259   8.569   8.361   1.671  0.6799 -0.0212  0.1314
 4535SOL    HW225260   8.484   8.305   1.543 -0.7550  0.2906  0.9304
 4536SOL     OW25261   7.288   6.924   3.684  0.4957  0.1529 -0.4519
 4536SOL    HW125262   7.227   6.905   3.608  0.3288  0.7384 -0.4698
 4536SOL    HW225263   7.383   6.922   3.653  0.3769  1.4726 -0.9149
 4537SOL     OW25264   1.463   8.496   4.664 -0.0620 -0.0284  0.1687
 4537SOL    HW125265   1.418   8.563   4.605  0.1205  0.1493  0.2344
 4537SOL    HW225266   1.439   8.404   4.633 -0.2249  0.0656  0.0136
 4538SOL     OW25267   9.302   7.700   4.417  0.2806 -0.4516  0.0097
 4538SOL    HW125268   9.383   7.714   4.474  0.9312  1.1562 -1.2657
 4538SOL    HW225269   9.222   7.685   4.475  1.0185  0.6798  1.3249
 4539SOL     OW25270   4.268   1.979   6.206  0.2532  0.1588 -0.0371
 4539SOL    HW125271   4.169   1.986   6.208 -0.1938 -3.6418 -3.2184
 4539SOL    HW225272   4.305   2.035   6.132  0.3915  0.7314  0.4623
 4540SOL     OW25273   3.783   2.927   1.527  0.4004 -0.4432  0.3884
 4540SOL    HW125274   3.833   3.003   1.568  1.6984 -0.1248 -1.7611
 4540SOL    HW225275   3.736   2.958   1.444  1.9977 -2.2612 -1.2359
 4541SOL     OW25276   3.599   6.319   3.707 -0.3960  0.2821 -0.4050
 4541SOL    HW125277   3.567   6.382   3.778 -0.6225  1.4941 -1.5678
 4541SOL    HW225278   3.521   6.270   3.667 -0.1829 -1.0307  0.7565
 4542SOL     OW25279   9.172   9.370   4.379  0.4257 -0.4977 -0.6117
 4542SOL    HW125280   9.093   9.390   4.322 -1.5911 -2.3812  1.4306
 4542SOL    HW225281   9.216   9.456   4.407 -0.6925  0.5453 -2.0220
 4543SOL     OW25282   7.247   8.994   5.047  0.0995 -0.0969  0.0803
 4543SOL    HW125283   7.315   8.953   5.107  1.1711  1.6398  0.0845
 4543SOL    HW225284   7.198   9.065   5.096  0.8880  1.2372 -1.0411
 4544SOL     OW25285   4.502   3.516   6.339 -0.1422  0.5651  0.1190
 4544SOL    HW125286   4.599   3.526   6.314 -0.7595  2.2332 -1.7885
 4544SOL    HW225287   4.474   3.421   6.327  1.1420  0.1645  0.1954
 4545SOL     OW25288   7.474   3.737   4.138 -0.0910  0.3888 -0.0436
 4545SOL    HW125289   7.405   3.795   4.182 -0.7073 -0.5823  0.2906
 4545SOL    HW225290   7.561   3.748   4.185 -1.0057 -1.4634  2.1760
 4546SOL     OW25291   6.041   8.434   3.473 -0.2861  0.0557  0.5739
 4546SOL    HW125292   6.047   8.375   3.392  2.1729  0.5396  0.3792
 4546SOL    HW225293   6.019   8.527   3.444  3.4842  0.8860  0.1035
 4547SOL     OW25294   8.535   1.230   6.302  0.0927  0.2096 -0.1296
 4547SOL    HW125295   8.547   1.326   6.278 -2.4529  0.5650 -0.0855
 4547SOL    HW225296   8.498   1.224   6.395  0.4982 -0.8402 -0.0304
 4548SOL     OW25297   4.507   9.001   7.499 -0.0641  0.5261  0.9684
 4548SOL    HW125298   4.441   8.931   7.472 -0.3976  0.6262  1.5073
 4548SOL    HW225299   4.534   8.986   7.594 -0.6016  1.4808  1.2798
 4549SOL     OW25300   2.699   3.684   4.911 -0.2713 -0.2091  0.1011
 4549SOL    HW125301   2.792   3.649   4.922 -0.7220 -1.2238  0.8422
 4549SOL    HW225302   2.698   3.783   4.925  0.7799 -0.1149 -0.4698
 4550SOL     OW25303   2.001   5.213   5.511 -0.4841 -0.1375 -0.5048
 4550SOL    HW125304   1.974   5.117   5.512  1.0618 -0.5860 -0.5473
 4550SOL    HW225305   2.079   5.226   5.572 -0.0695  0.9153 -1.2540
 4551SOL     OW25306   0.447   8.929   4.396 -0.3525  0.6819  0.0270
 4551SOL    HW125307   0.351   8.902   4.394  0.1807 -1.1880 -3.9912
 4551SOL    HW225308   0.454   9.028   4.382 -1.6731  0.8035  0.1696
 4552SOL     OW25309   2.991   2.032   5.655  0.1803  0.3755 -1.0922
 4552SOL    HW125310   3.007   1.982   5.570  0.6935  0.4126 -1.0175
 4552SOL    HW225311   2.896   2.019   5.683  0.8775 -2.4227  0.1461
 4553SOL     OW25312   7.675   1.328   4.807 -0.0068 -0.4814 -0.3545
 4553SOL    HW125313   7.577   1.340   4.826  0.2227 -0.6726  1.0250
 4553SOL    HW225314   7.703   1.393   4.737 -0.9729  0.0661 -0.2496
 4554SOL     OW25315   2.851   4.411   3.941  0.2649 -0.5325  0.0373
 4554SOL    HW125316   2.886   4.420   3.848  0.6203 -1.6724  0.0625
 4554SOL    HW225317   2.790   4.488   3.961  1.4289  0.5715 -0.5830
 4555SOL     OW25318   9.115   6.249   1.102 -0.3345  0.3028  0.7757
 4555SOL    HW125319   9.096   6.309   1.179  1.1180  0.8782  0.6929
 4555SOL    HW225320   9.147   6.302   1.024 -1.3100 -0.3300 -0.0860
 4556SOL     OW25321   7.531   2.874   5.569  0.6063  0.5820  0.1723
 4556SOL    HW125322   7.534   2.778   5.594 -0.9484  0.3409 -0.5079
 4556SOL    HW225323   7.436   2.905   5.567  1.0741  2.0606  0.1197
 4557SOL     OW25324   9.195   6.509   2.728  0.1183  0.0966 -0.0024
 4557SOL    HW125325   9.110   6.494   2.780  0.3980  1.9243  1.0255
 4557SOL    HW225326   9.273   6.479   2.783  0.4030  1.8854  0.5931
 4558SOL     OW25327   1.127   4.670   0.558  0.2658 -0.0719  0.5433
 4558SOL    HW125328   1.177   4.747   0.519 -1.3635  0.5512 -0.4116
 4558SOL    HW225329   1.065   4.703   0.630  2.1827 -1.0156  2.6902
 4559SOL     OW25330   1.597   7.445   1.619  0.0190  0.3485 -0.2117
 4559SOL    HW125331   1.631   7.478   1.708  0.7686 -3.0388  0.8439
 4559SOL    HW225332   1.675   7.420   1.562 -0.4867  1.9981 -1.6583
 4560SOL     OW25333   8.985   2.110   4.163 -0.1163  0.1816  0.0525
 4560SOL    HW125334   9.001   2.133   4.259  0.9230  1.4311 -0.4182
 4560SOL    HW225335   8.958   2.192   4.113  2.2057  0.1476 -1.3282
 4561SOL     OW25336   7.048   7.481   5.209 -0.3250 -0.0626 -0.0766
 4561SOL    HW125337   7.052   7.579   5.229 -2.4922 -0.1727  1.0349
 4561SOL    HW225338   7.120   7.435   5.261  1.9297  1.1210 -2.0434
 4562SOL     OW25339   9.636   7.920   6.182 -0.4563 -0.2255  0.2709
 4562SOL    HW125340   9.649   7.961   6.273  0.3803 -1.6549  0.8207
 4562SOL    HW225341   9.709   7.951   6.121 -0.2386 -0.3238  0.4782
 4563SOL     OW25342   2.978   3.661   3.074  0.0993 -0.6498  0.2560
 4563SOL    HW125343   3.019   3.752   3.083  0.0347 -0.5959 -0.0075
 4563SOL    HW225344   2.899   3.654   3.135 -0.5373 -0.1630 -0.5023
 4564SOL     OW25345   5.774   9.720   5.834 -0.1306  0.8152 -0.1908
 4564SOL    HW125346   5.812   9.783   5.767  0.9675 -1.9587 -2.2659
 4564SOL    HW225347   5.791   9.626   5.805 -1.5783 -0.4713  2.8948
 4565SOL     OW25348   1.884   8.904   2.454  0.1774 -0.2556 -0.2791
 4565SOL    HW125349   1.866   8.874   2.548  2.8565  0.5052  0.5082
 4565SOL    HW225350   1.798   8.931   2.410 -1.2322 -1.5879  1.5993
 4566SOL     OW25351   1.721   4.251   6.814 -0.5443 -1.0270  0.3206
 4566SOL    HW125352   1.659   4.326   6.790  1.4179  0.0687 -1.3590
 4566SOL    HW225353   1.778   4.227   6.736  1.2543 -1.9604  1.8677
 4567SOL     OW25354   8.874   2.553   2.614 -0.0220 -0.3359  0.4902
 4567SOL    HW125355   8.830   2.498   2.543  0.8255 -0.6608  0.2050
 4567SOL    HW225356   8.956   2.596   2.577 -0.2018  0.4174  0.9614
 4568SOL     OW25357   0.527   4.663   1.315 -0.5653 -0.1428  0.3508
 4568SOL    HW125358   0.581   4.679   1.232 -0.8358 -0.2955  0.1435
 4568SOL    HW225359   0.440   4.620   1.290 -0.2502 -1.0380  0.8115
 4569SOL     OW25360   1.594   6.462   3.864  0.1476 -0.3762  0.1848
 4569SOL    HW125361   1.672   6.480   3.805 -0.5660  3.2902  0.2182
 4569SOL    HW225362   1.534   6.395   3.820  1.8254 -1.0359 -1.1650
 4570SOL     OW25363   3.501   1.697   0.854 -0.0055  0.3484  0.2175
 4570SOL    HW125364   3.428   1.658   0.910 -0.4588 -0.8273 -1.1800
 4570SOL    HW225365   3.585   1.645   0.867 -0.3249 -0.4421 -0.8039
 4571SOL     OW25366   9.502   9.183   0.486  0.1213 -0.3696  0.3563
 4571SOL    HW125367   9.557   9.101   0.499  0.0176 -0.3175  1.1825
 4571SOL    HW225368   9.496   9.233   0.573 -0.6592 -0.0236  0.1108
 4572SOL     OW25369   1.024   1.785   6.669  0.1456 -0.0345  0.6106
 4572SOL    HW125370   0.952   1.717   6.676 -0.6058  0.6935  0.0872
 4572SOL    HW225371   1.010   1.841   6.587 -0.6014  2.2871  2.2814
 4573SOL     OW25372   8.386   1.586   2.177 -0.3828 -0.7233  0.2655
 4573SOL    HW125373   8.483   1.598   2.197  0.3917  1.7941 -4.1093
 4573SOL    HW225374   8.332   1.636   2.244  1.4811  0.1588  1.1602
 4574SOL     OW25375   0.520   3.866   0.722 -0.0469 -0.1676 -0.5394
 4574SOL    HW125376   0.582   3.913   0.658  1.1965  0.0861  0.8168
 4574SOL    HW225377   0.528   3.767   0.709 -0.6938 -0.0900 -1.5882
 4575SOL     OW25378   4.157   9.783   2.354 -0.0766  0.5246  0.0007
 4575SOL    HW125379   4.136   9.817   2.262  1.5268  2.4148  0.3020
 4575SOL    HW225380   4.153   9.683   2.354  0.1188  0.4911 -2.1865
 4576SOL     OW25381   8.572   3.820   1.969 -0.0731  0.0605 -0.0805
 4576SOL    HW125382   8.649   3.817   2.033  0.1880  1.7177 -0.2930
 4576SOL    HW225383   8.602   3.783   1.880  0.2310 -0.0821  0.0774
 4577SOL     OW25384   9.880   0.770   2.848 -0.3145  0.0653  0.7562
 4577SOL    HW125385   9.820   0.732   2.777  0.1668  1.0389 -0.1942
 4577SOL    HW225386   9.884   0.869   2.837 -0.7662  0.2904  2.5790
 4578SOL     OW25387   3.542   6.670   4.757 -0.2054 -0.3959  0.3723
 4578SOL    HW125388   3.476   6.693   4.686 -0.2914  0.7456  0.8143
 4578SOL    HW225389   3.535   6.572   4.779 -3.2188  0.0791  1.8982
 4579SOL     OW25390   9.174   6.538   4.857 -0.4072 -0.2764  0.1264
 4579SOL    HW125391   9.079   6.552   4.831  0.0495 -0.3379 -1.6867
 4579SOL    HW225392   9.182   6.458   4.916 -1.3956 -0.6764 -0.2802
 4580SOL     OW25393   7.097   0.462   7.754  0.1138 -0.0637 -0.5319
 4580SOL    HW125394   7.035   0.445   7.831 -1.0460 -0.6773 -1.5717
 4580SOL    HW225395   7.044   0.501   7.678  1.2028  0.3282 -1.0878
 4581SOL     OW25396   9.753   8.959   7.215  0.3079  0.0659 -0.2596
 4581SOL    HW125397   9.851   8.963   7.195  0.2320 -2.1877 -1.2681
 4581SOL    HW225398   9.737   8.900   7.295 -0.2396  0.2478 -0.2304
 4582SOL     OW25399   4.058   2.211   7.341 -0.2619  0.1857 -0.1583
 4582SOL    HW125400   4.069   2.293   7.285  1.5362 -1.7069 -2.7395
 4582SOL    HW225401   3.962   2.182   7.339 -0.3306  0.4477 -1.9343
 4583SOL     OW25402   5.001   4.397   1.965  0.0354 -0.0418  0.6929
 4583SOL    HW125403   4.993   4.359   2.058 -0.6604 -0.9424  0.2832
 4583SOL    HW225404   5.083   4.453   1.958 -0.4659  0.8804  2.1509
 4584SOL     OW25405   7.203   0.762   1.962 -0.5763 -0.6839 -0.2036
 4584SOL    HW125406   7.268   0.686   1.961  0.0492 -0.3180  3.6824
 4584SOL    HW225407   7.111   0.727   1.947 -0.0120 -1.8239 -1.1241
 4585SOL     OW25408   7.156   7.451   4.151 -0.3816 -0.4613 -0.0319
 4585SOL    HW125409   7.248   7.430   4.118 -0.4807 -1.7096  0.4384
 4585SOL    HW225410   7.152   7.547   4.179  1.1896 -0.7297  1.2586
 4586SOL     OW25411   1.844   9.149   7.316  0.0282 -0.5095 -0.6477
 4586SOL    HW125412   1.858   9.148   7.217  0.1960  0.2371 -0.6383
 4586SOL    HW225413   1.780   9.222   7.339  0.0927 -0.5978 -0.1931
 4587SOL     OW25414   8.204   1.357   4.555  0.1319 -0.1046  0.2423
 4587SOL    HW125415   8.273   1.366   4.627  0.4512  0.0691 -0.0846
 4587SOL    HW225416   8.140   1.284   4.579 -0.6200  0.9211  1.4111
 4588SOL     OW25417   9.031   3.112   6.323 -0.0379  0.1240  0.5457
 4588SOL    HW125418   8.988   3.063   6.247 -0.5960  1.3247  0.0812
 4588SOL    HW225419   8.989   3.201   6.334  0.3846  0.1655  1.9618
 4589SOL     OW25420   7.379   2.121   6.270 -0.3468 -0.2010 -0.1697
 4589SOL    HW125421   7.478   2.126   6.285 -0.3857 -1.0040  0.4240
 4589SOL    HW225422   7.338   2.209   6.293  0.0686 -0.2812  0.9270
 4590SOL     OW25423   8.043   3.009   4.525  0.4126  0.3843 -0.2250
 4590SOL    HW125424   7.945   3.027   4.539  0.0704 -0.7361 -1.0640
 4590SOL    HW225425   8.093   3.095   4.521 -0.8445  1.0725 -1.8548
 4591SOL     OW25426   4.280   8.180   7.135 -0.0064 -0.4823 -0.1220
 4591SOL    HW125427   4.236   8.177   7.045  0.4923  1.0960 -0.4299
 4591SOL    HW225428   4.211   8.175   7.207 -0.3392 -2.8100 -0.5630
 4592SOL     OW25429   0.100   7.749   4.795 -0.0786  0.0893  0.3120
 4592SOL    HW125430   0.032   7.759   4.722 -0.8330 -0.1891  0.9622
 4592SOL    HW225431   0.082   7.817   4.866 -1.8905 -2.2400  2.1743
 4593SOL     OW25432   4.462   7.764   3.565 -0.0297  0.4757 -0.5803
 4593SOL    HW125433   4.402   7.757   3.486 -1.5133 -0.8550  0.6416
 4593SOL    HW225434   4.509   7.677   3.580  0.2837  0.7304 -0.0381
 4594SOL     OW25435   8.734   9.993   5.584  0.4558  0.6183  0.3521
 4594SOL    HW125436   8.787   9.955   5.507 -1.2199 -1.0309 -0.0128
 4594SOL    HW225437   8.703  10.085   5.560  0.9542  0.5796 -0.4744
 4595SOL     OW25438   1.018   3.498   2.346  0.0373  0.3130 -0.2223
 4595SOL    HW125439   0.925   3.523   2.321 -0.4088  0.0536  1.1305
 4595SOL    HW225440   1.021   3.402   2.374  0.3824  0.7304  1.2666
 4596SOL     OW25441   1.782   0.964   2.905 -0.3354 -1.0142 -0.4485
 4596SOL    HW125442   1.807   0.918   2.990 -0.4832  0.2738  0.3014
 4596SOL    HW225443   1.791   1.063   2.916 -1.4886 -0.7715 -1.5704
 4597SOL     OW25444   0.276   0.574   1.246  0.2364  0.2062  0.2740
 4597SOL    HW125445   0.328   0.525   1.316 -1.2134 -1.6614  0.0897
 4597SOL    HW225446   0.195   0.520   1.221  0.2557  1.2572 -2.1970
 4598SOL     OW25447   1.405   9.358   5.717  0.6558  0.1107  0.0815
 4598SOL    HW125448   1.449   9.329   5.802  1.0430  2.9858  0.9220
 4598SOL    HW225449   1.319   9.404   5.738 -0.7447 -1.7837 -1.3069
 4599SOL     OW25450   4.143   5.525   5.037  0.1449 -0.1510  0.0864
 4599SOL    HW125451   4.122   5.622   5.056  0.3826 -0.4254  1.8827
 4599SOL    HW225452   4.059   5.479   5.007  0.4908  1.0748 -2.8691
 4600SOL     OW25453   6.949   2.188   4.461 -0.2138 -0.0713  0.3733
 4600SOL    HW125454   6.957   2.276   4.508  0.0568  0.5527 -0.7982
 4600SOL    HW225455   6.872   2.136   4.499 -1.1076  1.1772  0.3002
 4601SOL     OW25456   3.390   2.634   4.810 -0.1171 -0.0795 -0.2561
 4601SOL    HW125457   3.331   2.599   4.737 -1.5413  0.5478  0.5796
 4601SOL    HW225458   3.397   2.566   4.883  0.2603 -0.1806 -0.3835
 4602SOL     OW25459   3.038   4.692   4.624 -0.5347  0.0207 -0.4183
 4602SOL    HW125460   3.015   4.750   4.702  0.8316 -0.2483  0.1949
 4602SOL    HW225461   2.975   4.615   4.620 -1.0326  0.4042  0.0232
 4603SOL     OW25462   9.872   3.582   6.992  0.1530  0.0550 -0.5817
 4603SOL    HW125463   9.900   3.664   6.941  0.6119 -0.5838 -1.3687
 4603SOL    HW225464   9.802   3.607   7.058  0.7576  1.2105 -0.3558
 4604SOL     OW25465   4.063   9.155   6.672  0.0980  0.1096 -0.5491
 4604SOL    HW125466   4.015   9.073   6.642  0.5239  0.6768 -2.8930
 4604SOL    HW225467   4.138   9.174   6.609  0.2348  2.1025  0.1874
 4605SOL     OW25468   3.130   4.725   3.104  0.1712  0.1052 -0.7441
 4605SOL    HW125469   3.211   4.682   3.143 -0.0182  1.2039  0.9261
 4605SOL    HW225470   3.077   4.658   3.053  0.0394 -1.5575  1.5429
 4606SOL     OW25471   6.333   1.993   1.915 -0.0698 -0.2599 -0.3835
 4606SOL    HW125472   6.366   1.905   1.949 -1.4526 -0.1516  1.3066
 4606SOL    HW225473   6.392   2.066   1.948 -0.6144 -0.2891  0.6757
 4607SOL     OW25474   1.068   1.011   0.512 -0.2639  0.0819 -0.1600
 4607SOL    HW125475   1.162   1.043   0.518 -0.9309  1.8403  1.5292
 4607SOL    HW225476   1.062   0.918   0.549  0.6862  0.2363  0.4022
 4608SOL     OW25477   0.566   0.129   5.710  0.1518  0.1927 -0.7696
 4608SOL    HW125478   0.621   0.051   5.739 -0.0620 -0.6678 -2.6437
 4608SOL    HW225479   0.469   0.108   5.720  0.1041  0.9662  0.5956
 4609SOL     OW25480   5.556   2.270   6.330  0.1472 -0.3234 -0.3362
 4609SOL    HW125481   5.612   2.352   6.324  0.0690 -0.2753 -0.4033
 4609SOL    HW225482   5.575   2.223   6.416  0.3999 -0.3870 -0.4253
 4610SOL     OW25483   5.275   8.133   3.210  0.3880  0.2358 -0.1131
 4610SOL    HW125484   5.305   8.226   3.191  0.0355  0.4559  0.3825
 4610SOL    HW225485   5.341   8.089   3.271  0.4264  0.2439 -0.1485
 4611SOL     OW25486   3.554   1.837   7.867 -0.2241 -0.1433  0.3177
 4611SOL    HW125487   3.518   1.745   7.853 -1.8411  0.3935  0.7827
 4611SOL    HW225488   3.478   1.902   7.871  0.8634  1.1455  0.5349
 4612SOL     OW25489   1.342   9.969   3.156 -0.0145 -0.1553  0.1085
 4612SOL    HW125490   1.396   9.937   3.079 -2.8069 -1.9354 -1.1675
 4612SOL    HW225491   1.327  10.068   3.147  1.2489 -0.0111 -0.5859
 4613SOL     OW25492   7.733   3.123   2.962 -0.1544  0.1306 -0.2727
 4613SOL    HW125493   7.656   3.059   2.960 -1.1904  1.3954 -1.3504
 4613SOL    HW225494   7.784   3.118   2.876 -0.1844  0.7031 -0.3242
 4614SOL     OW25495   1.444   2.894   5.153 -0.4029  0.4915  0.1740
 4614SOL    HW125496   1.357   2.848   5.164 -0.5053  0.8830  1.0665
 4614SOL    HW225497   1.482   2.874   5.062 -1.2115 -0.0157 -0.0527
 4615SOL     OW25498   3.679   1.588   2.296  0.2301  0.9358 -0.0727
 4615SOL    HW125499   3.656   1.641   2.377 -3.0559  1.0491 -1.0324
 4615SOL    HW225500   3.645   1.635   2.214 -0.8006 -1.5430 -1.1057
 4616SOL     OW25501   8.814   3.615   2.336 -0.0205 -0.1981 -0.5415
 4616SOL    HW125502   8.902   3.594   2.378  0.5258 -1.7311 -2.4016
 4616SOL    HW225503   8.748   3.544   2.360 -0.9399  1.2282  1.2937
 4617SOL     OW25504   2.903   6.128   4.745 -0.2040  0.0792 -0.3186
 4617SOL    HW125505   2.816   6.149   4.701 -0.1797  0.3629 -0.2256
 4617SOL    HW225506   2.952   6.060   4.689 -0.2165  0.3646 -0.6820
 4618SOL     OW25507   0.056   7.980   3.095  0.5386  0.3671 -0.0631
 4618SOL    HW125508   0.002   7.940   3.021 -1.0038  1.6532  0.3297
 4618SOL    HW225509   0.122   7.913   3.128 -0.2151 -0.9504 -1.1611
 4619SOL     OW25510   1.884   4.934   7.644  0.0216 -0.1270 -0.0974
 4619SOL    HW125511   1.905   5.017   7.695 -0.3476 -0.4313  0.5637
 4619SOL    HW225512   1.935   4.933   7.559  0.8858  0.2514  0.4097
 4620SOL     OW25513   0.094   0.130   6.226  0.1050 -0.0677  0.3729
 4620SOL    HW125514   0.170   0.165   6.281 -1.1253 -0.5839  2.4533
 4620SOL    HW225515   0.130   0.070   6.154  1.8171  1.4672 -0.1081
 4621SOL     OW25516   9.543   7.712   1.936 -0.1320  0.5337  0.3459
 4621SOL    HW125517   9.545   7.614   1.917 -0.0955 -0.0977  3.4513
 4621SOL    HW225518   9.453   7.748   1.910 -0.4571 -0.4787  0.0223
 4622SOL     OW25519   0.196   5.499   1.742 -0.3167 -0.1444 -0.2805
 4622SOL    HW125520   0.187   5.596   1.723 -1.2764 -0.1998 -0.1049
 4622SOL    HW225521   0.177   5.446   1.659  0.7676 -0.1724 -0.5292
 4623SOL     OW25522   8.358   8.567   7.319 -0.2192  0.4400  0.3686
 4623SOL    HW125523   8.303   8.483   7.322  0.8972 -0.2760  1.0518
 4623SOL    HW225524   8.453   8.545   7.341  0.5308  1.5305 -1.6347
 4624SOL     OW25525   9.287   1.924   2.484  0.1529 -0.0016 -0.2524
 4624SOL    HW125526   9.258   2.008   2.531  1.9505 -0.4771  1.7653
 4624SOL    HW225527   9.317   1.946   2.391 -2.8935  1.0328 -1.0649
 4625SOL     OW25528   4.899   8.355   6.949  0.5078 -0.1369  0.1957
 4625SOL    HW125529   4.880   8.447   6.983  2.4910  0.7195 -0.9087
 4625SOL    HW225530   4.933   8.299   7.024 -0.5903  0.0535  0.8510
 4626SOL     OW25531   0.207   4.915   5.892  0.3149  0.0435  0.0042
 4626SOL    HW125532   0.193   4.976   5.970 -0.2156  0.0672 -0.1058
 4626SOL    HW225533   0.189   4.821   5.919 -1.4475  0.2160 -0.4815
 4627SOL     OW25534   1.887   3.210   0.631  0.5337  0.1003  0.1507
 4627SOL    HW125535   1.953   3.261   0.576  2.2597 -0.1635  1.8988
 4627SOL    HW225536   1.795   3.245   0.614  1.3893  2.0704 -0.6028
 4628SOL     OW25537   4.404   0.500   4.325 -0.2135 -0.4345 -0.2888
 4628SOL    HW125538   4.445   0.566   4.262  0.7452 -0.8625 -0.1385
 4628SOL    HW225539   4.447   0.411   4.310  0.2804 -0.4548  1.2038
 4629SOL     OW25540   9.023   0.354   0.078 -0.4644 -0.2046  0.3969
 4629SOL    HW125541   9.115   0.392   0.088 -0.8060  0.4664  1.0432
 4629SOL    HW225542   8.956   0.421   0.108 -1.1130 -1.1159  1.0081
 4630SOL     OW25543   9.320   0.157   6.480 -0.0742 -0.1760  0.2509
 4630SOL    HW125544   9.259   0.111   6.545 -0.1051 -0.6117 -0.0846
 4630SOL    HW225545   9.293   0.252   6.471  0.4710  0.1154  1.5419
 4631SOL     OW25546   3.160   4.473   0.595 -0.5938 -0.8440  0.0264
 4631SOL    HW125547   3.087   4.419   0.638  0.6905 -1.4777  1.4555
 4631SOL    HW225548   3.137   4.570   0.601 -0.0193 -0.8454  3.0380
 4632SOL     OW25549   4.934   0.789   0.426 -0.5585  0.0754 -0.3446
 4632SOL    HW125550   4.976   0.737   0.351 -0.7471 -1.6981  0.7566
 4632SOL    HW225551   4.970   0.883   0.425  0.5751 -0.3464 -1.7271
 4633SOL     OW25552   0.381   6.967   1.956 -0.4712  0.0169 -0.4484
 4633SOL    HW125553   0.386   7.065   1.934  1.1276  0.3080  1.1256
 4633SOL    HW225554   0.473   6.927   1.951 -1.1622 -1.4914 -1.4061
 4634SOL     OW25555   3.877   5.068   1.515  0.2714 -0.0471 -0.0700
 4634SOL    HW125556   3.831   5.144   1.560  0.6935  0.6175 -0.7338
 4634SOL    HW225557   3.944   5.027   1.577  2.2665  2.1216 -0.6842
 4635SOL     OW25558   4.737   2.016   1.507 -0.7315  0.2347 -0.0749
 4635SOL    HW125559   4.757   1.938   1.566  1.0199  1.0703  0.4693
 4635SOL    HW225560   4.820   2.040   1.455 -2.2846 -0.6449 -3.0586
 4636SOL     OW25561   0.438   0.636   6.353 -0.1868 -0.0829  0.1387
 4636SOL    HW125562   0.445   0.640   6.253  1.4239 -0.3390  0.2145
 4636SOL    HW225563   0.347   0.663   6.382 -1.1065 -1.3697 -1.4869
 4637SOL     OW25564   8.233   2.897   5.042 -0.5162  0.4558  0.8233
 4637SOL    HW125565   8.206   2.893   4.945  2.3613 -1.5648  0.0296
 4637SOL    HW225566   8.325   2.934   5.049  0.0698 -1.2550  2.6148
 4638SOL     OW25567   9.875   9.215   5.622 -0.3313 -0.5782  0.3360
 4638SOL    HW125568   9.855   9.151   5.549 -0.5185  0.5438 -0.6069
 4638SOL    HW225569   9.964   9.192   5.663  0.3946 -0.4170 -1.1116
 4639SOL     OW25570   4.111   4.283   3.007 -0.0438  0.1819 -0.4768
 4639SOL    HW125571   4.186   4.326   2.957 -0.6846  1.5685 -0.2683
 4639SOL    HW225572   4.034   4.346   3.012 -0.0844 -0.0100  2.0633
 4640SOL     OW25573   5.406   8.023   3.571  0.5510 -0.0734 -0.2440
 4640SOL    HW125574   5.450   8.063   3.652 -0.9439  0.0144  0.5452
 4640SOL    HW225575   5.307   8.031   3.579  0.2319 -2.9288 -0.5714
 4641SOL     OW25576   7.591   7.016   8.473  0.3864  0.7625 -0.3675
 4641SOL    HW125577   7.507   6.993   8.425  1.0692  0.8722 -1.6282
 4641SOL    HW225578   7.601   7.116   8.477 -1.1095  0.8582  2.5518
 4642SOL     OW25579   7.074   0.694   1.579 -0.2728 -0.1450  0.4999
 4642SOL    HW125580   7.071   0.647   1.667  0.8497 -0.5910  0.3094
 4642SOL    HW225581   7.147   0.655   1.523 -1.7044 -0.6257 -1.0602
 4643SOL     OW25582   3.806   3.177   6.200 -0.7911 -0.3095  0.1790
 4643SOL    HW125583   3.850   3.107   6.255 -1.2468 -0.2419  0.6252
 4643SOL    HW225584   3.803   3.263   6.251  1.4956  0.5515 -1.0826
 4644SOL     OW25585   8.737   4.556   1.171 -0.1261  0.1270 -0.2019
 4644SOL    HW125586   8.670   4.518   1.235  1.6742 -0.6198  1.3053
 4644SOL    HW225587   8.699   4.637   1.126 -2.1875 -0.5499  0.2616
 4645SOL     OW25588   5.149   1.321   6.016 -0.0395 -0.1300  0.0669
 4645SOL    HW125589   5.181   1.257   5.947  1.3287  0.3783  0.2076
 4645SOL    HW225590   5.086   1.275   6.079  0.9879 -1.3461  0.2173
 4646SOL     OW25591   1.080   6.549   3.837  0.4539 -0.5910  0.9915
 4646SOL    HW125592   1.088   6.449   3.836  0.8585 -0.5572 -1.1876
 4646SOL    HW225593   1.039   6.578   3.924 -0.5034 -2.7046  1.2817
 4647SOL     OW25594   1.437   5.460   3.428 -0.3713  1.1872 -0.6816
 4647SOL    HW125595   1.412   5.472   3.332  1.6926 -2.3913 -1.8003
 4647SOL    HW225596   1.537   5.461   3.436 -0.4702 -0.3932  1.0891
 4648SOL     OW25597   5.148   9.936   2.075 -0.0506  0.4385  0.2068
 4648SOL    HW125598   5.215  10.007   2.100  1.4202 -0.5172 -0.9387
 4648SOL    HW225599   5.196   9.859   2.032 -1.9003 -0.2561 -0.6462
 4649SOL     OW25600   9.673   2.042   4.744  0.3243 -0.1877  0.0921
 4649SOL    HW125601   9.631   2.076   4.659  0.2701 -0.9058 -0.1739
 4649SOL    HW225602   9.764   2.007   4.724 -0.0169 -1.1417  0.1708
 4650SOL     OW25603   1.096   0.196   6.993 -0.4210 -0.1186  0.3323
 4650SOL    HW125604   1.173   0.133   6.981  0.2526  0.6622  0.4969
 4650SOL    HW225605   1.130   0.290   7.000 -1.6050  0.5787 -2.6073
 4651SOL     OW25606   1.603   8.219   6.945  0.5011 -0.1977 -0.0501
 4651SOL    HW125607   1.537   8.145   6.934  0.3434 -0.0619 -0.0109
 4651SOL    HW225608   1.618   8.264   6.857 -0.4905  0.6508  0.1977
 4652SOL     OW25609   5.073   3.178   6.057 -0.1844  0.0483  0.2833
 4652SOL    HW125610   5.012   3.255   6.038 -1.5049 -0.9902  0.2441
 4652SOL    HW225611   5.168   3.207   6.046 -0.6906  1.5138 -0.3021
 4653SOL     OW25612   4.492   6.894   3.103  0.5718  0.0793 -0.1007
 4653SOL    HW125613   4.483   6.976   3.047  1.0290  0.2381  0.0548
 4653SOL    HW225614   4.403   6.869   3.141  0.1932 -0.2482 -1.2021
 4654SOL     OW25615   4.546   1.451   7.734  0.4620 -0.1740  0.7312
 4654SOL    HW125616   4.473   1.384   7.751  0.1945 -0.0532  0.0828
 4654SOL    HW225617   4.506   1.538   7.705  0.8674 -0.1886  0.1064
 4655SOL     OW25618   6.008   0.989   5.752 -0.4319 -0.4570 -0.1152
 4655SOL    HW125619   6.008   0.953   5.658  1.3188 -1.3744  0.2336
 4655SOL    HW225620   5.992   0.914   5.816 -0.5706  0.0060  0.3887
 4656SOL     OW25621   9.564   9.479   5.507  0.0317  0.7061  0.2391
 4656SOL    HW125622   9.538   9.474   5.411  0.8181 -1.7184  0.1202
 4656SOL    HW225623   9.664   9.487   5.515 -0.1928  3.9471  0.8359
 4657SOL     OW25624   7.082   2.872   0.401  0.1325  0.2575 -0.3420
 4657SOL    HW125625   7.004   2.853   0.462 -0.4591 -1.0818 -1.4794
 4657SOL    HW225626   7.161   2.819   0.432  0.3019  0.8127  0.1939
 4658SOL     OW25627   4.096   7.382   0.151 -0.3933 -0.1856  0.0148
 4658SOL    HW125628   4.126   7.306   0.209 -1.1026 -0.1518  0.4379
 4658SOL    HW225629   4.097   7.467   0.204  1.5887  0.3336 -0.8045
 4659SOL     OW25630   4.321   4.282   5.961 -0.5796 -0.3580  0.5641
 4659SOL    HW125631   4.372   4.197   5.946 -1.6554 -1.0399  0.6662
 4659SOL    HW225632   4.225   4.260   5.980 -1.0704  0.9256 -0.3289
 4660SOL     OW25633   9.310   6.946   1.508  0.0687 -0.0328 -0.2608
 4660SOL    HW125634   9.226   6.983   1.470 -1.6636 -1.5521  1.9185
 4660SOL    HW225635   9.366   7.020   1.546 -1.8695  0.6804  1.2488
 4661SOL     OW25636   1.776   0.127   0.391  0.6411 -0.4256  0.1539
 4661SOL    HW125637   1.731   0.045   0.355 -0.7572  0.4154 -0.0539
 4661SOL    HW225638   1.872   0.127   0.364 -0.0785 -0.4333 -2.5788
 4662SOL     OW25639   1.763   7.314   4.022  0.2367  0.0558  1.0995
 4662SOL    HW125640   1.766   7.324   3.922 -0.8980  1.8149  1.2280
 4662SOL    HW225641   1.669   7.299   4.051  0.6398 -1.0752  1.8699
 4663SOL     OW25642   7.864   9.138   5.384  0.5490 -0.0856  0.2584
 4663SOL    HW125643   7.798   9.113   5.454  1.1718 -1.3680  0.3936
 4663SOL    HW225644   7.926   9.208   5.420  0.9456 -0.8337  1.0228
 4664SOL     OW25645   9.556   9.794   0.970 -0.2308 -0.1381  0.1154
 4664SOL    HW125646   9.577   9.732   0.894 -0.6314  0.2971 -0.3553
 4664SOL    HW225647   9.475   9.848   0.948 -0.9350 -0.7144  1.2816
 4665SOL     OW25648   0.380   9.839   7.930  0.1399  0.2140 -0.2123
 4665SOL    HW125649   0.281   9.852   7.931  0.2076  0.8010 -0.7505
 4665SOL    HW225650   0.410   9.800   8.017 -0.8285 -2.0244 -0.8356
 4666SOL     OW25651   6.061   0.152   1.752 -0.4347 -0.0808  0.0499
 4666SOL    HW125652   6.089   0.245   1.773 -3.0788  0.6547  0.5207
 4666SOL    HW225653   6.140   0.100   1.719  1.2313  2.0871  0.4961
 4667SOL     OW25654   1.287   4.842   6.797 -0.2679 -0.0366 -0.2521
 4667SOL    HW125655   1.265   4.876   6.888 -2.2742 -0.4947 -0.5332
 4667SOL    HW225656   1.266   4.745   6.791 -2.1428  0.4325 -1.7929
 4668SOL     OW25657   3.022   7.408   4.768 -0.0568 -0.1963  0.6997
 4668SOL    HW125658   3.094   7.349   4.732  2.0314  1.5366  1.9557
 4668SOL    HW225659   2.959   7.432   4.695  0.9573 -1.2728 -0.5460
 4669SOL     OW25660   9.463   6.476   7.106  0.1718  0.2351 -0.0353
 4669SOL    HW125661   9.557   6.508   7.120 -0.5433  1.8845  1.1705
 4669SOL    HW225662   9.464   6.386   7.062  2.2992  0.5432 -0.6466
 4670SOL     OW25663   9.330   7.508   1.617 -0.4218 -0.4811  0.5606
 4670SOL    HW125664   9.261   7.475   1.682 -1.0517 -0.5147 -0.1145
 4670SOL    HW225665   9.406   7.444   1.613 -1.5703 -1.8227 -0.6372
 4671SOL     OW25666   5.028   4.734  10.065  0.2716  0.1002 -0.1438
 4671SOL    HW125667   5.070   4.689   9.987  1.7670 -1.2070  1.3915
 4671SOL    HW225668   5.098   4.779  10.120 -0.7289  0.7224  0.6462
 4672SOL     OW25669   8.315   9.087   4.934  0.4717 -0.7097  0.0119
 4672SOL    HW125670   8.244   9.135   4.986  1.1923  0.7042 -0.3089
 4672SOL    HW225671   8.282   9.070   4.841 -0.0061 -1.3898  0.2937
 4673SOL     OW25672   3.073   4.406   5.235 -0.0671  0.6554 -0.1652
 4673SOL    HW125673   3.150   4.446   5.186  0.2481  1.7993  1.2338
 4673SOL    HW225674   2.997   4.392   5.171  1.3010 -0.5672 -1.5725
 4674SOL     OW25675   1.938   8.673   5.435  0.4858 -0.2757  0.5126
 4674SOL    HW125676   1.918   8.592   5.490  0.9557 -1.2160 -0.6519
 4674SOL    HW225677   1.999   8.733   5.485  2.4770 -2.0467  0.3015
 4675SOL     OW25678   6.655   2.802   4.016 -0.5807  0.2215  0.1092
 4675SOL    HW125679   6.692   2.888   4.050 -3.5687  1.5101  0.2070
 4675SOL    HW225680   6.644   2.807   3.917 -1.9727  0.4488  0.2686
 4676SOL     OW25681   1.975   4.272   2.663  0.8439 -0.0299  0.2923
 4676SOL    HW125682   1.959   4.296   2.567 -1.2226 -0.6668  0.4577
 4676SOL    HW225683   2.028   4.188   2.667  0.7774 -0.1085 -0.2990
 4677SOL     OW25684   3.980   3.324   5.899  0.2692  0.1005 -0.0448
 4677SOL    HW125685   4.044   3.377   5.843 -0.5485  0.2822 -0.8287
 4677SOL    HW225686   4.024   3.297   5.984  1.6356 -0.4133 -0.8955
 4678SOL     OW25687   9.349   8.789   4.097 -0.2654 -0.2010 -0.1895
 4678SOL    HW125688   9.407   8.717   4.135  0.2489 -0.1510 -0.8653
 4678SOL    HW225689   9.298   8.834   4.170 -0.7510 -1.3922  0.2143
 4679SOL     OW25690   8.509   4.996   3.260 -0.2892  0.0923 -0.1918
 4679SOL    HW125691   8.471   4.978   3.351  2.5709 -1.3471  0.7561
 4679SOL    HW225692   8.608   5.003   3.266  0.1834 -2.6342 -3.6062
 4680SOL     OW25693   2.663   1.104   7.201  0.0629  0.2654 -0.4277
 4680SOL    HW125694   2.732   1.149   7.144 -0.9469 -0.1767 -2.0301
 4680SOL    HW225695   2.709   1.054   7.275  1.3981  0.8454 -0.8477
 4681SOL     OW25696   1.058   4.353   9.825 -0.2285 -0.2459 -0.1761
 4681SOL    HW125697   1.147   4.399   9.814 -0.6409 -0.0810 -3.1369
 4681SOL    HW225698   1.063   4.261   9.787 -0.8044 -0.9513  1.4080
 4682SOL     OW25699   5.365   9.743   3.750  0.2324  0.2962  0.3205
 4682SOL    HW125700   5.311   9.827   3.761 -0.2151  0.2278 -1.2025
 4682SOL    HW225701   5.460   9.767   3.731  0.5982  0.4225  2.1914
 4683SOL     OW25702   6.439   9.349   6.740 -0.4957  0.1158 -0.6394
 4683SOL    HW125703   6.352   9.370   6.694 -0.2885 -0.1367 -1.1419
 4683SOL    HW225704   6.515   9.386   6.687 -0.3483  1.1829  0.2949
 4684SOL     OW25705   0.529   3.851   7.858 -0.2840 -0.7819 -0.2857
 4684SOL    HW125706   0.534   3.753   7.840 -1.0736 -0.9444  0.3386
 4684SOL    HW225707   0.592   3.875   7.932 -0.2489 -0.8589 -0.2911
 4685SOL     OW25708   2.009   7.591   7.572  0.0007  0.4270 -1.0447
 4685SOL    HW125709   2.023   7.657   7.499 -0.2403  2.2913  0.5484
 4685SOL    HW225710   2.098   7.565   7.611  0.0196  0.6774 -0.9211
 4686SOL     OW25711   0.713   5.392   6.614 -0.2408 -0.4817  0.3143
 4686SOL    HW125712   0.809   5.367   6.604  0.4876  2.3434 -0.3164
 4686SOL    HW225713   0.702   5.451   6.694 -1.2565  0.1833 -0.3061
 4687SOL     OW25714   6.836   9.303   6.702  0.3606 -0.7213 -0.0280
 4687SOL    HW125715   6.892   9.318   6.620  0.7231  0.5934  0.4530
 4687SOL    HW225716   6.796   9.211   6.698  1.3269 -1.1138 -1.1058
 4688SOL     OW25717   2.952   9.775   7.265  0.2411 -0.5459  0.1672
 4688SOL    HW125718   2.978   9.830   7.344 -0.0982 -0.2904  0.1043
 4688SOL    HW225719   3.003   9.689   7.265  0.1115 -0.6223  0.7608
 4689SOL     OW25720   0.045   1.238   6.818  0.2720 -0.4967  0.0700
 4689SOL    HW125721   0.130   1.225   6.869  0.3674 -0.0354  0.0353
 4689SOL    HW225722   0.024   1.155   6.768  0.6578 -0.6467  0.1475
 4690SOL     OW25723   9.717   3.959   4.683  0.3855  0.4971  0.1906
 4690SOL    HW125724   9.786   4.004   4.740 -0.0064  0.0195  1.0464
 4690SOL    HW225725   9.640   4.022   4.670  0.8882  0.9538 -0.5954
 4691SOL     OW25726   3.929   9.497   1.101  0.3226 -0.1598 -0.0332
 4691SOL    HW125727   3.942   9.494   1.001  0.2285 -1.9795  0.0009
 4691SOL    HW225728   3.941   9.406   1.139 -4.9194 -0.5389  1.0004
 4692SOL     OW25729   2.381   2.140   6.223 -0.4458 -0.3839 -0.2904
 4692SOL    HW125730   2.466   2.103   6.260  1.6946  3.9051 -0.5214
 4692SOL    HW225731   2.403   2.212   6.156 -4.2277  1.8683  0.7373
 4693SOL     OW25732   9.862   0.811   6.267  0.5815 -0.5327  0.6014
 4693SOL    HW125733   9.779   0.863   6.249 -0.0871 -2.0405 -0.6656
 4693SOL    HW225734   9.920   0.811   6.186  1.1108 -0.8134  0.9754
 4694SOL     OW25735   4.131   7.778   4.517 -0.0008  0.2076 -0.3420
 4694SOL    HW125736   4.046   7.771   4.570  1.9642  2.3263  3.3299
 4694SOL    HW225737   4.182   7.693   4.525 -0.7670 -0.2941 -0.7395
 4695SOL     OW25738   9.831   2.905   5.089  0.5479 -0.0848  0.1542
 4695SOL    HW125739   9.828   2.877   4.993  0.6489 -0.1514  0.1695
 4695SOL    HW225740   9.739   2.903   5.128  0.0620  2.8300 -0.7513
 4696SOL     OW25741   8.196   2.311   1.497  0.2457  0.0510  0.0027
 4696SOL    HW125742   8.143   2.234   1.462 -1.1977  0.2804  1.6399
 4696SOL    HW225743   8.215   2.297   1.594  3.2880 -0.0693 -0.5537
 4697SOL     OW25744   9.318   5.065   2.612  0.7613 -0.5318  0.6016
 4697SOL    HW125745   9.300   5.157   2.648  0.8447 -0.3511  0.1910
 4697SOL    HW225746   9.382   5.018   2.671 -1.6117 -1.4703  2.5101
 4698SOL     OW25747   2.536   3.363   1.527  0.0104 -0.3263  0.2521
 4698SOL    HW125748   2.509   3.460   1.533 -2.2748 -0.8171 -1.5910
 4698SOL    HW225749   2.477   3.316   1.463  1.8736 -2.7335  0.2401
 4699SOL     OW25750   5.100   1.990   0.922 -0.8855 -0.5550  0.3774
 4699SOL    HW125751   5.189   1.963   0.960  0.7690  1.9782 -1.5671
 4699SOL    HW225752   5.035   2.005   0.997  1.2616  0.8023  2.0044
 4700SOL     OW25753   2.936   4.944   0.910 -0.3797 -0.0123 -0.3255
 4700SOL    HW125754   2.860   4.904   0.858 -0.9253  0.5043  0.0582
 4700SOL    HW225755   2.953   5.037   0.877  0.9306 -0.5596 -1.2637
 4701SOL     OW25756   1.449   0.143   4.222 -0.5539 -0.1172  0.1529
 4701SOL    HW125757   1.446   0.171   4.318 -0.1328  0.9231 -0.1297
 4701SOL    HW225758   1.435   0.223   4.163 -0.7472 -0.7371 -0.6484
 4702SOL     OW25759   8.006   9.760   1.423  0.4883 -0.0222  0.0103
 4702SOL    HW125760   7.989   9.852   1.388 -0.9480  0.1052  0.9756
 4702SOL    HW225761   7.980   9.756   1.520  2.2479 -0.9647  0.4635
 4703SOL     OW25762   5.076   2.047   6.965 -0.2247  0.0814 -0.1373
 4703SOL    HW125763   5.050   2.067   6.871  1.0338  0.6926 -0.3723
 4703SOL    HW225764   5.015   2.095   7.028 -1.5036 -0.8864 -0.6260
 4704SOL     OW25765   3.757   2.341   2.544  0.1071  0.1270 -0.0766
 4704SOL    HW125766   3.678   2.384   2.502 -0.4594 -0.9057 -0.0912
 4704SOL    HW225767   3.841   2.379   2.504 -0.3631  1.3996  0.1231
 4705SOL     OW25768   1.658   3.770   6.668 -0.3571 -0.1008 -0.3398
 4705SOL    HW125769   1.692   3.803   6.580 -1.9111 -1.2340 -1.3929
 4705SOL    HW225770   1.623   3.677   6.657  0.7329 -0.7985  1.7986
 4706SOL     OW25771   4.093   7.447   0.957  0.0767  0.5356  0.5333
 4706SOL    HW125772   4.139   7.428   1.043 -1.0872  1.7604  1.4418
 4706SOL    HW225773   4.004   7.488   0.975  0.0295  1.2585 -1.2522
 4707SOL     OW25774   3.099   7.378   0.435  0.3102 -0.2423  0.5787
 4707SOL    HW125775   3.076   7.475   0.431  1.8685  0.1263  0.1737
 4707SOL    HW225776   3.181   7.365   0.490 -0.8293 -1.5336  2.0289
 4708SOL     OW25777   0.455   5.704   7.858 -0.0220 -0.6660  0.1054
 4708SOL    HW125778   0.367   5.665   7.887  0.9470 -1.9344  1.3787
 4708SOL    HW225779   0.470   5.791   7.904 -0.4368 -0.6269  0.1681
 4709SOL     OW25780   2.002   8.937   4.338 -0.1907  0.5714  0.5446
 4709SOL    HW125781   2.102   8.943   4.332 -0.1948  1.0576  0.9146
 4709SOL    HW225782   1.976   8.898   4.426 -0.3238  0.2260  0.3548
 4710SOL     OW25783   0.783   8.506   1.015  0.6610 -0.2814  0.4009
 4710SOL    HW125784   0.761   8.460   1.101 -0.6066  0.3503  0.4238
 4710SOL    HW225785   0.717   8.479   0.945 -0.1519  1.5552  0.4374
 4711SOL     OW25786   7.534   9.699   7.546  0.2546  0.5510  0.0073
 4711SOL    HW125787   7.442   9.704   7.507  0.6896  1.8523 -0.8916
 4711SOL    HW225788   7.546   9.612   7.593 -1.7963  0.8081  1.0371
 4712SOL     OW25789   7.230   4.909   1.184 -0.2620 -0.1048  0.0043
 4712SOL    HW125790   7.152   4.847   1.183 -0.9936  0.8283 -1.4041
 4712SOL    HW225791   7.315   4.856   1.179 -0.8460 -1.0327 -0.2405
 4713SOL     OW25792   3.459   5.657   2.046  0.1179 -0.2410 -0.1152
 4713SOL    HW125793   3.387   5.606   2.094  0.2622 -0.5309 -0.2049
 4713SOL    HW225794   3.501   5.722   2.109  0.8612 -1.1923  0.3889
 4714SOL     OW25795   7.606   6.353   6.720  0.3713  0.0609  0.3719
 4714SOL    HW125796   7.553   6.435   6.699  3.4945  2.1482  0.3985
 4714SOL    HW225797   7.644   6.314   6.636  1.3774  0.4019  0.6587
 4715SOL     OW25798   4.970   2.363   4.753 -0.2254 -0.1483  0.1339
 4715SOL    HW125799   4.989   2.458   4.731  2.7997 -0.7717 -0.1724
 4715SOL    HW225800   4.993   2.305   4.675  0.7962 -1.3921  1.3225
 4716SOL     OW25801   2.473   6.601   6.278  0.5526  0.2301 -0.6112
 4716SOL    HW125802   2.432   6.604   6.369  3.0099 -0.7590  0.5811
 4716SOL    HW225803   2.412   6.645   6.212 -1.5974  0.2974  1.3691
 4717SOL     OW25804   0.074   8.232   7.831 -0.3041  0.3061 -0.1529
 4717SOL    HW125805   0.168   8.223   7.863  0.1249  2.0740 -0.8448
 4717SOL    HW225806   0.019   8.156   7.866  1.1802 -0.2775  0.9561
 4718SOL     OW25807   1.009   8.182   6.117 -0.2731  0.1370  0.2608
 4718SOL    HW125808   1.005   8.085   6.144 -0.9151  0.1156  0.0815
 4718SOL    HW225809   1.102   8.216   6.131 -0.0976 -0.4480  0.5337
 4719SOL     OW25810   2.595   3.227   0.806 -0.3684 -0.4293 -0.5264
 4719SOL    HW125811   2.554   3.136   0.793 -1.4685 -0.0753  0.3785
 4719SOL    HW225812   2.531   3.297   0.774 -0.7284  0.1611  1.4090
 4720SOL     OW25813   8.754   8.808   3.357  0.4920  0.3071  0.8890
 4720SOL    HW125814   8.660   8.844   3.357  0.1710 -0.5090  0.0063
 4720SOL    HW225815   8.768   8.753   3.439  0.0580  0.0891  0.8211
 4721SOL     OW25816   7.487   8.063   8.057 -0.2094  0.0654  0.1370
 4721SOL    HW125817   7.476   8.098   8.150 -0.1311 -0.2095  0.2491
 4721SOL    HW225818   7.578   8.023   8.047 -1.8299 -4.3261  1.4307
 4722SOL     OW25819   8.376   0.322   2.488  0.5430 -0.0442 -0.4172
 4722SOL    HW125820   8.363   0.234   2.534 -0.4024  0.5908  0.5577
 4722SOL    HW225821   8.344   0.314   2.394  0.8708 -0.8738 -0.4664
 4723SOL     OW25822   2.319   9.743   7.540  0.1723  0.0359 -0.2288
 4723SOL    HW125823   2.290   9.794   7.459  0.4383  1.1725  0.3837
 4723SOL    HW225824   2.343   9.650   7.514 -0.3684  0.2046 -1.3543
 4724SOL     OW25825   9.995   4.080   3.965 -0.1791  0.0360 -0.0992
 4724SOL    HW125826   9.956   4.090   4.057 -1.0262 -0.1849 -0.4250
 4724SOL    HW225827   9.923   4.049   3.902  1.0089 -2.5246 -0.2755
 4725SOL     OW25828   6.540   6.653   4.910 -0.2802  0.2232  0.0391
 4725SOL    HW125829   6.606   6.629   4.981 -0.6085 -0.1667  0.2143
 4725SOL    HW225830   6.466   6.708   4.950 -0.2985  0.2698 -0.0596
 4726SOL     OW25831   3.964   3.551   2.460  0.0443  0.2027 -0.6863
 4726SOL    HW125832   4.019   3.585   2.537  1.1349 -1.3736 -0.7198
 4726SOL    HW225833   3.999   3.589   2.374  0.6019 -0.1656 -0.6309
 4727SOL     OW25834   2.671   3.525   2.994  0.6252  0.4931  0.0341
 4727SOL    HW125835   2.666   3.489   3.088  1.3088 -0.5226 -0.3065
 4727SOL    HW225836   2.704   3.619   2.996  0.0624  0.6824  0.8536
 4728SOL     OW25837   7.255   9.164   2.985  0.6563  0.1311 -0.1241
 4728SOL    HW125838   7.187   9.096   3.013 -1.7330  2.5060  0.0584
 4728SOL    HW225839   7.218   9.220   2.911  2.6424  1.0941 -0.4263
 4729SOL     OW25840   0.660   2.772   5.871 -0.2140  0.4507 -0.1046
 4729SOL    HW125841   0.715   2.696   5.834  1.4181  1.1321  0.8810
 4729SOL    HW225842   0.613   2.741   5.954 -1.2300 -0.0852 -0.8609
 4730SOL     OW25843   0.967   3.537   8.140  0.2160 -0.3600  0.3197
 4730SOL    HW125844   1.008   3.628   8.147 -1.8240  0.5659  0.7335
 4730SOL    HW225845   1.037   3.467   8.153  1.8511  1.1491 -0.2210
 4731SOL     OW25846   5.685   7.017   3.439  0.1113  0.5033 -0.2716
 4731SOL    HW125847   5.688   7.111   3.405 -0.8989  0.8942  0.6840
 4731SOL    HW225848   5.777   6.985   3.459  0.4393  1.3831 -0.3670
 4732SOL     OW25849   0.634   8.769   1.051 -0.5581 -0.3795 -0.4810
 4732SOL    HW125850   0.582   8.787   0.967 -0.4966 -1.0962 -0.6716
 4732SOL    HW225851   0.690   8.687   1.039  1.6310  1.1190 -0.7344
 4733SOL     OW25852   0.424   2.401   3.951  0.0623 -0.1827  0.0356
 4733SOL    HW125853   0.356   2.349   3.900 -1.7979 -0.0634  2.3399
 4733SOL    HW225854   0.442   2.488   3.905 -1.5716 -0.0883 -0.4351
 4734SOL     OW25855   1.804   7.215   1.228  0.5075  0.1272 -0.1011
 4734SOL    HW125856   1.878   7.266   1.184  0.6031 -0.3373 -0.4813
 4734SOL    HW225857   1.794   7.126   1.184  0.1994 -0.0996  0.4231
 4735SOL     OW25858   6.415   3.922   1.573 -0.4201 -0.2691 -0.5644
 4735SOL    HW125859   6.495   3.975   1.599 -1.4056  1.5648 -1.1945
 4735SOL    HW225860   6.361   3.973   1.506 -2.0963 -1.4783 -0.1755
 4736SOL     OW25861   9.417   7.699   1.268  0.7736  0.0819  0.3428
 4736SOL    HW125862   9.429   7.727   1.363 -1.5768 -1.4397  1.1261
 4736SOL    HW225863   9.467   7.614   1.252  0.6510  0.0012  0.3885
 4737SOL     OW25864   3.443   8.726   6.225  0.0770 -0.1806 -0.4407
 4737SOL    HW125865   3.431   8.782   6.143  1.0833 -0.9332 -1.1163
 4737SOL    HW225866   3.476   8.783   6.300 -4.0323  1.2008  0.4333
 4738SOL     OW25867   0.412   5.589   4.016  0.5290 -0.0632 -0.1691
 4738SOL    HW125868   0.480   5.517   4.031  0.5010  0.1688  1.1238
 4738SOL    HW225869   0.322   5.554   4.041  0.3543  0.0610 -0.6259
 4739SOL     OW25870   7.544   2.910   0.487  0.2144 -0.0486 -0.5133
 4739SOL    HW125871   7.483   2.965   0.546  0.2142 -1.1205  0.5173
 4739SOL    HW225872   7.626   2.962   0.465 -0.6770  1.0830 -1.1646
 4740SOL     OW25873   9.168   2.288   4.968 -0.8359 -0.0897  0.1231
 4740SOL    HW125874   9.222   2.359   5.014 -1.2296  0.6341 -0.5105
 4740SOL    HW225875   9.225   2.207   4.953  0.0147  0.5934 -0.3593
 4741SOL     OW25876   2.094   6.912   5.086  0.4730  0.6177  0.2454
 4741SOL    HW125877   1.996   6.933   5.086  0.1672 -0.6743 -1.7657
 4741SOL    HW225878   2.117   6.862   5.169 -0.4853  1.2423  0.9097
 4742SOL     OW25879   3.950   1.455   0.372 -0.9316 -0.1952 -0.0153
 4742SOL    HW125880   4.011   1.399   0.315 -1.1915 -0.6956  0.1973
 4742SOL    HW225881   3.857   1.449   0.336 -0.8817  0.4612 -0.2594
 4743SOL     OW25882   7.586   6.725   4.128  0.6676  0.2354 -0.2715
 4743SOL    HW125883   7.643   6.693   4.053 -0.1084 -2.7526  0.3178
 4743SOL    HW225884   7.588   6.658   4.203 -3.1933  0.2138 -0.0374
 4744SOL     OW25885   8.994   1.609   3.743 -0.0861  0.4982  0.1698
 4744SOL    HW125886   9.039   1.698   3.746  0.1511  0.4275 -1.0359
 4744SOL    HW225887   9.046   1.548   3.683 -0.4230 -0.3488  0.7439
 4745SOL     OW25888   3.228   3.257   9.968  0.2229  0.5656 -0.0198
 4745SOL    HW125889   3.189   3.349   9.957  0.1778  0.4249 -1.0868
 4745SOL    HW225890   3.182   3.194   9.906  1.5501  0.2224 -0.6813
 4746SOL     OW25891   4.155   8.388   0.891  0.0128  0.1690 -0.4473
 4746SOL    HW125892   4.146   8.370   0.794  0.6465 -1.7454 -0.1764
 4746SOL    HW225893   4.249   8.370   0.920 -0.6036 -1.1614  0.8631
 4747SOL     OW25894   0.405   6.305   0.035  0.2842  0.3091 -0.3044
 4747SOL    HW125895   0.393   6.306   0.134  0.3841  0.6380 -0.2935
 4747SOL    HW225896   0.323   6.340  -0.009  0.4132  0.6025 -0.3161
 4748SOL     OW25897   3.097   3.870   5.143  0.1994  0.1576  0.3516
 4748SOL    HW125898   3.026   3.817   5.189 -0.6775  0.7912 -0.2487
 4748SOL    HW225899   3.104   3.960   5.186 -0.0916  0.4746 -0.2667
 4749SOL     OW25900   9.553   5.075   1.733  0.5725  0.2257 -0.0513
 4749SOL    HW125901   9.588   4.992   1.690  2.7172  0.9865  0.1473
 4749SOL    HW225902   9.500   5.127   1.666 -1.0935 -1.4412 -0.0770
 4750SOL     OW25903   7.882   6.860   7.686  0.0441  0.2582  0.5640
 4750SOL    HW125904   7.896   6.955   7.659 -3.0639  0.5508 -0.3255
 4750SOL    HW225905   7.825   6.857   7.768 -0.1973 -0.8134  0.3697
 4751SOL     OW25906   2.653   8.656   5.483  0.1128  0.0282 -0.3476
 4751SOL    HW125907   2.572   8.655   5.425  0.5888  3.0873 -1.1794
 4751SOL    HW225908   2.644   8.730   5.550  1.3970 -0.8266  0.7832
 4752SOL     OW25909   0.738   3.926   0.028 -0.4515  0.0562  0.0567
 4752SOL    HW125910   0.835   3.944   0.042  0.0475 -2.3093 -0.0589
 4752SOL    HW225911   0.707   3.970  -0.056  0.4726  0.9746  0.1947
 4753SOL     OW25912   9.756   5.348   5.512  0.3983  0.2532 -0.4550
 4753SOL    HW125913   9.705   5.309   5.435  1.4299  0.0562 -1.0662
 4753SOL    HW225914   9.701   5.346   5.595 -0.3886 -0.4061 -0.9925
 4754SOL     OW25915   6.796   6.430   6.829  0.1696 -0.3861  0.0935
 4754SOL    HW125916   6.751   6.481   6.902  0.5618 -2.2068  1.6406
 4754SOL    HW225917   6.733   6.363   6.791  1.0916 -1.9872  1.3214
 4755SOL     OW25918   0.672   7.267   3.970  0.1613  0.0141 -0.4400
 4755SOL    HW125919   0.623   7.340   4.018  0.0762  0.1123 -0.6753
 4755SOL    HW225920   0.612   7.187   3.961 -0.1448  0.3253 -1.2078
 4756SOL     OW25921   8.149   1.601   2.336  0.4043  0.6142 -0.1694
 4756SOL    HW125922   8.102   1.642   2.258 -2.4781 -0.1474  1.0802
 4756SOL    HW225923   8.087   1.536   2.381  3.0655 -1.2185  0.9606
 4757SOL     OW25924   2.642   1.588   6.596 -0.1501 -0.1805  0.2301
 4757SOL    HW125925   2.641   1.687   6.585 -1.0020 -0.3053 -1.0126
 4757SOL    HW225926   2.632   1.564   6.692  0.5592  0.9441  0.5844
 4758SOL     OW25927   7.787   7.697   1.284  0.0675 -0.0855 -0.3724
 4758SOL    HW125928   7.815   7.735   1.373  2.0413 -1.1021 -0.5367
 4758SOL    HW225929   7.797   7.767   1.214 -0.7702  0.4950  0.0816
 4759SOL     OW25930   8.563   6.972   3.865  0.7452 -0.6878  0.2681
 4759SOL    HW125931   8.468   6.940   3.865  0.2919  0.6052  0.1185
 4759SOL    HW225932   8.577   7.032   3.786  2.3039 -2.6237 -0.9686
 4760SOL     OW25933   9.794   3.789   5.260  0.6862  0.4442  0.0835
 4760SOL    HW125934   9.740   3.860   5.306 -0.6963 -0.6654  0.2007
 4760SOL    HW225935   9.848   3.831   5.187  1.2637  1.8879  1.3253
 4761SOL     OW25936   5.627   2.000   0.820 -0.2457 -0.1730 -0.1541
 4761SOL    HW125937   5.589   2.017   0.729 -2.7353  0.3301  0.9455
 4761SOL    HW225938   5.648   2.087   0.864 -1.0369 -0.3440  0.5620
 4762SOL     OW25939   0.902   1.625   1.700 -0.0825  0.4116  0.1899
 4762SOL    HW125940   0.962   1.693   1.657  0.0178  1.6326  2.1928
 4762SOL    HW225941   0.951   1.582   1.776 -0.2245 -1.7697 -0.9174
 4763SOL     OW25942   2.104   5.364   4.601  0.1909 -0.7990  0.0008
 4763SOL    HW125943   2.172   5.295   4.627  1.9379  1.5407  1.8673
 4763SOL    HW225944   2.129   5.404   4.513  1.0563 -0.2089  0.5057
 4764SOL     OW25945   0.207   9.510   3.009  0.7626  0.3163  0.2761
 4764SOL    HW125946   0.293   9.473   3.042  0.3289 -0.6624  0.3211
 4764SOL    HW225947   0.131   9.469   3.059  0.2952  1.8302  0.8632
 4765SOL     OW25948   2.962   5.440   0.006  0.1697 -0.0282  0.4616
 4765SOL    HW125949   3.026   5.364   0.000 -1.0039 -0.8925 -1.5129
 4765SOL    HW225950   2.878   5.410   0.051  0.1038  0.3941  0.6295
 4766SOL     OW25951   1.492   5.648   6.736 -0.2835 -0.5334  0.6287
 4766SOL    HW125952   1.553   5.638   6.658  0.0606  1.4554  0.6360
 4766SOL    HW225953   1.545   5.665   6.819 -0.8125  0.3656  0.7824
 4767SOL     OW25954   0.202   6.931   2.887 -0.1172  0.4747  0.3863
 4767SOL    HW125955   0.175   6.836   2.872 -0.0542  0.7402 -1.5648
 4767SOL    HW225956   0.234   6.943   2.981 -0.2137 -1.4112  0.6646
 4768SOL     OW25957   2.204   3.581   6.690 -0.2118  0.2336 -0.0357
 4768SOL    HW125958   2.157   3.651   6.744 -1.7076 -0.8854  0.1525
 4768SOL    HW225959   2.201   3.494   6.738 -1.7872 -0.8470 -2.0236
 4769SOL     OW25960   6.012   9.235   6.679 -0.2866 -0.0636 -0.0277
 4769SOL    HW125961   5.936   9.192   6.729 -1.0774 -1.1894 -2.1086
 4769SOL    HW225962   5.977   9.313   6.628  0.2157  0.2156  0.0611
 4770SOL     OW25963   4.761   8.034   3.008  0.2288  0.8981  0.3202
 4770SOL    HW125964   4.686   8.099   3.026 -1.4748 -0.8252 -0.3394
 4770SOL    HW225965   4.793   7.996   3.095 -1.6395 -0.4520  0.4725
 4771SOL     OW25966   8.485   6.787   7.339 -0.1016  0.4868 -0.0918
 4771SOL    HW125967   8.453   6.840   7.417 -0.6341  1.0294 -0.6717
 4771SOL    HW225968   8.502   6.848   7.262 -0.6333 -0.1660 -0.7362
 4772SOL     OW25969   4.935   0.225   5.647 -0.0746  0.0793  0.1863
 4772SOL    HW125970   4.924   0.232   5.746 -0.3115  1.8909  0.0373
 4772SOL    HW225971   4.950   0.129   5.622  2.3732 -0.0998  2.2206
 4773SOL     OW25972   8.749   8.110   2.469 -0.1739 -0.4168  0.1791
 4773SOL    HW125973   8.774   8.150   2.557  1.2820 -0.0035 -0.4229
 4773SOL    HW225974   8.700   8.178   2.414  0.2651 -0.1982  0.0624
 4774SOL     OW25975   7.493   3.614   4.427  0.0975 -0.1013  0.3125
 4774SOL    HW125976   7.584   3.574   4.413  0.0125  0.6128 -2.7391
 4774SOL    HW225977   7.501   3.713   4.433 -0.5050 -0.0076 -0.3441
 4775SOL     OW25978   0.515   0.892   7.048  0.4608  0.8503  0.1097
 4775SOL    HW125979   0.488   0.914   7.142  0.4301  0.9612  0.0744
 4775SOL    HW225980   0.433   0.877   6.993  0.4486  2.1704 -0.2381
 4776SOL     OW25981   3.828   6.805   0.929  0.3101 -0.8032 -0.0049
 4776SOL    HW125982   3.851   6.886   0.875 -0.2935  0.0500  1.0162
 4776SOL    HW225983   3.909   6.775   0.980 -0.4161  1.4605  2.6113
 4777SOL     OW25984   4.611   4.566   1.901 -0.1125  0.6066  0.7876
 4777SOL    HW125985   4.582   4.474   1.875 -0.6916  0.3115  2.3698
 4777SOL    HW225986   4.686   4.596   1.842 -0.8805 -0.2950 -0.6744
 4778SOL     OW25987   1.055   1.766   0.181  0.3502  0.9547  0.7105
 4778SOL    HW125988   0.988   1.697   0.153  0.9514  0.3771  0.6838
 4778SOL    HW225989   1.010   1.835   0.238  0.0129 -0.1194  1.7514
 4779SOL     OW25990   9.835   1.212   7.644  0.0207  0.6311 -0.1901
 4779SOL    HW125991   9.803   1.139   7.705 -1.2107 -0.4911 -2.1290
 4779SOL    HW225992   9.765   1.231   7.575  2.0098  0.7827 -2.2277
 4780SOL     OW25993   9.175   9.223   1.449  0.0120  0.0228  0.7320
 4780SOL    HW125994   9.148   9.208   1.544 -2.2103  0.4915  0.1879
 4780SOL    HW225995   9.258   9.280   1.447  1.0732 -1.4089  2.4135
 4781SOL     OW25996   2.154   9.343   1.926  0.1313  0.5680 -0.2274
 4781SOL    HW125997   2.091   9.396   1.869 -0.1197  0.2332 -0.2616
 4781SOL    HW225998   2.133   9.357   2.022  1.5642  2.3989 -0.1420
 4782SOL     OW25999   2.316   2.420   4.915 -0.0198 -0.0082 -0.8633
 4782SOL    HW126000   2.356   2.332   4.887  2.1506  0.2565  1.2815
 4782SOL    HW226001   2.217   2.409   4.927  0.1183 -1.9713 -1.3811
 4783SOL     OW26002   0.438   6.642   7.464  0.0735 -0.1071 -0.3100
 4783SOL    HW126003   0.530   6.648   7.427  0.0368  1.2578 -0.2247
 4783SOL    HW226004   0.437   6.580   7.543  0.3182 -2.3465 -2.0378
 4784SOL     OW26005   8.236   2.894   0.226 -0.5153  0.1823  0.1351
 4784SOL    HW126006   8.153   2.944   0.199 -1.5124 -1.0670  0.8394
 4784SOL    HW226007   8.248   2.901   0.325  0.0507  0.0986  0.0703
 4785SOL     OW26008   2.325   9.366   3.397  0.2396  0.3634 -0.1076
 4785SOL    HW126009   2.392   9.377   3.471  1.1012 -3.2789 -0.2503
 4785SOL    HW226010   2.235   9.347   3.436  0.8683 -2.4818  0.1122
 4786SOL     OW26011   8.657   1.456   0.194 -0.7362  0.0116  0.2702
 4786SOL    HW126012   8.725   1.462   0.120  1.2475  1.2778  2.1227
 4786SOL    HW226013   8.625   1.361   0.202 -1.0736 -0.1273 -2.2514
 4787SOL     OW26014   9.698   5.448   6.150  0.4590  0.8272  0.0247
 4787SOL    HW126015   9.600   5.455   6.128 -0.1123 -1.3015  1.7008
 4787SOL    HW226016   9.728   5.530   6.198 -0.6609  1.2034  0.0883
 4788SOL     OW26017   7.597   9.336   7.423 -0.3076  0.7665  0.4521
 4788SOL    HW126018   7.523   9.358   7.486 -0.7672  0.6730 -0.0561
 4788SOL    HW226019   7.685   9.357   7.467 -0.6488  1.4093  0.8463
 4789SOL     OW26020   9.499   3.477   2.843  0.2708 -0.3286  0.0858
 4789SOL    HW126021   9.496   3.576   2.855  0.0257 -0.4310  0.8754
 4789SOL    HW226022   9.584   3.441   2.882 -0.7100 -0.7093  1.9397
 4790SOL     OW26023   4.516   9.817   1.242  0.0770 -0.6289 -1.1618
 4790SOL    HW126024   4.526   9.912   1.269 -0.2990 -0.3330 -2.0173
 4790SOL    HW226025   4.425   9.803   1.202  0.2927 -1.2310 -1.4565
 4791SOL     OW26026   5.944   9.451   6.528 -0.2073  0.5773 -0.0995
 4791SOL    HW126027   5.914   9.545   6.538 -0.4684  0.5910 -0.9461
 4791SOL    HW226028   5.898   9.409   6.449 -0.0610 -0.2393  0.2361
 4792SOL     OW26029   4.526   2.962   0.841  0.3803 -0.1994  0.0683
 4792SOL    HW126030   4.576   3.047   0.852 -3.6838  2.4987 -1.1124
 4792SOL    HW226031   4.454   2.956   0.911 -0.7327 -1.6428 -1.1592
 4793SOL     OW26032   0.600   3.011   5.081 -0.3670 -0.1605  0.6146
 4793SOL    HW126033   0.679   3.056   5.122  0.2334 -0.8809  0.2516
 4793SOL    HW226034   0.626   2.920   5.047 -1.8279 -1.2815  2.3822
 4794SOL     OW26035   1.218   3.854   9.873  0.4690  0.4678  0.1584
 4794SOL    HW126036   1.302   3.803   9.856  0.4731  1.1274 -2.0030
 4794SOL    HW226037   1.150   3.794   9.915  0.9005 -1.0144 -1.1934
 4795SOL     OW26038   3.235   8.110   4.795  0.0373 -0.1854 -0.2780
 4795SOL    HW126039   3.272   8.200   4.817 -0.5831  0.5052 -1.9527
 4795SOL    HW226040   3.278   8.076   4.711 -1.4758 -0.3526 -1.0008
 4796SOL     OW26041   9.372   2.033   2.260  0.3528 -0.3580  0.2367
 4796SOL    HW126042   9.332   2.030   2.169  0.2615 -0.1761  0.2709
 4796SOL    HW226043   9.472   2.032   2.253  0.3462 -0.2566  0.1319
 4797SOL     OW26044   0.501   4.147   0.172 -0.4313 -0.6575 -0.1099
 4797SOL    HW126045   0.581   4.166   0.115 -1.3534  1.3410 -0.7791
 4797SOL    HW226046   0.445   4.077   0.128 -0.5769  0.0847 -1.1125
 4798SOL     OW26047   4.447   7.337   1.152 -0.4582 -0.1612  0.8978
 4798SOL    HW126048   4.378   7.407   1.170  0.7231  1.0287  0.8904
 4798SOL    HW226049   4.503   7.364   1.074  0.2830 -0.9108  1.1616
 4799SOL     OW26050   4.331   1.598   0.186 -0.5952  0.1530 -0.3552
 4799SOL    HW126051   4.234   1.606   0.160 -0.9924 -0.6326  0.8944
 4799SOL    HW226052   4.383   1.566   0.107 -1.2137  1.3577 -1.2841
 4800SOL     OW26053   2.373   6.285   7.409 -0.3908  0.6433  0.5661
 4800SOL    HW126054   2.337   6.295   7.317 -0.4200  0.1837  0.5279
 4800SOL    HW226055   2.404   6.374   7.443  1.5781  0.4588 -0.6973
 4801SOL     OW26056   7.582   7.389   2.688  0.1419 -0.2623  0.1073
 4801SOL    HW126057   7.628   7.336   2.617  0.2916 -0.8835  0.6595
 4801SOL    HW226058   7.609   7.485   2.681  1.1135 -0.5321  0.0932
 4802SOL     OW26059   5.539   4.267   1.503  0.0050 -0.6692 -0.1549
 4802SOL    HW126060   5.488   4.353   1.499  2.5572  0.9075 -0.8012
 4802SOL    HW226061   5.575   4.254   1.596  0.2780 -0.6220 -0.2530
 4803SOL     OW26062   5.750   3.195   1.440  0.0711 -0.1289 -0.4815
 4803SOL    HW126063   5.803   3.112   1.421  0.6896  0.0806  0.2795
 4803SOL    HW226064   5.750   3.253   1.359  1.6807  0.2204 -0.2581
 4804SOL     OW26065   0.891   5.403   3.700 -0.2569 -0.0498 -0.3869
 4804SOL    HW126066   0.959   5.335   3.675  0.7284  0.2244  1.4514
 4804SOL    HW226067   0.936   5.489   3.723 -0.8474 -0.9198  4.4730
 4805SOL     OW26068   1.785   7.533   0.993  0.1766 -0.3479  0.2299
 4805SOL    HW126069   1.853   7.598   1.027  0.1793 -1.0997  1.6994
 4805SOL    HW226070   1.727   7.578   0.925  1.8088  0.4419 -0.6911
 4806SOL     OW26071   9.738   3.097   3.695 -0.1092  0.4870 -0.4912
 4806SOL    HW126072   9.740   3.138   3.786 -0.6504  1.3020 -0.8491
 4806SOL    HW226073   9.758   2.999   3.703 -0.1833  0.5443  0.5038
 4807SOL     OW26074   2.965   6.987   5.125 -0.0749  0.3835  0.3955
 4807SOL    HW126075   2.912   6.979   5.210 -1.8970 -0.3328 -0.7699
 4807SOL    HW226076   2.905   7.016   5.051  1.5104  1.0527 -0.6607
 4808SOL     OW26077   2.361   2.286   5.197 -0.3467 -0.9411 -0.4261
 4808SOL    HW126078   2.417   2.204   5.196  1.3908  0.2272 -0.5747
 4808SOL    HW226079   2.383   2.342   5.117 -1.8652 -0.5500 -0.5875
 4809SOL     OW26080   3.551   1.953   4.285 -0.0697 -0.8441  0.4624
 4809SOL    HW126081   3.510   2.040   4.259  1.6762 -0.7149 -1.9350
 4809SOL    HW226082   3.632   1.969   4.341  0.2522 -0.9183  0.0211
 4810SOL     OW26083   3.135   6.009   1.244  0.2704 -0.5827 -0.7351
 4810SOL    HW126084   3.169   6.027   1.152 -1.1583 -0.4462 -1.2423
 4810SOL    HW226085   3.036   6.027   1.248  1.0091  3.7022  1.8773
 4811SOL     OW26086   0.185   8.864   4.437 -0.4336 -0.7162 -0.0687
 4811SOL    HW126087   0.102   8.871   4.382 -0.6696 -1.5729  0.1713
 4811SOL    HW226088   0.166   8.896   4.530  0.3205  2.0539 -0.8147
 4812SOL     OW26089   3.394   2.572   1.659  0.7238 -0.0152 -0.1839
 4812SOL    HW126090   3.441   2.551   1.573 -0.5979 -0.1102 -0.8942
 4812SOL    HW226091   3.307   2.617   1.639  1.3920  1.9345  1.1807
 4813SOL     OW26092   5.593   7.635   3.174 -0.2900  0.0901 -0.5403
 4813SOL    HW126093   5.575   7.729   3.202 -1.6860 -0.1129 -0.7539
 4813SOL    HW226094   5.536   7.612   3.095 -0.7425 -1.2944  0.1763
 4814SOL     OW26095   6.421   7.242   5.046  0.2849  0.1166  0.1545
 4814SOL    HW126096   6.323   7.232   5.065  0.0934  2.9541  0.9538
 4814SOL    HW226097   6.433   7.302   4.967  1.3933 -0.4756 -0.1349
 4815SOL     OW26098   1.576   3.862   4.749  0.1997 -0.1976 -0.8836
 4815SOL    HW126099   1.659   3.855   4.803  0.9916  1.0198 -1.9274
 4815SOL    HW226100   1.584   3.802   4.669 -0.2133 -0.5864 -0.6403
 4816SOL     OW26101   8.586   2.396   2.179 -0.3468  0.2643 -0.2828
 4816SOL    HW126102   8.529   2.464   2.225 -0.4123  0.2103 -0.2852
 4816SOL    HW226103   8.576   2.407   2.080  0.3878  0.8837 -0.2967
 4817SOL     OW26104   6.234   7.750   4.229  0.0302 -0.6002 -0.0201
 4817SOL    HW126105   6.281   7.667   4.259  1.0462 -0.1635 -0.3648
 4817SOL    HW226106   6.300   7.824   4.220 -0.8427  0.2066  0.1177
 4818SOL     OW26107   9.237   4.943   0.347  0.0613  0.4346 -0.5451
 4818SOL    HW126108   9.176   4.866   0.331 -1.7039  1.5731  0.6247
 4818SOL    HW226109   9.265   4.945   0.443 -0.2818  1.5187 -0.4631
 4819SOL     OW26110   7.993   5.514   3.873  0.0776 -0.3105 -0.6019
 4819SOL    HW126111   8.004   5.518   3.972 -2.0141  0.7697 -0.3889
 4819SOL    HW226112   7.924   5.581   3.844 -0.5046 -1.7253 -2.5985
 4820SOL     OW26113   4.561   7.394   5.258 -0.3974  0.4568 -0.8226
 4820SOL    HW126114   4.648   7.437   5.235 -0.5904  1.0577 -0.4190
 4820SOL    HW226115   4.503   7.392   5.177 -0.8856  2.1252 -0.5193
 4821SOL     OW26116   4.903   1.571   0.896  0.2715  0.2075 -0.2801
 4821SOL    HW126117   4.841   1.645   0.868  0.1446  0.4551  0.6184
 4821SOL    HW226118   4.989   1.611   0.930  0.2953 -0.0655 -0.0164
 4822SOL     OW26119   4.186   3.208  10.036  0.2958 -0.6961 -0.0345
 4822SOL    HW126120   4.253   3.150   9.990 -0.3325 -2.9834  1.8520
 4822SOL    HW226121   4.225   3.242  10.122 -0.2973 -0.4918  0.1545
 4823SOL     OW26122   9.454   0.351   6.682  0.0374 -0.1151 -0.5116
 4823SOL    HW126123   9.436   0.349   6.584 -0.4551 -0.5054 -0.4184
 4823SOL    HW226124   9.459   0.446   6.713  3.8735  0.0874 -1.5499
 4824SOL     OW26125   6.022   0.725   4.529  0.3777 -0.6798  0.1735
 4824SOL    HW126126   6.091   0.724   4.601  1.6227 -1.4119 -0.9890
 4824SOL    HW226127   5.984   0.817   4.519  0.4435 -0.4978  1.5065
 4825SOL     OW26128   2.443   8.219   4.000  0.2838  0.1705  0.1115
 4825SOL    HW126129   2.512   8.161   4.044 -1.7655 -3.0540 -0.7347
 4825SOL    HW226130   2.387   8.263   4.070 -2.4803 -4.3233  0.8888
 4826SOL     OW26131   2.202   2.640   1.869 -0.0542  0.2152 -0.3250
 4826SOL    HW126132   2.192   2.554   1.819  0.1921  1.2428 -2.1773
 4826SOL    HW226133   2.296   2.649   1.901 -0.5422 -1.0748  1.5178
 4827SOL     OW26134   5.033   0.211   7.035  0.0927  0.4430  0.3888
 4827SOL    HW126135   5.008   0.243   6.944  0.2592  0.5624  0.3858
 4827SOL    HW226136   5.074   0.286   7.087 -1.2493  0.7576  1.0306
 4828SOL     OW26137   9.558   7.309   5.632  0.2029 -0.3404  0.3364
 4828SOL    HW126138   9.492   7.343   5.699 -0.0233  1.7408 -0.8890
 4828SOL    HW226139   9.651   7.321   5.668 -0.0029 -1.4331  1.2421
 4829SOL     OW26140   9.906   6.893   2.702  0.4073 -0.3439  0.0262
 4829SOL    HW126141   9.887   6.796   2.684 -0.3163 -0.2772  0.3979
 4829SOL    HW226142   9.894   6.911   2.800 -0.0605  0.2531 -0.1372
 4830SOL     OW26143   4.342   9.844   2.736 -0.3473 -0.6593 -0.1612
 4830SOL    HW126144   4.265   9.834   2.799 -0.9998 -0.1305 -0.8713
 4830SOL    HW226145   4.418   9.890   2.783 -0.3800 -1.3713  0.6009
 4831SOL     OW26146   3.067   4.954   5.965 -0.2348 -0.1693  0.3757
 4831SOL    HW126147   3.123   5.007   5.903 -0.3210  0.4629  0.8343
 4831SOL    HW226148   2.980   5.001   5.981 -1.2832 -1.5493 -1.0141
 4832SOL     OW26149   9.140   9.024   0.387  0.0944 -0.1174  0.3144
 4832SOL    HW126150   9.056   9.006   0.438  1.5066 -0.1161  2.7411
 4832SOL    HW226151   9.139   9.117   0.353 -1.7802 -0.7687 -1.4796
 4833SOL     OW26152   9.504   2.260   6.179 -0.1994  0.2473 -0.0014
 4833SOL    HW126153   9.418   2.304   6.152  0.0477 -0.0887 -1.3898
 4833SOL    HW226154   9.493   2.160   6.174  0.0901  0.1933  0.4088
 4834SOL     OW26155   9.451   8.366   1.800  1.0396  0.6718  0.1441
 4834SOL    HW126156   9.399   8.340   1.719  0.0115  1.4214  0.5439
 4834SOL    HW226157   9.546   8.338   1.790  0.1361 -2.6992  0.3193
 4835SOL     OW26158   9.360   5.447   7.351 -0.4372 -0.0641 -0.1988
 4835SOL    HW126159   9.290   5.393   7.399 -0.9079  0.6520 -0.0803
 4835SOL    HW226160   9.424   5.385   7.306 -0.8190 -0.7321  0.1666
 4836SOL     OW26161   8.540   6.997   2.771 -0.0665  0.0784 -0.5307
 4836SOL    HW126162   8.444   7.025   2.762 -0.1739 -0.4737 -1.1226
 4836SOL    HW226163   8.547   6.898   2.760  0.7710  0.3005 -2.1142
 4837SOL     OW26164   8.900   6.141   4.826  0.0609 -0.0008  0.6752
 4837SOL    HW126165   8.841   6.221   4.815  0.1254 -0.0130  0.2406
 4837SOL    HW226166   8.973   6.144   4.757  1.5519  0.8882  2.2455
 4838SOL     OW26167   2.132   2.278   6.238 -0.1061  0.1175  0.0021
 4838SOL    HW126168   2.074   2.197   6.242 -0.8848  0.6224 -0.7455
 4838SOL    HW226169   2.222   2.254   6.202  0.1363 -0.6629  1.1154
 4839SOL     OW26170   9.327   8.806   5.702  0.0187 -0.7478 -0.3437
 4839SOL    HW126171   9.396   8.771   5.639  1.9388  1.3428  0.5409
 4839SOL    HW226172   9.292   8.893   5.667 -1.1862 -1.1187 -0.0882
 4840SOL     OW26173   2.253   0.747   1.731  0.1150 -0.1654 -0.2933
 4840SOL    HW126174   2.192   0.671   1.756 -1.6005  1.0702 -0.6235
 4840SOL    HW226175   2.276   0.740   1.634 -1.6308  0.7797 -0.8088
 4841SOL     OW26176   2.602   6.893   4.990  0.9412 -0.7972  0.7483
 4841SOL    HW126177   2.603   6.805   5.039 -0.3262 -1.9303 -1.2183
 4841SOL    HW226178   2.548   6.959   5.042 -1.8149 -2.4766  0.1407
 4842SOL     OW26179   2.828   1.632   4.949  0.2677  0.5912  0.1858
 4842SOL    HW126180   2.865   1.545   4.915  1.3223  1.1076 -0.0056
 4842SOL    HW226181   2.819   1.697   4.873 -1.4720  0.3335  0.1482
 4843SOL     OW26182   1.323   5.983   7.223 -0.2790  0.2367 -0.1707
 4843SOL    HW126183   1.358   5.951   7.312  2.8703 -0.4649 -1.5856
 4843SOL    HW226184   1.352   5.919   7.151 -0.8320  2.0185 -2.0104
 4844SOL     OW26185   8.743   2.305   4.470  0.1590 -0.4218  0.4627
 4844SOL    HW126186   8.839   2.313   4.497  0.2079 -0.3845  0.2770
 4844SOL    HW226187   8.723   2.211   4.443  0.5538 -0.0665 -1.0752
 4845SOL     OW26188   0.281   9.943   0.922 -0.3857 -0.2803  0.2870
 4845SOL    HW126189   0.289   9.963   0.825  1.3591  0.7414  0.6012
 4845SOL    HW226190   0.224  10.012   0.966 -1.1561 -0.7304 -0.0089
 4846SOL     OW26191   8.452   9.097   1.576 -0.1915 -0.0713 -0.1323
 4846SOL    HW126192   8.489   9.171   1.520  0.6324  0.2041  0.7594
 4846SOL    HW226193   8.519   9.023   1.582  1.0801  1.2327  3.0487
 4847SOL     OW26194   6.575   1.076   6.892  0.2624 -0.0641  0.1516
 4847SOL    HW126195   6.481   1.057   6.919  0.4016 -0.5567  0.2978
 4847SOL    HW226196   6.584   1.172   6.868 -0.5887 -0.3294 -1.2234
 4848SOL     OW26197   8.508   0.342   4.816  0.3574 -0.4751 -0.0343
 4848SOL    HW126198   8.551   0.309   4.732  0.0571  0.4183 -0.5459
 4848SOL    HW226199   8.522   0.276   4.890 -0.2971 -1.7708 -1.0610
 4849SOL     OW26200   3.657   9.957   7.834  0.3605  0.5929  0.2919
 4849SOL    HW126201   3.587  10.013   7.791 -0.4871 -0.6495  0.0184
 4849SOL    HW226202   3.694  10.004   7.914 -0.6013  1.3691  0.2809
 4850SOL     OW26203   0.975   1.150   1.328  0.4041 -0.1397  0.1856
 4850SOL    HW126204   0.933   1.105   1.250 -2.8158 -0.1540  1.8725
 4850SOL    HW226205   0.932   1.239   1.342  1.3647  0.1195  1.6116
 4851SOL     OW26206   2.694   9.956   1.428 -0.2283  0.0488  0.2020
 4851SOL    HW126207   2.726   9.906   1.509  2.1982  0.2850 -0.5730
 4851SOL    HW226208   2.706  10.054   1.442 -1.0273  0.1710  0.0578
 4852SOL     OW26209   3.707   8.785   1.543 -0.4127  0.1601 -0.1720
 4852SOL    HW126210   3.672   8.719   1.609 -0.9661 -1.8596 -2.4380
 4852SOL    HW226211   3.634   8.849   1.518 -0.4411  0.3904  0.4693
 4853SOL     OW26212   2.942   2.428   2.225  0.1604 -0.0130  0.1125
 4853SOL    HW126213   3.023   2.483   2.242 -0.5874  1.0874  0.1684
 4853SOL    HW226214   2.861   2.477   2.257 -0.4785 -1.3387  0.5694
 4854SOL     OW26215   2.209   8.874   1.025  0.0051  0.6424  0.0218
 4854SOL    HW126216   2.215   8.930   1.107  2.4598 -1.2076  1.1928
 4854SOL    HW226217   2.203   8.932   0.945 -1.3097  2.5009  1.4274
 4855SOL     OW26218   8.220   9.117   2.603 -0.2659 -0.0247 -0.2894
 4855SOL    HW126219   8.131   9.162   2.595 -0.4671 -0.1537  1.0875
 4855SOL    HW226220   8.206   9.023   2.635  0.3942  0.1402  0.4995
 4856SOL     OW26221   1.833   4.254   0.250 -0.0643 -0.2701 -0.2275
 4856SOL    HW126222   1.792   4.165   0.228 -2.5387  0.4247  1.3200
 4856SOL    HW226223   1.895   4.244   0.328 -0.3839 -0.6495 -0.0177
 4857SOL     OW26224   3.809   9.170   8.209  0.3284  0.0765 -0.4662
 4857SOL    HW126225   3.810   9.252   8.151 -2.0878  0.7393  0.3689
 4857SOL    HW226226   3.853   9.094   8.160 -0.0592  1.0979 -2.4399
 4858SOL     OW26227   1.692   7.405   6.800  0.3432  1.0552  0.3893
 4858SOL    HW126228   1.646   7.316   6.801  0.5967  0.9239  0.3471
 4858SOL    HW226229   1.738   7.420   6.888  0.0836  1.2585  0.4923
 4859SOL     OW26230   4.126   3.109   6.259  0.5881 -0.1594 -0.0635
 4859SOL    HW126231   4.044   3.066   6.296 -0.1357 -0.5131 -2.0339
 4859SOL    HW226232   4.103   3.199   6.221  1.3819  0.3351  0.5754
 4860SOL     OW26233   7.074   7.921   2.155 -0.3661 -0.0595  0.0329
 4860SOL    HW126234   7.174   7.921   2.156 -0.3591  1.1723  0.5455
 4860SOL    HW226235   7.041   7.992   2.092 -0.9164 -0.6456 -0.3427
 4861SOL     OW26236   7.991   7.871   2.635 -0.1894 -0.4069 -0.0367
 4861SOL    HW126237   8.035   7.787   2.603  2.2380  0.1849  1.5815
 4861SOL    HW226238   8.004   7.943   2.568 -0.1006 -0.6632 -0.2942
 4862SOL     OW26239   1.485   5.663   5.077 -0.0351  0.2465 -0.6995
 4862SOL    HW126240   1.580   5.692   5.087 -0.1625  1.1446 -2.0556
 4862SOL    HW226241   1.474   5.572   5.116  1.6582 -0.3682 -1.6117
 4863SOL     OW26242   5.724   2.185   4.776  0.2224 -0.2263  0.4010
 4863SOL    HW126243   5.791   2.252   4.746 -0.2572  0.2667  0.4163
 4863SOL    HW226244   5.633   2.226   4.776  0.2748  0.0199  3.1898
 4864SOL     OW26245   3.759   6.712   1.322 -0.0309  0.1910  0.0153
 4864SOL    HW126246   3.770   6.809   1.303  1.6764 -0.1596 -0.8538
 4864SOL    HW226247   3.668   6.696   1.361 -0.6091  2.0245 -0.5231
 4865SOL     OW26248   9.989   8.935   0.075 -0.1749  0.4232 -0.1952
 4865SOL    HW126249   9.961   8.848   0.033 -1.1350  0.6678 -0.0825
 4865SOL    HW226250   9.952   9.011   0.022 -0.8511  0.7400  0.7013
 4866SOL     OW26251   1.734   4.446   2.239 -0.1288  0.2019  0.3153
 4866SOL    HW126252   1.743   4.541   2.209  0.0204 -0.0545 -0.4396
 4866SOL    HW226253   1.700   4.389   2.164  2.2967 -0.8286 -0.0437
 4867SOL     OW26254   4.735   8.675   8.379 -0.1199  0.5012 -0.6617
 4867SOL    HW126255   4.767   8.596   8.432 -1.0342  0.3042 -0.3853
 4867SOL    HW226256   4.810   8.740   8.367 -0.0734  0.8907  1.5070
 4868SOL     OW26257   1.142   2.861   4.493 -0.6402  0.2365  0.2194
 4868SOL    HW126258   1.220   2.864   4.555 -0.6954  0.7647  0.2711
 4868SOL    HW226259   1.068   2.808   4.535 -0.2061 -0.5196  0.0439
 4869SOL     OW26260   0.209   4.560   1.645  0.5802 -0.4043  1.1145
 4869SOL    HW126261   0.254   4.472   1.635  0.1570 -0.2880 -2.3497
 4869SOL    HW226262   0.116   4.546   1.681  0.4518 -1.4043  0.4132
 4870SOL     OW26263   4.538   3.123   7.018 -0.4696 -0.3785  0.8405
 4870SOL    HW126264   4.471   3.049   7.011  0.9664 -1.5857 -0.4933
 4870SOL    HW226265   4.617   3.092   7.070  0.2645  0.1064  0.0301
 4871SOL     OW26266   0.825   3.770   9.884  0.5947 -0.1102 -0.1460
 4871SOL    HW126267   0.794   3.781   9.979  0.7925  1.0063 -0.2035
 4871SOL    HW226268   0.752   3.799   9.822  0.1405 -1.6738 -0.3556
 4872SOL     OW26269   3.868   4.275   3.471  0.3711 -0.7217 -0.1989
 4872SOL    HW126270   3.945   4.303   3.413  0.5322  1.5283  1.0406
 4872SOL    HW226271   3.903   4.250   3.562 -0.2638 -0.4245  0.1305
 4873SOL     OW26272   1.365   5.447   5.280  0.5860 -0.7509  0.3993
 4873SOL    HW126273   1.394   5.354   5.300 -1.7195 -1.5693  0.0997
 4873SOL    HW226274   1.265   5.453   5.285  0.6964  1.7053  0.4310
 4874SOL     OW26275   4.013   8.560   1.272  0.0654  0.5697  0.1978
 4874SOL    HW126276   3.941   8.512   1.322 -0.5766  1.0949 -0.2021
 4874SOL    HW226277   4.077   8.602   1.337 -0.1440  0.3323  0.5592
 4875SOL     OW26278   5.382   1.984   0.966 -0.8094  0.2654  0.4037
 4875SOL    HW126279   5.452   1.934   0.915 -1.8836  0.3034 -1.1555
 4875SOL    HW226280   5.411   2.078   0.979 -0.6825  0.3663 -0.5198
 4876SOL     OW26281   1.692   6.098   4.613  0.0289  0.2281  0.1473
 4876SOL    HW126282   1.667   6.017   4.666  1.2317  0.4932  1.1351
 4876SOL    HW226283   1.734   6.070   4.527  3.0565 -0.2646  1.7039
 4877SOL     OW26284   8.457   4.747   4.673  0.1965 -0.2860  1.1804
 4877SOL    HW126285   8.394   4.669   4.664 -1.2858  1.0195  0.0594
 4877SOL    HW226286   8.545   4.714   4.707  1.0101 -3.1515 -3.3321
 4878SOL     OW26287   8.868   2.729   4.798 -0.0643  0.3022  0.2635
 4878SOL    HW126288   8.809   2.652   4.820 -0.1267  0.2262 -0.1539
 4878SOL    HW226289   8.816   2.796   4.744  0.1556  0.3569  0.1153
 4879SOL     OW26290   5.110   7.034   2.368 -0.7214 -0.2715  0.3333
 4879SOL    HW126291   5.198   7.012   2.410  0.5628 -0.9068 -2.5596
 4879SOL    HW226292   5.081   7.126   2.398  1.1278  0.1304  0.9665
 4880SOL     OW26293   5.680   1.231   6.339 -0.5339 -0.2891 -0.1806
 4880SOL    HW126294   5.685   1.171   6.259 -0.7808  0.2892 -0.6276
 4880SOL    HW226295   5.607   1.298   6.327 -0.4693 -0.1001  0.4582
 4881SOL     OW26296   9.226   3.778   4.122 -0.0466  0.1038  0.2296
 4881SOL    HW126297   9.142   3.734   4.155 -0.7980  0.6410 -0.9242
 4881SOL    HW226298   9.264   3.724   4.047 -1.1317  1.5544 -1.3876
 4882SOL     OW26299   4.460   8.888   3.684 -0.3461  0.8541 -0.3318
 4882SOL    HW126300   4.437   8.857   3.591  1.1125  1.2643 -0.8448
 4882SOL    HW226301   4.391   8.953   3.716 -0.3885  1.3871 -1.4804
 4883SOL     OW26302   8.285   2.914   1.489 -0.1683 -0.2145 -0.2280
 4883SOL    HW126303   8.313   2.972   1.565  1.8075 -1.4627  0.0372
 4883SOL    HW226304   8.336   2.939   1.407 -0.0885 -0.8850 -0.3825
 4884SOL     OW26305   7.364   7.109   5.281 -0.0635 -0.4622  0.3662
 4884SOL    HW126306   7.404   7.139   5.193 -0.6198 -1.3669 -0.1973
 4884SOL    HW226307   7.360   7.009   5.283 -0.6060 -0.4228  1.1820
 4885SOL     OW26308   0.859   4.340   0.337  0.4011 -0.3534  0.4257
 4885SOL    HW126309   0.895   4.409   0.275 -0.2286 -1.1900 -0.8901
 4885SOL    HW226310   0.861   4.250   0.292 -0.1767 -0.9474  1.5650
 4886SOL     OW26311   3.209   3.435   3.699 -0.1878  0.8912 -0.2878
 4886SOL    HW126312   3.231   3.527   3.733 -2.0282  2.1200 -2.2526
 4886SOL    HW226313   3.111   3.429   3.681  0.1550 -0.9492 -1.7142
 4887SOL     OW26314   5.956   0.551   6.858  0.2815 -0.4190 -0.1148
 4887SOL    HW126315   5.946   0.452   6.856  0.9499 -0.5072  0.9339
 4887SOL    HW226316   5.883   0.592   6.912 -0.4237 -0.2736 -1.1584
 4888SOL     OW26317   5.556   8.858   1.277 -0.4534 -0.3309  0.0104
 4888SOL    HW126318   5.475   8.908   1.245 -0.6237  0.4337  1.5665
 4888SOL    HW226319   5.628   8.864   1.207 -0.8074  1.2893 -0.2589
 4889SOL     OW26320   1.006   1.649   3.342  0.5454  0.2098  0.2323
 4889SOL    HW126321   1.013   1.747   3.321  0.7754  0.2004  0.2632
 4889SOL    HW226322   1.049   1.596   3.269 -0.5207  0.0856 -0.3014
 4890SOL     OW26323   6.451   5.383   6.728 -0.3506  0.2838  0.1222
 4890SOL    HW126324   6.543   5.409   6.760  1.0024 -1.0387 -2.5357
 4890SOL    HW226325   6.428   5.436   6.646 -2.4330  1.3251  1.3291
 4891SOL     OW26326   9.118   8.926   2.458  0.1940 -0.0401  0.1826
 4891SOL    HW126327   9.132   8.907   2.555  2.2195  0.4734  0.0160
 4891SOL    HW226328   9.150   8.848   2.404 -1.0462 -0.3780 -0.0857
 4892SOL     OW26329   4.464   0.716   7.525  0.0886  0.2737  0.5150
 4892SOL    HW126330   4.552   0.716   7.573  0.5241  1.9314 -0.2790
 4892SOL    HW226331   4.480   0.704   7.427 -0.7492 -2.1640  0.6512
 4893SOL     OW26332   8.109   8.093   3.465  0.1344 -0.2204  0.3700
 4893SOL    HW126333   8.012   8.096   3.486  0.3154 -0.8850  1.3007
 4893SOL    HW226334   8.133   8.172   3.409 -0.6141  0.8098  1.4806
 4894SOL     OW26335   4.140   5.803   2.214 -0.3728  0.0986 -0.3295
 4894SOL    HW126336   4.169   5.778   2.122 -0.8825  0.9160 -0.7148
 4894SOL    HW226337   4.046   5.837   2.212 -0.2648  0.4704  0.4329
 4895SOL     OW26338   2.976   7.751   4.567 -0.2092 -0.6727 -0.0478
 4895SOL    HW126339   2.964   7.843   4.530 -0.3701 -1.0066 -0.8560
 4895SOL    HW226340   3.025   7.755   4.654  0.2361  0.1285 -0.3358
 4896SOL     OW26341   7.804   4.236   3.052  0.3770 -0.0694  0.0991
 4896SOL    HW126342   7.841   4.162   2.995 -1.4662 -1.1175  0.2145
 4896SOL    HW226343   7.704   4.231   3.051  0.0561  4.6187 -2.7491
 4897SOL     OW26344   1.679   8.617   6.667  0.6773  0.2427  0.2735
 4897SOL    HW126345   1.726   8.678   6.732  0.8668  0.2578  0.1236
 4897SOL    HW226346   1.716   8.631   6.575 -0.1720  0.8217  0.0123
 4898SOL     OW26347   2.068   9.932   9.707 -0.2466  0.1848 -0.1203
 4898SOL    HW126348   2.129   9.952   9.630 -0.2045 -0.7785 -0.3357
 4898SOL    HW226349   2.090   9.993   9.783 -0.2429  1.1006 -0.8380
 4899SOL     OW26350   1.928   9.541   3.886 -0.0314 -0.2948 -0.0740
 4899SOL    HW126351   1.928   9.636   3.856  2.7145  0.5719  2.4213
 4899SOL    HW226352   1.891   9.535   3.979 -1.2257 -1.8641 -0.6106
 4900SOL     OW26353   8.424   8.725   7.093  0.3442  0.0326  0.5294
 4900SOL    HW126354   8.329   8.751   7.073  0.6251  0.1313 -0.7312
 4900SOL    HW226355   8.427   8.675   7.180 -1.0005 -0.8034  0.1203
 4901SOL     OW26356   2.551   9.482   2.135 -0.4860  0.9624  0.9496
 4901SOL    HW126357   2.582   9.415   2.203  1.3734  0.7627 -0.0535
 4901SOL    HW226358   2.571   9.574   2.168  0.1587  0.8765  0.8108
 4902SOL     OW26359   8.193   5.311   4.287 -0.2595 -0.1616  0.0827
 4902SOL    HW126360   8.269   5.321   4.351  0.2410  1.4136 -0.7296
 4902SOL    HW226361   8.108   5.297   4.338 -0.2717  3.6504  1.2220
 4903SOL     OW26362   8.227   3.110   2.001 -0.0783 -0.0071  0.1677
 4903SOL    HW126363   8.132   3.097   2.029 -0.0819  3.4983  1.9692
 4903SOL    HW226364   8.286   3.054   2.058 -0.8005  0.2770  1.2051
 4904SOL     OW26365   5.542   0.916   4.814  0.7336  0.0397 -0.1041
 4904SOL    HW126366   5.544   0.817   4.800  0.0503 -0.1750  1.2025
 4904SOL    HW226367   5.577   0.962   4.733  1.2271 -1.2811 -0.6549
 4905SOL     OW26368   3.576   3.812   3.590 -0.1204  0.1773 -0.7809
 4905SOL    HW126369   3.606   3.907   3.593 -1.6740  0.6275  1.0758
 4905SOL    HW226370   3.502   3.802   3.523 -1.0353  0.5887  0.1706
 4906SOL     OW26371   0.565   4.403   0.249  0.3981  0.0674  0.1027
 4906SOL    HW126372   0.518   4.316   0.231  2.0401 -0.5600 -1.2318
 4906SOL    HW226373   0.661   4.396   0.222  1.1895  1.4929  2.3684
 4907SOL     OW26374   8.698   1.644   3.789  0.7403 -0.1904  0.2703
 4907SOL    HW126375   8.798   1.646   3.783  0.8596 -0.7164  2.0273
 4907SOL    HW226376   8.660   1.705   3.719  2.2395 -0.9393 -1.2568
 4908SOL     OW26377   0.878   0.649   5.307 -0.1819  0.2420 -0.1330
 4908SOL    HW126378   0.852   0.609   5.395  2.2685 -1.8277 -0.3037
 4908SOL    HW226379   0.877   0.749   5.314 -1.2838  0.1180  1.8468
 4909SOL     OW26380   1.209   1.426   2.109 -0.8490  0.1393  0.1708
 4909SOL    HW126381   1.204   1.438   2.208  1.9395 -0.2821  0.4155
 4909SOL    HW226382   1.183   1.332   2.085 -1.0656  0.1017  0.5550
 4910SOL     OW26383   9.531   7.644   5.981 -0.0515 -0.1818  0.0439
 4910SOL    HW126384   9.522   7.663   6.079 -0.3346 -0.0877  0.0006
 4910SOL    HW226385   9.598   7.706   5.941 -1.9781  1.6775 -0.3756
 4911SOL     OW26386   8.181   6.978   6.525 -0.1561  0.2707 -0.2096
 4911SOL    HW126387   8.240   7.043   6.477  0.0883  0.3846  0.2405
 4911SOL    HW226388   8.126   7.027   6.593 -0.7448  0.1595 -0.6068
 4912SOL     OW26389   7.081   7.164   2.257 -0.0765  0.6520 -0.4764
 4912SOL    HW126390   6.988   7.139   2.284  0.1605  1.2329  0.9278
 4912SOL    HW226391   7.139   7.083   2.256 -0.3406  0.4597 -0.2966
 4913SOL     OW26392   3.410   8.012   6.393  0.3018 -0.3964 -0.5976
 4913SOL    HW126393   3.418   8.103   6.433 -0.5241 -0.6772  0.2226
 4913SOL    HW226394   3.438   8.015   6.297  1.3806  0.4844 -0.2733
 4914SOL     OW26395   8.224   2.768   2.824 -0.1322 -0.4602  0.3383
 4914SOL    HW126396   8.218   2.736   2.918  0.1751 -1.0451  0.1621
 4914SOL    HW226397   8.278   2.852   2.820 -0.7724 -0.0302  0.7788
 4915SOL     OW26398   6.015   6.971   5.825 -0.6450  0.1789 -0.2223
 4915SOL    HW126399   5.983   6.999   5.735 -0.7436 -0.1448 -0.2864
 4915SOL    HW226400   6.005   7.048   5.889  2.1362  1.3706 -1.1526
 4916SOL     OW26401   0.109   2.804   3.077  0.3300 -0.2008  0.8299
 4916SOL    HW126402   0.054   2.724   3.053  0.9747 -0.2237 -0.6095
 4916SOL    HW226403   0.107   2.870   3.001  2.9919 -0.5869  0.3891
 4917SOL     OW26404   4.213   1.357   7.258 -0.6955 -0.4957  0.4110
 4917SOL    HW126405   4.245   1.410   7.179 -3.3632 -1.1915 -1.2119
 4917SOL    HW226406   4.288   1.344   7.322  1.2359  1.1156 -1.4481
 4918SOL     OW26407   7.828   4.032   6.790 -0.6949 -0.1655 -0.0488
 4918SOL    HW126408   7.773   4.080   6.722  0.0102 -0.9363 -1.1683
 4918SOL    HW226409   7.866   4.098   6.855 -0.9984  0.6175 -0.6659
 4919SOL     OW26410   2.180   1.778   1.823 -0.1607 -1.0789  0.1086
 4919SOL    HW126411   2.205   1.861   1.773 -1.0006 -1.6976 -1.3859
 4919SOL    HW226412   2.083   1.782   1.848  0.5900 -0.1204  3.0267
 4920SOL     OW26413   9.348   0.858   4.428 -0.4771 -0.4264 -0.2208
 4920SOL    HW126414   9.446   0.864   4.444 -0.3952 -0.9425 -0.5097
 4920SOL    HW226415   9.327   0.896   4.338 -0.8115  1.5866  0.6902
 4921SOL     OW26416   0.055   4.857   4.681 -0.1282  0.0781 -0.4171
 4921SOL    HW126417   0.007   4.783   4.633 -0.3364  1.6755 -2.7982
 4921SOL    HW226418   0.153   4.835   4.687 -0.3094 -0.7348 -0.4168
 4922SOL     OW26419   8.516   2.638   3.297  0.4079  0.4561 -0.2185
 4922SOL    HW126420   8.606   2.597   3.314 -0.5198 -0.5025  2.7908
 4922SOL    HW226421   8.448   2.565   3.289 -0.5419  1.2437  0.5272
 4923SOL     OW26422   2.676   7.111   1.239 -0.5690 -0.1761  0.1469
 4923SOL    HW126423   2.684   7.034   1.302 -3.3936 -2.0537 -1.6745
 4923SOL    HW226424   2.585   7.151   1.246 -0.8958 -0.3020 -2.5102
 4924SOL     OW26425   2.110   2.940   8.021 -0.3169  1.1751 -0.0262
 4924SOL    HW126426   2.190   2.952   7.961  0.4750  2.8793  1.3191
 4924SOL    HW226427   2.096   2.843   8.039  2.1512  0.9134  0.6336
 4925SOL     OW26428   6.417   0.231   1.865 -0.3429  0.1014 -0.3778
 4925SOL    HW126429   6.355   0.296   1.821 -0.4839 -0.7327 -1.4168
 4925SOL    HW226430   6.506   0.274   1.878 -0.2315  0.2949 -1.6848
 4926SOL     OW26431   6.612   9.775   1.838 -0.2651  0.4735 -0.2232
 4926SOL    HW126432   6.694   9.717   1.841 -0.7293 -0.1642  0.0877
 4926SOL    HW226433   6.598   9.807   1.745 -0.2714 -0.2922 -0.4911
 4927SOL     OW26434   9.564   2.646   1.489 -0.0865 -0.0639 -0.4540
 4927SOL    HW126435   9.596   2.622   1.398  1.0172  0.8662 -0.3206
 4927SOL    HW226436   9.610   2.729   1.520 -2.0901  0.9117  0.0329
 4928SOL     OW26437   8.219   3.405   1.971  0.3871 -0.6959  0.0846
 4928SOL    HW126438   8.183   3.324   1.925  1.9020 -1.1352 -0.3366
 4928SOL    HW226439   8.230   3.479   1.904 -1.6123  0.0989  0.5842
 4929SOL     OW26440   0.325   9.488   1.777  0.1878 -0.1024  0.1454
 4929SOL    HW126441   0.387   9.557   1.815  0.7121 -0.0590 -0.7490
 4929SOL    HW226442   0.360   9.397   1.797  1.3833 -0.0694 -1.6531
 4930SOL     OW26443   7.760   0.972   5.877  0.0804 -0.0983 -0.2681
 4930SOL    HW126444   7.739   1.035   5.802 -1.0560 -1.3609 -1.0408
 4930SOL    HW226445   7.719   0.883   5.858 -0.1984 -0.4526  1.8450
 4931SOL     OW26446   9.347   2.479   7.517  0.5613  0.3001 -0.0416
 4931SOL    HW126447   9.259   2.450   7.555  0.6666  2.9637  2.4347
 4931SOL    HW226448   9.334   2.563   7.464  1.5148  0.3822 -0.1457
 4932SOL     OW26449   8.906   1.304   4.514 -0.0046 -0.4344  0.4322
 4932SOL    HW126450   8.905   1.387   4.570  1.1594 -0.6704  0.8096
 4932SOL    HW226451   8.859   1.322   4.428 -1.1751  0.1380  1.1870
 4933SOL     OW26452   2.883   7.321   1.732  0.1939 -0.3732 -0.0364
 4933SOL    HW126453   2.812   7.380   1.693 -0.4573 -0.5048  0.9083
 4933SOL    HW226454   2.875   7.321   1.832  2.3524  0.6215  0.1586
 4934SOL     OW26455   3.841   3.361   1.938 -0.2272  0.4398  0.1267
 4934SOL    HW126456   3.747   3.329   1.945 -0.3510  0.8997  0.6547
 4934SOL    HW226457   3.904   3.289   1.970 -0.2234 -0.7838 -2.5085
 4935SOL     OW26458   6.097   1.152   1.644  0.1937 -0.1209  0.3903
 4935SOL    HW126459   6.020   1.169   1.582  1.0345 -0.0701 -0.6659
 4935SOL    HW226460   6.148   1.073   1.611 -0.0073 -0.7991  1.6783
 4936SOL     OW26461   6.775   9.833   4.697 -0.0356  0.0922 -0.1499
 4936SOL    HW126462   6.812   9.907   4.753 -2.6515 -0.3830  2.3352
 4936SOL    HW226463   6.814   9.746   4.725 -0.0663  0.0544 -0.2206
 4937SOL     OW26464   9.801   3.664   1.280  0.5716 -0.6193  0.0196
 4937SOL    HW126465   9.753   3.606   1.346  0.7229 -0.4067  0.3199
 4937SOL    HW226466   9.735   3.723   1.233  0.6023  0.1393  0.8997
 4938SOL     OW26467   8.380   2.550   2.284  0.3893 -0.7644  0.2205
 4938SOL    HW126468   8.325   2.467   2.283  1.6860 -1.6230  0.1074
 4938SOL    HW226469   8.346   2.611   2.356 -1.7002 -0.6024 -0.8638
 4939SOL     OW26470   0.966   9.267   4.018  0.3035 -0.1559 -0.3350
 4939SOL    HW126471   0.936   9.180   4.058  1.4080 -0.3800  0.0363
 4939SOL    HW226472   0.953   9.340   4.085  0.2093 -0.1877 -0.3181
 4940SOL     OW26473   5.254   4.452   0.561  0.4847 -0.0278 -0.0995
 4940SOL    HW126474   5.161   4.446   0.524  0.4488  2.1183 -0.4152
 4940SOL    HW226475   5.251   4.494   0.651  1.0064 -1.5258  0.6395
 4941SOL     OW26476   3.470   5.962   2.863  0.3212  0.2337  0.2285
 4941SOL    HW126477   3.465   6.061   2.847  0.0126  0.1241 -0.3732
 4941SOL    HW226478   3.378   5.922   2.853  0.6762 -0.3236 -0.9940
 4942SOL     OW26479   1.214   8.429   0.814  0.0100  0.0642 -0.1028
 4942SOL    HW126480   1.147   8.432   0.888 -1.7320  0.7649 -1.7021
 4942SOL    HW226481   1.257   8.518   0.804  0.3729 -0.0775  0.1460
 4943SOL     OW26482   0.899   0.504   0.838  1.1654  0.0535  0.1288
 4943SOL    HW126483   0.860   0.543   0.755 -0.4155  0.2204  0.9400
 4943SOL    HW226484   0.888   0.568   0.914 -0.2185 -1.3614  1.1607
 4944SOL     OW26485   3.592   2.623   5.522 -0.2057 -0.2238  0.3304
 4944SOL    HW126486   3.507   2.674   5.520 -0.1697 -0.0960  1.3948
 4944SOL    HW226487   3.635   2.634   5.612 -0.0924 -1.9348  0.5106
 4945SOL     OW26488   3.342   2.241   6.130 -0.0606 -0.1503  0.6296
 4945SOL    HW126489   3.261   2.267   6.183 -0.6327  0.3933 -0.4937
 4945SOL    HW226490   3.384   2.323   6.091 -0.2806 -0.6392 -0.6645
 4946SOL     OW26491   4.120   2.433   7.220  0.1913  0.3745  0.5117
 4946SOL    HW126492   4.099   2.521   7.262  0.1258  0.9242 -0.6524
 4946SOL    HW226493   4.218   2.426   7.203  0.1013  0.5160 -0.0578
 4947SOL     OW26494   1.277   0.945   2.347  0.6210  0.2460 -0.4392
 4947SOL    HW126495   1.287   0.965   2.445 -2.5727 -2.0113  0.4076
 4947SOL    HW226496   1.315   0.854   2.329 -1.1722 -0.4405 -0.7760
 4948SOL     OW26497   9.104   8.492   6.404  0.1577  0.7006 -0.1619
 4948SOL    HW126498   9.160   8.513   6.325 -0.2893  1.1944 -0.3457
 4948SOL    HW226499   9.034   8.562   6.416  0.4792  0.8555  0.9115
 4949SOL     OW26500   6.877   5.243   2.519  1.2310  0.2752 -0.2964
 4949SOL    HW126501   6.955   5.240   2.456  1.7886  2.4114  0.2439
 4949SOL    HW226502   6.848   5.338   2.531  0.1484 -0.2568  1.4720
 4950SOL     OW26503   3.934   5.457   5.658 -0.1289 -0.3631  0.3014
 4950SOL    HW126504   4.021   5.411   5.679  1.4755 -0.0930 -4.9183
 4950SOL    HW226505   3.953   5.550   5.628 -2.5582  0.6285  1.7309
 4951SOL     OW26506   1.035   6.125   0.561 -0.1040 -0.1247  0.5287
 4951SOL    HW126507   0.969   6.064   0.603 -1.6900  1.8443  0.9593
 4951SOL    HW226508   1.033   6.214   0.607  2.0713  0.3116 -0.1593
 4952SOL     OW26509   2.067   9.869   4.128 -0.0543  0.3464  0.4433
 4952SOL    HW126510   2.145   9.865   4.065 -0.0343  0.0731  0.4857
 4952SOL    HW226511   2.093   9.919   4.210 -0.2839  1.3047 -0.0543
 4953SOL     OW26512   7.211   9.758   8.570 -0.4499  0.0987 -0.4731
 4953SOL    HW126513   7.190   9.843   8.522 -1.0582 -0.3769 -1.0691
 4953SOL    HW226514   7.148   9.687   8.540  1.2537 -1.0511 -1.3688
 4954SOL     OW26515   6.830   2.257   3.372  0.3923  0.0866 -0.0867
 4954SOL    HW126516   6.855   2.247   3.275  1.1166 -0.3481  0.1437
 4954SOL    HW226517   6.908   2.235   3.429  0.6264  2.4419  0.5620
 4955SOL     OW26518   7.930   2.526   6.816  0.6380  0.1568 -0.0436
 4955SOL    HW126519   7.914   2.476   6.731  3.2816 -0.2750 -0.3318
 4955SOL    HW226520   7.878   2.611   6.815  1.8751  0.9393 -2.8253
 4956SOL     OW26521   9.563   3.353   0.028  0.1252  0.0787 -0.9185
 4956SOL    HW126522   9.542   3.301  -0.055  0.6081 -1.9409  0.1918
 4956SOL    HW226523   9.598   3.291   0.098 -0.4973  1.7156  0.8867
 4957SOL     OW26524   2.590   5.705   3.493 -0.5207  0.6386 -0.1924
 4957SOL    HW126525   2.561   5.656   3.576 -0.8079  1.1508  0.0144
 4957SOL    HW226526   2.651   5.647   3.440 -0.9441  0.0079 -0.0070
 4958SOL     OW26527   0.331   4.365   2.723 -0.0215 -0.2267  0.5596
 4958SOL    HW126528   0.315   4.366   2.822  1.8925  1.4085  0.8914
 4958SOL    HW226529   0.415   4.314   2.704  0.6715  1.1142 -0.0323
 4959SOL     OW26530   6.716   8.973   7.006 -0.2913  0.2232 -0.0565
 4959SOL    HW126531   6.688   9.069   7.013 -2.4882 -0.4388  0.2672
 4959SOL    HW226532   6.767   8.960   6.920 -1.1556  1.3794 -0.7628
 4960SOL     OW26533   6.156   9.547   8.615  0.5533 -0.3739  0.6483
 4960SOL    HW126534   6.200   9.484   8.679 -1.3725 -2.1522  0.2745
 4960SOL    HW226535   6.202   9.542   8.526  1.1619 -0.3420  0.9575
 4961SOL     OW26536   4.834   5.261   4.176 -0.5905  0.4316 -0.4625
 4961SOL    HW126537   4.795   5.352   4.191 -1.0442  0.1276  0.2535
 4961SOL    HW226538   4.818   5.205   4.257  2.0904  0.5613  0.1970
 4962SOL     OW26539   9.998   7.238   3.234 -0.2224  0.5656  0.1209
 4962SOL    HW126540   9.977   7.314   3.173  2.0171  0.8081 -0.4158
 4962SOL    HW226541  10.049   7.272   3.313  0.3037 -0.2918  0.1556
 4963SOL     OW26542   6.853   8.809   3.922  0.0782  0.5389  0.4303
 4963SOL    HW126543   6.861   8.871   3.844  2.2639 -1.2997 -0.8591
 4963SOL    HW226544   6.914   8.731   3.910  0.0817 -0.0619  3.7603
 4964SOL     OW26545   2.269   6.239   4.071 -0.2090  0.1031  0.3869
 4964SOL    HW126546   2.346   6.218   4.131  1.5724  0.9150 -1.5163
 4964SOL    HW226547   2.231   6.328   4.094 -0.0672  0.0452  0.8345
 4965SOL     OW26548   2.920   2.298   5.561 -0.7005  0.0206  0.2475
 4965SOL    HW126549   2.871   2.296   5.649 -0.7889  0.5178  0.2114
 4965SOL    HW226550   2.982   2.220   5.556 -1.5332 -0.6590  0.2673
 4966SOL     OW26551   0.145   2.122   6.707  0.2564  0.4517 -0.1617
 4966SOL    HW126552   0.188   2.078   6.629  1.7333 -0.5055  1.1421
 4966SOL    HW226553   0.052   2.087   6.718  0.3540 -0.0701 -0.9514
 4967SOL     OW26554   2.312   4.362   3.259 -0.5064  0.6270 -0.1979
 4967SOL    HW126555   2.307   4.435   3.191 -0.0480 -0.8152 -1.8299
 4967SOL    HW226556   2.377   4.387   3.330 -0.7136  2.0028 -0.4759
 4968SOL     OW26557   2.263   8.677   5.891  1.0826  0.0488 -0.1499
 4968SOL    HW126558   2.223   8.650   5.803  2.0950 -0.0438 -0.5922
 4968SOL    HW226559   2.204   8.744   5.935 -0.4657 -1.3980  0.0447
 4969SOL     OW26560   8.481   0.613   0.306 -0.8597  1.0373 -0.0541
 4969SOL    HW126561   8.415   0.687   0.293  0.4049  1.7230 -2.8964
 4969SOL    HW226562   8.570   0.653   0.331 -0.4343  0.4057 -0.5674
 4970SOL     OW26563   9.967   1.985   1.880 -0.1838 -0.0445  0.1813
 4970SOL    HW126564  10.031   2.031   1.941 -0.1514 -1.0176  0.8861
 4970SOL    HW226565   9.968   1.887   1.898 -0.8727 -0.2260 -0.7344
 4971SOL     OW26566   8.193   5.253   3.996 -0.4220 -0.0841  0.3405
 4971SOL    HW126567   8.103   5.288   3.967 -1.0042 -0.5934  1.5170
 4971SOL    HW226568   8.187   5.221   4.090  1.5691  1.8503  1.1474
 4972SOL     OW26569   2.348   5.446   5.516  0.1844 -0.1757  0.0775
 4972SOL    HW126570   2.398   5.381   5.458 -1.3560  1.2570 -3.0176
 4972SOL    HW226571   2.335   5.531   5.465  2.3056  2.6851  4.1015
 4973SOL     OW26572   4.460   3.368   7.442  0.3929 -0.1726  0.4429
 4973SOL    HW126573   4.531   3.299   7.430  0.4730  0.1583 -1.1900
 4973SOL    HW226574   4.376   3.324   7.474  1.1273 -0.6618  1.7337
 4974SOL     OW26575   1.621   3.736   7.018 -0.9182 -0.4375 -0.7383
 4974SOL    HW126576   1.658   3.684   6.942 -0.2869 -1.1141  0.0200
 4974SOL    HW226577   1.522   3.747   7.006 -0.7805 -0.2905 -1.7898
 4975SOL     OW26578   4.360   0.985   4.320 -0.1067 -0.6712 -0.4184
 4975SOL    HW126579   4.372   1.043   4.401 -0.7982 -0.3694 -0.5335
 4975SOL    HW226580   4.282   1.017   4.267 -0.5490 -1.7756 -0.4384
 4976SOL     OW26581   0.551   7.315   6.211  0.1567 -0.4165  0.1106
 4976SOL    HW126582   0.556   7.215   6.200 -2.2524 -0.7143  1.4948
 4976SOL    HW226583   0.535   7.338   6.306 -2.8178  1.1415 -0.7199
 4977SOL     OW26584   4.415   1.325   4.150 -0.3717 -0.0156 -0.5381
 4977SOL    HW126585   4.436   1.409   4.100  1.5918 -1.2357 -1.7893
 4977SOL    HW226586   4.316   1.308   4.145 -0.2902  0.0961 -3.7134
 4978SOL     OW26587   3.418   5.722   3.382  0.1937  0.0843  0.0966
 4978SOL    HW126588   3.343   5.684   3.327  0.3474 -0.2264  0.1018
 4978SOL    HW226589   3.394   5.718   3.479 -0.2980  1.1183  0.0143
 4979SOL     OW26590   7.875   8.875   2.057 -0.4101  0.0840 -0.0726
 4979SOL    HW126591   7.894   8.804   2.125 -1.0008 -2.2548 -2.2598
 4979SOL    HW226592   7.819   8.947   2.098 -0.6583 -1.2055  1.9164
 4980SOL     OW26593   5.024   2.659   4.677  0.5423 -0.2581  0.1788
 4980SOL    HW126594   5.123   2.648   4.674  0.4039 -1.9037  1.2428
 4980SOL    HW226595   4.998   2.711   4.758  0.6135  1.2109 -0.7286
 4981SOL     OW26596   9.117   6.257   4.366 -0.1739  0.1151 -0.0416
 4981SOL    HW126597   9.157   6.208   4.287 -2.6606  1.9868 -2.5605
 4981SOL    HW226598   9.050   6.198   4.411  0.7407 -0.7089  0.2681
 4982SOL     OW26599   8.518   5.734   3.528  0.3919 -0.2591  0.2365
 4982SOL    HW126600   8.422   5.706   3.540  0.7589 -1.2885  0.8930
 4982SOL    HW226601   8.563   5.734   3.618  0.7341  1.2286  0.0613
 4983SOL     OW26602   3.112   7.476   6.513  0.1886 -0.4847  0.3276
 4983SOL    HW126603   3.143   7.405   6.576  0.0084  0.4981  1.5595
 4983SOL    HW226604   3.184   7.497   6.448  1.0483 -0.2667  1.3391
 4984SOL     OW26605   0.228   8.959   0.231  0.0990  0.3694  0.3435
 4984SOL    HW126606   0.223   9.021   0.310 -0.6856  1.6625 -0.7118
 4984SOL    HW226607   0.139   8.953   0.187  0.0710 -1.8259  0.6427
 4985SOL     OW26608   0.623   5.211   2.179  0.2800  0.3268 -0.0915
 4985SOL    HW126609   0.567   5.186   2.100  1.2886  0.5390 -0.9054
 4985SOL    HW226610   0.626   5.311   2.187  0.6461  0.3207 -0.1389
 4986SOL     OW26611   1.097   6.223   0.321  0.3063  0.2719 -1.0669
 4986SOL    HW126612   1.056   6.314   0.318  0.2375  0.2623 -0.3752
 4986SOL    HW226613   1.074   6.178   0.407  0.5152 -0.3215 -1.3147
 4987SOL     OW26614   5.413   2.248   1.049  0.2338 -0.0679 -0.6252
 4987SOL    HW126615   5.466   2.218   1.129 -2.7598 -0.3368  1.3270
 4987SOL    HW226616   5.382   2.342   1.062 -1.0666 -0.4296 -1.0616
 4988SOL     OW26617   1.472   5.901   4.959 -0.3704 -0.1886  0.1144
 4988SOL    HW126618   1.469   5.811   5.002 -0.9393  0.4536  1.4718
 4988SOL    HW226619   1.484   5.971   5.029 -0.3273  0.8281 -0.8855
 4989SOL     OW26620   0.156   8.658   0.117 -0.0243 -0.2845 -0.4899
 4989SOL    HW126621   0.195   8.747   0.142 -0.4010 -0.0782 -0.6314
 4989SOL    HW226622   0.087   8.671   0.046  0.2969 -0.7520 -0.8884
 4990SOL     OW26623   4.669   1.752   0.859 -0.1258  0.1748 -0.0801
 4990SOL    HW126624   4.631   1.711   0.777  0.3211 -0.6936  0.1360
 4990SOL    HW226625   4.620   1.718   0.939 -0.5383  0.9909  0.0141
 4991SOL     OW26626   1.938   7.873   5.737  0.0775  0.2994 -0.9744
 4991SOL    HW126627   2.033   7.849   5.757  0.0645  1.3004  0.3209
 4991SOL    HW226628   1.933   7.917   5.648  1.0201  1.4595 -0.4555
 4992SOL     OW26629   9.279   4.233  10.081 -0.4760 -0.4812  0.4974
 4992SOL    HW126630   9.378   4.218  10.083 -0.2674 -0.6593 -4.2785
 4992SOL    HW226631   9.232   4.150  10.111  0.8204 -1.7639 -0.9343
 4993SOL     OW26632   7.731   8.012   7.575  0.0577  0.0066 -0.1969
 4993SOL    HW126633   7.750   7.944   7.505 -1.0208  0.7725 -1.2616
 4993SOL    HW226634   7.792   7.999   7.653  2.4776  0.2087 -2.0046
 4994SOL     OW26635   5.793   1.921   6.040  0.1520  0.0258 -0.1564
 4994SOL    HW126636   5.816   1.960   5.951 -1.2819  1.3137 -0.0002
 4994SOL    HW226637   5.700   1.884   6.037  0.8312 -1.7498  0.2454
 4995SOL     OW26638   8.558   2.920   5.703 -0.0893 -0.1654  0.5424
 4995SOL    HW126639   8.642   2.875   5.731 -0.6192  0.0347  2.5542
 4995SOL    HW226640   8.479   2.867   5.735 -0.7201  1.7087  2.2697
 4996SOL     OW26641   3.245   6.055   5.073 -0.5420 -0.2587  0.2016
 4996SOL    HW126642   3.191   6.005   5.005 -1.0866  0.8243 -0.1653
 4996SOL    HW226643   3.187   6.076   5.152  0.2042 -1.9095  1.2138
 4997SOL     OW26644   3.498   8.628   3.534 -0.3113  0.1037 -0.1006
 4997SOL    HW126645   3.510   8.563   3.459 -0.8947  1.0237 -1.0155
 4997SOL    HW226646   3.400   8.642   3.551 -0.1831  0.0939  0.6575
 4998SOL     OW26647   5.543   8.869   2.004 -0.3220 -0.2366  0.0382
 4998SOL    HW126648   5.581   8.955   2.035  1.2382 -1.2160  0.9078
 4998SOL    HW226649   5.617   8.807   1.978 -1.4596 -0.8800 -1.7721
 4999SOL     OW26650   8.006   7.633   3.896 -0.0210  0.3426 -0.1170
 4999SOL    HW126651   7.911   7.611   3.876  0.2586 -1.7338  0.7072
 4999SOL    HW226652   8.059   7.633   3.812 -0.4670  0.0462 -0.3979
 5000SOL     OW26653   9.361   7.900   0.266 -0.2924 -0.1112 -0.7979
 5000SOL    HW126654   9.386   7.959   0.343 -0.9939  0.2058 -0.8049
 5000SOL    HW226655   9.348   7.957   0.184 -1.6876 -0.1846 -0.6358
 5001SOL     OW26656   8.739   4.334   2.967  0.2457 -0.0748  0.1286
 5001SOL    HW126657   8.733   4.428   2.933  0.4292 -0.0526  0.1572
 5001SOL    HW226658   8.647   4.295   2.975  0.0947  0.4589  1.1263
 5002SOL     OW26659   7.992   5.910   3.718 -0.0583 -0.2356 -0.1367
 5002SOL    HW126660   8.001   6.009   3.707  1.8089 -0.5271 -1.4837
 5002SOL    HW226661   7.997   5.866   3.628  2.5570 -1.7870  0.7234
 5003SOL     OW26662   4.661   5.567   3.118  0.6323  0.1520 -0.1606
 5003SOL    HW126663   4.561   5.573   3.121  0.5938 -0.6777  0.2961
 5003SOL    HW226664   4.696   5.639   3.059 -0.3949 -0.9847 -2.2367
 5004SOL     OW26665   7.635   5.263   1.145  0.7634  0.3038 -0.0400
 5004SOL    HW126666   7.540   5.291   1.136  0.8655  0.5012 -0.5277
 5004SOL    HW226667   7.641   5.186   1.209  0.3675  0.7472  0.5354
 5005SOL     OW26668   6.425   0.474   1.575  0.1112  0.1906 -0.8735
 5005SOL    HW126669   6.468   0.500   1.662  0.9866 -0.9766 -0.9506
 5005SOL    HW226670   6.445   0.544   1.506 -2.8751  2.5528  0.5201
 5006SOL     OW26671   4.379   7.784   3.984 -0.0831 -0.9063 -0.0866
 5006SOL    HW126672   4.406   7.697   3.944 -0.4674 -0.1246 -2.1218
 5006SOL    HW226673   4.351   7.847   3.912 -2.4688 -0.0061  1.5383
 5007SOL     OW26674   3.527   7.775   0.210 -0.0577 -0.3744 -0.1608
 5007SOL    HW126675   3.581   7.819   0.138 -0.3663 -1.8085 -1.2985
 5007SOL    HW226676   3.513   7.839   0.285  1.7935  0.5595 -0.5965
 5008SOL     OW26677   1.864   6.106   6.412 -0.3157 -0.2567  0.3763
 5008SOL    HW126678   1.913   6.038   6.358 -1.1810 -1.6352  1.3075
 5008SOL    HW226679   1.823   6.062   6.492 -0.7451  1.3912  1.0799
 5009SOL     OW26680   5.749   6.626   0.978  0.2055 -0.0633 -0.5668
 5009SOL    HW126681   5.816   6.667   0.916  1.0088  0.0248  0.3403
 5009SOL    HW226682   5.753   6.527   0.973  0.4325 -0.0577 -0.4808
 5010SOL     OW26683   1.206   1.501   4.771 -0.0884 -0.4120  0.1142
 5010SOL    HW126684   1.208   1.571   4.699  0.6588 -0.6806 -0.1366
 5010SOL    HW226685   1.273   1.430   4.750  2.4712  1.1257  2.7107
 5011SOL     OW26686   4.641   6.243   4.369  0.5442  0.1992 -0.3688
 5011SOL    HW126687   4.622   6.241   4.271  3.0794  2.7721 -0.9492
 5011SOL    HW226688   4.560   6.277   4.418 -0.5820 -0.6928 -1.5596
 5012SOL     OW26689   0.311   5.351   3.473 -0.0352  0.2528 -0.5982
 5012SOL    HW126690   0.217   5.348   3.438 -0.4135 -1.3929  0.5131
 5012SOL    HW226691   0.374   5.318   3.402 -0.5581 -0.9709 -0.5014
 5013SOL     OW26692   3.681   1.277   7.379  0.0481 -0.1813 -0.0345
 5013SOL    HW126693   3.774   1.313   7.367  0.0333  0.0296  0.4544
 5013SOL    HW226694   3.616   1.354   7.383 -0.4785 -0.4108 -3.0070
 5014SOL     OW26695   3.364   3.315   5.242 -0.1607  0.7567  0.4760
 5014SOL    HW126696   3.339   3.220   5.259  0.7391  0.8249  2.2982
 5014SOL    HW226697   3.287   3.374   5.268 -0.1189  0.6302  0.8928
 5015SOL     OW26698   7.990   3.339   5.074  0.1637  0.3734 -0.5020
 5015SOL    HW126699   8.034   3.326   4.985  1.0897  0.4651 -0.0696
 5015SOL    HW226700   7.966   3.250   5.113 -0.0474  0.3218 -0.7545
 5016SOL     OW26701   8.660   5.878   4.563  0.0675 -0.5377 -0.1345
 5016SOL    HW126702   8.739   5.829   4.526  1.2959  0.7697  0.7002
 5016SOL    HW226703   8.676   5.976   4.556 -1.1270 -0.2638  0.8422
 5017SOL     OW26704   3.606   8.191   6.681 -0.4070  0.4703  0.3744
 5017SOL    HW126705   3.527   8.219   6.626 -1.0521 -1.0072  0.5230
 5017SOL    HW226706   3.685   8.176   6.621 -0.9838 -0.6820 -0.1222
 5018SOL     OW26707   1.862   0.713   4.852  0.6571 -0.2320  0.1364
 5018SOL    HW126708   1.780   0.670   4.892  1.9818 -0.2851  2.8962
 5018SOL    HW226709   1.940   0.651   4.861  1.0202 -0.2845 -2.6984
 5019SOL     OW26710   4.973   4.914   4.956  0.2213 -0.0971 -0.4291
 5019SOL    HW126711   5.023   4.989   5.000 -3.0512  0.8585  1.8414
 5019SOL    HW226712   4.916   4.951   4.883 -1.2116 -0.3555  0.5320
 5020SOL     OW26713   9.580   7.368   2.582  0.3392 -0.2054  0.5521
 5020SOL    HW126714   9.672   7.341   2.612  0.9411  0.6939 -0.4401
 5020SOL    HW226715   9.537   7.425   2.652 -0.1591 -2.0477  1.7836
 5021SOL     OW26716   7.085   9.121   8.131  0.4104 -0.4154 -0.1897
 5021SOL    HW126717   7.015   9.147   8.197  1.5782 -1.5013  1.5425
 5021SOL    HW226718   7.092   9.021   8.128 -0.5117 -0.4367 -2.9419
 5022SOL     OW26719   2.179   3.036   7.019  0.3116 -0.0150  0.0828
 5022SOL    HW126720   2.240   2.988   6.956 -0.0529 -0.3800  0.0104
 5022SOL    HW226721   2.219   3.034   7.111  0.6822  0.2373 -0.0672
 5023SOL     OW26722   0.396   1.871   2.105  0.2488  0.5240 -0.5026
 5023SOL    HW126723   0.378   1.868   2.007  0.6499  2.0564 -0.6460
 5023SOL    HW226724   0.490   1.842   2.123  0.0453 -0.1603 -0.5174
 5024SOL     OW26725   7.205   9.546   2.297  0.4795  0.6046  0.2677
 5024SOL    HW126726   7.254   9.528   2.382 -1.7403  1.7689  1.8407
 5024SOL    HW226727   7.205   9.644   2.279  1.1476  0.3361 -1.2205
 5025SOL     OW26728   1.254   9.928   2.256 -0.2617  0.2060  0.5470
 5025SOL    HW126729   1.289   9.906   2.347 -0.9397  0.8178  0.9598
 5025SOL    HW226730   1.288  10.017   2.227 -0.3821  0.1996  0.3836
 5026SOL     OW26731   7.513   7.601   1.255 -0.1333  0.3179  0.1150
 5026SOL    HW126732   7.462   7.670   1.306 -1.3107  0.8263 -1.7318
 5026SOL    HW226733   7.609   7.628   1.249 -0.0832  0.5385  1.5255
 5027SOL     OW26734   3.339   1.468   2.338  0.7227 -0.5830 -0.9194
 5027SOL    HW126735   3.341   1.568   2.330  3.7143 -0.5985 -0.6670
 5027SOL    HW226736   3.264   1.432   2.281  0.5499  1.6779 -2.1787
 5028SOL     OW26737   3.680   7.771   2.451  0.1076  0.1445  0.3316
 5028SOL    HW126738   3.637   7.827   2.380  0.0781 -1.3037 -0.8009
 5028SOL    HW226739   3.611   7.745   2.519 -0.4162 -0.5571 -0.4531
 5029SOL     OW26740   4.545   5.241   3.409 -0.1213  0.2311  0.0580
 5029SOL    HW126741   4.497   5.257   3.323  0.8467 -0.4336 -0.6321
 5029SOL    HW226742   4.596   5.323   3.435 -1.3221  0.8073  0.5970
 5030SOL     OW26743   1.107   7.541   1.527 -0.4558 -0.3175 -1.0319
 5030SOL    HW126744   1.194   7.561   1.573 -1.0061  0.2384 -0.2216
 5030SOL    HW226745   1.032   7.582   1.579 -1.2225 -0.9813 -1.6104
 5031SOL     OW26746   4.402   8.892   1.723  0.4202 -0.7191  0.8537
 5031SOL    HW126747   4.310   8.871   1.757  0.2988 -0.3627  0.7490
 5031SOL    HW226748   4.434   8.977   1.763 -0.4119  0.5902 -1.1845
 5032SOL     OW26749   7.439   3.374   3.206  0.1749 -0.0398  0.8248
 5032SOL    HW126750   7.535   3.401   3.198  0.2557  0.0191  1.8960
 5032SOL    HW226751   7.383   3.430   3.145  0.9254 -0.6668 -0.4504
 5033SOL     OW26752   9.753   5.351   6.927 -0.6683 -0.0233 -0.1467
 5033SOL    HW126753   9.843   5.335   6.968 -0.5873  1.2043  0.1460
 5033SOL    HW226754   9.763   5.414   6.850 -1.3760  0.6017  0.2769
 5034SOL     OW26755   3.640   8.269   2.944 -0.1639  0.3100 -0.2838
 5034SOL    HW126756   3.689   8.332   2.884  0.3443 -0.0529 -0.2481
 5034SOL    HW226757   3.703   8.230   3.011 -0.5552  0.0606 -0.0592
 5035SOL     OW26758   7.937   6.613   1.428 -0.7288  0.5132  0.4616
 5035SOL    HW126759   7.867   6.598   1.357 -0.1918  0.0399  0.0253
 5035SOL    HW226760   7.922   6.701   1.472 -0.9059  0.9226 -0.4204
 5036SOL     OW26761   9.275   9.580   2.435 -0.2632 -0.3586  0.3625
 5036SOL    HW126762   9.201   9.557   2.372 -0.3246  1.3108 -0.2030
 5036SOL    HW226763   9.296   9.677   2.427  1.2792 -0.6035  1.2892
 5037SOL     OW26764   6.638   9.853   1.588  1.2644 -0.1493  0.5924
 5037SOL    HW126765   6.715   9.875   1.529  1.7622 -0.8031  0.9944
 5037SOL    HW226766   6.552   9.873   1.541  1.6753  0.4209  0.0829
 5038SOL     OW26767   6.424   8.619   3.806  1.1576 -0.9139  0.0968
 5038SOL    HW126768   6.497   8.681   3.833  0.1409  0.4100 -0.1559
 5038SOL    HW226769   6.373   8.590   3.888  0.0573  0.6010 -0.0239
 5039SOL     OW26770   3.642   2.536   4.723 -0.5798 -0.9617 -0.0226
 5039SOL    HW126771   3.650   2.524   4.624 -0.7399  1.1199 -0.3072
 5039SOL    HW226772   3.545   2.542   4.747 -0.5926 -2.6801  0.4388
 5040SOL     OW26773   2.486   1.816   4.474  0.4439  1.0406  0.5256
 5040SOL    HW126774   2.438   1.820   4.562  0.7151  1.7913  0.6467
 5040SOL    HW226775   2.425   1.778   4.405  0.4635 -0.2184  1.1925
 5041SOL     OW26776   4.405   4.287   5.657 -0.3763  0.5833 -0.1165
 5041SOL    HW126777   4.395   4.375   5.610  2.5723  1.6944  1.2495
 5041SOL    HW226778   4.314   4.251   5.679 -1.6623  2.4952 -2.0762
 5042SOL     OW26779   2.296   8.774   4.863  0.5225  0.1857 -0.0288
 5042SOL    HW126780   2.381   8.722   4.872 -0.3677 -1.1797  0.6346
 5042SOL    HW226781   2.305   8.861   4.912  0.3936 -1.3926  2.8994
 5043SOL     OW26782   2.393   5.408   1.146  0.1545 -0.1598 -0.2463
 5043SOL    HW126783   2.322   5.478   1.152 -0.7657 -0.8868 -2.2442
 5043SOL    HW226784   2.387   5.348   1.226 -0.9120  0.3043  0.0347
 5044SOL     OW26785   9.539   4.241   0.045 -0.1115 -0.3120  0.0222
 5044SOL    HW126786   9.587   4.221   0.131  1.1997 -0.4484 -0.7205
 5044SOL    HW226787   9.586   4.315  -0.003 -2.0390  1.1855  0.3838
 5045SOL     OW26788   5.512   9.938   2.719 -0.0189  0.1525  0.0923
 5045SOL    HW126789   5.487   9.941   2.815 -2.2828 -0.7361 -0.4417
 5045SOL    HW226790   5.461   9.865   2.673  1.3115  0.3081 -1.7095
 5046SOL     OW26791   5.271   9.654   4.099 -0.2301 -0.5942 -0.2998
 5046SOL    HW126792   5.240   9.735   4.050  2.0998 -0.6192 -1.9072
 5046SOL    HW226793   5.252   9.572   4.045 -1.6021 -1.0343  0.8322
 5047SOL     OW26794   8.250   1.475   2.733 -0.4581 -0.2624  0.0755
 5047SOL    HW126795   8.153   1.450   2.736 -0.9815  1.5992 -0.5971
 5047SOL    HW226796   8.286   1.457   2.641 -0.4010 -0.1233  0.0701
 5048SOL     OW26797   9.496   6.377   7.808 -0.1447  0.2278 -0.6601
 5048SOL    HW126798   9.437   6.297   7.821  0.5711 -0.1139  0.5226
 5048SOL    HW226799   9.441   6.460   7.812 -0.5329 -0.0754  0.6281
 5049SOL     OW26800   4.629   8.023   6.655 -0.2625 -0.0983  0.4780
 5049SOL    HW126801   4.728   8.033   6.665  0.0884 -2.1452 -0.5403
 5049SOL    HW226802   4.587   8.009   6.744  0.4392  0.2105  0.8563
 5050SOL     OW26803   9.544   9.990   6.572  0.9279 -0.0602 -0.3403
 5050SOL    HW126804   9.463  10.039   6.539 -0.1911 -2.1567 -0.8265
 5050SOL    HW226805   9.526   9.953   6.663  1.6394  0.1830 -0.1016
 5051SOL     OW26806   3.674   5.151   6.591  0.2044  0.5253 -0.2654
 5051SOL    HW126807   3.664   5.235   6.537  1.9317  1.3877  0.7333
 5051SOL    HW226808   3.622   5.160   6.676 -0.5880  0.0963 -0.6973
 5052SOL     OW26809   5.691   1.790   5.712  0.6056  0.5910  0.5934
 5052SOL    HW126810   5.688   1.719   5.783 -0.1567 -0.7895 -0.7836
 5052SOL    HW226811   5.699   1.746   5.622 -2.0587  2.1408 -0.4562
 5053SOL     OW26812   3.270   6.641   4.246  0.3240  0.0692  0.1550
 5053SOL    HW126813   3.237   6.548   4.260 -0.4800  0.2730 -0.3322
 5053SOL    HW226814   3.364   6.649   4.280  0.3983 -0.9138  0.1929
 5054SOL     OW26815   8.946   5.272   6.067  0.7742 -0.1469  0.7972
 5054SOL    HW126816   8.901   5.313   5.988  0.4643 -1.1540  0.4377
 5054SOL    HW226817   8.920   5.176   6.073  1.3270 -0.2405  1.7396
 5055SOL     OW26818   4.629   2.602   1.086  0.5854 -0.1223 -0.3343
 5055SOL    HW126819   4.616   2.694   1.048  0.7897  0.4527  0.9756
 5055SOL    HW226820   4.727   2.584   1.094  0.5705  0.7076  2.1464
 5056SOL     OW26821   2.114   6.184   1.054 -0.2988 -0.1471 -0.0768
 5056SOL    HW126822   2.208   6.214   1.038 -0.3993 -0.3738 -1.1669
 5056SOL    HW226823   2.114   6.106   1.116  0.3844 -1.3355 -1.5500
 5057SOL     OW26824   0.735   1.829   6.857 -0.1092  0.5081  0.5530
 5057SOL    HW126825   0.788   1.914   6.855  0.2648  0.2479 -1.7088
 5057SOL    HW226826   0.797   1.751   6.858 -0.4502  0.2383  0.6015
 5058SOL     OW26827   2.835   6.366   2.356  0.4622 -0.2035 -0.3891
 5058SOL    HW126828   2.911   6.356   2.420  1.5606 -0.1688 -1.6666
 5058SOL    HW226829   2.857   6.320   2.270 -0.8688  0.0090 -0.8661
 5059SOL     OW26830   2.135   9.660   0.442  0.0271  0.0933  0.0074
 5059SOL    HW126831   2.080   9.666   0.525 -0.9856 -0.8229 -0.5794
 5059SOL    HW226832   2.077   9.674   0.362  0.8661  0.2716 -0.5815
 5060SOL     OW26833   7.237   9.869   4.743  0.2327 -0.1395  0.2010
 5060SOL    HW126834   7.330   9.833   4.731 -0.3379 -1.2357 -1.1700
 5060SOL    HW226835   7.174   9.794   4.761 -0.8225  0.2403 -1.6765
 5061SOL     OW26836   2.743   8.917   3.641  0.4244  0.4736  0.4793
 5061SOL    HW126837   2.777   8.867   3.721 -0.5502  1.9152  1.8233
 5061SOL    HW226838   2.820   8.947   3.585  1.1877  0.4568  1.4991
 5062SOL     OW26839   8.760   6.546   7.019 -0.6872  0.8244  0.1411
 5062SOL    HW126840   8.744   6.610   6.944 -1.4031 -0.2297 -0.6133
 5062SOL    HW226841   8.793   6.460   6.982  1.9073  1.2766  1.2728
 5063SOL     OW26842   5.597   7.462   4.619 -0.4776  0.0103  0.9343
 5063SOL    HW126843   5.676   7.487   4.675  0.4327 -0.3997 -0.1374
 5063SOL    HW226844   5.516   7.458   4.676 -0.0832  2.2955  1.7039
 5064SOL     OW26845   7.208   3.112   0.831 -0.1494  0.3923 -0.0408
 5064SOL    HW126846   7.293   3.099   0.882  0.5699 -0.3803 -1.4105
 5064SOL    HW226847   7.211   3.057   0.747 -1.4799  1.3404 -0.7199
 5065SOL     OW26848   5.484   7.784   4.308  0.4643 -0.6933 -0.2010
 5065SOL    HW126849   5.431   7.744   4.383  0.3656 -0.7869 -0.3200
 5065SOL    HW226850   5.564   7.728   4.290  1.0884 -0.0589  0.5765
 5066SOL     OW26851   2.603   7.469   4.416  0.3983 -0.6947  0.5079
 5066SOL    HW126852   2.695   7.507   4.427 -0.5381  1.8836 -0.0621
 5066SOL    HW226853   2.584   7.455   4.319 -0.1757 -0.2199  0.5471
 5067SOL     OW26854   8.309   9.510   3.892  0.1397  0.1296 -0.5979
 5067SOL    HW126855   8.221   9.549   3.866  1.3471  1.7765 -2.3453
 5067SOL    HW226856   8.368   9.504   3.811  1.3090 -1.8538  0.3586
 5068SOL     OW26857   3.646   9.459   3.805 -0.2428  0.0118 -0.2767
 5068SOL    HW126858   3.693   9.375   3.779 -1.4327 -0.6975 -0.1647
 5068SOL    HW226859   3.574   9.478   3.739 -0.5975  0.4297  0.2268
 5069SOL     OW26860   9.063   5.865   4.280  0.1662 -0.5366  0.6891
 5069SOL    HW126861   9.145   5.914   4.249  0.9455 -1.6344  0.9591
 5069SOL    HW226862   9.008   5.925   4.338  0.7712  0.2330  0.4690
 5070SOL     OW26863   8.119   5.766   3.947 -0.3292  0.1771  0.4377
 5070SOL    HW126864   8.109   5.674   3.911 -0.8034 -0.1123  1.2978
 5070SOL    HW226865   8.058   5.828   3.898 -2.1687 -0.5177  1.7998
 5071SOL     OW26866   6.536   0.986   1.250 -0.0645 -0.0071 -0.3431
 5071SOL    HW126867   6.576   1.072   1.283  1.4612 -1.1979  0.9986
 5071SOL    HW226868   6.536   0.986   1.150  3.2438  0.0956 -0.3956
 5072SOL     OW26869   2.585   7.838   7.308  0.1208 -0.3600 -0.1611
 5072SOL    HW126870   2.652   7.769   7.279 -1.1389 -1.0515 -1.5110
 5072SOL    HW226871   2.612   7.876   7.397  1.5300 -1.6374 -0.0210
 5073SOL     OW26872   1.639   6.415   5.183 -0.0044  0.7790 -0.4213
 5073SOL    HW126873   1.619   6.380   5.092  0.6315  1.8240 -0.9786
 5073SOL    HW226874   1.710   6.486   5.176 -0.9536  1.8559  0.7233
 5074SOL     OW26875   6.098   7.894   5.480  0.2798  0.6154 -0.4488
 5074SOL    HW126876   6.083   7.990   5.505  0.3446  0.9643 -1.7291
 5074SOL    HW226877   6.149   7.889   5.395 -1.7394 -0.5184 -1.6484
 5075SOL     OW26878   5.238   4.074   2.138  0.2756  0.1686 -0.3461
 5075SOL    HW126879   5.331   4.108   2.154  0.4390 -0.3450 -0.1917
 5075SOL    HW226880   5.239   3.974   2.140  0.1799  0.0803 -2.8913
 5076SOL     OW26881   0.397   5.869   5.419  0.1542 -0.3313 -0.2500
 5076SOL    HW126882   0.336   5.790   5.426  0.4928 -0.7002 -1.3311
 5076SOL    HW226883   0.356   5.939   5.361 -0.0591  0.2122  0.5497
 5077SOL     OW26884   6.864   8.197   4.079 -0.1847 -0.3615  0.6070
 5077SOL    HW126885   6.882   8.274   4.018 -0.9171  0.0267  0.8826
 5077SOL    HW226886   6.951   8.165   4.118  0.0366  0.7975  1.0712
 5078SOL     OW26887   3.495   8.942   6.921  0.4180 -0.5992 -0.1832
 5078SOL    HW126888   3.514   9.039   6.930  0.8989 -0.7506  0.4471
 5078SOL    HW226889   3.577   8.894   6.889  0.7308 -1.0538  1.2458
 5079SOL     OW26890   7.929   8.440   7.096 -0.1206  0.1734  0.2153
 5079SOL    HW126891   7.906   8.362   7.154  2.3638 -0.1942  0.7555
 5079SOL    HW226892   7.845   8.490   7.073 -1.7117 -2.5012  0.0394
 5080SOL     OW26893   0.614   8.083   3.965  0.0189 -0.0510  0.4967
 5080SOL    HW126894   0.638   8.080   4.063 -0.5298  0.5929  0.6511
 5080SOL    HW226895   0.698   8.095   3.912  0.3368 -0.5242  0.8734
 5081SOL     OW26896   2.036   0.186   1.755  0.3966 -0.2463  0.6188
 5081SOL    HW126897   2.066   0.232   1.838  1.2435  0.4407 -0.0562
 5081SOL    HW226898   1.954   0.132   1.774 -0.6491  1.5971  1.3918
 5082SOL     OW26899   7.241   2.164   5.586  0.5754 -0.8929 -0.7117
 5082SOL    HW126900   7.173   2.222   5.542  0.0858 -2.0634 -1.5362
 5082SOL    HW226901   7.225   2.162   5.685 -0.5745 -1.1396 -0.8990
 5083SOL     OW26902   7.225   3.484   1.850  0.2634  0.2537 -0.2778
 5083SOL    HW126903   7.145   3.475   1.792 -0.1912  2.2373 -0.0271
 5083SOL    HW226904   7.234   3.404   1.909 -1.5001 -0.0231 -0.3708
 5084SOL     OW26905   9.419   7.896   8.039  0.2753  0.5161 -0.1336
 5084SOL    HW126906   9.457   7.858   8.124 -0.2384 -1.9957 -0.9962
 5084SOL    HW226907   9.493   7.936   7.984  1.1374 -1.0112 -0.1104
 5085SOL     OW26908   7.673   2.303   6.116  0.4507  0.2217 -0.3932
 5085SOL    HW126909   7.686   2.234   6.045 -0.8883 -1.3914  0.8856
 5085SOL    HW226910   7.667   2.259   6.205 -0.7403  1.9588  0.4211
 5086SOL     OW26911   2.770   0.252   6.157 -0.3871 -0.5613 -0.5478
 5086SOL    HW126912   2.702   0.191   6.117  0.3820 -0.4021 -2.1223
 5086SOL    HW226913   2.787   0.329   6.095  1.2385 -0.6153 -0.1974
 5087SOL     OW26914   8.280   1.556   4.343  0.4469 -0.1193 -0.2712
 5087SOL    HW126915   8.282   1.536   4.245  2.0736 -1.7558  0.0727
 5087SOL    HW226916   8.211   1.497   4.387 -2.0381  2.3203 -0.7463
 5088SOL     OW26917   7.671   5.991   6.769 -0.2579  0.1690  0.2624
 5088SOL    HW126918   7.635   6.068   6.823 -0.3676 -0.1491  0.6423
 5088SOL    HW226919   7.766   6.008   6.747 -0.4172  0.6408 -0.0598
 5089SOL     OW26920   1.952   1.884   1.920  0.3108 -0.2525  0.7650
 5089SOL    HW126921   1.905   1.805   1.881  0.0473 -0.2578  1.0899
 5089SOL    HW226922   1.900   1.967   1.898  1.0986 -0.0579 -0.4076
 5090SOL     OW26923   8.529   6.452   0.918  0.1242 -0.2857  0.5393
 5090SOL    HW126924   8.532   6.548   0.891  1.0039 -0.1900  0.9351
 5090SOL    HW226925   8.620   6.424   0.949 -0.5404 -0.7491  2.1095
 5091SOL     OW26926   8.598   0.279   1.754 -0.2489 -0.0809 -0.5229
 5091SOL    HW126927   8.593   0.378   1.741  1.8979  0.0015 -0.8722
 5091SOL    HW226928   8.676   0.257   1.812  0.0167 -1.6653 -1.4567
 5092SOL     OW26929   2.400   8.507   6.893 -0.1185  0.7427  0.0234
 5092SOL    HW126930   2.378   8.582   6.957  1.4253  1.2156  0.0190
 5092SOL    HW226931   2.498   8.506   6.877 -0.6002  1.3345 -3.2375
 5093SOL     OW26932   4.857   4.364   1.359 -0.0034  0.4645 -1.1151
 5093SOL    HW126933   4.780   4.361   1.295 -1.3375  1.2594  0.4047
 5093SOL    HW226934   4.927   4.427   1.325 -0.6623  0.8094 -1.8272
 5094SOL     OW26935   3.071   6.470   7.343 -0.4246 -0.0550  0.4772
 5094SOL    HW126936   3.150   6.426   7.300  0.0942  1.6484 -0.3612
 5094SOL    HW226937   3.075   6.456   7.442  0.0655 -1.3280  0.2943
 5095SOL     OW26938   0.685   7.322   8.058  0.4949 -0.1713  0.1781
 5095SOL    HW126939   0.605   7.356   8.108  0.0856  0.6239 -0.9834
 5095SOL    HW226940   0.656   7.251   7.994  0.9352 -0.8346  0.7154
 5096SOL     OW26941   3.038   1.629   1.549  0.6152  0.4632 -0.0092
 5096SOL    HW126942   3.075   1.597   1.462  1.4108 -0.1687  0.5477
 5096SOL    HW226943   3.021   1.550   1.609 -0.0493  0.8813  0.3549
 5097SOL     OW26944   2.434   8.603   6.521  0.3165 -0.0623 -0.3634
 5097SOL    HW126945   2.429   8.506   6.541  0.9815  0.1031  0.6475
 5097SOL    HW226946   2.386   8.655   6.592  1.1243  0.4244 -0.1672
 5098SOL     OW26947   1.292   1.300   3.732 -0.4471  0.1801  0.5449
 5098SOL    HW126948   1.381   1.283   3.689  0.4807  2.4502  1.4510
 5098SOL    HW226949   1.238   1.361   3.673 -0.0356  1.5315  1.5379
 5099SOL     OW26950   8.380   6.579   5.818 -0.3348  0.1182  0.6379
 5099SOL    HW126951   8.437   6.595   5.899  0.5428  0.1533  0.0252
 5099SOL    HW226952   8.305   6.517   5.841  0.8303 -1.1551  1.0974
 5100SOL     OW26953   3.796   2.189   7.192 -1.0079 -0.3053 -0.4330
 5100SOL    HW126954   3.741   2.272   7.200 -3.0193 -1.4966 -1.3647
 5100SOL    HW226955   3.745   2.112   7.230  1.2646 -0.9492  1.3620
 5101SOL     OW26956   2.998   5.054   0.059  0.8692 -0.0231 -0.6796
 5101SOL    HW126957   3.082   5.103   0.034  0.4871  2.2942  2.2437
 5101SOL    HW226958   2.919   5.111   0.036  0.2754 -0.5319  0.1148
 5102SOL     OW26959   0.456   6.613   6.743 -0.2455  0.0778  0.1278
 5102SOL    HW126960   0.475   6.662   6.828 -3.0631 -3.4413  2.9448
 5102SOL    HW226961   0.358   6.617   6.724 -0.0694 -1.7850 -1.2955
 5103SOL     OW26962   3.207   5.789   6.499  0.2791 -0.0064 -1.0364
 5103SOL    HW126963   3.238   5.881   6.474 -1.7133  0.5129 -1.7092
 5103SOL    HW226964   3.170   5.791   6.592 -1.1485  0.2371 -1.5922
 5104SOL     OW26965   0.869   7.753   1.926  0.2049  0.5032  0.2138
 5104SOL    HW126966   0.894   7.667   1.881 -0.9016  0.9785 -1.3501
 5104SOL    HW226967   0.793   7.738   1.989  0.3863  0.2315  0.3679
 5105SOL     OW26968   9.475   3.399   1.057  0.0340  0.2104 -0.1724
 5105SOL    HW126969   9.437   3.491   1.061 -0.6303 -0.0055 -1.1789
 5105SOL    HW226970   9.401   3.332   1.049  0.5859 -0.2448 -1.7151
 5106SOL     OW26971   2.997   6.456   0.933  0.2926  0.2869 -0.1755
 5106SOL    HW126972   2.998   6.366   0.975  0.2291 -0.0805 -0.9597
 5106SOL    HW226973   2.916   6.465   0.874 -0.5877  1.4474  1.1893
 5107SOL     OW26974   0.401   0.563   6.079  0.7348  0.2870  0.0074
 5107SOL    HW126975   0.356   0.576   5.990 -0.5082  1.6813  0.8148
 5107SOL    HW226976   0.478   0.500   6.069  2.9015  3.2083 -2.8117
 5108SOL     OW26977   8.272   6.341   5.281  0.5468 -0.1323  0.1415
 5108SOL    HW126978   8.198   6.362   5.345  0.6857 -1.0048  0.6010
 5108SOL    HW226979   8.354   6.392   5.306  0.2242  0.5313 -0.1315
 5109SOL     OW26980   7.886   6.427   4.705  0.1491  0.0501 -0.0962
 5109SOL    HW126981   7.824   6.503   4.685  1.1535  0.3160 -2.3557
 5109SOL    HW226982   7.834   6.349   4.739 -1.2442  0.7185 -0.6930
 5110SOL     OW26983   8.564   0.584   3.769  0.6675  0.8338 -0.0152
 5110SOL    HW126984   8.572   0.667   3.824 -0.2958  3.0654 -3.1000
 5110SOL    HW226985   8.630   0.587   3.694  0.6304 -1.2187 -0.1560
 5111SOL     OW26986   8.304   5.883   2.420  0.0800 -0.8251  0.3053
 5111SOL    HW126987   8.382   5.862   2.479 -0.0661 -1.3218  0.3278
 5111SOL    HW226988   8.332   5.878   2.325  0.5183  0.7887  0.3396
 5112SOL     OW26989   2.101   8.603   4.762 -0.2295  0.2348 -0.4732
 5112SOL    HW126990   2.196   8.632   4.764 -0.1396 -0.0695 -0.1700
 5112SOL    HW226991   2.078   8.567   4.672 -0.0612  0.3247 -0.5513
 5113SOL     OW26992   3.152   8.327   3.794  0.2721  0.3177  0.3986
 5113SOL    HW126993   3.108   8.327   3.704  1.0323  1.1181  0.0208
 5113SOL    HW226994   3.195   8.238   3.810  0.2185  0.2059 -0.0814
 5114SOL     OW26995   1.740   5.302   7.414 -0.5663  0.2414  0.4828
 5114SOL    HW126996   1.669   5.358   7.371 -1.2104  0.8918  2.3870
 5114SOL    HW226997   1.805   5.273   7.344 -2.2562  0.2844 -1.1616
 5115SOL     OW26998   4.235   2.481   1.610  0.1543  0.5522 -0.0463
 5115SOL    HW126999   4.163   2.545   1.636 -1.6258 -1.4521  0.0998
 5115SOL    HW227000   4.253   2.419   1.686  0.4408 -0.3807 -0.8703
 5116SOL     OW27001   4.438   4.046   4.601 -0.0494  0.3411  0.6238
 5116SOL    HW127002   4.368   3.977   4.581 -1.9537  2.0311  1.2241
 5116SOL    HW227003   4.477   4.081   4.516 -0.1231 -0.4331  0.2724
 5117SOL     OW27004   0.042   6.554   0.552 -0.0594  0.3044  0.1496
 5117SOL    HW127005   0.138   6.582   0.553 -0.1990  0.7861  0.1343
 5117SOL    HW227006  -0.017   6.634   0.567 -0.5784  0.5763 -2.8958
 5118SOL     OW27007   0.888   2.438   6.072  0.4845 -0.4132 -0.8056
 5118SOL    HW127008   0.838   2.480   5.997  0.5498  1.0261 -0.0635
 5118SOL    HW227009   0.926   2.510   6.131  0.5022 -1.5109  0.5503
 5119SOL     OW27010   7.548   1.748   2.529  0.1733 -0.4714  0.5870
 5119SOL    HW127011   7.554   1.671   2.593  1.0996 -0.7020  0.2287
 5119SOL    HW227012   7.475   1.731   2.463 -0.5558 -0.3934  1.3624
 5120SOL     OW27013   7.817   0.331   4.900 -0.9231  0.3664  0.3245
 5120SOL    HW127014   7.902   0.311   4.947 -0.8269  1.6267  0.6978
 5120SOL    HW227015   7.741   0.287   4.948 -0.3816 -1.6752 -0.6251
 5121SOL     OW27016   5.512   6.336   1.229 -0.1874 -0.7592  0.0357
 5121SOL    HW127017   5.444   6.275   1.187 -1.0200  0.2893 -0.1684
 5121SOL    HW227018   5.555   6.392   1.158  0.0491 -0.5939  0.3087
 5122SOL     OW27019   6.705   0.768   4.738 -0.2949  0.8356  0.0475
 5122SOL    HW127020   6.779   0.775   4.804 -1.4565  2.6820  1.1859
 5122SOL    HW227021   6.742   0.776   4.645  1.0864  0.2803  0.5398
 5123SOL     OW27022   9.713   0.291   3.571  0.0443  0.0980 -0.0802
 5123SOL    HW127023   9.763   0.207   3.590  0.6762  0.2700 -0.9581
 5123SOL    HW227024   9.653   0.312   3.648  0.2882 -0.8584  0.3787
 5124SOL     OW27025   5.843   9.444   1.823 -0.0644  0.8006  0.5793
 5124SOL    HW127026   5.853   9.542   1.805  1.7116  0.5378 -0.0048
 5124SOL    HW227027   5.876   9.424   1.915  1.5627  0.4664 -0.0509
 5125SOL     OW27028   3.930   5.599   4.118  0.1044 -0.0577  0.4190
 5125SOL    HW127029   3.898   5.679   4.169  0.6400  1.3070 -1.3185
 5125SOL    HW227030   4.026   5.611   4.095 -0.5100  0.1143 -2.2370
 5126SOL     OW27031   3.573   1.627   7.212 -0.1679  0.2742 -0.0707
 5126SOL    HW127032   3.652   1.654   7.157 -0.0532 -0.3323 -0.2081
 5126SOL    HW227033   3.543   1.705   7.267  0.4095  0.5616 -0.1528
 5127SOL     OW27034   1.300   2.935   6.876  0.0011 -0.7352 -0.0211
 5127SOL    HW127035   1.212   2.979   6.858  0.2624 -0.5022 -0.7399
 5127SOL    HW227036   1.296   2.839   6.850 -0.3665 -0.9792  0.9325
 5128SOL     OW27037   3.125   3.379   2.815  0.9307  0.7105 -0.1802
 5128SOL    HW127038   3.213   3.422   2.793  0.2775  2.1198 -0.0948
 5128SOL    HW227039   3.060   3.449   2.844  0.1685 -0.4711  1.0460
 5129SOL     OW27040   2.041   5.982   0.796  0.6155  0.0633  0.0646
 5129SOL    HW127041   2.077   6.074   0.781  0.2926 -0.0432 -1.4068
 5129SOL    HW227042   2.106   5.915   0.761  1.0132 -0.2973  1.4565
 5130SOL     OW27043   3.762   1.974   5.144 -0.1108 -0.0513  0.2022
 5130SOL    HW127044   3.856   2.005   5.158 -0.2414 -0.5320  2.2953
 5130SOL    HW227045   3.699   2.051   5.157 -0.0493  0.1348 -0.5930
 5131SOL     OW27046   6.996   8.716   4.828 -0.6099  0.3946 -0.4121
 5131SOL    HW127047   6.947   8.790   4.873 -1.4747 -0.0351 -0.6369
 5131SOL    HW227048   6.949   8.629   4.846 -0.1787  0.0386 -0.9943
 5132SOL     OW27049   1.650   9.976   2.109 -0.7648 -0.0592 -0.0660
 5132SOL    HW127050   1.644  10.073   2.131  3.1943 -0.1164  1.6373
 5132SOL    HW227051   1.635   9.921   2.191  0.2074 -0.7833 -0.3639
 5133SOL     OW27052   2.680   6.334   5.897  0.0767  0.4720 -0.3445
 5133SOL    HW127053   2.726   6.421   5.908  0.5038  0.0432  1.4528
 5133SOL    HW227054   2.593   6.336   5.947  0.5466 -0.4532  0.5251
 5134SOL     OW27055   4.970   1.167   6.162  0.5788  0.3707 -0.0298
 5134SOL    HW127056   4.872   1.182   6.174  0.6217  1.2618 -0.7642
 5134SOL    HW227057   4.987   1.068   6.157 -0.2031  0.1863  0.6567
 5135SOL     OW27058   4.984   9.061   8.438  0.4887  0.4617  0.0279
 5135SOL    HW127059   4.953   9.120   8.363  2.7557  1.2199 -0.3558
 5135SOL    HW227060   4.918   9.066   8.513 -1.5953  0.0180 -1.7197
 5136SOL     OW27061   5.633   0.537   1.545  0.2783 -0.2819  0.3507
 5136SOL    HW127062   5.700   0.605   1.576  0.7811 -0.5836 -0.0599
 5136SOL    HW227063   5.551   0.543   1.601  0.8133 -0.1865  1.1287
 5137SOL     OW27064   8.303   0.737   1.272  0.5027 -0.7796 -0.3290
 5137SOL    HW127065   8.358   0.804   1.323  0.9076 -0.1712 -1.5608
 5137SOL    HW227066   8.342   0.645   1.285  0.5357 -0.6487  0.5423
 5138SOL     OW27067   7.078   1.279   5.254 -0.0493 -0.6020 -0.6620
 5138SOL    HW127068   7.124   1.191   5.237  0.3738 -0.3808 -0.6701
 5138SOL    HW227069   7.117   1.349   5.195  2.3891  0.4778  2.1166
 5139SOL     OW27070   1.941   9.772   3.750  0.2646 -0.1913  0.3941
 5139SOL    HW127071   1.854   9.819   3.770  1.1169  1.4374  0.3537
 5139SOL    HW227072   1.944   9.748   3.653  0.6595  1.4679 -0.0180
 5140SOL     OW27073   0.326   1.229   3.732  0.4876  0.7366  0.1579
 5140SOL    HW127074   0.332   1.171   3.813  0.1579  2.0713  1.1568
 5140SOL    HW227075   0.332   1.173   3.650  0.8509 -0.6303  1.1074
 5141SOL     OW27076   9.276   2.166   7.236  0.3741 -0.4691  0.2469
 5141SOL    HW127077   9.329   2.158   7.152  0.2436  0.4091  0.0771
 5141SOL    HW227078   9.182   2.192   7.215  0.1173 -1.0837  0.6105
 5142SOL     OW27079   8.404   7.415   0.932 -0.1638  0.4447  0.2718
 5142SOL    HW127080   8.313   7.436   0.967 -0.3418  2.6683 -1.3560
 5142SOL    HW227081   8.396   7.367   0.844  0.2486 -0.9353  0.9809
 5143SOL     OW27082   1.974   1.661   5.123  0.1891 -0.8814  0.8104
 5143SOL    HW127083   2.067   1.698   5.132 -0.4535  0.4283  2.2102
 5143SOL    HW227084   1.975   1.587   5.055  2.6531 -2.2246  2.2219
 5144SOL     OW27085   4.621   6.559   4.205 -0.1931  0.2585  0.3052
 5144SOL    HW127086   4.593   6.578   4.110 -1.9535  2.5832  1.2331
 5144SOL    HW227087   4.710   6.600   4.222 -0.8310  1.7028  0.2466
 5145SOL     OW27088   0.077   5.735   5.953  0.2873 -0.2251 -0.5099
 5145SOL    HW127089   0.011   5.809   5.960  0.2562 -0.2035 -0.9762
 5145SOL    HW227090   0.050   5.660   6.013  0.6755  0.4050  0.4602
 5146SOL     OW27091   0.316   4.344   3.001  0.1454 -0.1744  0.3500
 5146SOL    HW127092   0.280   4.313   3.089 -1.2709  2.7790  0.8687
 5146SOL    HW227093   0.392   4.408   3.017 -0.5921  0.9442 -0.5530
 5147SOL     OW27094   3.129   7.437   4.404 -0.5170  0.1167  0.2900
 5147SOL    HW127095   3.034   7.464   4.424 -0.9013 -0.3398 -0.8816
 5147SOL    HW227096   3.141   7.340   4.426 -1.0145 -0.4534 -1.9163
 5148SOL     OW27097   1.998   3.867   1.218 -0.0229 -0.6629  0.5847
 5148SOL    HW127098   1.908   3.842   1.252  0.1458 -0.1918  1.4102
 5148SOL    HW227099   2.064   3.797   1.245 -0.1240 -0.9481  0.0838
 5149SOL     OW27100   2.204   6.344   1.920  0.7991  0.7762 -0.2459
 5149SOL    HW127101   2.130   6.411   1.933  0.0323 -0.0699 -0.2164
 5149SOL    HW227102   2.164   6.255   1.899  1.8263  0.3426 -0.3480
 5150SOL     OW27103   6.983   9.470   6.447 -0.3444 -0.0015  0.7413
 5150SOL    HW127104   7.066   9.521   6.424 -1.3298  1.0837 -0.4244
 5150SOL    HW227105   6.997   9.373   6.427 -0.0234  0.4573 -1.2981
 5151SOL     OW27106   1.965   0.876   5.437  0.2663 -0.1215 -0.1672
 5151SOL    HW127107   1.885   0.934   5.454  0.1920 -0.7646  1.8555
 5151SOL    HW227108   2.041   0.932   5.406 -0.5229  0.7218 -0.6066
 5152SOL     OW27109   2.960   2.568   4.764  0.8916  0.1815 -0.1423
 5152SOL    HW127110   2.870   2.534   4.737  0.6717  0.5502  0.1065
 5152SOL    HW227111   3.009   2.497   4.815  0.8634 -0.1243 -0.5440
 5153SOL     OW27112   9.378   2.065   7.021  0.2776 -0.5448 -0.2692
 5153SOL    HW127113   9.366   1.969   7.045  0.2306 -0.1060  1.5718
 5153SOL    HW227114   9.296   2.098   6.974 -0.5842 -0.8625  0.9860
 5154SOL     OW27115   6.295   2.194   5.346  0.1344 -0.6408  0.0471
 5154SOL    HW127116   6.324   2.274   5.293 -0.4458 -1.0006 -0.8373
 5154SOL    HW227117   6.369   2.164   5.405  0.1017  1.0000  0.9324
 5155SOL     OW27118   1.997   6.752   2.835  0.1315 -0.1612 -1.0324
 5155SOL    HW127119   1.985   6.841   2.879  1.2109 -0.1386 -0.7736
 5155SOL    HW227120   2.092   6.743   2.803  1.0013 -2.5599  1.9351
 5156SOL     OW27121   7.888   7.892   6.600 -0.7358  0.3325  0.1358
 5156SOL    HW127122   7.799   7.928   6.574 -0.8501  2.6723  3.4806
 5156SOL    HW227123   7.878   7.830   6.678  0.5574  0.7703  0.6729
 5157SOL     OW27124   4.793   0.469   4.598  0.4372 -0.0062  0.3645
 5157SOL    HW127125   4.701   0.461   4.560  0.4825  2.5454 -0.4022
 5157SOL    HW227126   4.855   0.409   4.549 -0.2313  0.5620 -1.1936
 5158SOL     OW27127   7.188   2.632   4.139 -0.6302 -0.1821  0.1614
 5158SOL    HW127128   7.173   2.571   4.217 -2.5726  1.2866  0.9700
 5158SOL    HW227129   7.221   2.579   4.061  0.1342 -1.8724  1.5881
 5159SOL     OW27130   0.802   1.764   2.502 -0.6722 -0.0811  0.0038
 5159SOL    HW127131   0.733   1.722   2.442 -0.7006 -3.6177  2.3359
 5159SOL    HW227132   0.758   1.824   2.568 -1.1863  0.0199 -0.4340
 5160SOL     OW27133   8.520   9.470   2.326  0.6386  0.2507  0.3024
 5160SOL    HW127134   8.475   9.512   2.247 -0.8082  1.2096  1.6092
 5160SOL    HW227135   8.619   9.478   2.316  0.4548  0.9220 -1.1084
 5161SOL     OW27136   7.146   6.398   1.944 -0.3496  0.3420 -0.3396
 5161SOL    HW127137   7.097   6.473   1.898  0.2088  1.3322  0.6717
 5161SOL    HW227138   7.105   6.311   1.917 -0.8203  0.9818 -1.7604
 5162SOL     OW27139   6.163   8.899   5.178  0.3553  0.2553  0.2501
 5162SOL    HW127140   6.123   8.990   5.169 -0.5216 -0.2270 -0.9289
 5162SOL    HW227141   6.128   8.840   5.105 -2.7966 -2.3468  3.6208
 5163SOL     OW27142   0.146   4.532   3.469 -0.6901  0.3178 -0.7628
 5163SOL    HW127143   0.132   4.598   3.395 -0.1405  0.2685 -0.9096
 5163SOL    HW227144   0.231   4.481   3.453  0.4992  1.7274  0.9657
 5164SOL     OW27145   0.576   8.664   0.155  0.1482 -0.2243  0.2700
 5164SOL    HW127146   0.672   8.636   0.146  0.6467  1.2661  0.8029
 5164SOL    HW227147   0.552   8.725   0.080 -1.0163 -2.2251 -1.0339
 5165SOL     OW27148   2.506   5.643   3.757 -0.1012 -0.5377  0.0768
 5165SOL    HW127149   2.435   5.712   3.765 -0.4144 -0.8917  0.3235
 5165SOL    HW227150   2.587   5.672   3.808  0.1465  0.1349 -0.6743
 5166SOL     OW27151   8.254   4.738   1.538  0.4873  0.0062 -0.4706
 5166SOL    HW127152   8.224   4.791   1.617  2.7060  0.8026 -0.1211
 5166SOL    HW227153   8.176   4.720   1.478 -0.7848  1.4191  0.7194
 5167SOL     OW27154   1.206   1.952   7.532 -0.2255  0.3157 -0.3755
 5167SOL    HW127155   1.141   1.940   7.607 -0.0982  1.2337 -0.1153
 5167SOL    HW227156   1.211   2.048   7.506 -0.0502  0.0421 -1.3753
 5168SOL     OW27157   6.254   2.298   5.722  0.0704  0.3035  0.2541
 5168SOL    HW127158   6.263   2.208   5.680 -0.1305 -0.2665  1.4159
 5168SOL    HW227159   6.342   2.346   5.718  0.5145 -0.4627  0.7936
 5169SOL     OW27160   3.897   7.139   4.596  0.0571 -0.3988  0.0441
 5169SOL    HW127161   3.824   7.143   4.665 -1.3234  1.4303 -1.4550
 5169SOL    HW227162   3.968   7.206   4.619 -0.1086 -0.2079 -0.0013
 5170SOL     OW27163   9.708   4.977   5.807  0.0582 -0.2413  0.2860
 5170SOL    HW127164   9.667   5.038   5.874  0.7570  0.8241 -0.2375
 5170SOL    HW227165   9.662   4.990   5.719  0.1655 -0.5193  0.1900
 5171SOL     OW27166   2.831   8.748   3.846  0.4003 -0.3582  0.2795
 5171SOL    HW127167   2.855   8.746   3.943 -1.1193  0.3412  0.6783
 5171SOL    HW227168   2.753   8.687   3.829  0.6318 -0.4493 -0.5020
 5172SOL     OW27169   0.008   1.673   4.866  0.0379  0.4144  0.2684
 5172SOL    HW127170  -0.087   1.656   4.895 -0.7148  1.8744 -1.2839
 5172SOL    HW227171   0.052   1.585   4.846 -0.4501 -0.3982  2.5713
 5173SOL     OW27172   1.169   2.871   0.137  0.0441  0.4666  0.1525
 5173SOL    HW127173   1.093   2.918   0.093  0.6828  0.8176 -0.5593
 5173SOL    HW227174   1.154   2.870   0.236 -1.2029 -0.0165 -0.0236
 5174SOL     OW27175   4.313   4.858   2.976  0.2228 -0.5714  0.3730
 5174SOL    HW127176   4.376   4.795   3.022  0.0572 -1.3329 -0.4116
 5174SOL    HW227177   4.355   4.947   2.965  0.1684 -0.3141  2.2234
 5175SOL     OW27178   5.107   0.393   3.106  0.1786  0.0821  0.3404
 5175SOL    HW127179   5.065   0.355   3.024  0.1864  1.9382 -0.5288
 5175SOL    HW227180   5.145   0.318   3.161  0.5593 -1.1342 -1.5384
 5176SOL     OW27181   0.668   3.574   3.741  0.4405 -0.9564  0.4474
 5176SOL    HW127182   0.592   3.518   3.774 -0.4076  0.5188  1.0076
 5176SOL    HW227183   0.701   3.537   3.654 -0.3300 -2.1238  0.6411
 5177SOL     OW27184   9.515   4.161   4.913 -0.1818 -0.3503 -0.0404
 5177SOL    HW127185   9.542   4.077   4.959 -0.9586 -0.1516  0.7861
 5177SOL    HW227186   9.489   4.141   4.818  2.6141 -0.5745 -0.8002
 5178SOL     OW27187   9.816   5.087   1.799 -0.0592  0.1864 -0.3948
 5178SOL    HW127188   9.728   5.091   1.752 -1.3713  0.2655  1.9951
 5178SOL    HW227189   9.847   5.180   1.820  0.3123  0.1388 -0.7368
 5179SOL     OW27190   1.789   7.326   1.485  0.3993  0.0521  0.1603
 5179SOL    HW127191   1.885   7.324   1.514  1.0451  0.2398 -1.9369
 5179SOL    HW227192   1.778   7.277   1.399 -1.4121 -0.0126  0.3985
 5180SOL     OW27193   4.393   3.306   6.085 -0.4267  0.7358  0.3295
 5180SOL    HW127194   4.397   3.209   6.059 -0.1015  0.4749  1.3329
 5180SOL    HW227195   4.467   3.356   6.039 -0.3211  0.4213  0.1550
 5181SOL     OW27196   8.052   3.868   0.060 -0.2697 -0.0672  0.3406
 5181SOL    HW127197   7.960   3.904   0.076 -0.2226 -0.6961  2.1112
 5181SOL    HW227198   8.117   3.913   0.121  0.7081  0.7697 -1.2916
 5182SOL     OW27199   8.405   4.699   3.670  0.9983  0.4937 -0.0545
 5182SOL    HW127200   8.390   4.617   3.723  3.0841  0.5552  0.6752
 5182SOL    HW227201   8.451   4.675   3.584  1.8573  0.9250  0.2840
 5183SOL     OW27202   1.502   8.189   4.802 -0.8939 -0.0214  1.0708
 5183SOL    HW127203   1.421   8.210   4.857 -0.1492  0.6371  1.9344
 5183SOL    HW227204   1.572   8.258   4.819  0.1687 -1.0670  0.9936
 5184SOL     OW27205   9.125   4.292   1.302 -0.1109  0.1004  0.0980
 5184SOL    HW127206   9.088   4.385   1.300 -1.3097 -0.3573  0.8283
 5184SOL    HW227207   9.051   4.226   1.292  0.6201 -0.8023  0.5848
 5185SOL     OW27208   7.410   8.765   6.955  0.1698  0.1459  0.6783
 5185SOL    HW127209   7.429   8.862   6.946 -0.8927  0.3433  0.6155
 5185SOL    HW227210   7.388   8.726   6.866 -0.4238  0.0550  0.8645
 5186SOL     OW27211   6.779   0.422   7.021  0.0394  0.0204 -0.0629
 5186SOL    HW127212   6.766   0.479   7.102 -0.4086 -1.8832  1.2364
 5186SOL    HW227213   6.739   0.468   6.942  0.0606  1.6971  0.8731
 5187SOL     OW27214   9.316   5.312   3.538  0.3602  0.2075 -0.7332
 5187SOL    HW127215   9.225   5.331   3.500 -0.3950  2.4165  1.9518
 5187SOL    HW227216   9.377   5.388   3.517  0.6463  0.2508  0.2146
 5188SOL     OW27217   1.175   0.147   3.914  0.5376  0.4543 -0.6659
 5188SOL    HW127218   1.107   0.116   3.848  2.2626 -0.1242 -2.2329
 5188SOL    HW227219   1.219   0.230   3.880  1.5235  0.0764 -0.3477
 5189SOL     OW27220   8.457   0.571   2.543  0.2267  0.8805  0.3223
 5189SOL    HW127221   8.416   0.480   2.547 -0.4001  1.2257  1.9634
 5189SOL    HW227222   8.386   0.640   2.555  0.5667  1.6388 -1.7354
 5190SOL     OW27223   4.114   8.193   4.139  0.4199 -0.1231 -0.2222
 5190SOL    HW127224   4.168   8.221   4.219  1.7611 -1.6667 -0.5537
 5190SOL    HW227225   4.050   8.122   4.166 -0.0319  0.2695 -0.2591
 5191SOL     OW27226   2.580   9.818   0.218  0.1698 -0.2741  0.6539
 5191SOL    HW127227   2.500   9.858   0.264 -1.0064 -0.8863 -0.8277
 5191SOL    HW227228   2.597   9.726   0.253  0.6153  0.0912  1.4105
 5192SOL     OW27229   9.828   9.506   1.838 -0.1272  0.6532  0.1672
 5192SOL    HW127230   9.757   9.507   1.769  1.4909  0.0607 -1.5595
 5192SOL    HW227231   9.843   9.412   1.870 -1.0472  0.9564  1.5285
 5193SOL     OW27232   9.582   5.134   2.114  0.4680 -0.3676 -0.3530
 5193SOL    HW127233   9.536   5.131   2.202 -0.0077 -2.5837 -0.6560
 5193SOL    HW227234   9.515   5.152   2.042  0.6712  0.2016 -0.4046
 5194SOL     OW27235   6.859   0.840   5.638  0.3056 -0.4139 -0.5018
 5194SOL    HW127236   6.862   0.746   5.606  0.1747 -0.7131  0.3534
 5194SOL    HW227237   6.953   0.875   5.649  0.3554 -0.5282 -0.5689
 5195SOL     OW27238   3.535   7.002   6.089 -0.6144  0.3437  0.2353
 5195SOL    HW127239   3.588   7.061   6.028  0.1459 -1.3007 -0.7463
 5195SOL    HW227240   3.442   6.991   6.052 -0.6216  0.5664  0.1882
 5196SOL     OW27241   8.192   0.399   4.068 -0.4045 -0.0763 -0.4031
 5196SOL    HW127242   8.159   0.313   4.105 -1.0040  0.7321  1.0242
 5196SOL    HW227243   8.121   0.469   4.076  0.2200  0.6577 -1.1184
 5197SOL     OW27244   1.873   2.395   6.179 -0.1930  0.5100  0.0561
 5197SOL    HW127245   1.782   2.354   6.172  0.2956 -0.5367 -0.3132
 5197SOL    HW227246   1.919   2.358   6.260 -0.1784  1.2072  0.3670
 5198SOL     OW27247   8.742   2.285   5.036  0.7207 -0.0487 -0.1275
 5198SOL    HW127248   8.831   2.240   5.038  0.5152 -0.4843 -0.8288
 5198SOL    HW227249   8.670   2.217   5.045  0.4641  0.3504  0.9731
 5199SOL     OW27250   7.891   9.910   4.846 -0.0612 -0.8992 -0.3355
 5199SOL    HW127251   7.928   9.921   4.753 -1.0900 -1.2108 -0.7856
 5199SOL    HW227252   7.801   9.867   4.841 -1.0441  0.9650  0.6616
 5200SOL     OW27253   9.066   6.154   7.292 -0.2750  0.4974 -0.1587
 5200SOL    HW127254   9.086   6.223   7.223 -0.8741 -1.3020 -2.1844
 5200SOL    HW227255   9.000   6.089   7.256  1.0899 -1.7709  1.2961
 5201SOL     OW27256   4.243   0.092   7.587  0.5379  0.1746 -0.0092
 5201SOL    HW127257   4.342   0.088   7.573  0.5202  1.5711 -0.6998
 5201SOL    HW227258   4.203   0.150   7.516 -0.3699  2.3223  2.2135
 5202SOL     OW27259   1.364   4.417   3.076  0.1055 -0.1151  0.4347
 5202SOL    HW127260   1.422   4.494   3.102  0.9424 -0.2603 -0.9101
 5202SOL    HW227261   1.400   4.333   3.116 -0.0235  0.0025  0.7983
 5203SOL     OW27262   9.345   3.200   2.327 -0.3569  0.7968  0.1214
 5203SOL    HW127263   9.302   3.110   2.313 -0.1307  0.4514  1.5169
 5203SOL    HW227264   9.292   3.251   2.394  1.1781  0.5056  1.6029
 5204SOL     OW27265   0.789   6.160   0.083 -0.3187 -0.5074 -0.2467
 5204SOL    HW127266   0.865   6.095   0.074 -0.8466 -1.2702  0.7359
 5204SOL    HW227267   0.759   6.164   0.178  0.0178  1.5534 -0.2012
 5205SOL     OW27268   8.345   0.276   6.695  0.2542 -0.0232  0.1930
 5205SOL    HW127269   8.249   0.299   6.715 -0.1016 -1.4896  0.2525
 5205SOL    HW227270   8.402   0.356   6.710 -1.0596  1.0775 -0.5226
 5206SOL     OW27271   9.012   3.009   1.316  0.0549  0.1740  0.7600
 5206SOL    HW127272   9.022   3.106   1.294  0.8741 -0.1658 -0.4178
 5206SOL    HW227273   8.932   2.972   1.268  0.2490  0.0640  0.5228
 5207SOL     OW27274   0.505   5.174   4.023  0.7328  0.0694  0.3830
 5207SOL    HW127275   0.544   5.264   4.042 -0.6930  0.9651 -0.8059
 5207SOL    HW227276   0.468   5.136   4.107  0.9014  0.8257  0.8063
 5208SOL     OW27277   4.196   5.682   0.410 -0.1785  0.1827 -0.1464
 5208SOL    HW127278   4.172   5.592   0.445 -0.7623  0.0788 -0.7979
 5208SOL    HW227279   4.271   5.674   0.344  0.2103  0.2550  0.2820
 5209SOL     OW27280   3.293   2.854   6.407 -0.0066 -0.1208  0.2391
 5209SOL    HW127281   3.218   2.797   6.373  0.1734  0.5378 -1.2998
 5209SOL    HW227282   3.351   2.882   6.330  1.5406 -0.2185  1.3503
 5210SOL     OW27283   0.263   3.152   3.887 -0.2222  0.3280  0.0223
 5210SOL    HW127284   0.306   3.101   3.812  0.4259  1.1348 -0.1623
 5210SOL    HW227285   0.171   3.180   3.860 -1.1182 -1.9082  0.6328
 5211SOL     OW27286   3.250   0.592   3.383  0.3015  0.5794 -0.1685
 5211SOL    HW127287   3.236   0.661   3.453 -3.2557 -1.2460  1.0113
 5211SOL    HW227288   3.231   0.631   3.293 -0.2268  1.5380  0.3512
 5212SOL     OW27289   0.110   6.124   3.050  0.5247 -0.1237 -0.1708
 5212SOL    HW127290   0.041   6.090   2.986  0.7886 -1.2754  0.1511
 5212SOL    HW227291   0.188   6.061   3.051  1.2353  0.7568  0.0604
 5213SOL     OW27292   8.349   2.642   3.850  0.4427 -0.2137 -0.2775
 5213SOL    HW127293   8.356   2.737   3.881 -0.1421  0.3615 -1.8780
 5213SOL    HW227294   8.295   2.590   3.917  1.3571  0.4010  0.9630
 5214SOL     OW27295   3.246   8.952   1.539  0.4181  0.4324 -0.2072
 5214SOL    HW127296   3.222   8.857   1.517 -1.6121  0.3415  2.1925
 5214SOL    HW227297   3.213   9.012   1.466 -0.5016 -0.4672 -0.5441
 5215SOL     OW27298   3.903   7.444   1.806  0.1363 -0.8344  0.0849
 5215SOL    HW127299   3.840   7.397   1.745  1.0734 -0.1975 -1.4166
 5215SOL    HW227300   3.865   7.532   1.832  0.6634 -0.1709 -1.3381
 5216SOL     OW27301   8.677   4.002   5.392 -0.4452  0.6133 -0.1314
 5216SOL    HW127302   8.642   3.973   5.304 -1.2561 -0.2364  0.4642
 5216SOL    HW227303   8.705   3.922   5.446 -1.7447  0.9661  1.1144
 5217SOL     OW27304   0.926   6.343   5.836  0.6467 -0.7062 -0.0142
 5217SOL    HW127305   0.989   6.270   5.861 -0.1597 -1.4127 -0.0177
 5217SOL    HW227306   0.897   6.393   5.918 -0.0813 -1.4430  0.1758
 5218SOL     OW27307   0.815   5.671   3.418 -0.0810  0.3848 -0.3672
 5218SOL    HW127308   0.862   5.598   3.367  0.9304  0.6979  0.1013
 5218SOL    HW227309   0.805   5.644   3.514 -0.5487  0.4681 -0.3919
 5219SOL     OW27310   4.494   3.278   2.392 -0.0804 -0.2204  0.6109
 5219SOL    HW127311   4.538   3.219   2.325  3.5512  2.2950  0.6667
 5219SOL    HW227312   4.432   3.341   2.346 -0.9331 -1.3811  0.1401
 5220SOL     OW27313   2.282   5.831   0.223  0.2025 -0.1686 -0.7255
 5220SOL    HW127314   2.368   5.780   0.228  0.1722 -0.0110  2.0263
 5220SOL    HW227315   2.227   5.796   0.147  0.8814 -3.1699  0.1098
 5221SOL     OW27316   8.026   7.379   6.549 -0.2717 -0.2959 -0.8416
 5221SOL    HW127317   7.942   7.431   6.559 -0.8237 -1.0076 -1.6943
 5221SOL    HW227318   8.019   7.294   6.602  0.1862 -0.0422 -0.3615
 5222SOL     OW27319   4.187   1.040   2.247 -0.0034  0.0203 -0.1999
 5222SOL    HW127320   4.152   0.991   2.326 -0.7959  1.1343  0.1443
 5222SOL    HW227321   4.162   1.136   2.253  1.8051  0.5555 -0.7063
 5223SOL     OW27322   7.328   5.161   1.468  0.6904  0.0225  0.0633
 5223SOL    HW127323   7.283   5.137   1.382  1.0722 -1.4564  0.2618
 5223SOL    HW227324   7.263   5.207   1.528 -0.0713 -0.5274 -0.3327
 5224SOL     OW27325   4.208   5.377   5.593  0.1613  0.2560 -0.3581
 5224SOL    HW127326   4.193   5.300   5.530 -0.0394 -0.4630  0.5506
 5224SOL    HW227327   4.304   5.404   5.590  0.5248 -0.9090  0.2796
 5225SOL     OW27328   9.566   6.724   3.991  0.1949 -0.0131 -0.0857
 5225SOL    HW127329   9.578   6.676   4.077  1.3461  0.8443  0.2489
 5225SOL    HW227330   9.513   6.808   4.006 -0.8810 -0.6076 -0.4794
 5226SOL     OW27331   8.782   0.981   1.656  0.1484 -0.3393  0.0774
 5226SOL    HW127332   8.789   0.882   1.663 -0.0481 -0.2089  2.4661
 5226SOL    HW227333   8.803   1.023   1.744 -0.1700  1.7256 -0.7867
 5227SOL     OW27334   7.493   9.728   1.355 -0.8217  0.2119  0.4092
 5227SOL    HW127335   7.590   9.753   1.356 -1.0411  1.1046 -0.4712
 5227SOL    HW227336   7.467   9.694   1.445  0.4932 -0.7523  0.4515
 5228SOL     OW27337   6.413   7.970   4.245  0.0263  0.0164 -0.0384
 5228SOL    HW127338   6.331   8.025   4.232 -1.0539 -1.7123 -0.7343
 5228SOL    HW227339   6.485   8.004   4.184 -0.3771  1.1483  0.1127
 5229SOL     OW27340   2.160   3.049   1.159 -0.2477  0.4276  0.1728
 5229SOL    HW127341   2.200   2.957   1.168  0.3236  0.6860  0.2502
 5229SOL    HW227342   2.121   3.077   1.247 -0.5629  0.1959  0.1090
 5230SOL     OW27343   1.160   5.946   5.017 -0.4592  0.3414 -0.9248
 5230SOL    HW127344   1.184   6.009   4.943 -2.6917  0.7561 -1.3223
 5230SOL    HW227345   1.198   5.856   4.998  2.2772  1.3934 -0.6467
 5231SOL     OW27346   0.577   1.466   3.705 -0.8291 -0.0705 -0.2524
 5231SOL    HW127347   0.553   1.429   3.795 -0.2355 -0.6964 -0.3478
 5231SOL    HW227348   0.677   1.465   3.695 -0.7500  2.0788 -0.0237
 5232SOL     OW27349   3.757   9.785   2.509 -0.3021  0.2823 -0.4345
 5232SOL    HW127350   3.840   9.840   2.518 -0.1204  0.3087 -2.2080
 5232SOL    HW227351   3.684   9.826   2.563  0.4342  1.0583 -0.0209
 5233SOL     OW27352   2.256   3.658   5.276  0.4834  0.5579 -0.2691
 5233SOL    HW127353   2.294   3.578   5.229  0.5279  0.5772 -0.2667
 5233SOL    HW227354   2.300   3.668   5.365 -0.7171 -0.3900  0.4376
 5234SOL     OW27355   1.966   7.326   4.799 -0.3604  0.3529 -0.0189
 5234SOL    HW127356   1.943   7.282   4.713  1.2171 -1.6915  0.5481
 5234SOL    HW227357   2.043   7.389   4.785 -1.2432  1.3611 -0.4186
 5235SOL     OW27358   2.544   7.910   4.287 -0.1822 -0.1491  0.4213
 5235SOL    HW127359   2.474   7.959   4.337 -2.4128 -1.6743 -1.1013
 5235SOL    HW227360   2.543   7.938   4.191 -0.8491 -2.3963 -0.2682
 5236SOL     OW27361   4.021   3.454   0.797 -0.0198 -0.1409 -0.1716
 5236SOL    HW127362   3.980   3.379   0.850 -0.2778  0.0919 -0.0389
 5236SOL    HW227363   4.119   3.460   0.818 -0.4147  0.9650  1.4941
 5237SOL     OW27364   9.096   5.747   7.828 -0.5003 -0.6386  0.4945
 5237SOL    HW127365   9.153   5.786   7.756 -0.9586 -1.6331 -0.4447
 5237SOL    HW227366   9.128   5.778   7.917  1.3056 -0.9177 -0.0256
 5238SOL     OW27367   2.679   9.264   6.794 -0.0745 -0.0871  0.1795
 5238SOL    HW127368   2.605   9.327   6.770 -0.1733 -0.5300 -0.6776
 5238SOL    HW227369   2.740   9.308   6.860 -0.2517  0.8339 -0.2675
 5239SOL     OW27370   4.986   7.919   2.295  0.1779 -0.1217 -0.2528
 5239SOL    HW127371   5.027   7.974   2.369  1.1278 -0.0763 -0.8027
 5239SOL    HW227372   4.967   7.977   2.217 -3.1284  0.3182  0.8173
 5240SOL     OW27373   3.699   9.174   6.952  0.2011 -0.1527  0.4316
 5240SOL    HW127374   3.745   9.104   7.006 -0.2156  0.1262  1.1462
 5240SOL    HW227375   3.768   9.233   6.909  0.5640 -1.2465 -0.5102
 5241SOL     OW27376   0.257   1.925   3.608 -0.1740 -0.3944  0.1310
 5241SOL    HW127377   0.274   1.969   3.519 -1.0029 -0.4892 -0.0802
 5241SOL    HW227378   0.259   1.826   3.597 -0.5976 -0.4041  0.1607
 5242SOL     OW27379   4.191   0.626   7.469  0.3821  0.0531  0.1923
 5242SOL    HW127380   4.287   0.652   7.462 -0.6276  3.8017 -0.4202
 5242SOL    HW227381   4.169   0.560   7.397  2.1430  0.1973 -0.4996
 5243SOL     OW27382   3.997   6.197   1.793 -0.0831 -0.0470 -0.0691
 5243SOL    HW127383   4.045   6.111   1.776  0.5325  0.2413  0.2106
 5243SOL    HW227384   4.018   6.261   1.720 -0.7995 -0.2396 -0.4488
 5244SOL     OW27385   2.512   3.114   2.335 -0.5389 -0.0855  0.2083
 5244SOL    HW127386   2.509   3.151   2.428  1.5993  0.2923  0.1509
 5244SOL    HW227387   2.501   3.188   2.269  1.5368  0.1600  0.1228
 5245SOL     OW27388   6.940   5.063   0.532 -0.2281  0.6789  0.0440
 5245SOL    HW127389   6.845   5.034   0.518 -0.5563  1.3566  0.7925
 5245SOL    HW227390   6.971   5.112   0.450  0.2012 -1.3959 -1.0550
 5246SOL     OW27391   5.081   9.429   2.539 -0.4960  0.2852 -0.1250
 5246SOL    HW127392   5.070   9.331   2.556  0.6823  0.2261  0.3011
 5246SOL    HW227393   5.097   9.476   2.625  1.2755  0.5359 -0.5719
 5247SOL     OW27394   4.330   8.151   1.756  0.7060  0.3299  0.2239
 5247SOL    HW127395   4.423   8.156   1.722  0.1192 -1.5178 -1.7597
 5247SOL    HW227396   4.321   8.074   1.819  0.6333  0.8293  0.8364
 5248SOL     OW27397   2.686   0.410   2.322 -0.1045  0.0434  0.2191
 5248SOL    HW127398   2.775   0.371   2.343 -0.3119 -0.3389  0.3970
 5248SOL    HW227399   2.616   0.365   2.378 -0.5032 -0.1664 -0.4457
 5249SOL     OW27400   7.956   6.721   7.476 -0.0506 -0.0480 -0.2080
 5249SOL    HW127401   7.913   6.734   7.386 -1.5342 -0.1547  0.4588
 5249SOL    HW227402   7.913   6.782   7.542 -2.2933 -3.2707  1.4462
 5250SOL     OW27403   1.284   3.875   5.809 -0.1451  0.0975 -0.7297
 5250SOL    HW127404   1.229   3.824   5.744  0.9123  1.3104 -2.6075
 5250SOL    HW227405   1.379   3.843   5.806 -0.2261 -0.3376  0.7483
 5251SOL     OW27406   1.988   3.488   7.316 -0.4931 -0.1776 -1.1810
 5251SOL    HW127407   2.083   3.470   7.340 -0.4285 -0.3475 -1.5572
 5251SOL    HW227408   1.934   3.405   7.331 -0.0885 -0.8963 -3.4696
 5252SOL     OW27409   1.594   4.132   5.443  0.1215  0.1279  0.5645
 5252SOL    HW127410   1.517   4.191   5.419  0.7753  0.6546 -0.2544
 5252SOL    HW227411   1.563   4.037   5.449  0.0899 -0.1771 -3.2333
 5253SOL     OW27412   3.663   0.728   6.266  0.0181 -0.0903  0.3121
 5253SOL    HW127413   3.567   0.700   6.267 -0.4582  1.5026  1.4487
 5253SOL    HW227414   3.685   0.774   6.352  1.7256 -0.1433 -0.0719
 5254SOL     OW27415   5.586   9.953   5.781  0.0304  0.2665  0.3285
 5254SOL    HW127416   5.645   9.886   5.827  0.4892  0.3233 -0.1704
 5254SOL    HW227417   5.633   9.988   5.700 -0.9376 -0.1182 -0.4031
 5255SOL     OW27418   7.776   4.832   0.849  0.0807 -0.2776  0.6677
 5255SOL    HW127419   7.723   4.861   0.929  1.6165  1.4874  1.0865
 5255SOL    HW227420   7.774   4.732   0.842 -3.3070 -0.2470  0.6218
 5256SOL     OW27421   9.813   6.298   6.745 -0.0444 -1.0539  0.9680
 5256SOL    HW127422   9.856   6.210   6.764 -0.8866 -1.9961 -1.2961
 5256SOL    HW227423   9.715   6.285   6.733 -0.4464  0.5018  2.4521
 5257SOL     OW27424   2.389   9.109   2.371 -0.3472 -0.0096  0.0412
 5257SOL    HW127425   2.359   9.170   2.297  1.5016 -0.4471 -1.1188
 5257SOL    HW227426   2.342   9.022   2.363  0.0030 -0.1334 -0.7877
 5258SOL     OW27427   0.961   7.082   6.134  0.0928 -0.3622 -0.1295
 5258SOL    HW127428   1.041   7.116   6.183  0.1714 -0.5502 -0.1271
 5258SOL    HW227429   0.962   7.116   6.040 -0.3094  0.3935  0.1364
 5259SOL     OW27430   8.008   4.273   6.854  0.0679 -0.5099 -0.3997
 5259SOL    HW127431   8.090   4.268   6.797 -0.5245 -1.6754 -1.1871
 5259SOL    HW227432   8.023   4.222   6.938  0.3223 -0.3011 -0.3177
 5260SOL     OW27433   1.551   2.475   0.090  0.4703 -0.1405 -0.5581
 5260SOL    HW127434   1.631   2.476   0.150  2.1892 -1.1044 -2.7375
 5260SOL    HW227435   1.485   2.407   0.123  2.8663 -3.0669 -1.4904
 5261SOL     OW27436   1.838   2.623   7.639 -0.0985  0.0517  0.2713
 5261SOL    HW127437   1.843   2.603   7.737 -1.2495 -0.6094  0.2031
 5261SOL    HW227438   1.930   2.637   7.603  0.4401 -1.1299  1.1592
 5262SOL     OW27439   9.988   2.018   7.013 -0.0525 -0.4240  0.0291
 5262SOL    HW127440  10.068   1.959   7.013  1.3645  1.4548 -0.8160
 5262SOL    HW227441   9.921   1.983   7.079  1.9140 -1.4248  1.5618
 5263SOL     OW27442   3.696   7.504   4.043 -0.0506 -0.1712  0.8366
 5263SOL    HW127443   3.767   7.573   4.032 -0.3262  0.1997  1.3418
 5263SOL    HW227444   3.637   7.502   3.962 -0.6027  0.8368  1.1980
 5264SOL     OW27445   2.609   0.947   6.213 -0.1232 -0.2565  0.4668
 5264SOL    HW127446   2.526   0.979   6.258  0.2993  1.8603 -0.2098
 5264SOL    HW227447   2.631   1.007   6.136  0.4741 -2.4438 -1.1069
 5265SOL     OW27448   4.182   2.436   0.533  0.0711 -0.2805  0.0387
 5265SOL    HW127449   4.207   2.517   0.481 -0.8123 -0.2292 -0.3187
 5265SOL    HW227450   4.116   2.461   0.604 -2.0854 -1.0717 -1.6233
 5266SOL     OW27451   5.709   0.207   8.248  0.2136  0.2584  0.1770
 5266SOL    HW127452   5.713   0.302   8.219  0.4403 -0.0218 -0.7054
 5266SOL    HW227453   5.683   0.149   8.171  1.8012 -0.5968  0.2568
 5267SOL     OW27454   0.161   3.590   5.052  0.0709  0.0462  0.7349
 5267SOL    HW127455   0.252   3.580   5.013  0.0655 -0.9450  0.9597
 5267SOL    HW227456   0.147   3.685   5.079  0.2952  0.6264 -1.1077
 5268SOL     OW27457   7.586   6.910   7.574  0.0656  1.0895 -0.2526
 5268SOL    HW127458   7.603   6.817   7.539 -0.0318  1.0877 -0.2964
 5268SOL    HW227459   7.628   6.920   7.664  2.6075  1.9311 -1.4629
 5269SOL     OW27460   8.023   2.371   2.711  0.2951 -0.0346 -0.3677
 5269SOL    HW127461   8.058   2.280   2.690  0.3741  0.1354 -0.9840
 5269SOL    HW227462   7.944   2.363   2.772  0.4458 -0.5027 -0.2341
 5270SOL     OW27463   5.382   7.943   1.524  0.0822  0.3646  0.0556
 5270SOL    HW127464   5.310   7.992   1.476  1.4705  1.5992 -0.8156
 5270SOL    HW227465   5.452   8.008   1.555  1.6290 -0.9749 -0.5224
 5271SOL     OW27466   5.528   0.384   2.784  0.1994 -0.4228 -0.5323
 5271SOL    HW127467   5.466   0.460   2.807  1.2561  0.3750 -0.2591
 5271SOL    HW227468   5.548   0.331   2.866 -0.7011 -1.1206 -0.7631
 5272SOL     OW27469   0.226   7.427   6.603 -0.2328  0.1354 -0.3254
 5272SOL    HW127470   0.274   7.409   6.517 -1.6082  0.1843 -1.1167
 5272SOL    HW227471   0.168   7.349   6.626  3.9278 -2.1242  3.2507
 5273SOL     OW27472   7.492   1.001   2.235 -0.3103  0.6385  0.5428
 5273SOL    HW127473   7.474   1.099   2.238  0.4905  0.7639  1.6935
 5273SOL    HW227474   7.576   0.981   2.286  0.8507 -0.3644 -1.7017
 5274SOL     OW27475   9.253   3.220   4.634  0.1236 -0.0654  0.2852
 5274SOL    HW127476   9.306   3.298   4.598 -0.5105 -0.2578 -1.0882
 5274SOL    HW227477   9.262   3.217   4.733  2.3887  0.1355  0.1118
 5275SOL     OW27478   6.553   1.564   1.667 -0.5386  0.1112  0.0653
 5275SOL    HW127479   6.453   1.566   1.667 -0.5245  1.0041  1.8595
 5275SOL    HW227480   6.586   1.511   1.745  0.4059 -0.1856 -0.5185
 5276SOL     OW27481   1.313   1.314   4.409 -0.4748 -0.4488 -0.2459
 5276SOL    HW127482   1.216   1.337   4.412  0.1250  2.1544  2.6793
 5276SOL    HW227483   1.361   1.381   4.352 -0.1003 -0.3999  0.1234
 5277SOL     OW27484   9.818   2.240   0.417 -0.0336 -0.1432  0.3001
 5277SOL    HW127485   9.875   2.322   0.413  0.6356 -0.6316 -0.2768
 5277SOL    HW227486   9.728   2.264   0.455  0.0550  0.9121 -0.1367
 5278SOL     OW27487   8.946   8.249   8.027 -0.0677  0.2749 -0.0152
 5278SOL    HW127488   8.934   8.167   8.083 -0.8683 -1.4151 -2.6102
 5278SOL    HW227489   9.042   8.278   8.031  0.4850 -1.4865 -0.0301
 5279SOL     OW27490   9.163   0.640   3.222 -0.1410  0.1460  0.5565
 5279SOL    HW127491   9.262   0.626   3.225 -0.1475 -0.3087 -1.0196
 5279SOL    HW227492   9.144   0.735   3.197 -0.1006  0.1481  0.5330
 5280SOL     OW27493   9.689   6.175   6.343 -0.3667  0.0254  0.3375
 5280SOL    HW127494   9.683   6.209   6.437 -0.4394  0.1309  0.2944
 5280SOL    HW227495   9.767   6.218   6.297 -1.4954  1.4555 -0.2631
 5281SOL     OW27496   6.960   6.830   4.142  0.4544  0.1588 -0.0646
 5281SOL    HW127497   6.893   6.833   4.067  0.2413 -0.0026  0.1183
 5281SOL    HW227498   7.034   6.895   4.123 -0.0291  0.7365 -0.0056
 5282SOL     OW27499   5.069   9.347   4.822  0.1066 -0.0818  0.3703
 5282SOL    HW127500   4.978   9.305   4.817 -0.5274  1.3923 -0.7893
 5282SOL    HW227501   5.139   9.275   4.820 -0.9629 -1.1177 -1.2260
 5283SOL     OW27502   9.049   9.000   6.839 -0.4655  0.0106  0.2358
 5283SOL    HW127503   9.028   9.047   6.924 -0.9996  0.8122 -0.3351
 5283SOL    HW227504   9.111   9.056   6.784  1.2680 -1.2642  0.8431
 5284SOL     OW27505   6.938   1.097   3.698 -0.0026  0.1355 -0.1158
 5284SOL    HW127506   6.867   1.055   3.755 -1.1236  0.6246 -1.1389
 5284SOL    HW227507   6.979   1.174   3.747  0.9026 -1.0892  1.0959
 5285SOL     OW27508   8.896   2.059   2.375 -0.4147  0.5026  0.1990
 5285SOL    HW127509   8.965   2.122   2.411 -1.5141  0.7958  1.8484
 5285SOL    HW227510   8.876   1.988   2.443  0.6649 -1.5454 -1.5566
 5286SOL     OW27511   0.849   4.278   6.533 -0.5690 -0.0537 -0.6588
 5286SOL    HW127512   0.930   4.303   6.481 -0.0248 -0.9976 -0.2887
 5286SOL    HW227513   0.846   4.330   6.618  0.9916 -1.7437  0.4956
 5287SOL     OW27514   0.486   2.114   5.250  0.4133  0.3092  0.2076
 5287SOL    HW127515   0.574   2.130   5.204  0.0199  1.2511 -0.2344
 5287SOL    HW227516   0.440   2.036   5.207  1.1052 -0.2891  0.5496
 5288SOL     OW27517   3.356   7.270   1.854  0.1049 -0.0739  0.1446
 5288SOL    HW127518   3.348   7.329   1.773 -0.5958 -1.4686 -0.8102
 5288SOL    HW227519   3.272   7.277   1.908 -0.2141 -0.6340 -0.2740
 5289SOL     OW27520   7.290   2.207   2.421 -0.2981  0.3176  0.2121
 5289SOL    HW127521   7.383   2.180   2.399 -0.2634  0.8685 -0.3116
 5289SOL    HW227522   7.247   2.135   2.476  0.2653 -0.1589  0.0335
 5290SOL     OW27523   2.708   2.479   4.713 -0.1093  0.7943 -0.0998
 5290SOL    HW127524   2.689   2.381   4.713  0.4046  0.6560  2.4245
 5290SOL    HW227525   2.624   2.529   4.735  0.2645  0.7157  1.6140
 5291SOL     OW27526   3.762   1.781   1.193 -0.0715  0.0993 -0.0463
 5291SOL    HW127527   3.732   1.687   1.210 -0.0032  0.3436  1.4716
 5291SOL    HW227528   3.726   1.812   1.105 -0.2333 -1.2863 -0.4847
 5292SOL     OW27529   8.838   5.740   4.074 -0.0874  0.2328  0.5106
 5292SOL    HW127530   8.809   5.655   4.116 -0.5215  0.6538  1.0729
 5292SOL    HW227531   8.895   5.721   3.995 -0.7585 -0.5891  0.2213
 5293SOL     OW27532   0.555   7.277   0.177  0.3861  0.7402  0.1244
 5293SOL    HW127533   0.499   7.290   0.095  0.5715  3.7688  0.3910
 5293SOL    HW227534   0.506   7.314   0.257  0.9763 -0.4978  1.0772
 5294SOL     OW27535   6.210   7.717   7.690  0.2942 -0.3346 -0.4753
 5294SOL    HW127536   6.249   7.775   7.762 -0.5156 -1.3144  0.7689
 5294SOL    HW227537   6.200   7.771   7.606  1.0573  0.8782  0.1951
 5295SOL     OW27538   5.107   0.164   6.215  0.1704 -0.0426  1.2233
 5295SOL    HW127539   5.116   0.220   6.298  0.4124 -0.1425  1.2631
 5295SOL    HW227540   5.094   0.068   6.241 -0.2080 -0.0118  1.1544
 5296SOL     OW27541   6.831   0.816   1.402 -0.2234  0.0415 -0.1397
 5296SOL    HW127542   6.924   0.806   1.438 -0.0810  0.9511 -0.2654
 5296SOL    HW227543   6.768   0.835   1.478 -0.4465 -1.4218  0.0586
 5297SOL     OW27544   9.105   7.328   1.182 -0.4176  0.6093  0.1508
 5297SOL    HW127545   9.140   7.314   1.274  0.4869  0.7844 -0.1655
 5297SOL    HW227546   9.005   7.324   1.184 -0.3509 -1.2727  0.8115
 5298SOL     OW27547   7.140   9.089   7.583  0.0092 -0.0489  0.3948
 5298SOL    HW127548   7.150   9.023   7.510 -1.1038 -0.2031  0.3723
 5298SOL    HW227549   7.182   9.053   7.667  0.5616 -0.2172  0.0461
 5299SOL     OW27550   3.795   6.611   5.039  0.2245 -0.2514 -0.1136
 5299SOL    HW127551   3.755   6.595   5.129 -0.1627 -0.3767 -0.3067
 5299SOL    HW227552   3.865   6.542   5.020  0.2201 -0.2977  0.0384
 5300SOL     OW27553   0.465   2.568   6.825  0.4944 -0.3405  0.5344
 5300SOL    HW127554   0.558   2.533   6.832  0.3857 -0.7503 -0.0194
 5300SOL    HW227555   0.441   2.580   6.729 -0.1941 -0.7163  0.6527
 5301SOL     OW27556   4.144   4.815   5.989  0.2075  0.0342 -0.5814
 5301SOL    HW127557   4.064   4.760   6.013 -0.0358 -0.7929 -3.1524
 5301SOL    HW227558   4.116   4.911   5.978  0.1673  0.2794  1.4699
 5302SOL     OW27559   8.704   9.402   3.689  0.0419  0.1787  0.5628
 5302SOL    HW127560   8.712   9.476   3.757  2.1987  0.0322  0.5256
 5302SOL    HW227561   8.720   9.314   3.734  0.6134  0.0083  0.0375
 5303SOL     OW27562   9.965   9.053   2.836  0.2382 -0.4244 -0.1693
 5303SOL    HW127563   9.906   8.989   2.787 -0.9974 -1.3371  2.4099
 5303SOL    HW227564   9.954   9.145   2.798 -0.9460 -1.0385 -1.3420
 5304SOL     OW27565   0.680   1.799   5.761  0.2391  0.0320  0.1420
 5304SOL    HW127566   0.648   1.861   5.833 -3.8532 -2.1752  0.3895
 5304SOL    HW227567   0.662   1.841   5.672 -1.2813 -0.1987  0.3265
 5305SOL     OW27568   0.362   4.159   3.895 -0.6702  0.2551  0.5166
 5305SOL    HW127569   0.460   4.152   3.912 -0.3143  1.0928 -1.0124
 5305SOL    HW227570   0.313   4.160   3.981  0.6260 -0.7157  1.2834
 5306SOL     OW27571   5.958   0.471   1.618 -0.1428 -0.7269  0.3401
 5306SOL    HW127572   5.913   0.558   1.597  2.5420  0.8889  1.0603
 5306SOL    HW227573   5.979   0.423   1.533  0.2161  0.3114 -0.1695
 5307SOL     OW27574   7.659   2.025   1.662 -0.3018  0.0619 -0.2008
 5307SOL    HW127575   7.628   2.111   1.702 -0.7555 -0.5844  0.8774
 5307SOL    HW227576   7.580   1.973   1.630 -0.1963 -0.7958  0.9021
 5308SOL     OW27577   4.943   3.341   1.081  0.1747  0.3240 -0.9698
 5308SOL    HW127578   4.865   3.295   1.123 -0.3842  0.7507 -1.5358
 5308SOL    HW227579   4.945   3.436   1.110  0.6473  0.2449 -0.7367
 5309SOL     OW27580   5.912   9.294   6.266  0.0982  0.1033 -0.2254
 5309SOL    HW127581   5.822   9.257   6.289 -0.4943  1.4168 -0.3601
 5309SOL    HW227582   5.905   9.351   6.184  1.1115 -0.0197 -0.4078
 5310SOL     OW27583   0.150   5.276  10.016  0.6061 -0.6283  0.5465
 5310SOL    HW127584   0.143   5.342   9.941 -1.4327  0.0017  1.2767
 5310SOL    HW227585   0.233   5.295  10.069  0.8786  0.3229 -0.2085
 5311SOL     OW27586   0.745   0.631   4.679 -0.0769 -0.5219  0.3164
 5311SOL    HW127587   0.700   0.587   4.756 -0.6269  1.1804  1.0044
 5311SOL    HW227588   0.842   0.645   4.700 -0.4834  1.0614  1.2448
 5312SOL     OW27589   1.722   7.047   7.377 -0.1203  0.0865  0.0182
 5312SOL    HW127590   1.626   7.021   7.371  0.1313 -0.7383 -0.5677
 5312SOL    HW227591   1.735   7.112   7.451 -0.9891 -0.4794  0.6670
 5313SOL     OW27592   2.296   2.604   0.876 -0.0425  0.2544 -0.0949
 5313SOL    HW127593   2.316   2.528   0.938 -0.6163 -0.3387 -0.6266
 5313SOL    HW227594   2.381   2.653   0.856  0.3585 -0.3140  0.1682
 5314SOL     OW27595   8.053   1.792   6.935  0.2419 -0.0265 -0.3209
 5314SOL    HW127596   7.989   1.783   7.012  1.2709  2.6522  0.9013
 5314SOL    HW227597   8.145   1.768   6.966  0.6680  1.1271 -0.6836
 5315SOL     OW27598   0.964   1.450   5.110 -0.3415 -0.3568 -0.6197
 5315SOL    HW127599   0.947   1.355   5.136  1.9130 -0.4378  0.7243
 5315SOL    HW227600   1.059   1.473   5.129 -0.7940  2.1070 -1.1516
 5316SOL     OW27601   9.843   3.262   4.680 -0.5184  0.1485  0.1729
 5316SOL    HW127602   9.919   3.212   4.722 -2.4023 -2.1809  0.9052
 5316SOL    HW227603   9.809   3.331   4.744  0.4218  0.6404  0.1563
 5317SOL     OW27604   7.046   9.546   8.436  0.5460  0.2549  0.1308
 5317SOL    HW127605   7.076   9.485   8.509 -1.8654  0.3522  1.2672
 5317SOL    HW227606   7.108   9.539   8.358  1.6868 -1.7953  1.1942
 5318SOL     OW27607   0.844   3.947   4.897 -0.6117 -0.1685 -0.1647
 5318SOL    HW127608   0.932   3.965   4.942 -0.7856 -0.4906  0.3010
 5318SOL    HW227609   0.809   3.859   4.926 -1.2150  0.0728 -0.1605
 5319SOL     OW27610   4.257   0.048   3.870 -0.3045 -0.1566 -0.2434
 5319SOL    HW127611   4.307   0.127   3.836  0.0885 -0.3286 -0.0736
 5319SOL    HW227612   4.184   0.024   3.806 -0.8708  0.7663  0.0512
 5320SOL     OW27613   1.907   5.937   1.020 -0.5156  0.1713 -0.0907
 5320SOL    HW127614   1.957   5.972   0.940 -0.6105 -0.0236 -0.2350
 5320SOL    HW227615   1.963   5.949   1.102 -1.1419  2.0435  0.0863
 5321SOL     OW27616   8.380   1.402   5.337  0.2248  0.5646  0.2451
 5321SOL    HW127617   8.410   1.497   5.329 -0.1836  0.7560  0.8816
 5321SOL    HW227618   8.417   1.363   5.422 -1.1995  0.7696  0.9788
 5322SOL     OW27619   1.181   0.193   1.964  0.2833 -0.0554 -0.2059
 5322SOL    HW127620   1.091   0.149   1.973  0.5197 -1.0322 -2.2866
 5322SOL    HW227621   1.185   0.243   1.877  0.8503  2.2095  1.0708
 5323SOL     OW27622   9.425   5.833   0.554  0.4308 -0.1044 -0.1017
 5323SOL    HW127623   9.358   5.802   0.486  0.1260 -0.0705  0.1805
 5323SOL    HW227624   9.457   5.925   0.529 -0.5325  0.3870  0.4088
 5324SOL     OW27625   8.130   5.650   0.135 -0.0436 -0.0847  0.3344
 5324SOL    HW127626   8.049   5.703   0.157 -0.5297 -0.1938 -1.1671
 5324SOL    HW227627   8.108   5.553   0.136  0.7113 -0.2635  2.5173
 5325SOL     OW27628   1.628   2.623   5.012 -0.2740  0.2306  0.1968
 5325SOL    HW127629   1.627   2.595   4.916 -0.2760 -0.5013  0.4093
 5325SOL    HW227630   1.563   2.568   5.063 -2.4258  2.5559  0.0818
 5326SOL     OW27631   3.925   7.218   0.511 -0.6865  0.0708 -0.3704
 5326SOL    HW127632   3.981   7.252   0.586 -0.8535  0.1808 -0.2969
 5326SOL    HW227633   3.985   7.185   0.438 -0.5287  0.6364 -0.4972
 5327SOL     OW27634   9.208   1.867   5.241  0.3784  0.1918 -0.3575
 5327SOL    HW127635   9.265   1.834   5.166  1.7520  0.4419  0.5480
 5327SOL    HW227636   9.251   1.947   5.283  0.1349 -0.5078  1.2930
 5328SOL     OW27637   8.055   7.717   2.280 -0.7515  0.3403  0.3061
 5328SOL    HW127638   8.042   7.634   2.227  0.4178  1.2624 -1.4759
 5328SOL    HW227639   7.969   7.769   2.281 -1.3459 -0.6334  1.0161
 5329SOL     OW27640   8.117   9.562   4.608 -0.4019  0.4080 -0.3308
 5329SOL    HW127641   8.177   9.641   4.620 -0.5490  0.4572  0.1090
 5329SOL    HW227642   8.171   9.478   4.602 -0.3255  0.3523  0.9387
 5330SOL     OW27643   8.911   0.886   7.279  0.3216 -0.0633 -0.3191
 5330SOL    HW127644   8.911   0.809   7.216  0.1872  0.6824 -1.2470
 5330SOL    HW227645   8.836   0.876   7.344 -0.0442 -0.4365 -0.7924
 5331SOL     OW27646   4.148   1.608   6.416 -0.4967 -0.5451 -0.2376
 5331SOL    HW127647   4.111   1.681   6.474 -1.5982 -0.7219 -0.7043
 5331SOL    HW227648   4.212   1.648   6.350  1.4447 -0.4714  1.6774
 5332SOL     OW27649   0.905   9.193   7.060  0.1072  0.4500 -0.2337
 5332SOL    HW127650   0.904   9.135   6.979 -0.8398  0.7558 -0.4475
 5332SOL    HW227651   0.982   9.167   7.118  0.2421 -0.3959 -0.7736
 5333SOL     OW27652   0.047   8.322   5.000 -0.0649 -0.0443  0.0924
 5333SOL    HW127653  -0.001   8.354   4.918 -1.2537 -1.1466  0.3533
 5333SOL    HW227654   0.111   8.393   5.030  0.0023  0.5958 -1.4708
 5334SOL     OW27655   7.528   1.106   0.264 -0.2771 -0.2204 -0.4943
 5334SOL    HW127656   7.481   1.176   0.209  0.1372  0.6289  0.2227
 5334SOL    HW227657   7.592   1.151   0.326 -1.6108 -1.1045  1.5342
 5335SOL     OW27658   4.040   2.288   1.287 -0.1572 -0.4507  0.1192
 5335SOL    HW127659   3.967   2.220   1.290 -0.1430 -0.6970 -3.3165
 5335SOL    HW227660   4.127   2.241   1.271 -0.0355  0.2832 -1.4330
 5336SOL     OW27661   2.321   4.980   6.365  0.1212 -0.3100  0.2670
 5336SOL    HW127662   2.248   4.944   6.306  0.0517 -0.8126  0.6579
 5336SOL    HW227663   2.404   4.925   6.352  0.7225  0.8508 -0.8920
 5337SOL     OW27664   3.714   5.828   0.009 -0.1353  0.0980 -0.0396
 5337SOL    HW127665   3.810   5.814  -0.017 -0.4631 -2.1642 -0.1271
 5337SOL    HW227666   3.655   5.781  -0.057 -1.3109  1.5949 -0.0509
 5338SOL     OW27667   0.075   7.545   0.973 -0.2523 -0.2602  0.7605
 5338SOL    HW127668   0.144   7.568   0.904 -1.6331  1.2239 -0.1566
 5338SOL    HW227669   0.004   7.487   0.931 -1.2432  0.8727  0.8367
 5339SOL     OW27670   8.098   3.419   6.599 -0.4038  0.2136 -0.5595
 5339SOL    HW127671   8.110   3.411   6.500 -0.6485  0.4475 -0.6070
 5339SOL    HW227672   8.184   3.396   6.645  0.2891  2.0088 -0.9089
 5340SOL     OW27673   0.168   6.147   0.445 -0.4119 -0.5445  0.5690
 5340SOL    HW127674   0.233   6.205   0.395  0.9945 -2.5402  0.0066
 5340SOL    HW227675   0.103   6.205   0.494  0.8763  1.5004 -0.0445
 5341SOL     OW27676   3.418   6.060   7.180  0.6290  0.3727  0.2682
 5341SOL    HW127677   3.479   6.135   7.206 -0.1084  0.4502  1.8473
 5341SOL    HW227678   3.472   5.979   7.158  1.3010  0.2890  2.1509
 5342SOL     OW27679   9.484   2.858   4.571 -0.2433  0.7111  0.4261
 5342SOL    HW127680   9.578   2.828   4.586 -0.1042  1.1589  0.4723
 5342SOL    HW227681   9.481   2.958   4.573 -0.8988  0.6790  1.5843
 5343SOL     OW27682   5.048   8.886   1.792  0.0066 -0.3880  0.3605
 5343SOL    HW127683   5.000   8.965   1.830 -2.3076 -0.7609 -1.7032
 5343SOL    HW227684   5.143   8.887   1.824 -0.7528  1.5623  2.7551
 5344SOL     OW27685   1.686   3.586   1.902  0.8265 -0.0084  0.1610
 5344SOL    HW127686   1.592   3.563   1.928  1.3972 -1.1978  1.2024
 5344SOL    HW227687   1.727   3.642   1.973  0.8987  0.5444 -0.3146
 5345SOL     OW27688   3.116   8.884   5.170  0.2286  0.2017  0.1372
 5345SOL    HW127689   3.063   8.825   5.109  0.5884 -0.2242  0.2423
 5345SOL    HW227690   3.139   8.969   5.122 -0.7105  0.4707  0.1515
 5346SOL     OW27691   3.644   0.379   6.667 -0.1494  0.1275 -0.6735
 5346SOL    HW127692   3.620   0.306   6.731  1.5849  0.0686 -0.0574
 5346SOL    HW227693   3.598   0.363   6.579 -0.6607 -1.0904 -0.1996
 5347SOL     OW27694   7.207   8.304   5.943  0.2355 -0.4399  0.2937
 5347SOL    HW127695   7.145   8.362   5.996 -0.1436 -0.6129  0.0375
 5347SOL    HW227696   7.155   8.252   5.876  0.4666 -1.6612  1.0443
 5348SOL     OW27697   6.736   0.729   1.108 -0.2211  0.6031 -0.0973
 5348SOL    HW127698   6.814   0.772   1.062  1.4668 -2.1641  0.0761
 5348SOL    HW227699   6.744   0.742   1.207  0.1808  0.0704 -0.0591
 5349SOL     OW27700   8.424   2.353   3.555 -0.7964 -0.3165 -0.1616
 5349SOL    HW127701   8.386   2.442   3.530  1.9819  0.6559 -1.1429
 5349SOL    HW227702   8.523   2.354   3.541 -0.4059 -2.8279  2.0412
 5350SOL     OW27703   6.844   6.968   7.045  0.0522  0.1833 -0.2040
 5350SOL    HW127704   6.764   7.017   7.082  1.6136  2.5433  0.1776
 5350SOL    HW227705   6.827   6.943   6.950 -1.5576 -0.2967  0.1965
 5351SOL     OW27706   9.347   6.652   2.571 -0.6906 -0.1380  0.1361
 5351SOL    HW127707   9.278   6.591   2.609  0.0232 -1.6420 -0.9131
 5351SOL    HW227708   9.325   6.672   2.476 -0.2080  0.1645  0.0862
 5352SOL     OW27709   8.454   9.486   6.106  0.6848  0.2430 -0.5704
 5352SOL    HW127710   8.363   9.461   6.072  1.1672 -2.0564 -0.2826
 5352SOL    HW227711   8.520   9.479   6.032  0.3550  3.8566 -1.2773
 5353SOL     OW27712   1.147   7.050   3.871 -0.1990  0.4550 -0.2727
 5353SOL    HW127713   1.079   6.980   3.893 -0.1843  0.2016 -1.0240
 5353SOL    HW227714   1.101   7.133   3.841 -0.2342  0.9531  1.1137
 5354SOL     OW27715   3.205   2.941   1.259  0.1680  0.5148 -0.1672
 5354SOL    HW127716   3.120   2.892   1.278 -0.9547  2.5897  0.2707
 5354SOL    HW227717   3.274   2.876   1.228 -1.7553 -1.1151 -1.1734
 5355SOL     OW27718   0.882   2.356   5.063 -0.4568 -0.0743 -0.1264
 5355SOL    HW127719   0.981   2.357   5.075 -0.2675 -0.1182 -1.6786
 5355SOL    HW227720   0.858   2.407   4.981 -1.9262  2.2586  1.6566
 5356SOL     OW27721   3.988   5.761   1.219  0.2999  0.0758  0.0025
 5356SOL    HW127722   4.059   5.692   1.237  0.6473 -0.5630 -3.5800
 5356SOL    HW227723   4.031   5.849   1.202  0.1189  0.1324 -0.1550
 5357SOL     OW27724   8.310   3.052   2.798  0.3645  0.8350  0.6898
 5357SOL    HW127725   8.365   3.083   2.721 -0.4432  0.4374 -0.0599
 5357SOL    HW227726   8.292   3.129   2.860  3.0804  0.6301  1.7790
 5358SOL     OW27727   3.556   4.487   6.435 -0.1223  0.1602  0.0832
 5358SOL    HW127728   3.641   4.435   6.437  0.2902  0.7651 -1.3612
 5358SOL    HW227729   3.508   4.470   6.349  0.1628  2.3514 -0.5365
 5359SOL     OW27730   7.073   8.493   5.653 -0.1100 -0.2689 -0.5029
 5359SOL    HW127731   7.116   8.526   5.569 -1.0876 -0.5340 -1.1169
 5359SOL    HW227732   7.098   8.398   5.669  1.9016  0.4379  0.7319
 5360SOL     OW27733   3.549   9.822   7.016  0.0734  0.2073 -0.3875
 5360SOL    HW127734   3.599   9.747   7.059  0.4683  1.1534  0.8640
 5360SOL    HW227735   3.510   9.880   7.087 -2.3186 -0.1760 -1.3486
 5361SOL     OW27736   7.980   7.917   3.995  0.9697  0.3233  0.1806
 5361SOL    HW127737   7.933   7.831   3.971  0.2810  0.8697 -0.4627
 5361SOL    HW227738   8.060   7.929   3.936  0.1091  0.9417 -0.8911
 5362SOL     OW27739   0.919   0.023   5.077 -0.9686 -0.5563  0.3149
 5362SOL    HW127740   0.862  -0.047   5.120 -1.9107  0.3919  0.6270
 5362SOL    HW227741   0.862   0.084   5.023 -0.0975 -0.2563 -0.2870
 5363SOL     OW27742   2.513   7.219   3.870  0.0580 -0.1245 -0.2589
 5363SOL    HW127743   2.471   7.129   3.880  2.1377 -1.1868 -0.8103
 5363SOL    HW227744   2.608   7.215   3.901  0.9555  1.2248 -2.7156
 5364SOL     OW27745   0.244   1.033   2.849 -0.6625  0.1275  0.4807
 5364SOL    HW127746   0.329   1.076   2.819 -0.5579  0.4829  1.2868
 5364SOL    HW227747   0.209   1.080   2.930 -0.2695 -1.6293  1.7094
 5365SOL     OW27748   1.678   1.650   2.468  0.3624  0.2919 -0.4378
 5365SOL    HW127749   1.658   1.554   2.450  1.0105  0.2957 -1.1990
 5365SOL    HW227750   1.745   1.684   2.402  0.4443  1.1598  0.0708
 5366SOL     OW27751   0.499   7.700   0.658  0.1566 -0.2544  0.5224
 5366SOL    HW127752   0.470   7.746   0.574  0.4004  0.2174  0.6941
 5366SOL    HW227753   0.595   7.673   0.650  0.2520  0.0121  0.7399
 5367SOL     OW27754   3.411   4.072   3.805  0.3552 -0.4899  0.0173
 5367SOL    HW127755   3.355   4.078   3.722 -0.0443 -0.2361  0.3068
 5367SOL    HW227756   3.376   4.000   3.864  0.9972 -1.0736 -0.2990
 5368SOL     OW27757   5.326   8.290   2.365  0.0665  0.2447 -0.3864
 5368SOL    HW127758   5.364   8.366   2.311 -0.3346  0.5074 -0.3057
 5368SOL    HW227759   5.259   8.240   2.309 -1.8809  1.7632  0.5056
 5369SOL     OW27760   9.848   4.114   5.734 -0.3105 -0.3834 -0.0343
 5369SOL    HW127761   9.805   4.056   5.665 -0.9354 -0.1976  0.1909
 5369SOL    HW227762   9.777   4.155   5.791  0.1005  0.8508 -0.3915
 5370SOL     OW27763   2.809   8.465   4.918 -0.2652  0.6220 -0.2945
 5370SOL    HW127764   2.788   8.405   4.841 -0.1303  0.7141 -0.4046
 5370SOL    HW227765   2.851   8.412   4.992  0.7114  0.7361 -0.7547
 5371SOL     OW27766   2.241   7.968   0.998  0.1526 -0.2981  0.0580
 5371SOL    HW127767   2.277   7.875   1.005  2.1840  0.4006 -0.7321
 5371SOL    HW227768   2.192   7.978   0.911  0.3836 -0.4831 -0.0945
 5372SOL     OW27769   7.281   4.272   0.252 -0.2592 -0.3998  0.3093
 5372SOL    HW127770   7.291   4.197   0.187  0.5624 -0.9774  1.0913
 5372SOL    HW227771   7.224   4.344   0.212  0.9275 -0.3761 -1.3776
 5373SOL     OW27772   9.972   4.298   6.335  0.3360  0.9648  0.2078
 5373SOL    HW127773   9.924   4.343   6.260  0.8533 -1.2631 -1.5368
 5373SOL    HW227774  10.056   4.256   6.300  0.5235 -0.2423  2.0103
 5374SOL     OW27775   7.154   6.361   4.220 -0.2271 -0.3355  0.0857
 5374SOL    HW127776   7.150   6.461   4.224 -0.4658 -0.3524  0.2936
 5374SOL    HW227777   7.168   6.325   4.312  2.0222 -0.4008 -0.2506
 5375SOL     OW27778   6.254   3.120   1.861  0.3979 -0.0007  0.2270
 5375SOL    HW127779   6.262   3.185   1.786 -2.0889 -0.8482 -0.8400
 5375SOL    HW227780   6.182   3.150   1.925  1.3383 -0.1402  1.3639
 5376SOL     OW27781   1.548   5.491   6.493  0.3496 -0.1150 -0.0518
 5376SOL    HW127782   1.550   5.436   6.577  1.8074 -1.2623 -0.7971
 5376SOL    HW227783   1.455   5.495   6.458  0.2254 -2.3408 -0.0897
 5377SOL     OW27784   8.580   2.630   6.045  0.1597  0.4252 -0.2763
 5377SOL    HW127785   8.567   2.651   6.142 -0.4222 -1.7550  0.1438
 5377SOL    HW227786   8.654   2.686   6.008  2.3861 -0.8122  2.1918
 5378SOL     OW27787   4.275   6.033   0.087 -0.0997 -0.1577 -0.2591
 5378SOL    HW127788   4.238   5.991   0.170 -0.6199 -0.5609 -0.6899
 5378SOL    HW227789   4.273   6.133   0.096 -0.8696 -0.1862 -0.0935
 5379SOL     OW27790   1.079   8.242   3.051  0.3906  0.4255 -0.2644
 5379SOL    HW127791   1.009   8.174   3.073 -0.1282  0.8199 -0.6931
 5379SOL    HW227792   1.160   8.226   3.108 -0.2974  0.3978  0.7084
 5380SOL     OW27793   2.877   5.908  10.034  0.7724  0.3478  1.0506
 5380SOL    HW127794   2.941   5.832  10.034 -0.1362 -0.4291  0.1779
 5380SOL    HW227795   2.901   5.972  10.107  1.4151 -0.8820  1.9364
 5381SOL     OW27796   9.859   8.602   0.821  0.8218  0.0682 -0.3839
 5381SOL    HW127797   9.886   8.596   0.725  0.7945 -0.2315 -0.3751
 5381SOL    HW227798   9.770   8.647   0.828  0.2942 -0.9077 -0.5969
 5382SOL     OW27799   5.712   8.350   1.990  0.1218 -0.7180 -0.3343
 5382SOL    HW127800   5.646   8.305   1.930  1.5066 -1.7953 -1.0850
 5382SOL    HW227801   5.747   8.284   2.057 -0.7932  0.2613  1.1287
 5383SOL     OW27802   7.132   7.895   4.072 -0.5238 -0.0898  0.5535
 5383SOL    HW127803   7.090   7.863   3.987 -1.3286 -1.1714  1.3502
 5383SOL    HW227804   7.133   7.821   4.139 -1.3965  1.2279  2.0588
 5384SOL     OW27805   2.585   1.639   3.045  0.2618 -0.4214  0.5874
 5384SOL    HW127806   2.500   1.586   3.044  0.3041 -0.6610  3.8740
 5384SOL    HW227807   2.650   1.596   3.107  2.1545  0.7504 -0.5372
 5385SOL     OW27808   0.870   9.220   0.770 -0.0669  0.2970 -0.4213
 5385SOL    HW127809   0.836   9.128   0.793  0.7050  0.3630  1.0159
 5385SOL    HW227810   0.804   9.288   0.803  0.6780  0.3612  0.9855
 5386SOL     OW27811   6.064   2.890   1.487  0.3563  0.1856  0.4903
 5386SOL    HW127812   5.976   2.903   1.440  0.3125  1.5271  0.9387
 5386SOL    HW227813   6.109   2.808   1.450 -1.6027 -1.1804  1.0693
 5387SOL     OW27814   0.927   6.138   2.371  0.1173  0.2468  0.4573
 5387SOL    HW127815   0.939   6.234   2.345  0.9755  0.1499  0.4890
 5387SOL    HW227816   1.005   6.108   2.426  0.2761 -0.7091 -0.2693
 5388SOL     OW27817   2.758   4.858   5.329  1.1681  0.7060  0.2002
 5388SOL    HW127818   2.737   4.935   5.389  0.2067 -1.2110  2.4374
 5388SOL    HW227819   2.843   4.815   5.359  2.0023  1.2457 -1.3889
 5389SOL     OW27820   2.074   4.607   4.838  0.3005  0.1321 -0.0985
 5389SOL    HW127821   2.025   4.685   4.798 -1.8606 -2.3401 -2.3854
 5389SOL    HW227822   2.009   4.541   4.875  2.1193 -0.5392  2.0482
 5390SOL     OW27823   1.204   3.236   0.705 -0.5793  0.1512 -0.1493
 5390SOL    HW127824   1.239   3.175   0.775 -0.4335  1.4939  0.9652
 5390SOL    HW227825   1.132   3.294   0.743 -0.5750  0.8213 -1.1320
 5391SOL     OW27826   3.597   5.255   5.230  0.0804  0.1794 -0.5168
 5391SOL    HW127827   3.573   5.351   5.248 -1.9173 -0.1642 -1.2266
 5391SOL    HW227828   3.561   5.228   5.141 -0.2974 -1.5403  0.1361
 5392SOL     OW27829   2.493   8.593   0.182  0.3249 -0.4873  0.1419
 5392SOL    HW127830   2.547   8.632   0.256  1.1929 -0.2489 -0.6084
 5392SOL    HW227831   2.554   8.555   0.113 -0.4727 -4.8121  1.6741
 5393SOL     OW27832   4.444   6.153   0.884 -0.3742  0.3585 -0.9822
 5393SOL    HW127833   4.483   6.070   0.845 -0.4145 -1.0086  1.7806
 5393SOL    HW227834   4.513   6.226   0.884  0.6329 -0.5820 -0.6684
 5394SOL     OW27835   5.486   7.235   3.287  0.5303 -0.0059 -0.1670
 5394SOL    HW127836   5.560   7.243   3.220 -0.6171  3.3951 -1.1418
 5394SOL    HW227837   5.506   7.295   3.365 -0.0053 -1.0053  0.7513
 5395SOL     OW27838   9.448   6.476   2.890 -0.0531 -1.0037  0.1484
 5395SOL    HW127839   9.401   6.503   2.974  0.8205 -2.5089  1.1224
 5395SOL    HW227840   9.520   6.542   2.869  0.6604 -1.4015  1.3476
 5396SOL     OW27841   7.090   7.615   1.920 -0.1964 -0.2105 -0.0971
 5396SOL    HW127842   7.101   7.715   1.919  0.0382 -0.2310  0.1405
 5396SOL    HW227843   7.176   7.573   1.890 -0.5323 -0.3276 -0.8954
 5397SOL     OW27844   8.153   4.720   0.733 -0.1099  0.0991  0.1734
 5397SOL    HW127845   8.116   4.777   0.660  0.8293  0.9592  0.3601
 5397SOL    HW227846   8.180   4.778   0.810  1.0886 -0.5653  0.2657
 5398SOL     OW27847   9.321   6.842   1.135  0.0985 -0.1066  0.2113
 5398SOL    HW127848   9.370   6.921   1.098 -0.8111  1.3374  2.0075
 5398SOL    HW227849   9.294   6.782   1.060 -0.1190  1.8334 -1.3128
 5399SOL     OW27850   2.102   1.007   0.083  0.0380  0.1135  0.3896
 5399SOL    HW127851   2.007   0.978   0.086  0.5783 -1.9527 -1.1370
 5399SOL    HW227852   2.110   1.092   0.030 -1.0089  0.5481  0.9320
 5400SOL     OW27853   9.276   7.188   0.533 -0.0220  0.0367  0.5872
 5400SOL    HW127854   9.358   7.159   0.485  0.7618  1.7946  0.8109
 5400SOL    HW227855   9.294   7.188   0.632 -0.6259 -0.5425  0.7031
 5401SOL     OW27856   1.833   2.962   9.936 -0.6901 -0.0766  0.5618
 5401SOL    HW127857   1.787   2.912  10.009  0.2823  0.0507  1.2666
 5401SOL    HW227858   1.918   2.915   9.911 -0.9246 -0.0232 -0.3662
 5402SOL     OW27859   8.130   7.824   5.758  0.0393  0.0320 -0.0549
 5402SOL    HW127860   8.185   7.749   5.792 -0.2067 -0.3724 -0.5352
 5402SOL    HW227861   8.074   7.861   5.832  0.4835  0.0295  0.2833
 5403SOL     OW27862   7.472   3.140   0.873 -0.4970 -0.4326  0.2370
 5403SOL    HW127863   7.521   3.206   0.816 -1.4339 -1.7832 -2.1925
 5403SOL    HW227864   7.524   3.054   0.875  0.3033  0.0791  2.7166
 5404SOL     OW27865   7.855   7.759   3.037  0.4295 -0.2501 -0.6289
 5404SOL    HW127866   7.899   7.725   3.119  0.1857  1.5244  0.2763
 5404SOL    HW227867   7.866   7.694   2.962 -0.2839 -2.3892  1.0934
 5405SOL     OW27868   9.872   5.587   5.736  0.2725  0.2542 -0.0528
 5405SOL    HW127869   9.891   5.635   5.821 -0.8472  1.2712 -0.3649
 5405SOL    HW227870   9.808   5.512   5.753 -1.0266  1.2966 -0.1951
 5406SOL     OW27871   6.797   6.320   7.514 -0.2832 -0.0838  0.2378
 5406SOL    HW127872   6.767   6.236   7.559 -1.7792 -0.5010 -1.4856
 5406SOL    HW227873   6.736   6.395   7.538  1.6415  0.8044  2.5939
 5407SOL     OW27874   8.600   1.585   6.964  0.3137 -0.1197  0.1843
 5407SOL    HW127875   8.514   1.575   6.914  1.2277 -0.7986 -1.2673
 5407SOL    HW227876   8.649   1.666   6.932  0.5750 -0.1595  0.4701
 5408SOL     OW27877   9.978   3.265   3.030 -0.1529  0.2690 -0.5621
 5408SOL    HW127878   9.915   3.188   3.033 -0.0992  0.2787  1.2895
 5408SOL    HW227879  10.067   3.237   3.067  0.8356  0.3615 -2.7877
 5409SOL     OW27880   7.679   3.953   3.782 -0.0799  0.1455  0.9078
 5409SOL    HW127881   7.746   3.904   3.837  0.7252 -0.4675 -0.5882
 5409SOL    HW227882   7.589   3.950   3.827  0.5272 -0.4440  2.0995
 5410SOL     OW27883   8.217   1.795   4.413  0.0185 -0.2638  0.1835
 5410SOL    HW127884   8.292   1.857   4.391  0.0003 -0.4270 -0.3312
 5410SOL    HW227885   8.236   1.704   4.375 -0.3067 -0.3798  0.2964
 5411SOL     OW27886   2.360   4.750   3.510 -0.5995 -0.1562 -0.3473
 5411SOL    HW127887   2.324   4.780   3.421  1.0684  1.4380 -0.5038
 5411SOL    HW227888   2.363   4.828   3.572  0.9576 -0.6504  0.2014
 5412SOL     OW27889   7.148   8.202   3.488 -0.4249  0.1851  0.6409
 5412SOL    HW127890   7.245   8.175   3.492 -0.7452 -1.0191  0.4303
 5412SOL    HW227891   7.117   8.228   3.579  0.8985  3.4774  0.2087
 5413SOL     OW27892   5.956   0.322   1.989  0.1444  0.0459 -0.1573
 5413SOL    HW127893   5.947   0.245   1.926 -0.3645  0.7646 -0.9894
 5413SOL    HW227894   5.901   0.399   1.955  1.4260  1.1098  0.1212
 5414SOL     OW27895   4.999   9.735   7.543  0.1016  0.3301  0.2994
 5414SOL    HW127896   5.059   9.656   7.552 -0.6510 -0.3645 -0.6615
 5414SOL    HW227897   5.029   9.791   7.465 -1.1759 -0.6421 -0.9141
 5415SOL     OW27898   5.322   7.146   1.973 -0.0377 -0.4467  0.2997
 5415SOL    HW127899   5.346   7.054   2.004 -1.2357 -0.6197  0.7347
 5415SOL    HW227900   5.229   7.167   2.002 -0.1723  0.4622 -0.7863
 5416SOL     OW27901   4.270   3.828   4.508 -0.6656  0.8861  0.0721
 5416SOL    HW127902   4.185   3.819   4.559 -0.6142  0.1838  0.0373
 5416SOL    HW227903   4.326   3.746   4.521 -0.5572  0.7940 -0.9397
 5417SOL     OW27904   5.948   1.333   7.299  0.6489 -0.0891  0.8919
 5417SOL    HW127905   5.930   1.414   7.244  1.4780  0.7317  1.8177
 5417SOL    HW227906   5.863   1.301   7.341  0.0159 -0.6905 -0.7940
 5418SOL     OW27907   7.197   9.784   7.208 -0.1860 -0.1114 -0.6191
 5418SOL    HW127908   7.161   9.855   7.267 -3.1964 -1.2334 -1.0141
 5418SOL    HW227909   7.213   9.701   7.261  0.6779  0.0123 -0.6823
 5419SOL     OW27910   3.335   8.832   5.337  0.1566 -0.2410 -0.1861
 5419SOL    HW127911   3.271   8.855   5.264  1.1364  0.0333 -0.9807
 5419SOL    HW227912   3.364   8.737   5.327 -0.4574 -0.4963  0.4311
 5420SOL     OW27913   4.550   8.395   1.560  0.0531 -0.0449 -0.3431
 5420SOL    HW127914   4.598   8.482   1.551  2.4415 -1.3374 -0.6374
 5420SOL    HW227915   4.587   8.345   1.639 -0.3925 -1.3316 -0.9355
 5421SOL     OW27916   0.952   1.667   2.924 -0.1520 -0.2476 -0.5438
 5421SOL    HW127917   1.025   1.611   2.961 -1.4020 -2.2452 -1.0190
 5421SOL    HW227918   0.959   1.760   2.961  1.7135 -0.8028  0.5605
 5422SOL     OW27919   0.853   7.808   1.424 -0.3341  0.0480 -0.0152
 5422SOL    HW127920   0.911   7.890   1.429 -1.3883  0.8295 -0.4429
 5422SOL    HW227921   0.878   7.754   1.344  0.0388  0.2072 -0.0079
 5423SOL     OW27922   2.368   0.088   6.796  0.1838 -0.5403  0.1382
 5423SOL    HW127923   2.466   0.070   6.795  0.3169  0.2110 -0.6854
 5423SOL    HW227924   2.323   0.035   6.724 -0.1137 -1.3578  0.9034
 5424SOL     OW27925   1.255   3.033   7.145  0.1009  0.0708 -0.6630
 5424SOL    HW127926   1.182   2.980   7.187 -0.6376  1.4669 -0.1413
 5424SOL    HW227927   1.279   2.993   7.056 -1.0564 -0.5973 -0.6819
 5425SOL     OW27928   3.827   0.327   1.655  0.2108 -0.1203  0.2376
 5425SOL    HW127929   3.866   0.288   1.739 -1.9685  0.2722  1.4712
 5425SOL    HW227930   3.740   0.281   1.634 -0.0908  0.9304 -0.8568
 5426SOL     OW27931   0.681   6.787   1.001  0.2998  0.2595 -0.5722
 5426SOL    HW127932   0.588   6.817   1.020  0.5614  1.6542 -1.3800
 5426SOL    HW227933   0.680   6.712   0.935 -0.2517  0.4468 -0.7766
 5427SOL     OW27934   6.081   8.892   2.663 -0.5405 -0.0564  0.1302
 5427SOL    HW127935   6.094   8.969   2.726 -0.0026  0.0430 -0.0967
 5427SOL    HW227936   6.169   8.850   2.644 -0.6797  0.0115 -0.6762
 5428SOL     OW27937   7.975   6.684   6.987  0.0828  0.8042 -0.3860
 5428SOL    HW127938   7.918   6.603   7.004  0.5784  0.5407  0.0498
 5428SOL    HW227939   7.964   6.749   7.062  1.6087  0.0219  0.5514
 5429SOL     OW27940   8.821   3.576   3.036  0.0667  0.3961  0.1788
 5429SOL    HW127941   8.788   3.482   3.036  1.8197 -0.2575 -2.1541
 5429SOL    HW227942   8.914   3.579   3.000  0.5924  2.8639  1.5804
 5430SOL     OW27943   4.378   3.869   0.987  0.1401 -0.0183 -0.0824
 5430SOL    HW127944   4.305   3.913   0.936 -0.7172 -1.5466 -0.2120
 5430SOL    HW227945   4.349   3.777   1.015  0.6197  0.7044  3.0217
 5431SOL     OW27946   1.524   6.085   6.920 -0.4539 -0.2740 -0.5136
 5431SOL    HW127947   1.467   6.008   6.948  2.1108 -2.5548 -1.3490
 5431SOL    HW227948   1.593   6.054   6.854  0.6872  2.7300 -0.8328
 5432SOL     OW27949   2.735   4.785   1.657 -0.6941  0.1485  0.2790
 5432SOL    HW127950   2.801   4.718   1.693 -1.0361 -0.0188  0.5902
 5432SOL    HW227951   2.648   4.740   1.640 -0.0758 -0.1548 -2.3035
 5433SOL     OW27952   2.632   5.508   0.717  0.1640 -0.5887 -0.2142
 5433SOL    HW127953   2.539   5.478   0.695 -0.0561  0.1073 -0.2384
 5433SOL    HW227954   2.632   5.555   0.805  0.6763 -1.5048  0.2821
 5434SOL     OW27955   2.293   4.860   4.855 -0.2892  0.5172  0.3555
 5434SOL    HW127956   2.324   4.774   4.895 -1.8897  0.2595  1.0893
 5434SOL    HW227957   2.272   4.845   4.758 -1.3020 -0.1292  0.6634
 5435SOL     OW27958   7.609   5.810   4.081  0.1027  0.3280 -0.6706
 5435SOL    HW127959   7.689   5.825   4.023 -0.7566  1.2795 -1.6338
 5435SOL    HW227960   7.600   5.887   4.144 -0.9273  0.9909 -1.6115
 5436SOL     OW27961   8.464   1.241   4.659 -0.9017  0.2948 -0.2065
 5436SOL    HW127962   8.529   1.208   4.590 -0.0811 -0.4737  0.9187
 5436SOL    HW227963   8.484   1.336   4.681  1.1307 -0.5269  1.5957
 5437SOL     OW27964   4.304   9.058   6.555 -0.1619 -0.1153 -0.1003
 5437SOL    HW127965   4.317   8.964   6.523 -1.9455 -0.3422 -0.1959
 5437SOL    HW227966   4.392   9.097   6.580  0.6308 -1.7093 -0.3575
 5438SOL     OW27967   3.235   7.139   0.255 -0.0262  0.2664 -0.2696
 5438SOL    HW127968   3.180   7.057   0.275 -0.1351 -0.3214 -2.8285
 5438SOL    HW227969   3.193   7.218   0.299 -1.3551 -0.6341  0.1396
 5439SOL     OW27970   0.336   3.976   4.186  0.8139 -0.3367 -0.3460
 5439SOL    HW127971   0.382   3.927   4.260 -0.5790 -2.1139 -0.6311
 5439SOL    HW227972   0.292   4.058   4.222 -0.3904 -1.5338  0.9089
 5440SOL     OW27973   1.875   9.270   2.246  0.3366 -0.2352 -0.2552
 5440SOL    HW127974   1.800   9.313   2.196  0.4535  0.8972  0.5512
 5440SOL    HW227975   1.957   9.326   2.237  0.7526 -0.8096 -0.0463
 5441SOL     OW27976   8.574   2.507   4.472  0.5343  0.3446  0.1708
 5441SOL    HW127977   8.636   2.431   4.492  1.4538  1.0685  0.1516
 5441SOL    HW227978   8.480   2.476   4.476  0.9305 -0.9431 -0.4847
 5442SOL     OW27979   5.418   0.613   3.435 -0.2573 -0.1922 -0.4793
 5442SOL    HW127980   5.395   0.709   3.444 -0.0096 -0.1526 -0.2437
 5442SOL    HW227981   5.511   0.598   3.470 -0.9840 -0.8368  1.2414
 5443SOL     OW27982   1.441   9.420   1.855 -0.0352 -0.0401  0.2869
 5443SOL    HW127983   1.381   9.498   1.837  0.9063  0.5179 -0.4613
 5443SOL    HW227984   1.428   9.352   1.783 -0.6163 -0.4460  0.7631
 5444SOL     OW27985   5.441   7.821   6.998 -0.5833  0.4934 -0.2278
 5444SOL    HW127986   5.378   7.780   6.932 -1.2525  2.1264 -0.6294
 5444SOL    HW227987   5.517   7.865   6.949 -1.7692  2.8574 -0.0380
 5445SOL     OW27988   3.511   3.429   6.450  0.1154  0.2743 -0.2979
 5445SOL    HW127989   3.500   3.332   6.426 -1.5989  0.7946 -1.7145
 5445SOL    HW227990   3.426   3.464   6.488  0.2619  1.6016 -1.1714
 5446SOL     OW27991   4.966   6.763   1.362 -0.0243  0.8193  0.5092
 5446SOL    HW127992   4.962   6.724   1.454 -0.0836  0.8181  0.5063
 5446SOL    HW227993   4.880   6.744   1.314  0.9530 -1.3374 -0.4266
 5447SOL     OW27994   7.967   5.711   2.456 -0.1658 -0.6350 -0.1636
 5447SOL    HW127995   8.030   5.646   2.413  0.4475 -0.8664  1.0637
 5447SOL    HW227996   8.010   5.802   2.460  0.3302 -0.9171  1.1818
 5448SOL     OW27997   3.332   5.016   4.288 -0.3308 -0.5302  0.1475
 5448SOL    HW127998   3.249   5.069   4.275 -1.3654 -1.3595  2.8561
 5448SOL    HW227999   3.317   4.922   4.257 -0.8056 -0.9555  1.5983
 5449SOL     OW28000   8.856   3.210   3.454  0.7714 -0.1474 -0.3660
 5449SOL    HW128001   8.884   3.131   3.509  0.0094  0.2075  0.5306
 5449SOL    HW228002   8.782   3.182   3.392  1.6515 -0.5533 -1.2580
 5450SOL     OW28003   3.527   9.125   0.884 -0.0397  0.0591 -0.1730
 5450SOL    HW128004   3.540   9.027   0.864  0.6367  0.5360 -2.1497
 5450SOL    HW228005   3.481   9.169   0.807 -0.7055  1.2305  0.8804
 5451SOL     OW28006   7.227   6.047   7.362 -0.6634  0.0405 -0.7016
 5451SOL    HW128007   7.201   6.130   7.411  0.1510  0.4348 -0.9307
 5451SOL    HW228008   7.147   6.010   7.314 -1.3663 -0.1192  0.5744
 5452SOL     OW28009   4.198   1.650   2.284  0.2252  0.4644 -0.5717
 5452SOL    HW128010   4.108   1.655   2.241 -0.7090  0.4666  1.3417
 5452SOL    HW228011   4.192   1.681   2.379  1.8945 -1.1727  0.1078
 5453SOL     OW28012   1.710   9.574   6.712 -0.0282  0.2245  0.4578
 5453SOL    HW128013   1.708   9.668   6.679 -2.1853  0.2493  0.5363
 5453SOL    HW228014   1.693   9.511   6.636 -1.7792  0.1085  0.9020
 5454SOL     OW28015   9.325   7.128   5.584 -0.1985  0.1678 -0.1850
 5454SOL    HW128016   9.271   7.045   5.575  0.0638 -0.0303  0.0889
 5454SOL    HW228017   9.273   7.197   5.635 -0.6047  0.3422 -0.8191
 5455SOL     OW28018   7.456   2.453   6.101 -0.1105 -0.2214  0.4043
 5455SOL    HW128019   7.393   2.408   6.038  0.0021 -0.8321  0.7191
 5455SOL    HW228020   7.534   2.392   6.118  0.2907  0.3039  0.4407
 5456SOL     OW28021   4.560   9.412   1.773  0.0291 -0.0382  0.0640
 5456SOL    HW128022   4.632   9.380   1.834 -0.2083  0.7665  0.7889
 5456SOL    HW228023   4.471   9.383   1.809  0.0556 -2.3087 -1.6184
 5457SOL     OW28024   3.649   5.122   5.448 -0.1617  0.1997  0.4485
 5457SOL    HW128025   3.648   5.182   5.368  0.0124 -1.1475 -0.5757
 5457SOL    HW228026   3.728   5.143   5.505  0.0775  0.7330 -0.0781
 5458SOL     OW28027   5.576   3.492   2.543 -0.5339 -0.3250  0.2112
 5458SOL    HW128028   5.548   3.405   2.584  0.5054 -1.0129 -0.5051
 5458SOL    HW228029   5.668   3.482   2.505  0.1664  1.5168  1.4009
 5459SOL     OW28030   6.882   2.353   2.754  0.4793 -0.5157  0.4808
 5459SOL    HW128031   6.963   2.409   2.734  3.0966 -3.7349  1.5933
 5459SOL    HW228032   6.853   2.307   2.670  1.7700 -1.7967  0.7211
 5460SOL     OW28033   8.820   8.472   1.997 -0.2307  0.1168  0.7850
 5460SOL    HW128034   8.876   8.398   2.036  0.8182  0.5162  0.0459
 5460SOL    HW228035   8.836   8.556   2.048  1.2236  0.6665 -0.5445
 5461SOL     OW28036   3.880   5.210   5.577 -0.3885  0.0466  0.1124
 5461SOL    HW128037   3.876   5.305   5.608  0.2801  0.3829 -0.8197
 5461SOL    HW228038   3.922   5.154   5.648 -2.0397  0.2040  1.2257
 5462SOL     OW28039   0.925   4.280   2.293 -0.3967  0.4643 -0.1544
 5462SOL    HW128040   0.977   4.321   2.369  0.6187 -0.1481 -0.5139
 5462SOL    HW228041   0.933   4.180   2.297  1.1789  0.4833 -2.1206
 5463SOL     OW28042   2.662   3.899   6.698  0.3913 -0.4184 -0.3212
 5463SOL    HW128043   2.617   3.810   6.690 -0.9719  0.1939  0.3715
 5463SOL    HW228044   2.668   3.924   6.795  2.2270 -0.4762 -0.3990
 5464SOL     OW28045   2.999   6.847   6.036  0.3310 -0.0100 -0.0953
 5464SOL    HW128046   2.930   6.857   5.964  0.5030  0.8526 -0.1398
 5464SOL    HW228047   2.957   6.867   6.125 -0.5493 -3.5416  0.3612
 5465SOL     OW28048   0.240   8.321   2.227 -0.4377  0.6221  0.0715
 5465SOL    HW128049   0.287   8.287   2.146  2.8887  0.3157  2.0597
 5465SOL    HW228050   0.190   8.246   2.270 -0.2293  0.2475 -0.3393
 5466SOL     OW28051   3.857   7.974   3.442 -0.5664  0.2072  0.0403
 5466SOL    HW128052   3.773   7.967   3.390 -0.9786  0.0478  0.7186
 5466SOL    HW228053   3.847   8.045   3.512  0.7316  1.9388 -1.4861
 5467SOL     OW28054   3.997   4.858   4.881 -0.0878 -0.0364 -0.1020
 5467SOL    HW128055   3.918   4.871   4.941  0.4912 -1.7114  1.0641
 5467SOL    HW228056   4.035   4.766   4.896  0.4856 -0.2196 -2.5321
 5468SOL     OW28057   8.598   7.888   4.143  0.0679 -0.0457  0.4434
 5468SOL    HW128058   8.662   7.963   4.157  0.6298 -0.1152 -1.6557
 5468SOL    HW228059   8.619   7.841   4.057 -2.6564 -0.1736 -0.2093
 5469SOL     OW28060   9.326   0.686   7.205  0.0836 -0.0951  0.4731
 5469SOL    HW128061   9.330   0.588   7.222  0.8776  0.0232  1.0067
 5469SOL    HW228062   9.343   0.704   7.108 -0.6007 -0.5179  0.2743
 5470SOL     OW28063   1.430   1.066   4.365  0.0285 -0.0437 -0.0228
 5470SOL    HW128064   1.514   1.072   4.419  0.6581 -1.1333 -0.8595
 5470SOL    HW228065   1.365   1.136   4.396  1.3109  0.9322  0.5168
 5471SOL     OW28066   1.346   2.426   4.001 -0.2686 -0.0637  0.1389
 5471SOL    HW128067   1.246   2.422   3.990 -0.4119  2.1717  0.3034
 5471SOL    HW228068   1.372   2.518   4.031  1.7285 -1.0505  1.5187
 5472SOL     OW28069   1.414   3.041   3.899  0.0299  0.2869  0.6305
 5472SOL    HW128070   1.478   2.989   3.957  1.3383 -1.5674 -2.3598
 5472SOL    HW228071   1.323   3.037   3.939  0.6896 -1.8564  2.0328
 5473SOL     OW28072   9.674   8.471   3.198  0.3260 -0.0444  0.2892
 5473SOL    HW128073   9.742   8.544   3.212 -0.0711  0.5685 -0.9361
 5473SOL    HW228074   9.621   8.490   3.115 -0.9766 -0.8055  0.9299
 5474SOL     OW28075   5.664   0.670   7.334 -0.1966 -0.3919  0.3342
 5474SOL    HW128076   5.739   0.610   7.360  0.6067 -0.8567 -2.8866
 5474SOL    HW228077   5.606   0.624   7.266 -2.3956  0.6289  1.4517
 5475SOL     OW28078   6.456   1.864   5.617 -0.2808  0.7306  0.4171
 5475SOL    HW128079   6.478   1.819   5.703  0.6746  1.4262  0.5425
 5475SOL    HW228080   6.376   1.922   5.628 -2.0152 -1.5006  0.0650
 5476SOL     OW28081   2.184   8.322   0.841 -0.3980  0.5458  0.0700
 5476SOL    HW128082   2.219   8.268   0.918 -1.0241 -1.3008 -0.8864
 5476SOL    HW228083   2.235   8.407   0.834  1.1438 -0.2517  1.2033
 5477SOL     OW28084   1.195   3.457   0.512 -0.4451 -0.0140  0.2032
 5477SOL    HW128085   1.198   3.392   0.587  1.0482  1.3495  1.3557
 5477SOL    HW228086   1.179   3.409   0.426 -1.4750 -1.6548  1.3046
 5478SOL     OW28087   0.163   3.171   3.247 -0.6104 -0.0840 -0.0518
 5478SOL    HW128088   0.133   3.201   3.337 -1.0454  0.1485 -0.2697
 5478SOL    HW228089   0.212   3.084   3.255  0.1937  0.4207  0.5187
 5479SOL     OW28090   3.928   5.236   3.442 -0.1808 -0.1201 -0.2683
 5479SOL    HW128091   4.020   5.200   3.459 -0.8014 -1.9183 -0.5929
 5479SOL    HW228092   3.890   5.272   3.527 -0.0084 -1.3882  0.3648
 5480SOL     OW28093   0.705   9.985   1.988 -0.0994 -0.1733  0.2637
 5480SOL    HW128094   0.681   9.911   1.925  1.0988  0.1057 -0.5509
 5480SOL    HW228095   0.632   9.998   2.055 -1.1856 -0.7735 -0.7965
 5481SOL     OW28096   7.269   5.019   2.387  0.0756  0.2463  0.5966
 5481SOL    HW128097   7.223   5.000   2.473 -0.9229  0.9130  0.2167
 5481SOL    HW228098   7.340   5.088   2.402  0.9330 -0.7453  1.1711
 5482SOL     OW28099   4.595   1.477   6.550 -0.2524  0.1558 -0.2302
 5482SOL    HW128100   4.510   1.449   6.506 -0.0021 -1.7431  0.4154
 5482SOL    HW228101   4.577   1.549   6.617 -1.2081  0.3625 -0.7072
 5483SOL     OW28102   8.641   3.183   4.574  0.3713 -0.2278  0.3434
 5483SOL    HW128103   8.643   3.185   4.474  1.2415 -0.2886  0.3495
 5483SOL    HW228104   8.579   3.111   4.605  1.1344 -1.1353 -0.1720
 5484SOL     OW28105   2.878   1.611   2.464  0.5006  0.5067 -0.5003
 5484SOL    HW128106   2.896   1.527   2.414 -1.1556  0.1834 -0.5479
 5484SOL    HW228107   2.964   1.661   2.476  1.3208 -0.6755 -1.3742
 5485SOL     OW28108   2.073   7.711   3.377 -0.2850  0.1374 -0.4314
 5485SOL    HW128109   2.007   7.655   3.328 -0.2035 -0.1576 -0.2045
 5485SOL    HW228110   2.129   7.762   3.311  1.5346 -2.1943 -0.7713
 5486SOL     OW28111   3.679   6.998   3.550  0.4811  0.6334  0.3753
 5486SOL    HW128112   3.700   7.024   3.644  0.6865  1.0234  0.2278
 5486SOL    HW228113   3.583   6.974   3.542  0.4346  0.7234  0.6586
 5487SOL     OW28114   3.147   3.408   5.916 -0.0198 -0.0421  0.3020
 5487SOL    HW128115   3.170   3.312   5.902 -0.9431  0.0131 -1.8187
 5487SOL    HW228116   3.187   3.440   6.001  1.4298 -1.9449  0.3663
 5488SOL     OW28117   5.668   9.373   7.543 -0.3597 -0.0910  0.4902
 5488SOL    HW128118   5.694   9.413   7.455 -1.6214 -2.4483 -1.0029
 5488SOL    HW228119   5.580   9.410   7.572 -0.8574 -0.7128 -0.1981
 5489SOL     OW28120   8.701   0.601   4.125  0.0597 -0.0008 -0.2636
 5489SOL    HW128121   8.655   0.661   4.060 -2.9736 -2.5074 -0.5762
 5489SOL    HW228122   8.660   0.613   4.216  0.2232 -0.7510 -0.0888
 5490SOL     OW28123   0.557   1.223   2.286 -0.6372 -0.9453  0.2283
 5490SOL    HW128124   0.529   1.319   2.285 -0.6258 -0.9366 -1.7584
 5490SOL    HW228125   0.476   1.165   2.272 -0.3994 -1.1443 -0.3281
 5491SOL     OW28126   2.645   3.985   9.670 -0.1208  0.2614 -0.1241
 5491SOL    HW128127   2.651   4.082   9.691  0.2360 -0.4995  3.7468
 5491SOL    HW228128   2.734   3.942   9.684 -1.1516 -1.2600  2.1976
 5492SOL     OW28129   9.408   7.132   2.463 -0.1152  0.3751  0.0254
 5492SOL    HW128130   9.452   7.195   2.528  0.8303 -0.0920 -0.1493
 5492SOL    HW228131   9.389   7.045   2.508  0.6322  0.0160 -0.3359
 5493SOL     OW28132   5.011   7.070   4.584 -0.5292 -0.1906  0.3780
 5493SOL    HW128133   4.970   7.085   4.494 -1.5616 -0.6131  0.7788
 5493SOL    HW228134   5.095   7.123   4.591 -0.9361  0.5769 -0.4850
 5494SOL     OW28135   7.814   6.432   2.136  0.4155  0.4464  0.0473
 5494SOL    HW128136   7.863   6.356   2.177  0.0995  0.0323 -0.3269
 5494SOL    HW228137   7.810   6.508   2.200 -0.7157 -0.4504  1.0730
 5495SOL     OW28138   7.197   8.553   3.357  0.7120  0.1341  0.4750
 5495SOL    HW128139   7.270   8.536   3.290  0.0141  1.5990 -0.6715
 5495SOL    HW228140   7.191   8.475   3.419  0.6308 -1.7546 -1.8460
 5496SOL     OW28141   0.450   3.646   2.268 -0.0440  0.0112  0.1374
 5496SOL    HW128142   0.464   3.741   2.239  0.4785  0.1771  0.9085
 5496SOL    HW228143   0.409   3.645   2.359 -1.9697 -0.5023 -0.7121
 5497SOL     OW28144   3.067   3.363   0.796 -0.1504 -0.1585 -0.0588
 5497SOL    HW128145   3.075   3.402   0.705 -3.0945 -2.0898 -1.2186
 5497SOL    HW228146   3.110   3.272   0.798  0.5908  0.1984  0.7095
 5498SOL     OW28147   2.657   2.141   6.351  0.1208  0.0567 -0.0240
 5498SOL    HW128148   2.660   2.225   6.405  0.7857 -0.0070  0.0386
 5498SOL    HW228149   2.686   2.161   6.257 -0.7950  0.1195 -0.2954
 5499SOL     OW28150   5.161   7.878   4.484  0.1428  0.0107  0.4215
 5499SOL    HW128151   5.232   7.810   4.507  0.9466  1.8579  3.7955
 5499SOL    HW228152   5.201   7.950   4.428  0.4625  0.0170  0.6526
 5500SOL     OW28153   8.593   1.562   4.361 -0.0518  0.3080  0.2068
 5500SOL    HW128154   8.496   1.577   4.380 -0.2071  0.7010 -0.8489
 5500SOL    HW228155   8.646   1.570   4.445 -0.8091  1.1987  0.5989
 5501SOL     OW28156   0.807   5.741   0.111 -0.1922 -0.3808 -0.0539
 5501SOL    HW128157   0.872   5.773   0.042  1.4177 -0.4779  1.3883
 5501SOL    HW228158   0.714   5.765   0.083  0.4386 -0.4314 -2.2467
 5502SOL     OW28159   2.978   3.085   6.540  0.1997 -1.0490  0.0605
 5502SOL    HW128160   3.058   3.035   6.506  1.7016  1.2792 -0.0032
 5502SOL    HW228161   2.901   3.070   6.479  0.7872 -2.7775 -0.2834
 5503SOL     OW28162   2.893   6.328   0.216  0.2330  0.1814  0.3014
 5503SOL    HW128163   2.923   6.420   0.189 -1.9350 -0.0202 -3.1495
 5503SOL    HW228164   2.794   6.328   0.230 -0.1661 -2.1065 -2.1325
 5504SOL     OW28165   4.523   5.133   0.861  0.0453 -0.0493  0.2314
 5504SOL    HW128166   4.510   5.036   0.842 -0.5620  0.0407  0.1824
 5504SOL    HW228167   4.461   5.161   0.934 -1.8780  0.9834 -1.7549
 5505SOL     OW28168   1.137   3.546   1.861  0.1814  0.3359 -0.0723
 5505SOL    HW128169   1.041   3.574   1.873  0.4061  0.3583  1.9091
 5505SOL    HW228170   1.141   3.449   1.837 -0.3507  0.4481 -0.6298
 5506SOL     OW28171   4.777   8.520   6.625 -0.0262 -0.2231  0.4234
 5506SOL    HW128172   4.703   8.542   6.689  1.2377 -2.8374  2.8845
 5506SOL    HW228173   4.840   8.597   6.619 -0.6037  0.3664  1.6841
 5507SOL     OW28174   7.086   4.506   0.670 -0.1153 -0.0723 -0.2825
 5507SOL    HW128175   7.123   4.589   0.712  1.7180 -0.0297 -1.8764
 5507SOL    HW228176   7.113   4.426   0.724  0.1028  0.1792 -0.0172
 5508SOL     OW28177   8.486   3.342   3.087 -0.5385 -0.0286  0.1735
 5508SOL    HW128178   8.405   3.293   3.056 -0.5967 -0.9785  1.8043
 5508SOL    HW228179   8.461   3.406   3.159  0.2351 -0.6931  1.0429
 5509SOL     OW28180   7.320   7.723   5.475  0.0989  0.1566 -0.2398
 5509SOL    HW128181   7.396   7.787   5.482  1.0271 -0.7681 -1.5612
 5509SOL    HW228182   7.268   7.740   5.391 -1.4108  1.0332  0.8393
 5510SOL     OW28183   4.699   9.191   8.534  0.1240 -0.7665  0.0611
 5510SOL    HW128184   4.695   9.254   8.456  1.2073 -0.9373 -0.1451
 5510SOL    HW228185   4.676   9.099   8.504 -1.3690 -0.4904  0.3440
 5511SOL     OW28186   2.880   2.501   1.800 -0.3373 -0.3864 -0.6324
 5511SOL    HW128187   2.956   2.478   1.861 -0.1585  0.0938 -0.6676
 5511SOL    HW228188   2.879   2.439   1.722  1.7356  1.3291 -2.0899
 5512SOL     OW28189   0.420   8.863   6.708 -0.0586  0.0241 -0.1584
 5512SOL    HW128190   0.340   8.922   6.717 -1.3604 -1.5953 -0.7307
 5512SOL    HW228191   0.483   8.879   6.785 -1.0018  1.1852  0.3858
 5513SOL     OW28192   9.650   2.299   2.156 -0.3854  0.4626 -0.4715
 5513SOL    HW128193   9.579   2.314   2.087  0.8455 -0.8644 -2.0871
 5513SOL    HW228194   9.740   2.321   2.118  0.4035 -1.0932  0.4002
 5514SOL     OW28195   2.983   8.373   7.083  0.7209 -0.3070  0.1812
 5514SOL    HW128196   3.069   8.355   7.132  1.3393  0.0273 -0.7706
 5514SOL    HW228197   2.928   8.289   7.081  0.5853 -0.2597  1.6461
 5515SOL     OW28198   6.829   9.346   4.290 -0.3093 -0.0079 -0.5903
 5515SOL    HW128199   6.736   9.312   4.302  0.0130 -0.5606  0.3815
 5515SOL    HW228200   6.884   9.277   4.243 -0.5406  0.5717 -1.7434
 5516SOL     OW28201   2.785   5.967   6.519  0.3237  0.1497  0.0311
 5516SOL    HW128202   2.691   5.963   6.485  0.2454 -0.2190  0.2877
 5516SOL    HW228203   2.813   5.876   6.550 -0.1140  0.7838  2.3410
 5517SOL     OW28204   5.906   1.205   4.668  0.9419  0.2304  0.5396
 5517SOL    HW128205   5.878   1.255   4.750 -0.7902  0.6882 -0.3154
 5517SOL    HW228206   5.999   1.233   4.643  0.8209  1.3935  1.3389
 5518SOL     OW28207   7.003   0.415   5.766 -0.2284  0.0415 -0.0755
 5518SOL    HW128208   7.100   0.430   5.786  0.0547 -0.5513 -0.9356
 5518SOL    HW228209   6.981   0.319   5.779 -0.7192  0.1862  0.1737
 5519SOL     OW28210   2.621   9.497   0.578 -0.2014  0.2699  0.1888
 5519SOL    HW128211   2.637   9.425   0.511  0.3144  1.4809 -1.0049
 5519SOL    HW228212   2.526   9.494   0.608 -0.2256 -0.8047  0.0426
 5520SOL     OW28213   9.088   0.785   6.614  0.0448  0.4685 -0.0887
 5520SOL    HW128214   9.119   0.876   6.587 -1.3778  1.2711  0.9229
 5520SOL    HW228215   8.992   0.789   6.643 -0.1453 -1.4249 -0.3973
 5521SOL     OW28216   8.189   7.327   6.860 -0.6219  0.2589 -0.4417
 5521SOL    HW128217   8.286   7.349   6.854 -0.8891  1.7236  0.0987
 5521SOL    HW228218   8.174   7.231   6.840  1.2362 -0.5698  1.8817
 5522SOL     OW28219   9.809   0.760   7.087 -0.2058  0.2567 -0.0432
 5522SOL    HW128220   9.835   0.837   7.029  1.1870 -0.6713 -0.6750
 5522SOL    HW228221   9.802   0.677   7.031 -0.4507 -0.3317  0.8452
 5523SOL     OW28222   9.483   5.810   2.141  0.0551 -0.1363  0.4800
 5523SOL    HW128223   9.489   5.803   2.241  2.1580 -0.8245  0.3439
 5523SOL    HW228224   9.565   5.855   2.106 -0.6528  0.0674 -0.9506
 5524SOL     OW28225   8.809   9.589   3.130 -0.1308  0.1391  0.3901
 5524SOL    HW128226   8.885   9.647   3.160  0.2012 -0.3932  0.5973
 5524SOL    HW228227   8.768   9.545   3.210 -0.7497  0.5343  0.2926
 5525SOL     OW28228   3.156   0.140   1.811 -0.1719 -0.2943 -0.3248
 5525SOL    HW128229   3.216   0.111   1.886  1.8190 -0.3307 -1.8822
 5525SOL    HW228230   3.112   0.226   1.835  0.2517 -0.4236  0.9717
 5526SOL     OW28231   2.852   7.456   7.066  0.5206 -0.0172 -0.5022
 5526SOL    HW128232   2.941   7.492   7.094 -0.2546  1.4232  0.1486
 5526SOL    HW228233   2.864   7.397   6.986  2.0460  0.2673 -0.5024
 5527SOL     OW28234   1.964   7.931   3.653 -0.0640 -0.3102  0.0671
 5527SOL    HW128235   1.951   7.895   3.745  0.0668 -0.9244 -0.1482
 5527SOL    HW228236   2.017   7.865   3.599  1.9307  1.0732  0.2508
 5528SOL     OW28237   2.319   1.709   3.418  0.2927  0.0104  0.2597
 5528SOL    HW128238   2.407   1.757   3.423 -0.2625  1.2851 -1.6868
 5528SOL    HW228239   2.244   1.775   3.428 -0.4621 -0.6923 -0.6109
 5529SOL     OW28240   8.769   5.225   1.351  0.0755  0.1507  0.3261
 5529SOL    HW128241   8.845   5.287   1.373  1.7168 -1.6431 -0.2003
 5529SOL    HW228242   8.726   5.194   1.436  0.3072  0.6961  0.6496
 5530SOL     OW28243   5.866   2.992   0.352 -0.2625 -0.3718 -0.1307
 5530SOL    HW128244   5.960   3.023   0.366 -0.0175 -1.6692  1.2402
 5530SOL    HW228245   5.802   3.057   0.394  0.1248 -0.4041  0.5190
 5531SOL     OW28246   0.462   7.093   3.045 -0.3660  0.6950 -0.9494
 5531SOL    HW128247   0.381   7.053   3.087 -1.1547  0.8513 -2.3146
 5531SOL    HW228248   0.446   7.189   3.025  1.1858  1.4856  1.4102
 5532SOL     OW28249   1.406   1.502   2.806  0.2291 -0.0464 -0.1628
 5532SOL    HW128250   1.502   1.495   2.778 -0.3729 -1.3782 -1.9944
 5532SOL    HW228251   1.376   1.597   2.795  1.2500  0.3387  0.2064
 5533SOL     OW28252   6.092   8.428   5.205 -0.1160  0.5972  0.1653
 5533SOL    HW128253   6.139   8.385   5.282  1.1514  0.8945 -0.4236
 5533SOL    HW228254   6.100   8.527   5.211 -1.5112  0.7022  0.5665
 5534SOL     OW28255   0.778   6.061   4.698 -0.4817  0.2842  0.1842
 5534SOL    HW128256   0.825   6.119   4.632 -1.2626  1.5240  0.7115
 5534SOL    HW228257   0.845   6.015   4.756  0.0631  2.8141  1.5908
 5535SOL     OW28258   3.040   9.163   2.495  0.0415 -0.5979  0.2810
 5535SOL    HW128259   2.972   9.201   2.433 -0.2734 -1.6675 -0.0323
 5535SOL    HW228260   3.124   9.142   2.445  0.5766  0.6398  0.6508
 5536SOL     OW28261   9.334   0.941   6.028 -0.2399  0.6650  0.2231
 5536SOL    HW128262   9.351   0.845   6.004 -1.6425  0.3240  0.5305
 5536SOL    HW228263   9.332   0.951   6.128  1.7461  1.3738  0.2197
 5537SOL     OW28264   7.946   7.941   7.774 -0.1946  0.1801  0.4869
 5537SOL    HW128265   8.006   7.872   7.734 -1.2640  0.6451 -2.0000
 5537SOL    HW228266   7.994   7.989   7.848  2.1314 -0.1282 -0.7897
 5538SOL     OW28267   2.463   0.563   0.818  0.3541 -0.1456  0.0658
 5538SOL    HW128268   2.452   0.630   0.744 -0.9385  0.1817  0.5375
 5538SOL    HW228269   2.544   0.586   0.872 -0.1450  1.1334  0.2969
 5539SOL     OW28270   7.683   5.252   7.111  0.4056 -0.2275  0.2732
 5539SOL    HW128271   7.670   5.209   7.022  0.0430  0.8377 -0.1996
 5539SOL    HW228272   7.742   5.195   7.168  1.2272 -0.5702 -0.9042
 5540SOL     OW28273   1.280   7.013   4.794 -0.0886 -0.0766 -0.2359
 5540SOL    HW128274   1.261   6.924   4.753  0.9936 -0.4443  0.0700
 5540SOL    HW228275   1.378   7.032   4.792 -0.4224  1.7142 -1.5484
 5541SOL     OW28276   8.043   8.479   8.127 -0.1055  0.6280  0.7859
 5541SOL    HW128277   8.010   8.492   8.033 -1.1983  0.3716  1.1285
 5541SOL    HW228278   8.128   8.529   8.139  0.1883  0.4375 -0.4293
 5542SOL     OW28279   9.689   2.613   5.697  0.0628  0.2127 -0.4000
 5542SOL    HW128280   9.740   2.628   5.613 -0.3362 -1.0847 -0.8974
 5542SOL    HW228281   9.697   2.693   5.756  0.6881  0.9718 -1.4912
 5543SOL     OW28282   7.713   0.982   5.376  0.7442  0.1832 -0.2137
 5543SOL    HW128283   7.767   0.898   5.375  1.5560  0.6980  0.3614
 5543SOL    HW228284   7.731   1.034   5.293  0.5273 -0.0212 -0.3913
 5544SOL     OW28285   8.783   5.512   1.786  0.0174 -0.3719  0.6475
 5544SOL    HW128286   8.879   5.519   1.759  0.3553 -0.8041  1.7177
 5544SOL    HW228287   8.746   5.424   1.756 -0.1948  0.0014 -0.2069
 5545SOL     OW28288   3.870   8.211   0.645  0.2443  0.1548 -0.1087
 5545SOL    HW128289   3.809   8.225   0.567 -1.7489 -0.8921  1.2544
 5545SOL    HW228290   3.826   8.153   0.713  1.9572  1.0400  1.8184
 5546SOL     OW28291   8.385   4.503   2.304 -0.4228  0.3761  0.7087
 5546SOL    HW128292   8.368   4.480   2.400  1.0627  2.3063  1.4863
 5546SOL    HW228293   8.473   4.549   2.297 -0.1837 -0.4000 -1.7164
 5547SOL     OW28294   1.836   3.552   7.567 -0.3694  0.5476  0.2336
 5547SOL    HW128295   1.779   3.573   7.487  3.0970  0.6247 -2.3081
 5547SOL    HW228296   1.849   3.454   7.574 -2.0847  0.4110  1.7626
 5548SOL     OW28297   3.059   1.848   0.155 -0.3425  0.6290  0.7713
 5548SOL    HW128298   2.985   1.803   0.105  0.6357  0.8895 -0.9580
 5548SOL    HW228299   3.140   1.789   0.154  0.0890  1.2169  0.8944
 5549SOL     OW28300   0.805   3.209   6.828 -0.2675  0.2507  0.1986
 5549SOL    HW128301   0.800   3.288   6.768 -0.3887  0.1021  0.0141
 5549SOL    HW228302   0.856   3.233   6.911  0.1548  0.3697 -0.0958
 5550SOL     OW28303   1.113   0.610   0.237  0.0750 -0.2381  0.1460
 5550SOL    HW128304   1.166   0.591   0.320 -0.5696  1.1717  0.9100
 5550SOL    HW228305   1.148   0.694   0.195 -1.0206  0.2595  0.2161
 5551SOL     OW28306   0.848   0.243   4.439  0.3287 -0.1180  0.3120
 5551SOL    HW128307   0.882   0.168   4.496  0.3611 -0.1412  0.2611
 5551SOL    HW228308   0.910   0.258   4.363  0.9242  0.7122  0.9550
 5552SOL     OW28309   9.615   7.861   4.387  0.6202  0.2788 -0.3033
 5552SOL    HW128310   9.534   7.919   4.389  0.2198 -0.3227  1.9027
 5552SOL    HW228311   9.590   7.770   4.353  0.4878  0.2744 -0.1936
 5553SOL     OW28312   4.676   7.282   3.108 -0.3898 -0.3836  0.0270
 5553SOL    HW128313   4.586   7.261   3.072 -1.3301  0.6006  1.7468
 5553SOL    HW228314   4.719   7.197   3.140 -1.7992 -0.5117  1.6323
 5554SOL     OW28315   1.514   2.337   2.120 -0.6962 -0.4406 -0.7741
 5554SOL    HW128316   1.537   2.241   2.102 -1.5038 -0.6765 -0.5618
 5554SOL    HW228317   1.424   2.357   2.082 -1.0623 -0.0984  0.2833
 5555SOL     OW28318   1.000   5.248   2.715  0.4081  0.2130  0.2661
 5555SOL    HW128319   1.026   5.239   2.619  0.1945  2.5000 -0.0300
 5555SOL    HW228320   0.924   5.186   2.735 -1.8494  2.1552 -1.9501
 5556SOL     OW28321   1.540   5.819   3.086  0.1926 -0.5507  0.4198
 5556SOL    HW128322   1.443   5.842   3.080 -0.6579 -3.1855  2.6654
 5556SOL    HW228323   1.581   5.869   3.163  1.1945  2.2063 -1.8331
 5557SOL     OW28324   9.218   3.815   3.487  0.3993  0.1635 -0.3521
 5557SOL    HW128325   9.256   3.830   3.579  2.7811  0.7296 -1.3960
 5557SOL    HW228326   9.138   3.756   3.494  1.6445 -1.3441  1.9073
 5558SOL     OW28327   4.662   4.882   2.846  0.0104  0.0455  0.2341
 5558SOL    HW128328   4.750   4.924   2.822  0.8237 -1.3964  0.6462
 5558SOL    HW228329   4.593   4.910   2.779  0.9740  0.5295 -0.5775
 5559SOL     OW28330   5.834   2.573   1.198  0.0999  0.1868  0.6147
 5559SOL    HW128331   5.819   2.477   1.221 -1.2606  0.6136  1.5650
 5559SOL    HW228332   5.928   2.598   1.220  0.3016 -0.7863  0.8729
 5560SOL     OW28333   4.004   3.163   4.184 -0.6903 -0.4914  0.8103
 5560SOL    HW128334   3.916   3.208   4.199 -1.9389 -2.4849 -0.1988
 5560SOL    HW228335   4.013   3.086   4.247  0.0867 -0.6143  0.5497
 5561SOL     OW28336   8.461   0.361   3.647  0.0340 -0.2550 -0.2048
 5561SOL    HW128337   8.504   0.446   3.676 -1.8834  0.2161  1.3695
 5561SOL    HW228338   8.525   0.309   3.590  1.4626  1.9041 -0.6299
 5562SOL     OW28339   7.942   5.200   1.179 -0.7196  0.0728 -0.1373
 5562SOL    HW128340   7.867   5.267   1.181 -1.2518 -0.5374  0.5491
 5562SOL    HW228341   7.954   5.160   1.270  0.8952  0.6486 -0.0878
 5563SOL     OW28342   1.407   4.134   7.927 -0.1879 -0.8487  0.8787
 5563SOL    HW128343   1.449   4.222   7.947  0.1072 -0.7119 -0.3142
 5563SOL    HW228344   1.477   4.063   7.920 -0.3307 -0.9861  0.8296
 5564SOL     OW28345   3.670   3.985   5.825  0.0993  0.1676 -0.2164
 5564SOL    HW128346   3.616   3.961   5.745  0.1555 -0.2280 -0.1384
 5564SOL    HW228347   3.767   3.967   5.807  0.1408  0.3170 -0.1491
 5565SOL     OW28348   3.489   8.631   0.369  0.0072  0.1978 -0.0404
 5565SOL    HW128349   3.478   8.716   0.421  2.0323  0.0780  0.6109
 5565SOL    HW228350   3.571   8.584   0.399  0.6814 -0.3722 -2.6631
 5566SOL     OW28351   8.053   7.821   0.623  0.0354  0.2411  0.4295
 5566SOL    HW128352   8.069   7.779   0.713 -0.9573  0.3177  0.6504
 5566SOL    HW228353   8.046   7.920   0.634 -1.3253  0.1518  0.4570
 5567SOL     OW28354   3.265   4.832   7.092 -0.2587  0.2093 -0.2813
 5567SOL    HW128355   3.289   4.892   7.168  0.8308  1.1617 -1.3638
 5567SOL    HW228356   3.300   4.741   7.109 -1.0082  0.1229  0.8817
 5568SOL     OW28357   2.280   3.257   0.174  0.2468  0.8800  0.4227
 5568SOL    HW128358   2.358   3.284   0.230  0.5311 -0.8111  0.8886
 5568SOL    HW228359   2.312   3.217   0.088 -0.1654  2.2679 -0.3892
 5569SOL     OW28360   9.448   9.714   4.717 -0.8164 -0.2888 -0.0666
 5569SOL    HW128361   9.398   9.646   4.770 -1.2135  1.0961  1.3715
 5569SOL    HW228362   9.542   9.683   4.704  0.0053  0.4121  3.5939
 5570SOL     OW28363   2.822   5.052   7.306  0.0193  0.5322  0.2715
 5570SOL    HW128364   2.871   5.088   7.385 -0.3551  1.3672  0.1231
 5570SOL    HW228365   2.843   5.108   7.226 -0.8479  0.6370  0.1170
 5571SOL     OW28366   3.947   1.285   4.242 -0.8686  0.1629  0.0883
 5571SOL    HW128367   3.880   1.242   4.302 -1.1736 -0.1961 -0.4952
 5571SOL    HW228368   3.910   1.288   4.149 -1.2285  2.5541  0.2994
 5572SOL     OW28369   3.034   7.527  10.078 -0.2736 -0.0761 -0.2332
 5572SOL    HW128370   3.071   7.614  10.108 -1.9137  1.0187 -1.3315
 5572SOL    HW228371   3.075   7.501   9.990 -0.6092  0.1368 -0.4534
 5573SOL     OW28372   8.041   1.986   3.670 -0.3777 -0.1185 -0.1755
 5573SOL    HW128373   7.951   2.016   3.636 -0.7455 -1.6237 -0.5759
 5573SOL    HW228374   8.089   2.064   3.710 -1.5504  0.8692 -0.6472
 5574SOL     OW28375   2.050   5.895   6.619 -0.2809  0.6154 -0.1858
 5574SOL    HW128376   2.053   5.828   6.694  1.2146 -1.0173 -1.6422
 5574SOL    HW228377   2.067   5.986   6.655  1.3741 -0.2552  1.3637
 5575SOL     OW28378   1.505   7.826   7.158  0.2468 -0.2332 -0.0773
 5575SOL    HW128379   1.585   7.778   7.124  1.2646  1.0268  0.4845
 5575SOL    HW228380   1.428   7.762   7.164  1.6004 -1.8320  0.8114
 5576SOL     OW28381   9.577   4.915   4.994  0.1576 -0.0012  0.1560
 5576SOL    HW128382   9.670   4.952   4.999  0.0444  0.5102 -1.1370
 5576SOL    HW228383   9.581   4.815   4.992  0.6974  0.0197 -0.0782
 5577SOL     OW28384   6.469   3.099   0.236  0.1496  0.3736  0.0515
 5577SOL    HW128385   6.456   3.017   0.291 -1.3392  0.3081 -0.3703
 5577SOL    HW228386   6.483   3.073   0.140 -1.2635  0.6329 -0.2354
 5578SOL     OW28387   7.956   3.587   0.452 -0.1005 -0.3649  0.8758
 5578SOL    HW128388   7.904   3.662   0.411 -0.8040 -1.0536  0.4916
 5578SOL    HW228389   8.025   3.555   0.387  0.4434  0.1917  1.1792
 5579SOL     OW28390   8.441   0.163   7.228  0.0990  0.0644  0.1107
 5579SOL    HW128391   8.426   0.138   7.323 -0.7873  0.6296  0.1204
 5579SOL    HW228392   8.539   0.163   7.208  0.2231 -1.3338  0.6758
 5580SOL     OW28393   9.175   6.192   6.699 -0.0360  0.6531  0.7100
 5580SOL    HW128394   9.254   6.142   6.663 -2.0028 -0.6354 -2.0158
 5580SOL    HW228395   9.156   6.161   6.792  2.2480  0.5326  1.1776
 5581SOL     OW28396   7.868   3.647   4.994  0.1848  0.1776  0.7837
 5581SOL    HW128397   7.948   3.594   4.966  0.3675  0.6745  0.3747
 5581SOL    HW228398   7.810   3.590   5.053  0.2107 -0.5885  0.0798
 5582SOL     OW28399   7.741   2.999   2.667  0.5196  0.0231  0.2014
 5582SOL    HW128400   7.704   2.906   2.665  1.2087 -0.2390 -1.0186
 5582SOL    HW228401   7.841   2.995   2.667  0.5760  0.7470  2.1184
 5583SOL     OW28402   2.918   3.159   7.845 -0.2721  0.3975 -0.6673
 5583SOL    HW128403   2.823   3.181   7.868 -0.0590  0.9700 -0.3333
 5583SOL    HW228404   2.973   3.242   7.850  0.3326 -0.0175 -0.4347
 5584SOL     OW28405   5.202   0.622   7.781  0.0117  0.0464 -0.0807
 5584SOL    HW128406   5.280   0.561   7.772 -0.2661 -0.1761 -0.9958
 5584SOL    HW228407   5.132   0.579   7.839  0.8420  0.5381  1.3268
 5585SOL     OW28408   6.429   1.391   4.316 -0.0145 -0.1740 -0.8958
 5585SOL    HW128409   6.459   1.311   4.367 -1.4695 -0.6235 -0.7183
 5585SOL    HW228410   6.366   1.445   4.372  1.3664  1.3852 -0.8156
 5586SOL     OW28411   3.518   3.439   0.367 -0.0895 -0.2160 -0.2159
 5586SOL    HW128412   3.513   3.341   0.385  1.1533 -0.0575  1.1586
 5586SOL    HW228413   3.501   3.457   0.270 -0.0247 -1.8178 -0.5272
 5587SOL     OW28414   3.968   4.886   4.031  0.7994  0.0868  0.2104
 5587SOL    HW128415   3.871   4.898   4.052  0.8859  2.7050 -0.7407
 5587SOL    HW228416   4.020   4.876   4.116 -0.1249 -0.0289  0.7707
 5588SOL     OW28417   2.806   0.477   3.904  0.1588 -0.5525 -0.3141
 5588SOL    HW128418   2.762   0.526   3.829  0.6800 -0.0161 -0.2776
 5588SOL    HW228419   2.869   0.539   3.951 -0.2603 -0.8453  0.6457
 5589SOL     OW28420   3.426   2.337   4.803 -0.3178  0.4396 -0.5491
 5589SOL    HW128421   3.404   2.247   4.840  0.8050  0.5163  0.3366
 5589SOL    HW228422   3.485   2.327   4.723 -0.6977  0.3683 -0.8209
 5590SOL     OW28423   2.247   7.157   5.255  0.2773  0.5099 -0.1162
 5590SOL    HW128424   2.206   7.219   5.188 -1.3446  1.0177  1.2911
 5590SOL    HW228425   2.269   7.209   5.338 -0.2760 -0.6218  0.7449
 5591SOL     OW28426   8.132   6.442   6.192  0.4632  0.3776 -0.3964
 5591SOL    HW128427   8.204   6.454   6.261  0.9250 -0.1673 -0.7775
 5591SOL    HW228428   8.090   6.530   6.173  0.4311  0.5611  0.4734
 5592SOL     OW28429   5.029   1.044   0.453  0.4411  1.0528 -0.0431
 5592SOL    HW128430   5.033   1.056   0.552  2.5315 -0.8279  0.1557
 5592SOL    HW228431   5.040   1.133   0.408  1.6306  1.6583  1.3946
 5593SOL     OW28432   7.592   3.153   3.206  0.6321 -0.0530  0.6193
 5593SOL    HW128433   7.510   3.207   3.189  1.2909  0.7535 -0.0661
 5593SOL    HW228434   7.653   3.161   3.127  1.5675 -0.2689  1.3223
 5594SOL     OW28435   4.200   3.211   3.740 -0.2094 -0.1133 -0.1865
 5594SOL    HW128436   4.289   3.239   3.702  0.0123 -1.7911 -0.9314
 5594SOL    HW228437   4.215   3.143   3.811 -0.8623  0.3088  0.3589
 5595SOL     OW28438   7.685   8.498   1.503 -0.0094 -0.6013 -0.0085
 5595SOL    HW128439   7.742   8.422   1.533 -0.6080 -1.5357 -1.1924
 5595SOL    HW228440   7.588   8.474   1.513 -0.2053  0.1819  0.0432
 5596SOL     OW28441   9.461   7.603   3.422  0.2920 -0.1216 -0.4019
 5596SOL    HW128442   9.541   7.563   3.377  0.0983  0.4011 -1.2134
 5596SOL    HW228443   9.405   7.530   3.460  0.2709 -0.5993 -1.3185
 5597SOL     OW28444   6.645   8.029   4.113 -0.2309 -0.4366  0.4213
 5597SOL    HW128445   6.700   7.949   4.089  0.0285 -0.3530  0.7333
 5597SOL    HW228446   6.704   8.109   4.121 -0.4845 -0.2233  0.1584
 5598SOL     OW28447   3.385   2.835   3.764 -0.2742 -0.3584 -0.5644
 5598SOL    HW128448   3.379   2.740   3.734  2.0766 -0.7816  0.2029
 5598SOL    HW228449   3.433   2.889   3.694 -0.4474 -0.0014 -0.4103
 5599SOL     OW28450   8.686   8.651   2.740  0.4351  0.7440  0.5007
 5599SOL    HW128451   8.759   8.667   2.806  1.5704 -1.7325 -0.0821
 5599SOL    HW228452   8.608   8.608   2.787  0.4651  0.8000  0.6003
 5600SOL     OW28453   9.602   1.760   0.560 -0.6668  0.7124 -0.2521
 5600SOL    HW128454   9.653   1.838   0.524 -0.6442  1.1719  0.7668
 5600SOL    HW228455   9.530   1.734   0.495  0.4270  0.4742 -1.3902
 5601SOL     OW28456   9.479   7.471   2.338  0.4841 -0.3065 -0.2518
 5601SOL    HW128457   9.473   7.435   2.431  1.7926  0.1669  0.0249
 5601SOL    HW228458   9.391   7.511   2.312 -0.5347 -2.3634 -0.0208
 5602SOL     OW28459   3.183   8.200  10.002  0.2942 -0.3794 -0.2375
 5602SOL    HW128460   3.139   8.175  10.087  0.1877 -0.1321 -0.2173
 5602SOL    HW228461   3.269   8.248  10.021 -0.2890  0.6866 -0.2487
 5603SOL     OW28462   3.091   1.270   0.558  0.0999  0.0341 -0.0153
 5603SOL    HW128463   3.007   1.321   0.575  0.8201  1.6039 -1.0671
 5603SOL    HW228464   3.163   1.305   0.617  0.4640 -0.1016 -0.3803
 5604SOL     OW28465   7.141   7.046   7.039  0.5405 -0.5791  0.1327
 5604SOL    HW128466   7.185   7.025   6.952  0.0755  1.1583 -0.5356
 5604SOL    HW228467   7.041   7.040   7.028  0.5013 -1.4138  0.8396
 5605SOL     OW28468   9.997   7.098   0.653  0.0535  0.0091 -0.4245
 5605SOL    HW128469   9.900   7.103   0.633  0.2001  0.9803 -0.9029
 5605SOL    HW228470  10.046   7.058   0.576  0.0296 -0.5448 -0.1563
 5606SOL     OW28471   2.818   8.155   7.121  0.4073  0.3370  0.2215
 5606SOL    HW128472   2.735   8.119   7.080  1.1305 -0.5316 -0.4910
 5606SOL    HW228473   2.809   8.155   7.221  0.7122 -2.6483  0.2892
 5607SOL     OW28474   9.412   6.518   3.766  0.2726 -0.8713  0.1492
 5607SOL    HW128475   9.437   6.501   3.671 -1.8926  1.5819 -0.9429
 5607SOL    HW228476   9.475   6.470   3.827  2.8362 -0.9615 -2.4823
 5608SOL     OW28477   9.592   0.481   4.525 -0.1588 -0.3060 -0.1912
 5608SOL    HW128478   9.661   0.553   4.523 -0.9264  0.4741  0.5867
 5608SOL    HW228479   9.633   0.393   4.499  1.1300  0.1330  0.3633
 5609SOL     OW28480   1.874   4.926   1.024  0.4862  0.2584 -0.1228
 5609SOL    HW128481   1.970   4.950   1.011  0.5102  0.2619  0.0533
 5609SOL    HW228482   1.867   4.859   1.098  0.5765 -1.4904 -1.6695
 5610SOL     OW28483   3.197   2.719   1.520  0.2542 -0.4074  0.2453
 5610SOL    HW128484   3.166   2.804   1.478  0.3755  0.4368  1.7914
 5610SOL    HW228485   3.210   2.649   1.450 -1.6317  0.2942 -0.8405
 5611SOL     OW28486   1.298   4.249   6.045  0.5786  0.0973 -0.0919
 5611SOL    HW128487   1.245   4.226   5.964  0.0106 -1.1548  0.6228
 5611SOL    HW228488   1.385   4.201   6.043  0.5904  0.1132  0.0084
 5612SOL     OW28489   3.197   8.730   9.993  0.0964 -0.0106  0.3698
 5612SOL    HW128490   3.247   8.733  10.080 -0.0189 -0.5424  0.4536
 5612SOL    HW228491   3.100   8.714  10.012  0.1158 -0.4224  0.1284
 5613SOL     OW28492   8.500   7.516   3.107 -0.2220  0.6354  0.2652
 5613SOL    HW128493   8.522   7.601   3.155 -0.0543  0.3877  0.6300
 5613SOL    HW228494   8.561   7.506   3.029 -0.8022  1.2719 -0.2782
 5614SOL     OW28495   0.055   3.821   1.867 -0.1876  0.0871 -0.8342
 5614SOL    HW128496   0.051   3.914   1.829 -2.0610  0.3287 -0.0760
 5614SOL    HW228497  -0.017   3.765   1.826  1.1506 -1.1399 -1.5310
 5615SOL     OW28498   3.984   7.815   2.542 -0.2037 -0.6902  0.0999
 5615SOL    HW128499   4.007   7.850   2.633 -0.2021 -1.4072  0.3791
 5615SOL    HW228500   3.886   7.796   2.537  0.0619 -2.1654  0.4757
 5616SOL     OW28501   0.325   6.409   5.674  0.5779 -0.1926 -0.7648
 5616SOL    HW128502   0.250   6.397   5.739 -0.4054 -0.3550 -1.9055
 5616SOL    HW228503   0.402   6.353   5.701  1.1823  1.7558  1.7461
 5617SOL     OW28504   0.215   6.272   6.729  0.4959  0.6390 -0.7685
 5617SOL    HW128505   0.132   6.327   6.742 -0.6255 -1.1121 -0.3851
 5617SOL    HW228506   0.286   6.303   6.792 -1.3106 -0.6489  2.0237
 5618SOL     OW28507   9.720   1.234   6.214 -0.2507 -0.1053 -0.1048
 5618SOL    HW128508   9.685   1.147   6.248  0.0218 -0.2515 -0.1971
 5618SOL    HW228509   9.665   1.263   6.135  0.3843 -0.7772 -0.8049
 5619SOL     OW28510   3.505   3.249   3.452  0.0640  0.2426 -0.2969
 5619SOL    HW128511   3.422   3.244   3.397  0.4548 -1.2696 -0.7684
 5619SOL    HW228512   3.570   3.312   3.410  0.6020 -1.3631 -1.9162
 5620SOL     OW28513   8.138   9.746   5.314 -0.7894 -0.1898  0.4720
 5620SOL    HW128514   8.053   9.748   5.262 -0.1283 -0.6373 -0.6628
 5620SOL    HW228515   8.166   9.651   5.329 -0.3262 -0.0467  0.5495
 5621SOL     OW28516   9.884   4.738   5.777 -0.2431  0.2992  0.7182
 5621SOL    HW128517   9.960   4.731   5.712 -0.2351 -0.7760  0.8429
 5621SOL    HW228518   9.832   4.821   5.758  0.7235  0.8359  0.3698
 5622SOL     OW28519   5.386   5.930   1.518  0.2757 -0.1377  1.0199
 5622SOL    HW128520   5.382   5.971   1.427  1.9264 -0.9356  0.5748
 5622SOL    HW228521   5.313   5.969   1.575  0.2043  1.5172 -0.1571
 5623SOL     OW28522   2.539   7.191   3.143 -0.4374 -0.1420  0.4108
 5623SOL    HW128523   2.447   7.154   3.129 -0.6124  0.3142  0.3500
 5623SOL    HW228524   2.602   7.148   3.079 -1.1032  1.4310 -1.3493
 5624SOL     OW28525   8.314   1.200   2.305 -0.0705  0.0220 -0.4571
 5624SOL    HW128526   8.230   1.154   2.332 -1.8544  2.9764 -0.7286
 5624SOL    HW228527   8.324   1.196   2.206 -0.4335  0.5928 -0.5140
 5625SOL     OW28528   6.629   6.239   6.769  0.0886  0.3151  0.0493
 5625SOL    HW128529   6.551   6.215   6.827  0.0705  0.8265  0.2361
 5625SOL    HW228530   6.663   6.156   6.724  1.2288 -0.4055  2.1719
 5626SOL     OW28531   7.870   9.447   2.768  0.0658  0.2133 -0.0493
 5626SOL    HW128532   7.776   9.471   2.741 -0.6174 -1.0087  1.1812
 5626SOL    HW228533   7.874   9.350   2.790  2.1330 -0.2362 -2.1676
 5627SOL     OW28534   6.490   7.056   4.370 -0.2522 -0.1276  0.6294
 5627SOL    HW128535   6.539   6.975   4.338  0.3997  0.0355  1.2085
 5627SOL    HW228536   6.434   7.093   4.296  0.9587  0.0358 -0.2154
 5628SOL     OW28537   3.592   4.769   1.442  0.4862  0.2177 -0.0989
 5628SOL    HW128538   3.638   4.759   1.354  1.5277 -1.8771  0.6581
 5628SOL    HW228539   3.595   4.682   1.492 -1.6801  0.8735  1.2444
 5629SOL     OW28540   9.787   8.042   6.001 -0.0987  0.3052 -0.4929
 5629SOL    HW128541   9.882   8.060   5.976  0.0390  0.4754  0.1639
 5629SOL    HW228542   9.738   8.128   6.010 -0.0441  0.2566  0.2484
 5630SOL     OW28543   2.380   9.558   4.711  0.2376  0.1386 -0.4804
 5630SOL    HW128544   2.370   9.656   4.727 -2.6353 -0.2157  0.0865
 5630SOL    HW228545   2.444   9.519   4.778  0.4023  1.3838  0.0919
 5631SOL     OW28546   8.457   8.665   1.608  0.4393 -0.1924  0.2944
 5631SOL    HW128547   8.527   8.735   1.595 -0.7547  0.7972 -0.9990
 5631SOL    HW228548   8.492   8.577   1.576  0.6966  0.5292 -1.5156
 5632SOL     OW28549   5.111   1.761   5.856  0.3049 -0.8694 -0.1124
 5632SOL    HW128550   5.170   1.839   5.877  0.6539 -1.0601 -0.3794
 5632SOL    HW228551   5.131   1.686   5.919 -0.0524 -0.7332  0.1641
 5633SOL     OW28552   6.399   8.040   4.800  0.0543 -0.0989  0.6379
 5633SOL    HW128553   6.318   8.017   4.745  0.0709  0.1585  0.5065
 5633SOL    HW228554   6.481   8.027   4.745  0.1030 -0.3870  0.7808
 5634SOL     OW28555   2.968   5.201   0.841 -0.0748  0.3753  0.1312
 5634SOL    HW128556   2.915   5.264   0.785  2.5818  2.0003 -0.6433
 5634SOL    HW228557   2.971   5.234   0.936 -0.3085  0.3533  0.1468
 5635SOL     OW28558   2.905   3.597   6.590  0.2256 -0.5196 -0.1848
 5635SOL    HW128559   2.952   3.511   6.607  0.3360 -0.6266 -1.0192
 5635SOL    HW228560   2.969   3.664   6.554 -0.0713 -0.3896 -0.4746
 5636SOL     OW28561   1.697   5.573  10.034 -0.7336 -0.5384  0.1984
 5636SOL    HW128562   1.743   5.662  10.030 -2.3336  0.2883 -0.3130
 5636SOL    HW228563   1.765   5.500  10.025  0.5291  0.6411 -0.0312
 5637SOL     OW28564   5.749   8.151   2.681 -0.2191  0.4438 -0.6079
 5637SOL    HW128565   5.775   8.085   2.610 -0.6737 -1.6960  1.1623
 5637SOL    HW228566   5.651   8.144   2.699 -0.1462  1.1526  0.0689
 5638SOL     OW28567   6.875   8.492   4.869 -0.7575  0.1094  0.3550
 5638SOL    HW128568   6.838   8.439   4.793  0.2356 -1.0387  0.6570
 5638SOL    HW228569   6.816   8.480   4.949  0.2200 -1.6953  0.8282
 5639SOL     OW28570   8.406   8.049   6.215  0.7593  0.0027 -0.2213
 5639SOL    HW128571   8.396   8.122   6.148  0.1052  0.8970  0.8409
 5639SOL    HW228572   8.457   7.973   6.174 -1.9677 -0.6263 -2.6198
 5640SOL     OW28573   5.176   4.372   2.390  0.0007  0.0131  0.1532
 5640SOL    HW128574   5.138   4.381   2.481 -0.4278  1.3735 -0.1550
 5640SOL    HW228575   5.276   4.366   2.395 -0.0933 -1.0238  0.7820
 5641SOL     OW28576   3.263   6.437   3.539 -0.0107  0.1145  0.3076
 5641SOL    HW128577   3.221   6.471   3.623  0.3535 -0.3848  0.6856
 5641SOL    HW228578   3.237   6.497   3.463  0.0924  0.8706  0.8645
 5642SOL     OW28579   2.531   5.256   3.456 -0.2393 -0.5224  0.1548
 5642SOL    HW128580   2.530   5.305   3.369 -0.0260 -0.6078  0.1036
 5642SOL    HW228581   2.451   5.281   3.510 -0.7317 -0.9798 -0.3538
 5643SOL     OW28582   1.629   1.374   2.428 -0.0802  0.6452 -0.0895
 5643SOL    HW128583   1.548   1.322   2.456 -0.8064  1.5345 -0.5439
 5643SOL    HW228584   1.695   1.312   2.386 -0.1681 -0.2267  1.0219
 5644SOL     OW28585   7.725   1.322   3.327 -0.0752 -0.1762 -0.1654
 5644SOL    HW128586   7.740   1.420   3.340 -1.4299 -0.0310  0.4472
 5644SOL    HW228587   7.804   1.271   3.360 -0.2435  0.6101  1.4963
 5645SOL     OW28588   7.488   5.648   7.155 -0.0967 -0.0401  0.0624
 5645SOL    HW128589   7.582   5.656   7.189  0.0121 -0.6591 -0.0823
 5645SOL    HW228590   7.474   5.712   7.080  0.6508 -0.9558 -0.8682
 5646SOL     OW28591   0.301   9.114   7.092  0.1548 -0.0688 -0.1911
 5646SOL    HW128592   0.303   9.016   7.074  0.8759 -0.2681  0.9184
 5646SOL    HW228593   0.281   9.130   7.189 -1.7128  0.9287 -0.7058
 5647SOL     OW28594   6.871   0.752   0.603 -0.4944 -0.7142 -0.3360
 5647SOL    HW128595   6.914   0.703   0.679  1.0207 -0.5730 -1.0819
 5647SOL    HW228596   6.856   0.688   0.527 -0.3154 -0.4704 -0.5804
 5648SOL     OW28597   4.343   8.817   6.449 -0.2336  0.5587 -0.2035
 5648SOL    HW128598   4.416   8.832   6.382  0.0024 -0.2804 -0.1387
 5648SOL    HW228599   4.254   8.826   6.405 -0.0860  1.1885 -0.3718
 5649SOL     OW28600   9.543   9.776   7.374 -0.4922  0.0505  0.2966
 5649SOL    HW128601   9.623   9.792   7.316 -0.1205 -2.7481 -0.0536
 5649SOL    HW228602   9.571   9.772   7.470 -0.2444 -0.5491  0.2053
 5650SOL     OW28603   4.022   4.065   0.685  0.3167 -0.2596  0.8375
 5650SOL    HW128604   4.104   4.030   0.639  0.9215  1.3064  0.6941
 5650SOL    HW228605   3.941   4.037   0.634  0.8575 -0.5053  0.0994
 5651SOL     OW28606   9.144   9.278   6.897  0.1982 -0.6542  0.6007
 5651SOL    HW128607   9.109   9.291   6.804  0.1523 -0.3618  0.6578
 5651SOL    HW228608   9.071   9.241   6.955  0.0391 -0.2423  0.6697
 5652SOL     OW28609   7.977   5.209   3.012  0.5639 -0.1467  0.0446
 5652SOL    HW128610   8.049   5.205   3.081 -0.8734  0.0353  1.5765
 5652SOL    HW228611   7.999   5.281   2.946  1.8227 -0.1512  0.4426
 5653SOL     OW28612   9.242   3.920   3.249  0.6613 -0.2150  0.4970
 5653SOL    HW128613   9.336   3.938   3.219  1.1250 -0.3225  1.8361
 5653SOL    HW228614   9.243   3.888   3.344 -0.7485 -0.0409  0.5851
 5654SOL     OW28615   6.822   4.775   9.811 -0.3742  0.2564  0.4937
 5654SOL    HW128616   6.819   4.683   9.850 -1.7807  0.4745  0.9530
 5654SOL    HW228617   6.882   4.833   9.866 -0.6228 -0.0091  1.0468
 5655SOL     OW28618   4.740   9.058   3.000 -0.5339 -0.1325  0.0312
 5655SOL    HW128619   4.804   9.135   2.999  0.2560 -0.7583  1.1526
 5655SOL    HW228620   4.648   9.091   2.980 -0.1905  1.1047  0.4662
 5656SOL     OW28621   1.034   8.849   4.845  0.2131  0.1314  0.1075
 5656SOL    HW128622   1.127   8.854   4.807 -0.1620 -0.7831 -0.9659
 5656SOL    HW228623   1.001   8.942   4.862  0.9296  0.5125 -0.5174
 5657SOL     OW28624   0.721   3.282   5.784 -0.1218  0.0187 -0.2493
 5657SOL    HW128625   0.741   3.186   5.803 -1.8140 -0.4831 -0.9431
 5657SOL    HW228626   0.642   3.289   5.723  0.0485  1.8452 -0.2940
 5658SOL     OW28627   5.646   7.108   5.624 -0.0105  0.6903 -0.2711
 5658SOL    HW128628   5.658   7.183   5.558 -0.8278  2.2716  1.3403
 5658SOL    HW228629   5.615   7.145   5.711  1.4565 -1.3424  1.1577
 5659SOL     OW28630   9.794   9.276   4.208 -0.1679  0.0081 -0.1422
 5659SOL    HW128631   9.798   9.350   4.140  0.6332 -0.3130 -0.4594
 5659SOL    HW228632   9.700   9.246   4.220 -0.5451  1.3080  0.2294
 5660SOL     OW28633   2.706   7.537   2.208  0.5782 -0.0266  0.4041
 5660SOL    HW128634   2.753   7.592   2.139  1.2086 -1.9993 -0.8048
 5660SOL    HW228635   2.612   7.520   2.180  1.2452 -2.0174 -0.7088
 5661SOL     OW28636   3.187   7.293   5.088  0.2033  0.0514  0.0098
 5661SOL    HW128637   3.126   7.295   5.167  0.7982 -2.8045  0.5924
 5661SOL    HW228638   3.208   7.198   5.064  1.2125  0.8949 -2.6820
 5662SOL     OW28639   1.709   9.125   2.819 -0.2292  0.5970 -0.3193
 5662SOL    HW128640   1.701   9.026   2.813 -0.7226  0.5929  0.3809
 5662SOL    HW228641   1.618   9.165   2.834  0.0848  1.0873  0.3058
 5663SOL     OW28642   8.606   5.881   4.120 -0.4519 -0.4983 -0.0090
 5663SOL    HW128643   8.541   5.805   4.125 -0.9325 -0.0979 -0.1301
 5663SOL    HW228644   8.699   5.846   4.115 -0.5901 -1.0778  1.2708
 5664SOL     OW28645   1.291   4.431   0.528 -0.2052 -1.2769 -0.8423
 5664SOL    HW128646   1.258   4.337   0.533  0.9068 -1.8280 -3.1630
 5664SOL    HW228647   1.222   4.492   0.567 -1.3146 -2.9603 -0.1076
 5665SOL     OW28648   5.429   5.404   2.128 -0.2069  0.2190  0.3037
 5665SOL    HW128649   5.446   5.500   2.152 -0.9227  0.7084 -1.0859
 5665SOL    HW228650   5.468   5.385   2.037  1.1347 -1.1822  1.1430
 5666SOL     OW28651   4.242   8.114   5.098 -0.1262  0.6278 -0.2521
 5666SOL    HW128652   4.262   8.195   5.153  0.3503  1.3031 -1.4175
 5666SOL    HW228653   4.169   8.135   5.033 -0.1177  0.0670 -0.4492
 5667SOL     OW28654   9.460   5.591   4.387  0.4571  0.1236 -0.1907
 5667SOL    HW128655   9.496   5.684   4.393 -0.1489  0.3449  0.0580
 5667SOL    HW228656   9.535   5.527   4.371  0.9545  0.5864  0.2832
 5668SOL     OW28657   8.833   0.105   1.150 -0.3426 -0.2084  0.3143
 5668SOL    HW128658   8.826   0.012   1.186  0.2060 -0.1235  0.6469
 5668SOL    HW228659   8.910   0.111   1.087 -0.0032  0.1684  0.7605
 5669SOL     OW28660   1.366   2.285   0.108  0.3554  0.2913  0.5752
 5669SOL    HW128661   1.315   2.289   0.022 -1.7317  1.3595  1.8352
 5669SOL    HW228662   1.347   2.198   0.153  1.3951 -0.2391  0.0023
 5670SOL     OW28663   2.212   4.077   5.571 -0.0539 -0.0908  0.3256
 5670SOL    HW128664   2.238   4.150   5.507  0.4206 -0.4315  0.1313
 5670SOL    HW228665   2.142   4.019   5.528  0.8730 -0.8231 -0.2148
 5671SOL     OW28666   3.537   9.156   4.934 -0.8794 -0.1392  0.0975
 5671SOL    HW128667   3.494   9.171   4.845  1.1330 -0.9958 -1.0719
 5671SOL    HW228668   3.598   9.076   4.928 -1.1248 -0.5331  2.3993
 5672SOL     OW28669   9.370   5.131   3.887  0.6972 -0.0599  0.8284
 5672SOL    HW128670   9.435   5.153   3.815  0.3258 -0.2370  0.4392
 5672SOL    HW228671   9.278   5.124   3.848  0.4247  0.3391  1.4007
 5673SOL     OW28672   5.873   0.953   2.738 -0.1239 -0.3391 -0.7457
 5673SOL    HW128673   5.806   0.951   2.812  0.1283  0.4411 -0.4872
 5673SOL    HW228674   5.955   1.001   2.769  0.1234 -0.3274 -1.4153
 5674SOL     OW28675   4.801   8.810   5.131 -0.1163  0.1601  0.2506
 5674SOL    HW128676   4.749   8.792   5.047  0.4385  0.0042 -0.0647
 5674SOL    HW228677   4.884   8.861   5.109 -0.8303  1.6316  0.9357
 5675SOL     OW28678   5.606   4.628   0.368  0.0703 -0.3163  0.0236
 5675SOL    HW128679   5.640   4.718   0.342  1.3176 -1.0976 -1.1493
 5675SOL    HW228680   5.507   4.633   0.386  0.1148  1.2463 -0.0812
 5676SOL     OW28681   0.464   5.891   6.126 -0.2257  0.3340  0.7218
 5676SOL    HW128682   0.424   5.936   6.046 -1.0595  0.4051  1.1728
 5676SOL    HW228683   0.468   5.792   6.109  2.1716  0.6099 -0.5094
 5677SOL     OW28684   2.790   4.927   1.151  0.6179  0.0767 -0.3553
 5677SOL    HW128685   2.873   4.923   1.095  0.9089  1.0107 -0.0039
 5677SOL    HW228686   2.813   4.899   1.245  0.7252  1.1833 -0.0500
 5678SOL     OW28687   5.707   2.717   6.170 -0.0452  0.4443  0.0163
 5678SOL    HW128688   5.692   2.782   6.096  0.4832  1.0113  0.3971
 5678SOL    HW228689   5.634   2.649   6.170 -0.2927  0.7034 -0.7414
 5679SOL     OW28690   5.345   6.131   2.729  0.3267 -0.3050  0.3394
 5679SOL    HW128691   5.410   6.183   2.784 -0.6873  0.5793  0.7120
 5679SOL    HW228692   5.375   6.132   2.633  1.3951 -0.7628  0.6589
 5680SOL     OW28693   5.302   5.568   0.732 -0.3373 -0.4392 -0.2397
 5680SOL    HW128694   5.275   5.567   0.636  3.3420 -0.6924 -1.3503
 5680SOL    HW228695   5.318   5.662   0.762  0.3922 -0.4872 -0.4649
 5681SOL     OW28696   9.465   1.410   1.140 -0.2238  0.5169  0.0181
 5681SOL    HW128697   9.488   1.422   1.043  1.1588  3.1088  0.6113
 5681SOL    HW228698   9.428   1.496   1.176 -0.6678 -0.4101  1.8085
 5682SOL     OW28699   2.094   8.838   6.040 -0.4048 -0.6891 -0.2507
 5682SOL    HW128700   2.001   8.876   6.049 -0.0206  0.4724 -1.0992
 5682SOL    HW228701   2.158   8.894   6.093 -0.0240 -0.8851 -0.5036
 5683SOL     OW28702   9.169   4.223   3.136  0.0376 -0.3447  0.1276
 5683SOL    HW128703   9.072   4.247   3.131  0.0556 -0.4017 -0.7209
 5683SOL    HW228704   9.198   4.218   3.231 -0.0661  2.5651  0.3434
 5684SOL     OW28705   6.348   8.059   2.763 -0.1547  0.0326  0.1524
 5684SOL    HW128706   6.435   8.015   2.743  1.4883  1.9684  2.7643
 5684SOL    HW228707   6.359   8.159   2.762 -2.5665  0.3474 -0.3828
 5685SOL     OW28708   8.583   6.402   7.604 -0.2962 -0.1289 -0.0332
 5685SOL    HW128709   8.536   6.467   7.545 -0.7300 -0.3862  0.0251
 5685SOL    HW228710   8.526   6.380   7.683 -0.2449 -0.7387 -0.1586
 5686SOL     OW28711   0.200   5.078   1.405  0.0471 -0.0142 -0.2299
 5686SOL    HW128712   0.101   5.079   1.398 -0.0638  1.1071  1.2041
 5686SOL    HW228713   0.230   4.990   1.444 -0.3253 -0.6089 -1.2809
 5687SOL     OW28714   2.100   8.190   3.970  0.3594 -0.3413 -0.5077
 5687SOL    HW128715   2.036   8.135   4.024 -2.5426  0.3516 -3.0716
 5687SOL    HW228716   2.121   8.143   3.885  0.3439  1.0592 -1.3129
 5688SOL     OW28717   2.547   8.596   3.411  0.1542  0.0504 -0.0442
 5688SOL    HW128718   2.535   8.502   3.379  1.5376 -0.7945  1.8604
 5688SOL    HW228719   2.491   8.657   3.355 -0.8146 -1.9023 -1.2648
 5689SOL     OW28720   9.900   5.236   6.174  0.9435 -0.0946 -0.6194
 5689SOL    HW128721   9.860   5.145   6.175  1.4716 -0.3299  1.0768
 5689SOL    HW228722   9.829   5.304   6.193  0.7028 -0.2270 -1.0572
 5690SOL     OW28723   4.597   3.282   5.519 -0.2894 -0.3854  0.0629
 5690SOL    HW128724   4.567   3.340   5.443 -1.1141 -1.1417 -0.1897
 5690SOL    HW228725   4.583   3.332   5.605 -1.4930 -0.4022 -0.1115
 5691SOL     OW28726   6.309   4.074   1.374  0.2387 -0.9305 -0.0293
 5691SOL    HW128727   6.230   4.131   1.353  0.7089 -1.3052 -3.0882
 5691SOL    HW228728   6.392   4.117   1.338  1.2235 -1.3706  1.6276
 5692SOL     OW28729   4.077   9.641   6.936  0.1105 -0.3845 -0.0469
 5692SOL    HW128730   4.129   9.657   7.020 -0.2507  2.0961 -0.2574
 5692SOL    HW228731   4.047   9.546   6.933  1.0271 -0.7746  2.1118
 5693SOL     OW28732   4.596   2.966  10.038  0.5453 -0.2066 -0.4440
 5693SOL    HW128733   4.555   2.909  10.109 -0.4350 -1.9684 -2.3626
 5693SOL    HW228734   4.692   2.939  10.024  0.1342 -1.2855 -1.2214
 5694SOL     OW28735   2.011   4.532   4.434  0.0793 -0.1888 -0.3838
 5694SOL    HW128736   1.954   4.510   4.513  1.5630 -0.2248  0.6887
 5694SOL    HW228737   1.986   4.472   4.357 -2.2187  0.6784 -0.3733
 5695SOL     OW28738   8.575   9.783   3.733 -0.3044  0.5102  0.2287
 5695SOL    HW128739   8.659   9.837   3.729 -0.0703  0.0550 -1.1306
 5695SOL    HW228740   8.595   9.695   3.777 -0.8950  1.8534  3.3590
 5696SOL     OW28741   0.397   8.953   0.571 -0.3565  0.0790  0.3228
 5696SOL    HW128742   0.437   8.889   0.506 -1.7011 -2.4315  1.8843
 5696SOL    HW228743   0.313   8.992   0.533  0.4468  0.9379 -0.6118
 5697SOL     OW28744   9.620   4.057   5.299  0.1741  0.1209  0.3521
 5697SOL    HW128745   9.660   4.117   5.368  0.2348 -0.6005  0.9535
 5697SOL    HW228746   9.531   4.094   5.270  0.7245  1.0935 -0.1151
 5698SOL     OW28747   9.791   5.833   4.139 -1.0077  0.0697  0.3674
 5698SOL    HW128748   9.740   5.822   4.053 -1.8767  3.9710  0.2542
 5698SOL    HW228749   9.886   5.805   4.125 -1.4815 -0.6794 -1.4868
 5699SOL     OW28750   4.184   9.634   6.322 -0.0300  0.2478 -0.8270
 5699SOL    HW128751   4.243   9.620   6.243  1.5227  2.9128 -0.1650
 5699SOL    HW228752   4.153   9.545   6.356  2.8219 -1.1611 -1.7660
 5700SOL     OW28753   3.334   2.455   5.131 -0.1475  0.3866  0.1140
 5700SOL    HW128754   3.252   2.398   5.138 -0.6066  1.0529  0.1299
 5700SOL    HW228755   3.353   2.497   5.220  1.3379 -1.3228  0.6264
 5701SOL     OW28756   1.598   9.262   9.857  0.1493 -0.2259  0.1173
 5701SOL    HW128757   1.579   9.330   9.928  1.7237  0.8121 -0.4280
 5701SOL    HW228758   1.633   9.178   9.899 -0.7967 -0.3358  0.7090
 5702SOL     OW28759   9.066   5.751   3.212 -0.2350 -0.0290 -0.5349
 5702SOL    HW128760   9.012   5.676   3.174  0.5443  0.1351 -1.9787
 5702SOL    HW228761   9.030   5.775   3.302 -2.9370  0.4534 -1.7144
 5703SOL     OW28762   0.648   9.787   4.961  0.0971  0.4084  0.2411
 5703SOL    HW128763   0.746   9.773   4.973 -0.1885 -1.0861  0.9351
 5703SOL    HW228764   0.600   9.757   5.042 -1.0420 -0.0789 -0.6021
 5704SOL     OW28765   1.907   4.758   0.643 -0.0591  0.1738 -0.3996
 5704SOL    HW128766   1.894   4.666   0.606  0.5720  0.3486 -1.0737
 5704SOL    HW228767   1.831   4.780   0.704  0.9610 -1.7031  1.6452
 5705SOL     OW28768   6.765   8.817   6.227 -0.0313 -0.3925  0.1694
 5705SOL    HW128769   6.698   8.832   6.300 -0.1791 -0.7686  0.1134
 5705SOL    HW228770   6.719   8.778   6.147  0.5227 -2.2467  0.7157
 5706SOL     OW28771   1.775   3.018   2.432 -0.1988 -0.1742  0.3283
 5706SOL    HW128772   1.714   2.945   2.402 -0.0070  0.4146 -1.5899
 5706SOL    HW228773   1.734   3.067   2.508 -1.3701 -0.8187  0.1243
 5707SOL     OW28774   1.715   3.288   5.676  0.0020 -0.1459 -0.5043
 5707SOL    HW128775   1.766   3.372   5.658  0.1470 -0.1667 -0.2041
 5707SOL    HW228776   1.621   3.299   5.644 -0.2533  0.5027  0.4313
 5708SOL     OW28777   7.154   8.139   4.804 -0.3271 -0.6852 -0.1952
 5708SOL    HW128778   7.221   8.207   4.772 -0.3980 -0.6374 -0.2452
 5708SOL    HW228779   7.098   8.110   4.727 -1.0414  0.0354  0.0472
 5709SOL     OW28780   4.129   3.373   6.749  0.2233 -0.1386 -0.1671
 5709SOL    HW128781   4.142   3.279   6.719 -1.1034  0.2140 -1.9664
 5709SOL    HW228782   4.063   3.376   6.824 -0.6964 -0.5436 -0.9470
 5710SOL     OW28783   8.947   6.262   3.754  0.2064 -0.1960 -0.2154
 5710SOL    HW128784   8.963   6.265   3.655 -0.9092 -0.1876 -0.3991
 5710SOL    HW228785   8.930   6.354   3.788 -1.0743 -0.4060 -0.2937
 5711SOL     OW28786   9.772   9.030   0.307 -0.6129  0.0724 -0.0223
 5711SOL    HW128787   9.719   9.042   0.223 -1.2595  2.3635  0.6978
 5711SOL    HW228788   9.712   8.998   0.380 -0.6277  0.8118  0.2937
 5712SOL     OW28789   8.677   4.896   5.018  0.5996 -0.1484 -0.2770
 5712SOL    HW128790   8.690   4.972   4.955  1.1917  0.6476  0.7725
 5712SOL    HW228791   8.694   4.928   5.112 -0.5040 -1.2423  0.3044
 5713SOL     OW28792   4.787   0.776   4.949  0.2375 -0.0071  0.3493
 5713SOL    HW128793   4.756   0.772   5.044 -0.0211  0.6689  0.2977
 5713SOL    HW228794   4.839   0.693   4.927  0.5040 -0.0541  1.1521
 5714SOL     OW28795   1.794   3.836   4.922 -0.6377 -0.5416 -0.3629
 5714SOL    HW128796   1.822   3.741   4.936 -1.5852 -0.8703 -0.7050
 5714SOL    HW228797   1.874   3.895   4.934 -0.0388 -1.3723 -0.1470
 5715SOL     OW28798   6.679   1.113   5.047  0.0599  0.0799  0.1372
 5715SOL    HW128799   6.715   1.020   5.052 -0.6910 -0.2658 -0.8516
 5715SOL    HW228800   6.584   1.114   5.077  0.1970  0.6156  0.5755
 5716SOL     OW28801   7.834   4.712   2.156  0.1393 -0.3398  0.9752
 5716SOL    HW128802   7.876   4.704   2.066  0.6685  0.7316  1.1162
 5716SOL    HW228803   7.739   4.680   2.152 -0.1306  0.5745 -0.1805
 5717SOL     OW28804   0.376   7.754   4.779 -0.1358 -0.0372  0.5533
 5717SOL    HW128805   0.425   7.668   4.790 -1.2860 -0.7252  0.3622
 5717SOL    HW228806   0.291   7.738   4.729  0.3748  1.4662 -0.8466
 5718SOL     OW28807   1.930   4.766   0.217 -0.3861 -0.0434 -0.4184
 5718SOL    HW128808   1.998   4.795   0.284  2.0378  0.4657 -2.9990
 5718SOL    HW228809   1.946   4.670   0.193 -1.6494 -0.4158  0.1807
 5719SOL     OW28810   4.771   2.286   1.736 -0.6715  0.6229 -0.4671
 5719SOL    HW128811   4.841   2.277   1.665 -1.9334  1.7053 -1.8845
 5719SOL    HW228812   4.730   2.196   1.754 -0.8072  0.4527 -1.6012
 5720SOL     OW28813   2.022   2.022   6.182 -0.0560 -0.5142 -0.2855
 5720SOL    HW128814   1.987   1.976   6.264  2.8662  0.0220  1.3256
 5720SOL    HW228815   2.058   1.954   6.118 -0.1104 -0.7744 -0.0383
 5721SOL     OW28816   9.262   2.307   5.449  0.3263  0.1958  0.6843
 5721SOL    HW128817   9.310   2.255   5.378  0.2942  0.2561  0.6174
 5721SOL    HW228818   9.186   2.357   5.407 -0.4322 -0.7083  0.9678
 5722SOL     OW28819   7.351   3.554   2.627  0.1809 -0.0584  0.0859
 5722SOL    HW128820   7.437   3.573   2.580 -0.2724 -3.0776 -2.1155
 5722SOL    HW228821   7.371   3.514   2.717  1.0504  1.3665  0.5438
 5723SOL     OW28822   2.667   6.181   4.677 -0.0953 -0.9078 -0.0994
 5723SOL    HW128823   2.601   6.105   4.667  0.2496 -1.7231  3.2474
 5723SOL    HW228824   2.618   6.263   4.706 -0.1197 -0.4809 -1.3145
 5724SOL     OW28825   4.380   0.957   6.229 -0.1940  0.0960  0.6739
 5724SOL    HW128826   4.288   0.995   6.227 -0.6289 -0.9745 -0.8200
 5724SOL    HW228827   4.431   0.995   6.306 -2.2376 -0.1525  2.1620
 5725SOL     OW28828   2.175   7.613   0.894  0.2144 -0.1908  0.2140
 5725SOL    HW128829   2.126   7.673   0.958  0.1942 -1.6510  1.5830
 5725SOL    HW228830   2.268   7.598   0.928  1.6366  2.4936 -2.3220
 5726SOL     OW28831   6.770   6.040   7.234 -0.0212 -0.4153  0.3394
 5726SOL    HW128832   6.866   6.037   7.264  0.6336  0.6887 -1.5435
 5726SOL    HW228833   6.764   6.002   7.141 -0.9731  1.9798 -0.6078
 5727SOL     OW28834   6.003   1.632   4.906  0.1829  0.5449  0.0812
 5727SOL    HW128835   5.953   1.719   4.912 -0.1669  0.2462  1.5480
 5727SOL    HW228836   6.072   1.628   4.978  0.7714 -0.0409 -0.5121
 5728SOL     OW28837   9.709   1.037   3.951  0.2802 -0.0158  0.4360
 5728SOL    HW128838   9.783   1.080   4.004 -0.3863  1.2282  0.3899
 5728SOL    HW228839   9.717   1.066   3.855  0.7927 -1.3253  0.0772
 5729SOL     OW28840   4.935   0.826   6.490 -0.9706 -0.3812 -0.2372
 5729SOL    HW128841   4.956   0.766   6.412  2.4976  0.4775 -0.0328
 5729SOL    HW228842   4.989   0.909   6.483 -0.9190 -0.1173  2.9099
 5730SOL     OW28843   6.851   8.103   7.418  0.2356  0.0781 -0.0994
 5730SOL    HW128844   6.923   8.166   7.389  2.4110 -1.0345  2.5739
 5730SOL    HW228845   6.846   8.102   7.518 -0.8088 -2.8054 -0.1208
 5731SOL     OW28846   4.999   9.874   4.952 -0.1041  0.0074  0.0130
 5731SOL    HW128847   4.966   9.780   4.960 -1.4098  0.4421 -0.1839
 5731SOL    HW228848   4.952   9.920   4.877 -1.7380  1.7589  2.0545
 5732SOL     OW28849   1.644   2.648   7.456  0.0827  0.0733 -0.1381
 5732SOL    HW128850   1.664   2.565   7.403  0.9202  0.1562  0.0525
 5732SOL    HW228851   1.701   2.650   7.538 -0.5193  0.4388  0.2723
 5733SOL     OW28852   0.530   3.745   5.857  1.0200 -0.1253  0.7578
 5733SOL    HW128853   0.568   3.721   5.947  1.6067 -2.6363 -0.1155
 5733SOL    HW228854   0.555   3.674   5.791 -0.9710  0.7505 -0.9774
 5734SOL     OW28855   9.039   9.974   3.405  0.3952  0.3938 -0.6011
 5734SOL    HW128856   8.955  10.026   3.388  0.5272  0.5512 -0.7732
 5734SOL    HW228857   9.046   9.955   3.503  0.8334  1.5378 -0.3984
 5735SOL     OW28858   6.262   1.517   4.516  0.3195 -0.0743  0.7195
 5735SOL    HW128859   6.169   1.542   4.543  0.4695 -0.2434  1.3911
 5735SOL    HW228860   6.318   1.501   4.597  1.0495  0.4351  0.3233
 5736SOL     OW28861   9.305   0.591   4.469 -0.6298  0.2661  0.2565
 5736SOL    HW128862   9.398   0.563   4.493 -0.2500  2.1440  1.0187
 5736SOL    HW228863   9.300   0.691   4.464 -1.6557  0.1121 -3.6059
 5737SOL     OW28864   8.103   8.126   7.005  0.0706  0.2527  0.0542
 5737SOL    HW128865   8.130   8.093   7.096 -0.1024 -1.2228 -0.4027
 5737SOL    HW228866   8.154   8.075   6.935 -0.4094  0.7867 -0.6900
 5738SOL     OW28867   3.235   7.751   0.110 -0.1864  0.5833  0.2994
 5738SOL    HW128868   3.333   7.738   0.094 -0.6171 -0.8225 -1.3949
 5738SOL    HW228869   3.217   7.752   0.208  1.4423  0.2161  0.6259
 5739SOL     OW28870   2.320   5.720   5.428  0.3375  0.0407 -0.4655
 5739SOL    HW128871   2.250   5.686   5.365  0.1794  0.9135 -0.7658
 5739SOL    HW228872   2.389   5.772   5.377  2.4510 -2.6835 -0.5174
 5740SOL     OW28873   7.604   1.810   2.038  0.7261  0.3270  0.2704
 5740SOL    HW128874   7.683   1.797   2.098 -0.1768 -0.7706  1.2415
 5740SOL    HW228875   7.624   1.774   1.947  1.9548  1.6145  0.0140
 5741SOL     OW28876   5.259   8.522   3.145  0.1067 -0.1546 -0.0673
 5741SOL    HW128877   5.328   8.450   3.143 -0.9188 -1.1489 -0.2727
 5741SOL    HW228878   5.302   8.610   3.122  0.7881 -1.1863 -2.9736
 5742SOL     OW28879   4.737   4.371   7.078  0.1734  0.1279  0.1369
 5742SOL    HW128880   4.702   4.431   7.150 -1.2220  0.0253 -0.4394
 5742SOL    HW228881   4.666   4.305   7.053  0.4588  0.5099 -1.7083
 5743SOL     OW28882   6.071   9.594   7.106 -0.1004 -0.6670 -0.7841
 5743SOL    HW128883   6.117   9.555   7.026 -0.2937 -0.4046 -1.0208
 5743SOL    HW228884   6.136   9.650   7.157  0.6120 -2.4874  0.3781
 5744SOL     OW28885   1.620   4.934   6.952 -0.2666  0.1584  0.4535
 5744SOL    HW128886   1.620   4.925   7.052 -2.2165 -0.8077  0.3948
 5744SOL    HW228887   1.614   4.843   6.912 -1.4845  0.6771 -0.5269
 5745SOL     OW28888   4.581   0.234   3.235 -0.7112  0.2286 -0.5946
 5745SOL    HW128889   4.677   0.264   3.232 -1.4331  3.1107  2.0282
 5745SOL    HW228890   4.576   0.141   3.272  0.9936  0.8732  1.4007
 5746SOL     OW28891   0.978   4.904   4.183 -0.4337 -0.2945  0.2755
 5746SOL    HW128892   1.036   4.824   4.172  0.6735  0.7420 -1.6492
 5746SOL    HW228893   0.948   4.936   4.093 -0.0288  2.0513  0.9477
 5747SOL     OW28894   8.695   1.550   0.465 -0.1667 -0.3075  0.2068
 5747SOL    HW128895   8.713   1.524   0.370  1.5009 -0.0007  0.4152
 5747SOL    HW228896   8.623   1.618   0.468 -1.6626 -1.8103 -0.6752
 5748SOL     OW28897   7.555   0.545   7.186 -0.1859  0.1416  0.4092
 5748SOL    HW128898   7.485   0.492   7.138  0.7374  1.6053 -2.6771
 5748SOL    HW228899   7.645   0.510   7.162  0.3358  1.6301  0.1419
 5749SOL     OW28900   1.568   4.897   5.404 -0.1058  0.5567 -0.0226
 5749SOL    HW128901   1.509   4.854   5.473  0.2219  1.3716  0.7682
 5749SOL    HW228902   1.618   4.973   5.445  1.4242 -0.0475 -0.7158
 5750SOL     OW28903   3.168   7.544   4.958 -0.7322  0.2682 -0.1227
 5750SOL    HW128904   3.111   7.510   4.883  0.6257 -0.7659 -0.7085
 5750SOL    HW228905   3.195   7.468   5.017  0.1330  0.7400  0.0987
 5751SOL     OW28906   2.006   4.098   2.364 -0.1795 -0.2844 -0.0001
 5751SOL    HW128907   1.990   4.030   2.291  0.2044 -1.5757  1.1015
 5751SOL    HW228908   2.047   4.053   2.443 -0.4833  1.1410  0.9843
 5752SOL     OW28909   6.793   0.792   4.464  0.3301 -0.1268  0.3749
 5752SOL    HW128910   6.732   0.738   4.406  1.9605 -1.2208 -0.3362
 5752SOL    HW228911   6.858   0.842   4.407  0.3035  0.8173  1.1445
 5753SOL     OW28912   3.971   1.453   4.471  0.3288  0.2499 -0.8071
 5753SOL    HW128913   3.974   1.353   4.470  0.6758  0.2560 -0.3220
 5753SOL    HW228914   4.045   1.488   4.529 -0.5640  0.7531  0.0349
 5754SOL     OW28915   0.598   9.580   5.470 -0.3764  0.0879 -0.5198
 5754SOL    HW128916   0.645   9.495   5.447 -1.9381 -0.1052 -3.1816
 5754SOL    HW228917   0.587   9.636   5.387  0.4415  2.8157  1.1339
 5755SOL     OW28918   2.220   4.843   5.211 -0.2620  0.2049  0.2238
 5755SOL    HW128919   2.292   4.901   5.247 -0.3325  0.9076 -0.7303
 5755SOL    HW228920   2.189   4.879   5.122 -1.8418 -0.0334  0.6535
 5756SOL     OW28921   8.284   0.776   0.812  0.3477  0.0254  0.0804
 5756SOL    HW128922   8.243   0.689   0.841 -0.7803  0.7725  0.7461
 5756SOL    HW228923   8.223   0.821   0.747 -0.3094  1.5397  1.7037
 5757SOL     OW28924   9.148   0.178   6.261  0.2845 -0.5417  0.5996
 5757SOL    HW128925   9.207   0.241   6.310  0.5721  1.2780 -2.0149
 5757SOL    HW228926   9.199   0.135   6.187 -1.5476  0.8247 -1.5134
 5758SOL     OW28927   7.694   1.931   3.070 -0.5349 -0.0378  0.5373
 5758SOL    HW128928   7.747   1.996   3.126 -0.9062  1.4838 -0.8342
 5758SOL    HW228929   7.661   1.978   2.988  1.6149 -2.6835 -1.9409
 5759SOL     OW28930   2.457   2.147   0.455 -0.9509 -0.0034  0.1742
 5759SOL    HW128931   2.492   2.055   0.473  0.3229  0.1005 -1.5940
 5759SOL    HW228932   2.357   2.145   0.456 -0.9647 -1.7308 -1.1516
 5760SOL     OW28933   9.059   7.547   0.952 -0.0260 -0.6491  0.0658
 5760SOL    HW128934   8.980   7.544   0.891  1.0130  0.6886 -1.4076
 5760SOL    HW228935   9.093   7.454   0.967 -0.8900 -1.0803 -0.6267
 5761SOL     OW28936   0.167   6.896   4.521  0.5616 -0.0585 -0.6112
 5761SOL    HW128937   0.258   6.858   4.504  0.8360  0.2798  0.0698
 5761SOL    HW228938   0.158   6.918   4.619  0.3957  1.5427 -0.9642
 5762SOL     OW28939   3.234   1.195   5.538  0.5389  0.1009  0.6257
 5762SOL    HW128940   3.154   1.249   5.561 -0.3467 -1.1845  0.6074
 5762SOL    HW228941   3.313   1.255   5.527 -0.4808  1.3969  0.3563
 5763SOL     OW28942   6.551   5.641   1.153 -0.4798 -0.2511  0.0991
 5763SOL    HW128943   6.468   5.622   1.206 -0.6583 -2.6731 -0.9567
 5763SOL    HW228944   6.613   5.563   1.160 -0.3576 -0.4683 -2.8968
 5764SOL     OW28945   1.636   3.755   3.704 -0.2665  0.4395  0.3394
 5764SOL    HW128946   1.598   3.698   3.776  0.3746 -1.5800 -0.8690
 5764SOL    HW228947   1.731   3.729   3.686  0.0293  1.8545 -0.2877
 5765SOL     OW28948   5.389   8.615   3.843 -0.8683  0.2905  0.5142
 5765SOL    HW128949   5.421   8.523   3.818 -2.1266  0.3421 -1.3935
 5765SOL    HW228950   5.443   8.683   3.794 -1.2724  0.5080  0.3748
 5766SOL     OW28951   1.371   8.410   5.826 -0.2155  0.4762 -0.5865
 5766SOL    HW128952   1.275   8.430   5.844  0.2720  1.4791  1.0684
 5766SOL    HW228953   1.407   8.477   5.760 -1.0836 -1.0083 -2.6320
 5767SOL     OW28954   4.544   9.232   5.706  0.3799 -0.2356  0.0975
 5767SOL    HW128955   4.559   9.140   5.671  1.7834  0.6942 -1.8283
 5767SOL    HW228956   4.525   9.294   5.630 -0.2386  1.1346  1.3411
 5768SOL     OW28957   3.384   8.753   2.301  0.3641  0.2531 -0.2133
 5768SOL    HW128958   3.482   8.751   2.284  0.2124  0.4240 -1.1338
 5768SOL    HW228959   3.360   8.682   2.368  1.3518  1.3539  1.3569
 5769SOL     OW28960   8.778   1.607   0.764 -0.3071 -0.5037 -0.0450
 5769SOL    HW128961   8.772   1.560   0.676  0.0260 -0.0748 -0.2970
 5769SOL    HW228962   8.729   1.695   0.759 -1.2591 -0.9906  0.5371
 5770SOL     OW28963   8.398   8.966   2.986  0.2176 -0.9289 -0.3065
 5770SOL    HW128964   8.418   8.875   3.021 -0.1686 -0.5714  0.8584
 5770SOL    HW228965   8.441   9.035   3.045 -0.4940 -0.3154 -0.4931
 5771SOL     OW28966   9.372   0.115   4.904  0.2037 -0.4687 -0.4260
 5771SOL    HW128967   9.325   0.201   4.927  2.0169  0.5305 -0.3559
 5771SOL    HW228968   9.358   0.049   4.978  0.0062  0.2724  0.2160
 5772SOL     OW28969   1.544   9.774   9.835 -0.1561 -0.2781  0.3716
 5772SOL    HW128970   1.488   9.715   9.894 -2.2838  0.0140 -1.2854
 5772SOL    HW228971   1.614   9.718   9.790  0.7701 -0.6990  2.2863
 5773SOL     OW28972   4.835   1.772   1.618 -0.2019 -0.0034 -0.0839
 5773SOL    HW128973   4.923   1.816   1.640  0.0842 -0.1381 -0.9373
 5773SOL    HW228974   4.852   1.682   1.578 -0.7806 -0.7033  1.2365
 5774SOL     OW28975   6.413   0.004   1.995  0.2562  0.4105 -0.3471
 5774SOL    HW128976   6.411   0.097   1.958  1.3863 -0.2765 -2.1851
 5774SOL    HW228977   6.376  -0.060   1.928  0.7800 -0.6505  0.3601
 5775SOL     OW28978   9.277   6.310   0.239 -0.0522  0.7153 -0.0571
 5775SOL    HW128979   9.229   6.324   0.326  0.0181  0.9058 -0.0480
 5775SOL    HW228980   9.369   6.276   0.256 -0.7555 -1.2999 -0.1380
 5776SOL     OW28981   1.863   9.986   4.682 -0.0102 -0.0718 -0.0694
 5776SOL    HW128982   1.770  10.002   4.651 -0.1790 -0.1135  0.4088
 5776SOL    HW228983   1.870  10.007   4.780  0.5027  0.0242 -0.1225
 5777SOL     OW28984   6.731   0.141   3.762  0.2316  0.0285  0.3812
 5777SOL    HW128985   6.825   0.174   3.764  0.4742 -0.6999  1.8959
 5777SOL    HW228986   6.684   0.170   3.845 -1.5882  2.3596 -1.4174
 5778SOL     OW28987   2.981   2.782   4.945 -0.1492 -0.5106  0.2800
 5778SOL    HW128988   3.071   2.818   4.919  1.5749 -3.1994  2.2292
 5778SOL    HW228989   2.959   2.703   4.888 -1.4658  0.3512 -0.4231
 5779SOL     OW28990   9.912   0.481   3.841  1.1316  0.0861  0.6416
 5779SOL    HW128991   9.828   0.513   3.885  1.1044 -0.2567  0.8366
 5779SOL    HW228992   9.923   0.527   3.753 -0.8806 -2.1659 -0.8245
 5780SOL     OW28993   9.519   5.621   0.920  0.2713 -0.4181  0.5177
 5780SOL    HW128994   9.606   5.609   0.874  0.5769 -0.6532  1.1536
 5780SOL    HW228995   9.528   5.690   0.991 -0.2595  0.1203  0.0693
 5781SOL     OW28996   1.089   8.810   5.782  0.5744 -0.3036 -0.3827
 5781SOL    HW128997   1.020   8.740   5.763  1.7908 -0.9466 -2.7073
 5781SOL    HW228998   1.116   8.854   5.696  2.6332  0.3334  0.5557
 5782SOL     OW28999   0.466   3.796   5.008 -0.1315  0.7334  0.6057
 5782SOL    HW129000   0.398   3.820   5.077 -0.6499 -0.7119  0.6049
 5782SOL    HW229001   0.440   3.711   4.962  0.3371  1.5176 -1.1978
 5783SOL     OW29002   4.080   0.055   3.617 -0.0360  0.3298 -0.5161
 5783SOL    HW129003   4.007   0.010   3.567  0.5610 -0.9027 -0.2793
 5783SOL    HW229004   4.146   0.094   3.552  0.4255 -0.7470 -0.6926
 5784SOL     OW29005   0.911   1.647   6.251  0.3131  0.4702  0.2146
 5784SOL    HW129006   0.904   1.570   6.314 -1.6988  0.7896  0.4242
 5784SOL    HW229007   0.947   1.614   6.163 -0.7313 -0.7709  0.2244
 5785SOL     OW29008   4.861   5.498   1.378  0.1050 -0.5500  0.1480
 5785SOL    HW129009   4.834   5.411   1.338  0.6771 -0.8029  0.2939
 5785SOL    HW229010   4.879   5.565   1.306  1.4980 -1.1123 -0.0485
 5786SOL     OW29011   4.325   3.039   1.856 -0.0417  0.3228 -0.1400
 5786SOL    HW129012   4.387   3.014   1.931  1.3151  0.7232 -1.1215
 5786SOL    HW229013   4.333   2.972   1.783 -1.4691 -0.1395  0.1054
 5787SOL     OW29014   6.288   7.675   6.108 -0.0165  0.1109  0.7784
 5787SOL    HW129015   6.385   7.657   6.123  0.3316 -0.5447 -1.8742
 5787SOL    HW229016   6.233   7.611   6.161  1.0786 -1.4388  0.0894
 5788SOL     OW29017   1.215   3.959   7.964 -0.6412  0.2378 -0.0245
 5788SOL    HW129018   1.298   4.005   7.934 -0.5217 -1.1847 -1.9627
 5788SOL    HW229019   1.138   4.023   7.958 -0.0088  1.0208  0.0523
 5789SOL     OW29020   1.682   5.903   0.346 -0.8180  0.3724  0.2946
 5789SOL    HW129021   1.745   5.832   0.316 -2.1128 -1.6079  2.1256
 5789SOL    HW229022   1.588   5.869   0.340 -1.3674  1.4670  2.4035
 5790SOL     OW29023   1.830   4.028   3.612 -0.1516 -0.0082 -0.7612
 5790SOL    HW129024   1.753   3.965   3.618 -1.1386  1.1123 -1.2612
 5790SOL    HW229025   1.869   4.025   3.520 -0.3706  0.2857 -0.8672
 5791SOL     OW29026   7.221   6.362   2.438  0.5154  0.4704  0.1715
 5791SOL    HW129027   7.192   6.384   2.344  0.6706  0.3113  0.0857
 5791SOL    HW229028   7.195   6.268   2.459  2.8055 -0.3749 -0.6444
 5792SOL     OW29029   9.844   6.821   5.417  0.2129 -0.1288 -0.0344
 5792SOL    HW129030   9.892   6.794   5.333 -0.3327 -0.5952 -0.2003
 5792SOL    HW229031   9.908   6.867   5.478  0.7026 -0.0978 -0.5597
 5793SOL     OW29032   5.371   4.658   2.155  0.7751 -0.1013  0.3913
 5793SOL    HW129033   5.469   4.642   2.148  0.8730  0.5683  0.2399
 5793SOL    HW229034   5.352   4.719   2.232  0.8552  3.0381 -1.9970
 5794SOL     OW29035   9.521   1.870   6.647  0.3667  0.3121  0.3960
 5794SOL    HW129036   9.562   1.948   6.600 -1.8737  2.8749  2.4973
 5794SOL    HW229037   9.425   1.862   6.621  0.6310 -1.9810 -0.0082
 5795SOL     OW29038   3.476   4.725   5.797  0.1792  0.2613 -0.0521
 5795SOL    HW129039   3.471   4.756   5.892 -0.4336 -1.1787  0.4076
 5795SOL    HW229040   3.441   4.631   5.791  2.9472 -0.7363 -1.2086
 5796SOL     OW29041   2.975   8.783   2.691 -0.5871 -0.1646 -0.1837
 5796SOL    HW129042   3.029   8.751   2.612  0.9000 -0.0666  0.7640
 5796SOL    HW229043   2.893   8.830   2.659 -1.2468 -2.2238 -1.6561
 5797SOL     OW29044   3.561   4.886   6.348 -0.5392  0.2283 -0.1620
 5797SOL    HW129045   3.641   4.875   6.406  0.1494 -2.0335 -1.4868
 5797SOL    HW229046   3.479   4.890   6.405  0.3739  1.0660  1.1106
 5798SOL     OW29047   7.068   9.270   2.764 -0.5275 -0.2114 -0.3063
 5798SOL    HW129048   7.001   9.225   2.823 -3.3172  2.1551 -1.5537
 5798SOL    HW229049   7.071   9.368   2.785  0.1094  0.2814 -2.5247
 5799SOL     OW29050   6.771   5.443   1.550  0.4515  0.8447 -0.0624
 5799SOL    HW129051   6.678   5.477   1.537  0.6618  1.4030 -0.0960
 5799SOL    HW229052   6.810   5.482   1.633 -0.2467 -1.3439  1.3568
 5800SOL     OW29053   9.496   6.110   1.391  0.4871  0.0207  0.0553
 5800SOL    HW129054   9.560   6.045   1.350 -0.1740 -0.3967 -0.3344
 5800SOL    HW229055   9.428   6.061   1.445 -0.9833  0.2361 -1.5587
 5801SOL     OW29056   7.158   1.961   2.278 -0.4732 -0.2814  0.3417
 5801SOL    HW129057   7.074   1.978   2.227 -0.7469 -2.2801  0.0718
 5801SOL    HW229058   7.235   2.003   2.230 -0.8636 -1.2706 -1.2165
 5802SOL     OW29059   1.400   3.350   2.501 -0.2822 -0.0009  0.7939
 5802SOL    HW129060   1.326   3.286   2.485 -0.0759 -0.1011  0.2364
 5802SOL    HW229061   1.363   3.441   2.517 -0.5583 -0.1880  1.2231
 5803SOL     OW29062   6.366   6.831   5.035  1.1317  0.5212 -0.4125
 5803SOL    HW129063   6.331   6.914   4.993 -1.6530  0.1810  1.1376
 5803SOL    HW229064   6.371   6.843   5.135 -2.4198 -2.1794  0.1817
 5804SOL     OW29065   0.513   1.481   6.688 -0.1929 -0.2485 -0.0531
 5804SOL    HW129066   0.549   1.425   6.613 -2.1085 -0.7563 -0.6345
 5804SOL    HW229067   0.417   1.503   6.670 -0.6137 -0.1628  2.1229
 5805SOL     OW29068   4.328   2.798   4.638  0.5746 -0.3781  0.2621
 5805SOL    HW129069   4.380   2.751   4.709  0.5166 -0.7139  0.0812
 5805SOL    HW229070   4.301   2.889   4.671  0.5042 -0.5552  0.6847
 5806SOL     OW29071   6.732   1.094   2.534  0.2386  0.6233 -0.3925
 5806SOL    HW129072   6.785   1.161   2.585  0.9803 -1.1265  1.1909
 5806SOL    HW229073   6.794   1.036   2.480  0.0670 -1.8233  1.9421
 5807SOL     OW29074   9.979   0.337   0.326  0.1561 -0.2224  0.6479
 5807SOL    HW129075   9.891   0.289   0.324 -0.3654  0.7759 -0.4914
 5807SOL    HW229076   9.966   0.431   0.296  1.7891 -0.3222 -0.3797
 5808SOL     OW29077   0.856   9.303   5.182  0.3637 -0.1885 -0.1307
 5808SOL    HW129078   0.909   9.383   5.153 -0.4422  1.1090  1.8401
 5808SOL    HW229079   0.815   9.321   5.272  1.0984 -3.2587  0.8913
 5809SOL     OW29080   8.230   1.923   2.743 -0.3104 -0.4360  0.0489
 5809SOL    HW129081   8.254   2.020   2.741  1.0154 -0.7759 -1.4322
 5809SOL    HW229082   8.230   1.887   2.650 -1.2253 -1.7636  0.5547
 5810SOL     OW29083   8.940   8.154   6.259  0.0784 -0.1786  0.3594
 5810SOL    HW129084   8.904   8.143   6.351  0.5236  0.2674  0.5897
 5810SOL    HW229085   9.039   8.135   6.260  0.2760  0.8144  0.1720
 5811SOL     OW29086   8.003   7.889   5.209 -0.2281  0.3736 -0.1127
 5811SOL    HW129087   8.016   7.809   5.151 -2.1123  0.8083 -1.1701
 5811SOL    HW229088   7.946   7.864   5.287 -2.0994  1.0345 -1.2556
 5812SOL     OW29089   3.742   0.203   4.545  0.0354 -0.0915 -0.4630
 5812SOL    HW129090   3.771   0.110   4.523  0.4260 -0.0310 -0.1989
 5812SOL    HW229091   3.799   0.240   4.618 -0.3552  0.2251 -0.3149
 5813SOL     OW29092   8.874   5.009   6.017 -0.3847 -0.7547  0.3090
 5813SOL    HW129093   8.793   5.026   5.962  0.5016 -2.4573 -1.6159
 5813SOL    HW229094   8.920   4.926   5.984  1.6258 -0.3516  1.9470
 5814SOL     OW29095   1.692   9.803   5.703 -0.0410  0.6229 -0.0091
 5814SOL    HW129096   1.674   9.754   5.618 -0.5432  1.3056 -0.2969
 5814SOL    HW229097   1.787   9.787   5.731 -0.1157 -0.2717 -0.2566
 5815SOL     OW29098   0.776   2.768   6.671  0.1612  0.0781  0.3210
 5815SOL    HW129099   0.781   2.726   6.762  0.0321 -0.4523  0.0893
 5815SOL    HW229100   0.867   2.797   6.643  0.3764 -0.6720  0.2083
 5816SOL     OW29101   3.896   4.386   0.651 -0.2605  0.0576  0.6135
 5816SOL    HW129102   3.824   4.339   0.703 -0.1426 -0.0211  0.7057
 5816SOL    HW229103   3.867   4.479   0.630 -0.2339  0.1467  0.9727
 5817SOL     OW29104   1.470   9.588   2.169 -0.3295 -0.0068 -0.0107
 5817SOL    HW129105   1.509   9.680   2.168 -1.1187  0.3543  1.7875
 5817SOL    HW229106   1.378   9.590   2.130 -0.3176 -0.0557 -0.0428
 5818SOL     OW29107   3.383   9.392   2.347 -0.6324  0.2557  0.5461
 5818SOL    HW129108   3.369   9.455   2.271  1.9635 -1.2432 -1.2135
 5818SOL    HW229109   3.328   9.309   2.333  0.5164 -0.3961 -0.1640
 5819SOL     OW29110   5.215   4.549   1.945  0.0468  0.5032 -0.1109
 5819SOL    HW129111   5.210   4.639   1.903 -0.9747  1.0785  1.1975
 5819SOL    HW229112   5.239   4.558   2.042  2.3987 -0.7950 -0.5295
 5820SOL     OW29113   4.340   7.875   1.885  0.0974  0.3406 -0.5711
 5820SOL    HW129114   4.408   7.819   1.836  0.4514  0.8527 -0.6650
 5820SOL    HW229115   4.363   7.877   1.982 -1.5522 -2.0759 -0.0665
 5821SOL     OW29116   2.297   0.770   1.442 -0.1041 -0.2461 -0.1374
 5821SOL    HW129117   2.348   0.720   1.372 -2.3525 -0.3220 -1.7797
 5821SOL    HW229118   2.307   0.868   1.428  0.4754 -0.2481  0.2297
 5822SOL     OW29119   3.962   6.506   4.454 -0.4480  0.2163 -0.4124
 5822SOL    HW129120   3.945   6.416   4.413 -1.1928  1.0493 -1.9513
 5822SOL    HW229121   3.875   6.547   4.483 -0.0717  0.2812  0.6615
 5823SOL     OW29122   9.981   4.528   0.916  0.1794 -0.8474  0.0843
 5823SOL    HW129123  10.057   4.471   0.948  1.7528  0.6058 -0.9566
 5823SOL    HW229124   9.932   4.481   0.843  1.6355 -0.8024 -0.9516
 5824SOL     OW29125   1.111   0.656   5.498 -0.3588 -0.5400 -0.0873
 5824SOL    HW129126   1.170   0.578   5.482 -2.0557 -1.2992 -2.8496
 5824SOL    HW229127   1.017   0.624   5.515 -0.3163  0.7123  2.7892
 5825SOL     OW29128   9.003   1.377   7.586 -0.5599  0.2226  0.9003
 5825SOL    HW129129   8.942   1.303   7.557 -1.4668  1.1697  0.3548
 5825SOL    HW229130   9.098   1.345   7.580 -0.9748 -1.1888  1.5360
 5826SOL     OW29131   7.468   1.743   0.522 -0.0649 -0.1533 -0.4764
 5826SOL    HW129132   7.482   1.822   0.581  0.1666  1.0160 -2.0560
 5826SOL    HW229133   7.556   1.715   0.482 -0.1624 -1.1406 -0.0128
 5827SOL     OW29134   5.796   7.561   4.757 -0.0117  0.0490 -0.6021
 5827SOL    HW129135   5.881   7.528   4.716  0.5395 -0.3058  0.7776
 5827SOL    HW229136   5.817   7.634   4.822 -0.8361  0.4140 -0.7429
 5828SOL     OW29137   5.669   0.659   2.837  0.4319  0.0574 -0.4466
 5828SOL    HW129138   5.575   0.644   2.869  0.4680  0.5554 -0.1011
 5828SOL    HW229139   5.667   0.684   2.740  0.2268 -0.2015 -0.5095
 5829SOL     OW29140   6.696   9.376   1.510 -0.3431  0.1841 -0.3111
 5829SOL    HW129141   6.745   9.452   1.468 -0.3890 -0.3749 -1.3918
 5829SOL    HW229142   6.601   9.402   1.525 -0.6752 -0.0724 -1.8398
 5830SOL     OW29143   0.228   6.136   3.534 -0.1018 -0.4606  0.0748
 5830SOL    HW129144   0.178   6.198   3.596 -0.2841 -0.3397 -0.1906
 5830SOL    HW229145   0.278   6.191   3.467  0.3909 -0.5811  0.3368
 5831SOL     OW29146   9.473   2.449   1.658 -0.2664  0.0084 -0.5633
 5831SOL    HW129147   9.555   2.422   1.708 -1.9203  1.1208  2.8503
 5831SOL    HW229148   9.493   2.532   1.605  0.9516 -0.0300 -0.2002
 5832SOL     OW29149   8.067   0.833   7.053 -0.3095 -0.0833  0.4189
 5832SOL    HW129150   8.166   0.839   7.062 -0.0670 -0.8652 -1.4967
 5832SOL    HW229151   8.028   0.792   7.135  0.8528  1.0648  1.5531
 5833SOL     OW29152   8.723   5.622   3.688  0.6619 -0.4447  0.1951
 5833SOL    HW129153   8.747   5.717   3.707  0.6894 -0.4825  0.3488
 5833SOL    HW229154   8.798   5.563   3.718  1.2706 -0.4049 -1.1971
 5834SOL     OW29155   5.606   1.611   7.196  0.5187 -0.0987  0.0224
 5834SOL    HW129156   5.509   1.630   7.202  0.7340  0.7826  0.7317
 5834SOL    HW229157   5.626   1.564   7.110 -0.1950  1.7631 -1.1785
 5835SOL     OW29158   9.165   2.581   0.765  0.7845 -0.1003  0.6932
 5835SOL    HW129159   9.095   2.592   0.835  0.4550 -0.8651  0.5018
 5835SOL    HW229160   9.153   2.491   0.721  1.2037  0.2196 -0.0867
 5836SOL     OW29161   8.687   2.466   0.969  0.5671 -0.0230 -0.0956
 5836SOL    HW129162   8.595   2.462   1.007  0.5933 -1.1493 -0.1148
 5836SOL    HW229163   8.683   2.448   0.870  0.7826  0.1688 -0.1399
 5837SOL     OW29164   9.337   3.625   3.941  0.6172 -0.0679 -0.2572
 5837SOL    HW129165   9.322   3.539   3.893 -0.1397  0.0965 -0.3165
 5837SOL    HW229166   9.426   3.622   3.987  0.8631 -0.6457 -0.7557
 5838SOL     OW29167   5.228   7.151   6.255  0.0340 -0.1034 -0.3799
 5838SOL    HW129168   5.185   7.236   6.223  0.0293  0.7470  1.7650
 5838SOL    HW229169   5.309   7.131   6.200  0.2909  1.5499 -0.6205
 5839SOL     OW29170   1.246   6.101   3.474 -0.0563 -0.0359  0.4934
 5839SOL    HW129171   1.285   6.036   3.539  1.9562 -0.2525 -0.8927
 5839SOL    HW229172   1.202   6.051   3.399 -0.1717  0.2080  0.3958
 5840SOL     OW29173   5.188   1.076   6.491  0.3460  0.4321 -0.1935
 5840SOL    HW129174   5.204   1.065   6.393  0.4708  1.0829 -0.2471
 5840SOL    HW229175   5.149   1.167   6.509  2.1664  1.0771  0.5689
 5841SOL     OW29176   6.449   2.657   4.302  0.1711  0.2237  0.4853
 5841SOL    HW129177   6.416   2.699   4.387  4.0948 -0.1417  2.2894
 5841SOL    HW229178   6.421   2.561   4.300 -0.0880  0.2744  1.2973
 5842SOL     OW29179   2.703   8.880   2.523  0.4504  0.0349  0.7302
 5842SOL    HW129180   2.778   8.826   2.484  1.0925  2.0217 -0.8437
 5842SOL    HW229181   2.618   8.826   2.517  0.9055 -0.5061 -1.6805
 5843SOL     OW29182   0.862   6.433   6.412 -0.1579  0.5232  0.3600
 5843SOL    HW129183   0.863   6.526   6.449  0.2693  0.3886  0.6847
 5843SOL    HW229184   0.768   6.400   6.408 -0.6195  2.0645 -2.5034
 5844SOL     OW29185   6.885   9.845   3.855 -0.1879  0.2276  0.1772
 5844SOL    HW129186   6.795   9.853   3.899 -0.3133 -0.7091  0.0860
 5844SOL    HW229187   6.890   9.909   3.779 -0.9748 -0.0998 -0.1509
 5845SOL     OW29188   3.210   0.909   6.898  0.0453 -0.0752  0.6392
 5845SOL    HW129189   3.287   0.857   6.861  0.0885 -0.1727  0.8692
 5845SOL    HW229190   3.132   0.848   6.911  0.1256 -0.0978  0.9978
 5846SOL     OW29191   8.119   2.382   6.954  0.0909 -0.2452  0.0577
 5846SOL    HW129192   8.095   2.379   7.051  0.3943  0.7697  0.1657
 5846SOL    HW229193   8.063   2.450   6.908  1.8028  1.1957  0.0514
 5847SOL     OW29194   1.263   7.200   2.551 -0.5016 -0.1254  0.5213
 5847SOL    HW129195   1.231   7.287   2.513 -0.6210 -0.2269  0.3855
 5847SOL    HW229196   1.331   7.161   2.489  0.8781  0.7312  1.4751
 5848SOL     OW29197   0.190   7.832   1.460  0.7404 -0.0626  0.7115
 5848SOL    HW129198   0.151   7.924   1.460 -2.3672 -1.3103  0.9514
 5848SOL    HW229199   0.199   7.799   1.366  0.0955 -0.2031  0.6953
 5849SOL     OW29200   0.294   4.016   8.052  0.0711 -0.0376 -0.2669
 5849SOL    HW129201   0.353   4.096   8.036  0.0345 -0.2920 -1.7060
 5849SOL    HW229202   0.200   4.046   8.065  0.1425  0.1863 -0.2619
 5850SOL     OW29203   9.564   9.914   3.733 -0.7665  0.0168 -0.2231
 5850SOL    HW129204   9.602   9.958   3.652 -2.2219 -0.2892 -1.0928
 5850SOL    HW229205   9.578   9.972   3.813 -0.7317  1.0619 -0.9843
 5851SOL     OW29206   1.835   8.923   4.860 -0.4960 -0.0798 -0.3819
 5851SOL    HW129207   1.853   8.886   4.769 -0.2907  0.4230 -0.5479
 5851SOL    HW229208   1.915   8.911   4.918 -0.9893 -1.3478  0.0537
 5852SOL     OW29209   5.182   0.214   4.169  0.4236  0.6104  0.2899
 5852SOL    HW129210   5.239   0.253   4.241 -0.3962  1.6595  0.3856
 5852SOL    HW229211   5.228   0.224   4.081 -0.0588  2.4519  0.2183
 5853SOL     OW29212   9.951   1.172   3.513  0.1305  0.6229  0.1436
 5853SOL    HW129213   9.905   1.091   3.547 -0.2890  1.0906  0.6890
 5853SOL    HW229214   9.917   1.253   3.560 -1.0528  1.3778 -1.9476
 5854SOL     OW29215   9.896   9.435   3.977 -0.3509  0.0865 -0.2869
 5854SOL    HW129216   9.886   9.534   3.970 -0.7119  0.0307 -0.5715
 5854SOL    HW229217   9.826   9.390   3.921 -0.6243 -0.3361  0.3940
 5855SOL     OW29218   0.354   6.038   0.645 -0.0972  0.1536  0.2562
 5855SOL    HW129219   0.313   6.038   0.554 -0.5926 -0.8964  0.4650
 5855SOL    HW229220   0.281   6.040   0.715  0.2170 -0.7363  0.6225
 5856SOL     OW29221   3.239   7.220   7.139  0.0599 -0.1192 -0.2225
 5856SOL    HW129222   3.293   7.269   7.207 -0.9509  1.9388 -0.8792
 5856SOL    HW229223   3.142   7.239   7.153 -0.2937 -1.3151 -0.9744
 5857SOL     OW29224   3.993   9.371   6.295  0.0644  0.6349 -0.4603
 5857SOL    HW129225   3.943   9.337   6.375 -0.1193  0.8324 -0.4919
 5857SOL    HW229226   3.930   9.415   6.232  0.5548  2.5451  0.3662
 5858SOL     OW29227   6.153   4.506   0.803  0.3731  0.4797  0.0213
 5858SOL    HW129228   6.119   4.579   0.745 -0.0252  0.0184 -0.3291
 5858SOL    HW229229   6.185   4.430   0.746  4.2058  1.8444  0.2328
 5859SOL     OW29230   2.995   6.469   2.571  0.4531  0.4589  0.4487
 5859SOL    HW129231   3.069   6.479   2.505 -1.0855 -0.8892 -1.5476
 5859SOL    HW229232   2.956   6.559   2.591  0.9880  0.8910 -0.4196
 5860SOL     OW29233   8.736   6.094   7.721  0.3195 -0.0702 -0.2193
 5860SOL    HW129234   8.800   6.044   7.663 -1.1638  0.1955 -2.1425
 5860SOL    HW229235   8.671   6.030   7.763  0.0609 -0.0351 -0.5667
 5861SOL     OW29236   9.644   1.381   7.483 -0.5837 -0.2958  0.1536
 5861SOL    HW129237   9.601   1.387   7.393  1.9590 -0.2244 -1.1246
 5861SOL    HW229238   9.655   1.473   7.520  0.7276 -0.1084 -0.6665
 5862SOL     OW29239   4.116   3.225   2.970 -0.3831  0.1419  0.0278
 5862SOL    HW129240   4.062   3.145   2.943 -0.5412  0.1227  0.4024
 5862SOL    HW229241   4.055   3.298   3.000 -0.2292  0.3335 -0.1217
 5863SOL     OW29242   1.995   3.308   3.984  0.2589 -0.2002 -0.1878
 5863SOL    HW129243   2.023   3.369   3.910  0.7562 -0.1158  0.0690
 5863SOL    HW229244   1.909   3.340   4.023  0.2654  0.0524 -0.3803
 5864SOL     OW29245   2.644   3.622   4.389  0.3917  0.3372  0.0761
 5864SOL    HW129246   2.606   3.624   4.296 -1.7008 -1.8664  0.8347
 5864SOL    HW229247   2.691   3.534   4.404  1.1266  0.8724  0.9596
 5865SOL     OW29248   9.562   7.376   1.661  0.1908  0.4593  0.4183
 5865SOL    HW129249   9.639   7.402   1.602  0.5094 -0.0050  0.6277
 5865SOL    HW229250   9.530   7.285   1.635 -0.6528  0.8701 -0.0354
 5866SOL     OW29251   6.496   4.105   0.053 -0.6281  0.1668 -0.0385
 5866SOL    HW129252   6.460   4.193   0.084 -3.0347  0.7735 -4.2041
 5866SOL    HW229253   6.588   4.119   0.017 -0.0575  0.4717  1.4627
 5867SOL     OW29254   8.566   8.159   8.325 -0.4423 -0.1168  0.1351
 5867SOL    HW129255   8.548   8.063   8.305 -2.3823  0.5508 -1.5231
 5867SOL    HW229256   8.527   8.183   8.415  1.4489 -1.2234  1.2866
 5868SOL     OW29257   8.428   9.153   1.136 -0.2193 -0.0974  0.8502
 5868SOL    HW129258   8.354   9.101   1.178 -2.4762  3.1068  1.0084
 5868SOL    HW229259   8.391   9.211   1.064  2.4650  0.2034 -0.3556
 5869SOL     OW29260   0.601   5.462   9.886  0.1611 -0.0044 -0.4132
 5869SOL    HW129261   0.542   5.415   9.951  1.2310 -0.9631 -0.1171
 5869SOL    HW229262   0.645   5.395   9.826 -0.2247  0.8098 -1.6308
 5870SOL     OW29263   7.577   6.331   0.874 -0.3794 -0.2218  0.1357
 5870SOL    HW129264   7.490   6.314   0.920 -1.5730  0.7189 -1.7208
 5870SOL    HW229265   7.603   6.252   0.819  0.4998 -0.9218  1.5353
 5871SOL     OW29266   5.818   8.674   7.939 -0.6169  0.1704  0.5104
 5871SOL    HW129267   5.746   8.639   7.880 -0.8959  0.8304  0.4550
 5871SOL    HW229268   5.898   8.615   7.933 -0.6354  0.2461 -0.5443
 5872SOL     OW29269   8.838   8.443   6.228  0.0596  0.4630 -0.9188
 5872SOL    HW129270   8.847   8.388   6.311 -1.8344  2.0794  0.4246
 5872SOL    HW229271   8.840   8.383   6.148 -0.1337 -1.3585  0.4072
 5873SOL     OW29272   8.382   0.519   3.349  0.1410  0.5995  0.3600
 5873SOL    HW129273   8.413   0.429   3.379 -1.0966  0.0040 -0.1190
 5873SOL    HW229274   8.458   0.566   3.303  0.8561 -0.1137  0.7859
 5874SOL     OW29275   8.996   2.119   0.932  0.1463  0.0916  0.8159
 5874SOL    HW129276   9.038   2.077   0.851  1.2076  1.3490  0.7057
 5874SOL    HW229277   8.933   2.054   0.973  0.9375 -1.2274  0.0043
 5875SOL     OW29278   4.960   9.158   4.073  0.2440 -0.0594 -0.2910
 5875SOL    HW129279   4.872   9.123   4.105  0.3929 -2.0752 -1.9621
 5875SOL    HW229280   5.031   9.090   4.091  1.3145  1.2003  0.2727
 5876SOL     OW29281   2.652   0.183   2.722  0.1063  0.3207  0.1337
 5876SOL    HW129282   2.738   0.156   2.766 -0.3043  1.1296  1.4602
 5876SOL    HW229283   2.577   0.176   2.789 -0.6869  0.6681 -0.7091
 5877SOL     OW29284   2.873   0.669   1.694  0.3623 -0.2267 -0.5871
 5877SOL    HW129285   2.937   0.689   1.767  1.5306 -1.7879 -1.1544
 5877SOL    HW229286   2.796   0.617   1.730  0.3070  0.0884 -0.2486
 5878SOL     OW29287   9.788   3.046   3.003  0.7194  0.1518  0.1648
 5878SOL    HW129288   9.710   3.030   2.943  0.7540 -0.8882  0.3828
 5878SOL    HW229289   9.837   2.961   3.016  0.2036  0.1600  2.3639
 5879SOL     OW29290   5.892   9.550   8.013 -0.1880 -0.5477  0.4485
 5879SOL    HW129291   5.948   9.468   8.004 -0.8173 -0.8411 -0.8762
 5879SOL    HW229292   5.834   9.561   7.932  0.3070  1.5241  0.3382
 5880SOL     OW29293   1.399   5.223   5.522 -0.3369 -0.2156  0.0672
 5880SOL    HW129294   1.394   5.140   5.579  2.7777 -0.6209 -0.1972
 5880SOL    HW229295   1.458   5.206   5.443 -1.4987  1.5847 -1.2186
 5881SOL     OW29296   8.922   3.723   4.249  0.6860 -0.1165  0.1596
 5881SOL    HW129297   8.862   3.737   4.328 -1.9858 -1.4239 -1.5890
 5881SOL    HW229298   8.980   3.643   4.265  0.8115  0.1645  1.1618
 5882SOL     OW29299   4.054   3.965   6.605  0.1635 -0.0722 -0.4139
 5882SOL    HW129300   4.143   3.942   6.564 -1.1234 -2.6425 -1.9070
 5882SOL    HW229301   4.000   4.018   6.540 -0.7014 -1.4961 -0.8717
 5883SOL     OW29302   2.938   3.511   2.141 -0.4913  0.1927  0.0397
 5883SOL    HW129303   2.953   3.600   2.185 -2.8343  1.2299 -1.1447
 5883SOL    HW229304   3.001   3.501   2.063  0.1692  0.5656  0.5231
 5884SOL     OW29305   9.832   5.953   0.313  0.4003  0.8683 -0.1988
 5884SOL    HW129306   9.838   5.986   0.407  1.6634  2.5040 -0.8331
 5884SOL    HW229307   9.889   6.010   0.254 -1.1852  0.5084 -2.1334
 5885SOL     OW29308   4.353   0.234   7.999  0.0151  0.1141  1.0418
 5885SOL    HW129309   4.292   0.258   8.075 -0.7251 -2.5687  1.3506
 5885SOL    HW229310   4.311   0.161   7.945  2.2382 -0.6425  0.2882
 5886SOL     OW29311   0.103   2.449   5.630  0.6915 -0.6155 -0.2987
 5886SOL    HW129312   0.141   2.535   5.663 -0.3857  0.0501 -0.7563
 5886SOL    HW229313   0.036   2.415   5.696 -0.0970 -0.2366 -0.8858
 5887SOL     OW29314   1.601   0.835   4.179  0.3714  0.4042 -0.0108
 5887SOL    HW129315   1.625   0.738   4.168  0.0411  0.1389  1.4703
 5887SOL    HW229316   1.509   0.842   4.219  1.5731  1.2738  2.6920
 5888SOL     OW29317   2.293   4.329   5.941 -0.5717  0.1823  1.0568
 5888SOL    HW129318   2.378   4.379   5.955  0.1174 -0.4617 -0.7119
 5888SOL    HW229319   2.310   4.248   5.884 -2.4685  0.4657  0.0370
 5889SOL     OW29320   2.133   3.102   4.764 -0.2316 -0.8936 -0.1401
 5889SOL    HW129321   2.082   3.170   4.712  0.4252  1.8412  2.6644
 5889SOL    HW229322   2.228   3.132   4.773  0.2482 -2.5628  0.4944
 5890SOL     OW29323   9.488   5.999   6.223  0.4946 -0.6682  0.3510
 5890SOL    HW129324   9.407   6.059   6.228 -0.0101 -1.4901  2.6347
 5890SOL    HW229325   9.569   6.051   6.249 -0.2444 -1.4269  4.5649
 5891SOL     OW29326   1.984   5.922   1.504 -0.2991  0.3183  0.6577
 5891SOL    HW129327   2.002   5.840   1.558  1.1005  1.7221  2.3962
 5891SOL    HW229328   1.893   5.957   1.525 -1.4055 -1.4607 -1.0262
 5892SOL     OW29329   8.756   2.629   3.035  0.0857  0.4326  0.2769
 5892SOL    HW129330   8.844   2.635   2.987  0.6938  0.9647  1.4126
 5892SOL    HW229331   8.773   2.618   3.133 -1.1241  0.5357  0.5051
 5893SOL     OW29332   5.471   7.577   6.732  0.4063  0.2497  0.1168
 5893SOL    HW129333   5.499   7.589   6.637  0.6119 -0.4546  0.0833
 5893SOL    HW229334   5.399   7.642   6.754 -0.5316 -0.4141 -0.9012
 5894SOL     OW29335   1.315   6.457   2.762 -0.1182  0.5253 -0.1360
 5894SOL    HW129336   1.387   6.486   2.824  0.0492  0.3348 -0.2402
 5894SOL    HW229337   1.227   6.458   2.809  0.3567 -2.2731  0.9487
 5895SOL     OW29338   2.173   5.360   0.857 -0.1056 -0.0463  0.5497
 5895SOL    HW129339   2.108   5.402   0.920 -0.7144 -0.9348  0.5197
 5895SOL    HW229340   2.148   5.265   0.841 -0.1090  0.2306 -1.2237
 5896SOL     OW29341   8.568   4.713   2.323  0.5495 -0.0894  0.1046
 5896SOL    HW129342   8.554   4.765   2.408  1.3238  0.1361  0.0959
 5896SOL    HW229343   8.530   4.764   2.246 -1.8987 -1.1685  0.5501
 5897SOL     OW29344   1.957   2.029   2.921  0.1050 -0.0693 -0.4269
 5897SOL    HW129345   1.881   2.084   2.955  2.5392  3.9242 -1.1615
 5897SOL    HW229346   2.004   1.985   2.998 -2.5547 -2.1531  0.0634
 5898SOL     OW29347   2.026   7.664   1.844  0.0359 -0.5054 -0.1017
 5898SOL    HW129348   2.063   7.694   1.756 -1.4375 -0.7422 -0.8273
 5898SOL    HW229349   2.101   7.647   1.908  1.1409 -0.5491 -1.3819
 5899SOL     OW29350   8.503   9.878   0.261 -0.8821 -0.0974 -0.4177
 5899SOL    HW129351   8.467   9.786   0.249 -2.6418  0.4755  0.2127
 5899SOL    HW229352   8.517   9.896   0.358  0.0582  0.0892 -0.5826
 5900SOL     OW29353   8.129   8.432   5.670 -0.1597 -0.2205 -0.0972
 5900SOL    HW129354   8.208   8.470   5.717 -1.1758  0.5711  0.9651
 5900SOL    HW229355   8.143   8.333   5.658  0.2625 -0.3665  1.5181
 5901SOL     OW29356   2.485   8.005   3.702 -0.4865 -0.1174  0.6439
 5901SOL    HW129357   2.461   8.080   3.640 -1.0059  0.2493  1.2804
 5901SOL    HW229358   2.524   7.930   3.649 -2.1352 -0.3285 -0.3041
 5902SOL     OW29359   4.485   2.562   6.491  0.0040  0.3560  0.0408
 5902SOL    HW129360   4.458   2.466   6.491  0.5788  0.1733  2.1958
 5902SOL    HW229361   4.417   2.616   6.442 -2.0224 -0.7029  1.6284
 5903SOL     OW29362   7.853   2.276   4.587  0.1427 -0.1053  0.2716
 5903SOL    HW129363   7.802   2.197   4.553  0.0958  0.3810 -0.8002
 5903SOL    HW229364   7.810   2.310   4.671 -0.2759 -0.7620  0.3239
 5904SOL     OW29365   2.174   9.176   6.995 -0.3292 -0.2304 -0.4133
 5904SOL    HW129366   2.233   9.106   7.036 -3.4243 -1.8425  1.5073
 5904SOL    HW229367   2.230   9.243   6.947  2.9746 -2.1059  0.6557
 5905SOL     OW29368   4.814   6.223   2.768 -0.0618  0.0609  0.0284
 5905SOL    HW129369   4.756   6.177   2.701 -0.2856  1.4989 -0.7810
 5905SOL    HW229370   4.759   6.248   2.847 -0.2009  0.0468 -0.0635
 5906SOL     OW29371   2.197   1.005   7.366 -0.0004 -0.3087 -0.3781
 5906SOL    HW129372   2.140   0.923   7.377  0.3471 -0.6819 -1.2909
 5906SOL    HW229373   2.178   1.046   7.277  0.1490  0.3622 -0.1009
 5907SOL     OW29374   8.038   4.950   4.846  0.4197  0.2097  0.3082
 5907SOL    HW129375   8.012   4.971   4.752 -0.1752  0.0449  0.4385
 5907SOL    HW229376   8.137   4.959   4.855  0.5523 -0.3990 -0.4896
 5908SOL     OW29377   9.059   3.571   2.463  0.2170  0.0516  0.2278
 5908SOL    HW129378   9.067   3.479   2.500 -0.7651 -0.3992 -0.6637
 5908SOL    HW229379   9.004   3.627   2.525 -0.1276 -0.2688  0.2111
 5909SOL     OW29380   3.880   9.410   3.183 -0.0331  0.0635 -0.0192
 5909SOL    HW129381   3.798   9.414   3.239 -0.7518 -0.4282 -1.0377
 5909SOL    HW229382   3.856   9.416   3.086  0.8778 -2.7518 -0.4834
 5910SOL     OW29383   9.930   0.945   1.023  0.0290  0.0225 -0.7501
 5910SOL    HW129384   9.852   0.942   1.085  1.2567  0.7479  0.8518
 5910SOL    HW229385   9.923   0.870   0.958 -0.9832 -1.1118  0.6358
 5911SOL     OW29386   9.755   3.368   7.563  0.0821 -0.2029  0.4341
 5911SOL    HW129387   9.772   3.411   7.651 -1.0809 -0.2990  0.7131
 5911SOL    HW229388   9.657   3.351   7.552  0.3262 -1.1225 -0.4386
 5912SOL     OW29389   6.078   7.828   2.212 -0.2460 -0.4852 -0.1954
 5912SOL    HW129390   6.047   7.889   2.285  0.7815  0.7216 -0.7313
 5912SOL    HW229391   6.141   7.760   2.249  1.1347  0.8069 -0.1206
 5913SOL     OW29392   3.852   3.592   2.833 -0.6243 -0.1999  0.1815
 5913SOL    HW129393   3.820   3.678   2.793 -1.4366 -0.7349 -0.3390
 5913SOL    HW229394   3.806   3.515   2.787  0.3848 -0.9231  0.3742
 5914SOL     OW29395   4.444   0.306   3.692 -0.1276 -0.2310  0.4203
 5914SOL    HW129396   4.350   0.336   3.711 -0.0762  0.2028 -0.0087
 5914SOL    HW229397   4.495   0.380   3.650  0.4115 -0.4727  0.6435
 5915SOL     OW29398   9.901   9.788   3.648 -0.1922  0.1016  0.5170
 5915SOL    HW129399   9.830   9.773   3.579 -0.8294 -1.9450  1.5961
 5915SOL    HW229400   9.991   9.771   3.607 -0.6454 -2.3963  0.5198
 5916SOL     OW29401   3.206   6.693   4.940  0.4709 -0.2513 -0.1909
 5916SOL    HW129402   3.122   6.705   4.993  0.1447  0.3353 -0.8395
 5916SOL    HW229403   3.285   6.703   5.001  0.0803 -0.5721  0.3753
 5917SOL     OW29404   4.660   3.159   1.018 -0.6925 -0.0475 -0.0387
 5917SOL    HW129405   4.691   3.184   1.109 -0.0136  1.8584 -0.7554
 5917SOL    HW229406   4.563   3.182   1.008 -1.0488 -1.2657  0.5427
 5918SOL     OW29407   6.958   0.382   6.637 -0.8703  0.0459  0.2925
 5918SOL    HW129408   6.880   0.444   6.644 -2.4689 -1.6137 -1.9574
 5918SOL    HW229409   6.944   0.303   6.696 -1.4136 -0.7373 -0.8562
 5919SOL     OW29410   4.103   4.685   4.270  0.1917 -0.4116  0.2955
 5919SOL    HW129411   4.136   4.779   4.259 -0.6271  0.1366  2.2855
 5919SOL    HW229412   4.180   4.621   4.261  1.1574  0.6044  1.1674
 5920SOL     OW29413   6.015   5.637   1.412 -0.2144 -0.0250 -0.2056
 5920SOL    HW129414   6.082   5.694   1.460 -1.4077  1.2010  0.0206
 5920SOL    HW229415   5.985   5.563   1.472 -0.4622  0.5276  0.3552
 5921SOL     OW29416   8.111   4.969   4.545 -0.5017  0.0454  0.5547
 5921SOL    HW129417   8.134   5.066   4.555  0.8286 -0.1983  0.0087
 5921SOL    HW229418   8.196   4.915   4.536 -1.2072 -1.2021  1.1632
 5922SOL     OW29419   3.082   2.294   0.650 -0.3860 -0.1089 -0.2466
 5922SOL    HW129420   3.142   2.216   0.631 -0.4799 -0.6621  1.6525
 5922SOL    HW229421   3.083   2.314   0.748 -1.7987  1.1146 -0.4685
 5923SOL     OW29422   5.972   1.580   4.591  0.0472 -0.0366  0.5549
 5923SOL    HW129423   5.903   1.608   4.523  1.8706  1.7279 -0.6193
 5923SOL    HW229424   5.991   1.657   4.652  2.1271  0.0287 -0.1433
 5924SOL     OW29425   5.397   6.454   2.468  0.7251  0.2087  0.2500
 5924SOL    HW129426   5.303   6.424   2.483  0.9688 -0.9833 -0.5315
 5924SOL    HW229427   5.404   6.552   2.484 -0.9840  0.5799 -1.1700
 5925SOL     OW29428   1.786   7.235   7.138 -0.1678 -0.1363  0.3745
 5925SOL    HW129429   1.873   7.222   7.091 -0.1848 -0.7911  0.5233
 5925SOL    HW229430   1.803   7.263   7.232 -0.1263  4.9589 -1.0180
 5926SOL     OW29431   3.431   4.201   2.329 -0.5726  0.2927 -0.3788
 5926SOL    HW129432   3.446   4.299   2.312 -1.2263  0.1178 -2.1136
 5926SOL    HW229433   3.333   4.186   2.345 -0.5199 -0.1152 -0.4464
 5927SOL     OW29434   2.333   2.707   4.211 -0.6395 -0.0240  0.4244
 5927SOL    HW129435   2.336   2.785   4.273 -0.2944 -0.0279  0.4136
 5927SOL    HW229436   2.421   2.659   4.214 -0.8749 -0.4525  0.4827
 5928SOL     OW29437   7.715   7.110   7.775 -0.0728 -0.2473 -0.3502
 5928SOL    HW129438   7.802   7.112   7.725 -0.7970  0.9022 -1.5955
 5928SOL    HW229439   7.657   7.185   7.743 -2.4730 -2.4255 -1.2402
 5929SOL     OW29440   0.079   4.498   2.171  0.3203  0.1805 -0.0684
 5929SOL    HW129441   0.100   4.510   2.268 -0.0427  0.3453 -0.0078
 5929SOL    HW229442  -0.016   4.468   2.162  0.5493 -0.4812 -0.3360
 5930SOL     OW29443   2.270   5.603   4.909 -0.1532  0.0662 -0.1579
 5930SOL    HW129444   2.369   5.620   4.913  0.2166 -1.0369 -3.2190
 5930SOL    HW229445   2.241   5.554   4.991  1.6727  1.1350  1.1665
 5931SOL     OW29446   3.415   5.146   1.945  0.1919  0.3856  0.1660
 5931SOL    HW129447   3.464   5.167   2.030 -0.4351 -0.4994  0.7594
 5931SOL    HW229448   3.477   5.101   1.881 -0.4508 -3.1705  1.9102
 5932SOL     OW29449   7.590   7.364   1.135  0.1446 -0.2828  0.6051
 5932SOL    HW129450   7.569   7.280   1.183 -1.1877 -0.3535 -0.0948
 5932SOL    HW229451   7.527   7.436   1.164  0.4516  0.1316  0.2468
 5933SOL     OW29452   9.447   8.472   0.861  0.2105 -0.7099  0.0291
 5933SOL    HW129453   9.372   8.407   0.867 -1.2017  0.8692 -0.1042
 5933SOL    HW229454   9.528   8.427   0.822 -1.4049 -1.7940 -2.1854
 5934SOL     OW29455   8.981   2.830   5.498  0.5322  0.3468 -0.4184
 5934SOL    HW129456   8.899   2.828   5.440  0.4585 -1.2682 -0.2968
 5934SOL    HW229457   9.002   2.737   5.528  1.6693  0.9250  0.6157
 5935SOL     OW29458   6.616   1.263   3.777  0.3466 -0.2316  0.2370
 5935SOL    HW129459   6.572   1.284   3.864  1.1258 -0.5040  0.7078
 5935SOL    HW229460   6.609   1.165   3.759  0.1719 -0.1727 -0.0141
 5936SOL     OW29461   4.027   3.878   3.396 -0.2233 -0.4215 -0.4852
 5936SOL    HW129462   4.005   3.854   3.491  1.1134 -2.1329 -0.5955
 5936SOL    HW229463   4.083   3.961   3.395 -0.0612 -0.5177  0.2244
 5937SOL     OW29464   9.149   9.233   7.233 -0.3752 -0.2912 -0.6170
 5937SOL    HW129465   9.080   9.230   7.161 -0.3232  0.5596 -0.7064
 5937SOL    HW229466   9.123   9.302   7.301 -0.0147 -0.5241 -0.2418
 5938SOL     OW29467   1.743   7.926   6.936  0.1746 -0.0585 -0.2855
 5938SOL    HW129468   1.652   7.967   6.922 -0.5182 -1.0601  1.1929
 5938SOL    HW229469   1.754   7.848   6.874  0.2675  0.4382 -0.8966
 5939SOL     OW29470   4.099   1.978   6.796 -0.1158  0.1928  0.1162
 5939SOL    HW129471   4.098   1.897   6.855  0.0112 -0.2465 -0.4771
 5939SOL    HW229472   4.055   2.054   6.844 -0.0544 -0.1681  0.7584
 5940SOL     OW29473   1.328   8.163   3.183  0.0169  0.0090  0.8235
 5940SOL    HW129474   1.285   8.073   3.187 -1.1176  0.3627 -2.4440
 5940SOL    HW229475   1.423   8.154   3.155 -0.0137 -0.1946  0.7856
 5941SOL     OW29476   9.503   4.419   5.594 -0.0702  0.3066 -0.6435
 5941SOL    HW129477   9.415   4.466   5.595 -0.9655 -1.3296  1.0521
 5941SOL    HW229478   9.569   4.470   5.648 -0.6889  0.2754  0.1472
 5942SOL     OW29479   4.398   5.215   0.013  0.3633 -0.0131 -0.2397
 5942SOL    HW129480   4.351   5.243  -0.070  0.6096  3.2466  0.6436
 5942SOL    HW229481   4.332   5.175   0.077 -0.0933 -1.0579 -1.3359
 5943SOL     OW29482   9.523   9.467   2.393 -0.7773 -0.6088  0.1864
 5943SOL    HW129483   9.428   9.498   2.385 -0.9422 -0.9186  0.9188
 5943SOL    HW229484   9.545   9.451   2.489 -0.3193 -1.5961 -0.0700
 5944SOL     OW29485   3.955   4.156   6.884 -0.1989 -0.2166  0.2958
 5944SOL    HW129486   3.933   4.250   6.860  0.4638 -0.5241 -1.5505
 5944SOL    HW229487   3.923   4.094   6.813  1.2036 -1.2091  0.4886
 5945SOL     OW29488   8.083   9.602   2.875 -0.0028  0.0625  0.0505
 5945SOL    HW129489   8.008   9.543   2.845  0.3627 -2.1630  3.2606
 5945SOL    HW229490   8.170   9.565   2.841 -0.0582  0.7622 -0.8706
 5946SOL     OW29491   9.796   1.365   2.649  0.4217 -0.0209  0.5397
 5946SOL    HW129492   9.810   1.422   2.730  0.0276 -0.4995  0.9416
 5946SOL    HW229493   9.784   1.424   2.569 -2.7798  0.5328  1.3954
 5947SOL     OW29494   7.637   5.435   2.346  0.3388 -0.5878  0.1666
 5947SOL    HW129495   7.652   5.382   2.429 -3.1748 -0.8566  0.6822
 5947SOL    HW229496   7.603   5.526   2.370  0.3325 -0.2881 -0.9440
 5948SOL     OW29497   7.095   8.820   3.293 -0.1920  0.1521  0.5465
 5948SOL    HW129498   7.165   8.870   3.344  0.7461 -0.4241 -0.1720
 5948SOL    HW229499   7.100   8.723   3.317  0.1265 -0.0937 -0.4883
 5949SOL     OW29500   2.889   3.057   0.586 -0.3159  0.4954  0.2325
 5949SOL    HW129501   2.836   3.130   0.629 -1.9307 -0.6121  0.1800
 5949SOL    HW229502   2.951   3.096   0.518 -1.1863  1.7982  0.1762
 5950SOL     OW29503   6.769   9.125   1.625 -0.4493 -0.8612 -0.0946
 5950SOL    HW129504   6.751   9.123   1.724  0.1538  0.5318  0.0520
 5950SOL    HW229505   6.742   9.214   1.589  0.7885 -0.8175 -0.9159
 5951SOL     OW29506   4.787   2.709   2.246  0.0955  0.4024 -0.1381
 5951SOL    HW129507   4.706   2.653   2.235  2.4900 -3.4238  0.8174
 5951SOL    HW229508   4.839   2.709   2.161  1.1885 -0.6699  0.5117
 5952SOL     OW29509   5.974   9.923   7.275 -0.0419 -0.0498  0.4464
 5952SOL    HW129510   5.963  10.022   7.264 -1.3387 -0.3224 -0.8913
 5952SOL    HW229511   5.940   9.896   7.365 -1.6761  0.4509  0.0016
 5953SOL     OW29512   6.653   9.184   6.130  0.1764  0.2651 -0.3097
 5953SOL    HW129513   6.617   9.120   6.062 -0.1588 -1.0202  1.0450
 5953SOL    HW229514   6.743   9.153   6.161  0.7734  1.3905 -0.8787
 5954SOL     OW29515   1.096   5.591   2.766  0.5088  0.4333  0.0078
 5954SOL    HW129516   1.014   5.572   2.819  0.4330  1.9400  0.4260
 5954SOL    HW229517   1.071   5.622   2.675  0.6363 -0.6132 -0.3975
 5955SOL     OW29518   1.389   3.156   6.242 -0.2854  0.0848 -0.1616
 5955SOL    HW129519   1.448   3.214   6.186  0.7608  0.3768  1.2088
 5955SOL    HW229520   1.375   3.068   6.197 -1.4604  1.1875 -2.0243
 5956SOL     OW29521   0.971   0.025   5.627 -0.2230 -0.0737 -0.3158
 5956SOL    HW129522   0.917   0.015   5.710 -1.1783 -0.2252 -0.9505
 5956SOL    HW229523   0.956  -0.054   5.568 -0.7903  0.7999 -1.3528
 5957SOL     OW29524   8.524   8.949   3.337 -0.7722  0.2144  0.5388
 5957SOL    HW129525   8.455   8.995   3.392  0.5153  1.1416  1.4224
 5957SOL    HW229526   8.561   9.012   3.269 -1.5501 -0.5938 -0.6648
 5958SOL     OW29527   0.809   9.237   7.693 -0.3533 -0.0914  0.2552
 5958SOL    HW129528   0.731   9.175   7.702 -0.0252 -0.3104  1.6638
 5958SOL    HW229529   0.894   9.184   7.697 -0.0968  0.3437  0.5259
 5959SOL     OW29530   1.047   1.095   6.424 -0.5490  0.0734 -0.1701
 5959SOL    HW129531   0.970   1.115   6.485 -0.3658  0.0479  0.0664
 5959SOL    HW229532   1.014   1.044   6.345 -0.9311  0.8215 -0.5000
 5960SOL     OW29533   2.914   3.183   2.732  0.5563 -0.7047 -0.1681
 5960SOL    HW129534   2.998   3.233   2.751  0.4235 -0.1593 -0.9796
 5960SOL    HW229535   2.838   3.226   2.780  0.4609 -0.1833 -0.7776
 5961SOL     OW29536   9.357   0.997   5.312  0.0589 -0.2981 -0.0622
 5961SOL    HW129537   9.287   1.067   5.323 -0.8707 -1.1812 -0.3827
 5961SOL    HW229538   9.447   1.041   5.309 -0.2847  0.6825  2.4982
 5962SOL     OW29539   0.532   9.189   4.371  0.2105  0.1844 -0.2614
 5962SOL    HW129540   0.593   9.240   4.431  0.3677  1.3133 -1.3559
 5962SOL    HW229541   0.511   9.244   4.290 -2.7124  0.0451  0.3445
 5963SOL     OW29542   8.854   8.428   7.089  0.5317  0.7408  0.0627
 5963SOL    HW129543   8.882   8.488   7.164 -1.1332  1.5190  0.0768
 5963SOL    HW229544   8.790   8.359   7.123  2.0857 -0.8183 -0.0474
 5964SOL     OW29545   3.188   4.517   2.759  0.0683  0.1249  0.2984
 5964SOL    HW129546   3.273   4.570   2.758  0.1620 -0.0281 -0.5140
 5964SOL    HW229547   3.115   4.570   2.718 -0.4234  0.5541  1.7043
 5965SOL     OW29548   9.775   7.046   5.871 -1.0586 -0.3358 -0.5205
 5965SOL    HW129549   9.793   7.103   5.951  2.0898 -0.5783 -1.0004
 5965SOL    HW229550   9.677   7.045   5.852 -1.4480  2.6620  1.1320
 5966SOL     OW29551   7.389   8.093   3.565  0.0334 -0.5122 -0.2414
 5966SOL    HW129552   7.460   8.059   3.505  0.0878 -0.0753 -0.4248
 5966SOL    HW229553   7.398   8.051   3.655 -0.0464 -1.1631 -0.5353
 5967SOL     OW29554   0.041   7.145   2.791 -0.0548  0.0802 -0.1647
 5967SOL    HW129555   0.060   7.199   2.874 -2.8917 -0.7343  1.0837
 5967SOL    HW229556   0.081   7.054   2.800  0.5208  0.3311 -0.1501
 5968SOL     OW29557   1.450   5.068   6.808  0.0792  0.3349 -0.9599
 5968SOL    HW129558   1.391   4.990   6.785  0.2907  0.5569 -2.3357
 5968SOL    HW229559   1.525   5.037   6.867 -1.2730  0.0100  0.5936
 5969SOL     OW29560   3.840   9.570   0.745 -0.0852 -0.0284  0.2850
 5969SOL    HW129561   3.835   9.666   0.774 -1.1894 -0.1369  0.4806
 5969SOL    HW229562   3.751   9.526   0.760  0.2295 -0.9134 -0.4059
 5970SOL     OW29563   9.928   5.120   7.132  0.0039 -0.0268 -0.3492
 5970SOL    HW129564   9.988   5.172   7.071 -0.9183  0.3321 -0.9578
 5970SOL    HW229565   9.888   5.181   7.200 -0.4189 -0.0870 -0.5408
 5971SOL     OW29566   3.086   5.412   6.018  0.0855  0.0220  0.6581
 5971SOL    HW129567   3.023   5.476   6.063 -2.3423 -0.8780 -1.3120
 5971SOL    HW229568   3.106   5.336   6.080 -1.8524 -0.3424  0.8769
 5972SOL     OW29569   7.682   4.757   1.486 -0.3277 -0.2999 -0.4350
 5972SOL    HW129570   7.731   4.831   1.440  0.3747 -0.6104 -0.1843
 5972SOL    HW229571   7.737   4.674   1.486 -1.0474 -0.7890 -0.5727
 5973SOL     OW29572   5.697   7.428   6.087  0.3978  0.6278 -0.3055
 5973SOL    HW129573   5.658   7.373   6.162  1.6611  0.7870  0.4854
 5973SOL    HW229574   5.629   7.494   6.056  0.0963  1.0803  1.2336
 5974SOL     OW29575   3.828   5.593   3.532 -0.1255 -1.3996 -0.2823
 5974SOL    HW129576   3.869   5.513   3.576 -0.4821 -0.3983  1.9634
 5974SOL    HW229577   3.758   5.632   3.593  0.2780  0.8202 -1.1947
 5975SOL     OW29578   6.910   1.057   0.752 -0.1357  0.0188 -0.8165
 5975SOL    HW129579   6.877   1.140   0.707 -2.5487 -1.0749 -1.1710
 5975SOL    HW229580   6.881   0.977   0.698  0.7233 -1.1210  0.3848
 5976SOL     OW29581   0.131   2.637   1.800 -0.0895 -0.1030 -0.3372
 5976SOL    HW129582   0.160   2.566   1.737  3.3375  0.9536 -0.0507
 5976SOL    HW229583   0.183   2.720   1.783 -0.9932  1.0253  2.1440
 5977SOL     OW29584   4.373   3.106   3.429 -0.0848 -0.0025 -0.1515
 5977SOL    HW129585   4.384   3.179   3.496  3.7552  1.7489 -2.5274
 5977SOL    HW229586   4.320   3.140   3.351  0.2441 -0.2435 -0.4842
 5978SOL     OW29587   3.707   6.991   4.377 -0.0450  0.2655  0.0624
 5978SOL    HW129588   3.731   7.040   4.294  0.1335 -3.9027 -2.4943
 5978SOL    HW229589   3.789   6.954   4.419 -0.5472 -1.8314 -0.7234
 5979SOL     OW29590   6.406   9.621   7.265 -0.3795  0.2514 -0.6086
 5979SOL    HW129591   6.363   9.622   7.355 -0.1304  0.9199 -0.4946
 5979SOL    HW229592   6.457   9.536   7.253 -0.0129  0.3733  0.0706
 5980SOL     OW29593   4.792   5.621   4.382  0.5509 -0.3169 -0.2758
 5980SOL    HW129594   4.809   5.579   4.293  1.6761 -0.1793 -0.1337
 5980SOL    HW229595   4.871   5.677   4.408 -0.6368  1.3398 -0.1534
 5981SOL     OW29596   0.075   1.145   5.285 -0.0534  0.3693  0.1974
 5981SOL    HW129597   0.018   1.224   5.310 -0.0410  0.6221 -0.5539
 5981SOL    HW229598   0.022   1.082   5.228  0.4776  0.7117 -0.6861
 5982SOL     OW29599   0.537   9.424   3.584 -0.3942 -0.2767  0.1461
 5982SOL    HW129600   0.496   9.504   3.627 -0.6374 -0.6024  0.5347
 5982SOL    HW229601   0.633   9.442   3.562 -0.7278  0.4766 -0.7178
 5983SOL     OW29602   1.685   9.025   9.977  0.1598 -0.2249  0.3571
 5983SOL    HW129603   1.685   8.944   9.919  0.0000  0.0200  0.0130
 5983SOL    HW229604   1.752   9.013  10.051  0.0358 -0.7250  0.3905
 5984SOL     OW29605   5.023   8.135   3.372 -0.4940  0.2022  0.2653
 5984SOL    HW129606   5.067   8.190   3.443 -0.3152  0.5439 -0.1112
 5984SOL    HW229607   5.066   8.154   3.284 -0.0051 -1.0000  0.2306
 5985SOL     OW29608   4.287   4.009   0.602 -0.2889 -0.4218  0.1217
 5985SOL    HW129609   4.355   4.082   0.607 -1.1377  0.3781  0.0867
 5985SOL    HW229610   4.273   3.982   0.507  0.3522 -0.9495  0.1721
 5986SOL     OW29611   8.261   5.891   2.714  0.0851  0.0911  0.1773
 5986SOL    HW129612   8.194   5.914   2.644 -0.7549  0.2461  1.0254
 5986SOL    HW229613   8.345   5.859   2.670 -0.4194  0.2136 -0.8979
 5987SOL     OW29614   6.235   9.665   7.482  0.2206  0.5798 -0.1124
 5987SOL    HW129615   6.282   9.648   7.569 -0.2120  1.1588  0.2388
 5987SOL    HW229616   6.159   9.600   7.473 -1.3126  2.1351  1.1403
 5988SOL     OW29617   1.232   0.651   3.853 -0.1031 -0.2441 -0.1093
 5988SOL    HW129618   1.278   0.738   3.871 -0.2766  0.1706 -1.6437
 5988SOL    HW229619   1.138   0.668   3.821 -0.0515 -0.9844 -0.6778
 5989SOL     OW29620   3.923   3.615   7.641  0.0157  0.5159 -0.0181
 5989SOL    HW129621   3.872   3.548   7.587  0.1370  0.0773  0.4098
 5989SOL    HW229622   4.018   3.585   7.650 -0.6908 -0.9661  2.9910
 5990SOL     OW29623   6.122   5.572   1.141  0.3072 -0.4596  0.0857
 5990SOL    HW129624   6.052   5.557   1.210 -0.6729 -1.5165 -1.1174
 5990SOL    HW229625   6.080   5.606   1.057  1.3939  0.0373 -0.2753
 5991SOL     OW29626   2.944   7.614   7.439  0.2647 -0.0650 -0.3279
 5991SOL    HW129627   2.983   7.525   7.414  0.1139 -0.6126  1.3351
 5991SOL    HW229628   3.010   7.664   7.495 -0.1652  0.3575 -0.2025
 5992SOL     OW29629   2.297   0.892   5.093  0.1617 -0.1272 -0.2028
 5992SOL    HW129630   2.366   0.820   5.090  0.5546  0.2442 -0.1269
 5992SOL    HW229631   2.337   0.975   5.133  0.1113  0.5676 -1.5614
 5993SOL     OW29632   0.795   2.285   0.332  0.0559 -0.1471 -0.2485
 5993SOL    HW129633   0.701   2.319   0.324 -0.0098 -0.4019 -0.5714
 5993SOL    HW229634   0.857   2.348   0.286 -0.0940 -0.5812 -1.0645
 5994SOL     OW29635   5.799   1.362   6.767 -0.3774 -0.4048 -0.5982
 5994SOL    HW129636   5.751   1.281   6.802 -1.6559  0.8770  0.6659
 5994SOL    HW229637   5.733   1.429   6.734  0.5902  0.9172  0.0903
 5995SOL     OW29638   3.510   5.898   2.217 -0.5045  0.6087 -0.1835
 5995SOL    HW129639   3.516   5.984   2.167  3.0173  0.4631 -0.1078
 5995SOL    HW229640   3.554   5.908   2.306  1.5017 -1.7039 -0.8620
 5996SOL     OW29641   4.946   3.299   5.141  0.0843 -0.4601  0.1075
 5996SOL    HW129642   4.976   3.210   5.175  0.8607 -0.0986  0.3939
 5996SOL    HW229643   4.985   3.314   5.050  0.0541 -0.3577  0.1113
 5997SOL     OW29644   4.415   5.088   6.910 -0.1236 -0.2992  0.2768
 5997SOL    HW129645   4.379   5.167   6.860 -0.5305 -2.0639 -2.3252
 5997SOL    HW229646   4.511   5.074   6.885  0.0821 -0.3479  1.0930
 5998SOL     OW29647   7.537   1.624   5.980  0.0037 -0.3985  0.0067
 5998SOL    HW129648   7.481   1.621   6.062  1.4134  0.8706  1.0569
 5998SOL    HW229649   7.633   1.610   6.005  0.6559  1.7251 -1.1711
 5999SOL     OW29650   8.372   5.317   5.786  0.1009  0.7007  0.0172
 5999SOL    HW129651   8.298   5.270   5.835  0.0786  0.0072 -0.6888
 5999SOL    HW229652   8.398   5.399   5.838 -0.3343  0.3001  0.8884
 6000SOL     OW29653   0.053   0.592   0.682 -0.5178  0.0308  0.3535
 6000SOL    HW129654  -0.030   0.629   0.723  0.2005 -0.0045  1.8823
 6000SOL    HW229655   0.103   0.538   0.750  0.6467 -0.1365 -0.6057
 6001SOL     OW29656   1.651   6.807   1.373 -0.1737  0.4021  0.3304
 6001SOL    HW129657   1.635   6.829   1.470 -3.2796  0.5574 -0.1561
 6001SOL    HW229658   1.614   6.881   1.316  1.9624  0.4865 -0.9898
 6002SOL     OW29659   3.670   9.791   9.985 -0.4079 -0.0167  0.3915
 6002SOL    HW129660   3.594   9.824  10.040 -1.1193  0.9661 -1.1548
 6002SOL    HW229661   3.703   9.864   9.925  1.0565 -0.7443  0.2885
 6003SOL     OW29662   0.743   1.080   2.090 -0.1324  0.4850 -0.0429
 6003SOL    HW129663   0.764   1.011   2.021 -1.3135 -0.3222  0.4021
 6003SOL    HW229664   0.648   1.072   2.119  0.1593  1.2523  1.1973
 6004SOL     OW29665   1.721   8.611   2.380 -0.1043  0.5713  0.0507
 6004SOL    HW129666   1.782   8.667   2.325 -0.6278  1.1732  0.0774
 6004SOL    HW229667   1.626   8.640   2.366 -0.2729  0.5170  1.0044
 6005SOL     OW29668   3.627   0.858   3.421 -0.1556  0.2917  0.5165
 6005SOL    HW129669   3.716   0.886   3.385 -0.6106 -0.7814 -1.5099
 6005SOL    HW229670   3.635   0.769   3.466 -0.3831 -0.2971 -0.5815
 6006SOL     OW29671   7.134   8.288   7.132 -0.1817  0.0194 -0.0102
 6006SOL    HW129672   7.188   8.322   7.055  2.0799  0.6629  1.8033
 6006SOL    HW229673   7.036   8.301   7.113  0.3619  0.6233 -2.5193
 6007SOL     OW29674   4.031   1.473   2.764 -0.2124 -0.0717  0.2025
 6007SOL    HW129675   4.081   1.422   2.834 -1.2114 -1.0829  0.1824
 6007SOL    HW229676   4.010   1.412   2.688  0.8249  1.0092 -0.9692
 6008SOL     OW29677   2.176   5.287   5.699  0.0140  0.6847  0.0086
 6008SOL    HW129678   2.161   5.347   5.778 -1.8893  1.2109 -0.7084
 6008SOL    HW229679   2.236   5.333   5.634 -0.3180  1.2416  0.0920
 6009SOL     OW29680   8.659   9.705   4.866 -0.5257 -0.5970 -0.0823
 6009SOL    HW129681   8.638   9.730   4.960  0.2177  0.4617 -0.1885
 6009SOL    HW229682   8.712   9.778   4.823 -1.0225 -0.9822 -1.3825
 6010SOL     OW29683   0.370   5.411   6.066 -0.2975 -0.9774  0.4351
 6010SOL    HW129684   0.410   5.374   5.982 -3.2570  0.0443 -1.5080
 6010SOL    HW229685   0.288   5.359   6.090 -1.4963  0.9670  0.6582
 6011SOL     OW29686   7.993   7.317   1.778  0.3857  0.1216  0.1696
 6011SOL    HW129687   8.018   7.347   1.686  0.1162  1.5272  0.5446
 6011SOL    HW229688   7.913   7.257   1.773  1.5298 -1.3604 -0.6802
 6012SOL     OW29689   6.054   1.394   4.264  0.0869 -0.2313  0.1956
 6012SOL    HW129690   6.057   1.316   4.201 -3.8433  1.0650 -1.7992
 6012SOL    HW229691   5.991   1.374   4.339  0.1583  0.4690  0.4444
 6013SOL     OW29692   9.387   8.053   6.474 -0.1402 -0.8323 -0.1176
 6013SOL    HW129693   9.486   8.042   6.482 -0.1900 -1.6228 -0.5006
 6013SOL    HW229694   9.345   8.041   6.564  0.3017  1.8582  0.4931
 6014SOL     OW29695   9.025   0.191   0.816 -0.1894 -0.3443  0.1593
 6014SOL    HW129696   9.057   0.149   0.901 -0.0187  0.0719  0.3040
 6014SOL    HW229697   8.935   0.232   0.831  0.3679  0.7896  0.4775
 6015SOL     OW29698   0.312   2.106   4.976  0.3072 -0.3266 -0.3668
 6015SOL    HW129699   0.353   2.188   5.017 -0.3455 -0.0114 -0.3378
 6015SOL    HW229700   0.331   2.027   5.035  1.1337 -0.2401 -0.5121
 6016SOL     OW29701   2.737   9.723   0.716 -0.1693 -0.0175 -0.1556
 6016SOL    HW129702   2.687   9.662   0.655 -0.0662 -0.9509  0.6813
 6016SOL    HW229703   2.781   9.795   0.662 -1.1166 -0.0901 -1.0504
 6017SOL     OW29704   3.361   9.862   5.649 -0.0311  0.5585  0.2348
 6017SOL    HW129705   3.320   9.798   5.714 -0.4707  2.4287  1.8356
 6017SOL    HW229706   3.386   9.946   5.696  2.6726  0.7115 -1.3821
 6018SOL     OW29707   6.411   0.773   5.718  0.6089 -0.3503  0.0328
 6018SOL    HW129708   6.335   0.720   5.680  0.7894  0.4326 -1.4594
 6018SOL    HW229709   6.375   0.843   5.780  0.3278 -1.7570  1.5043
 6019SOL     OW29710   2.918   5.595   5.611  0.7424  0.5517 -0.4495
 6019SOL    HW129711   2.894   5.618   5.705 -1.0159  0.9245 -0.9708
 6019SOL    HW229712   2.838   5.557   5.565  1.1594  1.7555 -2.2275
 6020SOL     OW29713   2.911   6.893   6.304  0.4465  0.3082  0.0376
 6020SOL    HW129714   2.814   6.869   6.298  0.2769  1.1153 -0.4646
 6020SOL    HW229715   2.921   6.983   6.346  1.0325 -0.1687  0.9420
 6021SOL     OW29716   0.334   0.120   7.750 -0.4052  0.6669 -0.0563
 6021SOL    HW129717   0.362   0.098   7.657  0.8657 -0.5306  0.5956
 6021SOL    HW229718   0.336   0.037   7.806  0.3984  1.6672  1.4287
 6022SOL     OW29719   3.278   4.726   4.238  0.3287 -0.2106 -0.0743
 6022SOL    HW129720   3.323   4.697   4.154 -1.4785 -3.2606 -0.0628
 6022SOL    HW229721   3.319   4.679   4.316  0.5553  0.9584  0.5335
 6023SOL     OW29722   2.414   5.968   2.653  0.0334 -0.1630 -0.2005
 6023SOL    HW129723   2.360   5.951   2.570 -0.2834  0.4663 -0.1266
 6023SOL    HW229724   2.410   5.888   2.712 -0.0033 -0.4960 -0.6554
 6024SOL     OW29725   1.933   8.744   2.241 -0.0790 -0.0057 -0.2020
 6024SOL    HW129726   1.897   8.780   2.154  0.7563 -0.6435 -0.8227
 6024SOL    HW229727   1.936   8.818   2.308  2.2831  1.3264 -1.6775
 6025SOL     OW29728   6.407   4.386   2.813 -0.1742 -0.1296 -0.2272
 6025SOL    HW129729   6.504   4.365   2.820 -0.1397 -0.2775 -1.1234
 6025SOL    HW229730   6.376   4.373   2.719 -1.4699 -1.8026  0.4066
 6026SOL     OW29731   8.890   8.679   7.233  0.1241  0.1385  0.5786
 6026SOL    HW129732   8.986   8.672   7.208  0.4051 -1.7723  2.0795
 6026SOL    HW229733   8.881   8.722   7.323 -0.2399 -1.7509  1.4866
 6027SOL     OW29734   9.896   6.822   0.096  0.0663  0.4060 -0.5585
 6027SOL    HW129735   9.974   6.761   0.078  0.9558  0.9358  1.2490
 6027SOL    HW229736   9.811   6.775   0.077  0.7826 -1.0940 -0.1223
 6028SOL     OW29737   9.821   4.831   5.365  0.0277 -0.5524 -0.4237
 6028SOL    HW129738   9.890   4.903   5.369 -0.1741 -0.3654 -0.3050
 6028SOL    HW229739   9.854   4.751   5.415  0.7274 -0.9534 -1.5004
 6029SOL     OW29740   2.478   1.326   5.856  0.1787  0.3087  0.0953
 6029SOL    HW129741   2.479   1.426   5.853  0.8364  0.3415  1.1950
 6029SOL    HW229742   2.473   1.290   5.763  1.8848  1.3361 -0.4188
 6030SOL     OW29743   7.825   4.760   0.379  0.4444 -0.0712  0.0855
 6030SOL    HW129744   7.813   4.736   0.282  0.4980  1.0945 -0.2186
 6030SOL    HW229745   7.744   4.733   0.430 -0.9732  2.2104 -0.8744
 6031SOL     OW29746   8.578   2.349   4.205  0.0080 -0.4356 -0.5103
 6031SOL    HW129747   8.536   2.422   4.259  2.6796  1.7745 -1.2617
 6031SOL    HW229748   8.646   2.302   4.261  1.2879  0.4779 -1.2608
 6032SOL     OW29749   0.172   9.235   7.549 -0.3308 -0.1079  0.4745
 6032SOL    HW129750   0.147   9.287   7.631  0.7862 -0.2557  0.9301
 6032SOL    HW229751   0.159   9.291   7.468  1.7194  1.2184  1.0262
 6033SOL     OW29752   6.098   8.033   7.236 -0.0755  0.6496  0.4457
 6033SOL    HW129753   6.051   8.074   7.158  0.5261  2.4629  1.0033
 6033SOL    HW229754   6.185   7.993   7.206 -0.0363  0.9766  0.1271
 6034SOL     OW29755   4.381   1.883   0.531 -0.4359 -0.3998  0.5103
 6034SOL    HW129756   4.410   1.959   0.590 -0.7553 -0.4484  0.7299
 6034SOL    HW229757   4.289   1.854   0.556 -0.5983 -0.3860 -0.0492
 6035SOL     OW29758   0.024   6.261   3.853  0.5759  0.2248 -0.5448
 6035SOL    HW129759   0.028   6.186   3.919  0.9775 -0.7421 -1.6488
 6035SOL    HW229760   0.117   6.291   3.832  0.4804  0.0615 -1.1972
 6036SOL     OW29761   8.288   4.457   2.543 -0.3608  0.0210  0.3435
 6036SOL    HW129762   8.307   4.411   2.629 -0.7955 -0.4092  0.2063
 6036SOL    HW229763   8.254   4.549   2.561  1.1076  0.5318  0.6097
 6037SOL     OW29764   0.790   9.425   7.016  0.0564 -0.4254 -0.0910
 6037SOL    HW129765   0.801   9.457   6.922  0.8375  1.2127  0.5239
 6037SOL    HW229766   0.834   9.336   7.027 -0.1935 -0.7049 -1.3117
 6038SOL     OW29767   7.215   0.879   3.212 -0.0542  0.4018 -0.5000
 6038SOL    HW129768   7.143   0.839   3.155 -0.0715 -1.5853  0.8428
 6038SOL    HW229769   7.304   0.847   3.180  0.0882  1.1052 -0.8105
 6039SOL     OW29770   4.627   3.947   6.878 -0.0230 -0.4823 -0.2715
 6039SOL    HW129771   4.664   3.858   6.906  0.4640 -0.1999 -0.0140
 6039SOL    HW229772   4.686   3.988   6.810  0.3031  0.1067  0.3653
 6040SOL     OW29773   6.734   0.217   7.949  0.1226 -0.3582  0.5247
 6040SOL    HW129774   6.778   0.305   7.930  0.1014 -0.8045 -1.6616
 6040SOL    HW229775   6.635   0.229   7.952  0.0930 -0.4060 -0.2919
 6041SOL     OW29776   5.858   8.365   6.338 -0.2511 -0.1140 -0.9240
 6041SOL    HW129777   5.764   8.341   6.315 -0.3746 -0.8555  0.3085
 6041SOL    HW229778   5.903   8.287   6.379  0.3435  0.7848  0.1522
 6042SOL     OW29779   4.768   3.211   7.619 -0.1940  0.2070 -0.1779
 6042SOL    HW129780   4.782   3.238   7.523  0.3119  0.0021 -0.1644
 6042SOL    HW229781   4.822   3.272   7.678  0.4426 -0.4236 -0.1041
 6043SOL     OW29782   1.263   8.168   1.535  0.1506  0.0956 -0.4187
 6043SOL    HW129783   1.349   8.121   1.515 -1.2214 -1.4583 -2.7737
 6043SOL    HW229784   1.259   8.253   1.483 -0.4897 -0.6751 -1.6282
 6044SOL     OW29785   5.038   9.834   3.214  0.4516  0.1801 -0.5068
 6044SOL    HW129786   5.075   9.867   3.127  2.0393  0.3380  0.2178
 6044SOL    HW229787   5.097   9.864   3.289 -0.1967 -1.0558  0.5137
 6045SOL     OW29788   7.169   0.398   5.153  0.1730 -0.7535  0.1032
 6045SOL    HW129789   7.194   0.329   5.220  1.0298 -1.0750 -0.5390
 6045SOL    HW229790   7.236   0.399   5.079  1.2050  2.0149  0.9880
 6046SOL     OW29791   1.776   1.908   3.246 -0.4571  0.2389 -0.2828
 6046SOL    HW129792   1.743   1.904   3.341  2.1818  0.3376  0.7010
 6046SOL    HW229793   1.834   1.989   3.235  0.3402 -0.5031 -1.6078
 6047SOL     OW29794   4.835   2.489   6.578 -0.2601  0.3431 -0.4809
 6047SOL    HW129795   4.770   2.518   6.648  2.1584  0.4070  1.8184
 6047SOL    HW229796   4.848   2.563   6.512 -0.0264  1.5723  0.9211
 6048SOL     OW29797   3.616   9.763   3.547 -0.4317  0.2812 -0.5874
 6048SOL    HW129798   3.533   9.724   3.508 -1.1091 -1.1418  2.1300
 6048SOL    HW229799   3.696   9.715   3.512 -1.1043 -1.8572  0.7441
 6049SOL     OW29800   2.573   4.020   0.847 -0.1912  0.6974 -0.1154
 6049SOL    HW129801   2.664   4.058   0.829 -0.8639  1.2926 -2.4680
 6049SOL    HW229802   2.532   4.068   0.925  0.8829  1.4960 -0.0272
 6050SOL     OW29803   8.046   9.017   5.216  0.1248 -0.0176  0.2370
 6050SOL    HW129804   7.972   9.036   5.281 -0.5864 -0.0265 -0.5639
 6050SOL    HW229805   8.046   9.086   5.144 -0.2912 -1.0830 -0.7961
 6051SOL     OW29806   7.361   2.250   1.677 -0.0098  0.6575 -0.1164
 6051SOL    HW129807   7.433   2.315   1.703  0.4525 -0.1826  0.7441
 6051SOL    HW229808   7.347   2.185   1.751 -1.4684  0.6356 -0.4010
 6052SOL     OW29809   8.787   7.504   0.758 -0.3096 -0.3045 -0.1838
 6052SOL    HW129810   8.810   7.583   0.702 -2.1434  1.3438  1.2988
 6052SOL    HW229811   8.812   7.420   0.710 -0.7992  1.0899 -2.9565
 6053SOL     OW29812   9.326   3.904   0.024 -0.0148 -0.3333  0.3537
 6053SOL    HW129813   9.236   3.879  -0.013 -0.5650 -1.5494  2.4334
 6053SOL    HW229814   9.354   3.835   0.090  2.6429 -0.1529 -0.5363
 6054SOL     OW29815   1.739   6.110   2.760  0.2891  0.0699 -0.2935
 6054SOL    HW129816   1.701   6.077   2.673  1.0744  0.1917 -0.6878
 6054SOL    HW229817   1.737   6.210   2.761 -1.1306  0.0448  0.4703
 6055SOL     OW29818   3.396   4.784   1.924  0.2891 -0.2222  0.1385
 6055SOL    HW129819   3.345   4.698   1.915 -0.3530  0.2123 -0.3584
 6055SOL    HW229820   3.340   4.851   1.972  0.6785  0.0216  0.2558
 6056SOL     OW29821   0.946   7.889   0.432 -0.6086  0.2391  0.1764
 6056SOL    HW129822   1.046   7.880   0.423 -0.5430  0.6369  0.4887
 6056SOL    HW229823   0.906   7.897   0.341 -0.0061  3.6078  0.1286
 6057SOL     OW29824   6.721   1.838   5.815  0.0826  0.2721 -1.1267
 6057SOL    HW129825   6.653   1.768   5.796  0.3632 -0.0963 -0.8029
 6057SOL    HW229826   6.812   1.804   5.788  0.1973  0.5626 -1.1032
 6058SOL     OW29827   1.665   9.504   4.097  0.5386  0.1773 -0.3706
 6058SOL    HW129828   1.583   9.513   4.040  0.8205 -0.2319 -0.8518
 6058SOL    HW229829   1.693   9.594   4.131 -0.9529  0.1453  1.0061
 6059SOL     OW29830   2.145   6.827   6.551 -0.0251 -0.0608  0.2023
 6059SOL    HW129831   2.177   6.732   6.549 -1.4769 -0.5508 -0.7454
 6059SOL    HW229832   2.048   6.828   6.579  0.3595  1.2562  1.5341
 6060SOL     OW29833   9.595   7.591   2.981 -0.1601 -0.3884  0.0825
 6060SOL    HW129834   9.564   7.508   3.028 -0.9786 -0.6007 -0.8304
 6060SOL    HW229835   9.517   7.652   2.966 -0.0232 -0.6109 -1.5959
 6061SOL     OW29836   7.996   4.974   0.780 -0.3927 -0.1647  0.4366
 6061SOL    HW129837   7.922   4.913   0.810  1.2678 -1.9331  1.0779
 6061SOL    HW229838   8.033   5.022   0.860  1.2227 -1.6774  0.6235
 6062SOL     OW29839   4.007   3.954   1.132  0.2184 -0.7217  0.7583
 6062SOL    HW129840   3.908   3.959   1.136  0.2565  0.8922  0.0697
 6062SOL    HW229841   4.036   3.929   1.040  0.5397  3.5471 -0.4284
 6063SOL     OW29842   4.293   1.924   5.739 -0.1289 -0.3798 -0.0531
 6063SOL    HW129843   4.363   1.894   5.675  0.6278  1.1657  0.0172
 6063SOL    HW229844   4.277   1.853   5.807  2.9542  0.1017  1.2370
 6064SOL     OW29845   8.940   4.712   6.992  0.5846 -0.1730  0.2725
 6064SOL    HW129846   9.016   4.712   7.057  0.8655 -2.0389 -0.0202
 6064SOL    HW229847   8.895   4.622   6.994 -0.3991  0.2820 -0.9551
 6065SOL     OW29848   5.770   3.937   0.819 -0.0244 -0.2166  0.1171
 6065SOL    HW129849   5.796   3.975   0.907 -0.4439 -0.6518  0.4332
 6065SOL    HW229850   5.683   3.888   0.828 -0.6711  0.7298 -0.7914
 6066SOL     OW29851   7.973   7.070   3.793  0.3186  0.2016  0.2613
 6066SOL    HW129852   7.891   7.057   3.850  0.1985  0.2546  0.1025
 6066SOL    HW229853   7.966   7.012   3.712  0.1724  0.6280 -0.0323
 6067SOL     OW29854   7.227   0.849   7.857  0.2273 -0.6346  0.1591
 6067SOL    HW129855   7.223   0.897   7.770  0.7342  1.1309  1.0706
 6067SOL    HW229856   7.310   0.793   7.860 -0.2414 -1.3923 -0.8235
 6068SOL     OW29857   6.099   1.388   4.792 -0.3962  0.3805 -0.4306
 6068SOL    HW129858   6.048   1.460   4.839 -0.9808 -1.0227  1.1169
 6068SOL    HW229859   6.095   1.404   4.693 -0.7467  2.3127 -0.1254
 6069SOL     OW29860   4.930   5.881   4.259  0.1553  0.2132 -0.0678
 6069SOL    HW129861   4.929   5.936   4.342  0.0618  0.1062  0.0014
 6069SOL    HW229862   4.846   5.897   4.207 -0.7089 -1.2423  0.8509
 6070SOL     OW29863   8.293   5.629   4.876  0.0051 -0.4799 -0.1968
 6070SOL    HW129864   8.355   5.675   4.812 -1.1443  1.4228  0.0014
 6070SOL    HW229865   8.344   5.599   4.957  1.3482 -2.3328 -1.6891
 6071SOL     OW29866   5.634   1.992   1.486 -0.1580 -1.0585 -0.1098
 6071SOL    HW129867   5.722   1.952   1.459 -0.5095 -1.5364 -0.5563
 6071SOL    HW229868   5.627   1.992   1.586 -0.2727 -2.3847 -0.1085
 6072SOL     OW29869   0.425   1.174   4.212 -0.1360 -0.3974  0.3124
 6072SOL    HW129870   0.415   1.169   4.112  1.1227  0.1599  0.1540
 6072SOL    HW229871   0.499   1.114   4.241 -1.5602 -1.8189  1.1029
 6073SOL     OW29872   1.497   6.649   6.180 -0.2414 -0.7299 -0.2148
 6073SOL    HW129873   1.575   6.650   6.242 -2.0604  1.0797  2.1480
 6073SOL    HW229874   1.529   6.671   6.087  2.1310 -0.6360  0.5772
 6074SOL     OW29875   5.056   5.797   4.042  0.2586  0.0845 -0.0436
 6074SOL    HW129876   5.119   5.719   4.041 -1.0101 -0.9717 -1.0749
 6074SOL    HW229877   5.029   5.817   4.136 -0.6206 -1.7878  0.1402
 6075SOL     OW29878   9.302   0.349   3.386 -0.2490 -0.1119 -0.1737
 6075SOL    HW129879   9.266   0.397   3.306  0.8657  0.9186 -0.0657
 6075SOL    HW229880   9.304   0.410   3.465 -2.3725 -1.4389  0.9531
 6076SOL     OW29881   0.956   8.836   2.950  0.0497  0.3491 -0.5768
 6076SOL    HW129882   0.974   8.741   2.925 -3.4333 -0.5542  0.1140
 6076SOL    HW229883   1.001   8.896   2.884  3.4760 -1.6721 -0.2404
 6077SOL     OW29884   2.973   8.673   5.106  0.0845  0.1502 -0.2142
 6077SOL    HW129885   2.899   8.637   5.050 -1.3591 -0.2909  1.9289
 6077SOL    HW229886   3.052   8.611   5.099 -0.4425 -0.4614 -0.8934
 6078SOL     OW29887   0.592   4.379   6.453  0.0471  0.4762  0.0857
 6078SOL    HW129888   0.674   4.343   6.498 -1.1454  0.2484  2.1154
 6078SOL    HW229889   0.547   4.306   6.402  0.4630  0.3328 -0.0817
 6079SOL     OW29890   7.250   1.891   6.237 -0.1456  0.0471 -0.4211
 6079SOL    HW129891   7.280   1.864   6.145 -0.2012 -2.4094  0.2681
 6079SOL    HW229892   7.292   1.979   6.260  0.6842  0.2006 -2.3978
 6080SOL     OW29893   2.236   6.308   6.218 -0.4826 -0.0348  0.7759
 6080SOL    HW129894   2.206   6.279   6.128  0.5327 -0.6087  0.6129
 6080SOL    HW229895   2.179   6.384   6.250  0.1277  1.1919 -1.0074
 6081SOL     OW29896   8.855   5.076   2.109 -0.3414 -0.3695  0.3540
 6081SOL    HW129897   8.930   5.044   2.167  1.0085 -0.4221 -1.3875
 6081SOL    HW229898   8.806   5.149   2.156  0.5768 -0.5735  1.6684
 6082SOL     OW29899   2.838   7.364   3.738  0.2471  0.0822  0.0059
 6082SOL    HW129900   2.914   7.429   3.734 -0.2407  0.6343 -0.3042
 6082SOL    HW229901   2.854   7.300   3.814  0.2947  1.1113  0.8715
 6083SOL     OW29902   1.124   0.571   3.112  0.1355  0.0592 -0.4895
 6083SOL    HW129903   1.080   0.501   3.168 -2.3109  0.8792 -1.3398
 6083SOL    HW229904   1.157   0.645   3.172  0.5641 -0.6458  0.1647
 6084SOL     OW29905   3.305   8.644   4.893 -0.4378  0.4993  0.3361
 6084SOL    HW129906   3.243   8.687   4.827 -0.2614 -0.4594 -0.4768
 6084SOL    HW229907   3.257   8.573   4.944 -0.4782  0.9922  0.9885
 6085SOL     OW29908   4.303   7.346   2.858  0.3349 -0.7100  0.4384
 6085SOL    HW129909   4.327   7.317   2.951  1.3042  1.9008  1.0364
 6085SOL    HW229910   4.363   7.299   2.792  1.1723 -0.8576  1.2928
 6086SOL     OW29911   0.087   0.287   3.673 -0.3348 -0.0581 -0.4980
 6086SOL    HW129912   0.108   0.246   3.584 -3.7642 -0.8268 -1.0025
 6086SOL    HW229913   0.018   0.358   3.662  0.6956  1.2625  1.3104
 6087SOL     OW29914   0.867   5.336   3.972 -0.3935 -0.5716 -0.4778
 6087SOL    HW129915   0.949   5.365   4.021 -0.5530 -0.5369 -0.2345
 6087SOL    HW229916   0.872   5.370   3.878 -1.6850  2.2806  0.4295
 6088SOL     OW29917   4.219   3.300   7.529 -0.2119 -0.1107 -0.0893
 6088SOL    HW129918   4.137   3.274   7.478  0.3169 -0.2314 -0.8822
 6088SOL    HW229919   4.214   3.397   7.553 -0.0220  0.1860 -1.2097
 6089SOL     OW29920   7.877   2.896   3.418  0.4771  0.4849  0.0027
 6089SOL    HW129921   7.843   2.807   3.448 -0.8181  0.3554 -1.7432
 6089SOL    HW229922   7.924   2.941   3.493  0.5525 -1.3778  1.1113
 6090SOL     OW29923   3.997   6.577   3.851  0.5256  0.4068 -0.1369
 6090SOL    HW129924   3.970   6.673   3.862  1.5507  0.5233  1.5183
 6090SOL    HW229925   3.915   6.521   3.842 -0.1042  1.3764 -0.5185
 6091SOL     OW29926   0.888   0.083   5.971 -0.0313  0.0269  0.0432
 6091SOL    HW129927   0.812   0.070   6.034 -0.1107 -1.3751 -0.3237
 6091SOL    HW229928   0.893   0.179   5.944  0.2681  0.7225  2.4984
 6092SOL     OW29929   3.400   4.649   0.874  0.7112  0.4757  0.6831
 6092SOL    HW129930   3.439   4.653   0.782  1.7191  1.7582  1.1599
 6092SOL    HW229931   3.323   4.712   0.881 -1.1966 -1.7146 -0.1175
 6093SOL     OW29932   8.724   6.649   7.261 -0.0693  0.4589  0.0654
 6093SOL    HW129933   8.750   6.614   7.170  1.2545  0.6511  0.3482
 6093SOL    HW229934   8.625   6.650   7.270 -0.2603  1.6904 -1.8949
 6094SOL     OW29935   8.981   8.198   3.117 -0.0564  0.2871 -0.3036
 6094SOL    HW129936   9.022   8.110   3.092 -0.4671 -0.1585  0.5741
 6094SOL    HW229937   8.954   8.196   3.213  0.6849  1.6609 -0.0513
 6095SOL     OW29938   5.280   9.279   6.376  0.4962  0.3151  0.0306
 6095SOL    HW129939   5.193   9.231   6.385  1.5906 -2.1151 -1.7342
 6095SOL    HW229940   5.276   9.341   6.298  0.4462 -0.0762 -0.2823
 6096SOL     OW29941   4.478   2.715   0.137 -0.5810  0.3139 -0.6270
 6096SOL    HW129942   4.510   2.646   0.072  0.1113 -0.1946  0.2418
 6096SOL    HW229943   4.499   2.685   0.231 -2.5221  0.5239 -0.0969
 6097SOL     OW29944   8.502   7.285   2.656  0.2152  0.7037  0.2528
 6097SOL    HW129945   8.428   7.226   2.687 -1.9178  2.6851 -0.9238
 6097SOL    HW229946   8.562   7.308   2.733 -1.0657  0.0357  1.4672
 6098SOL     OW29947   5.492   1.293   5.003  0.1174  0.0819 -0.0248
 6098SOL    HW129948   5.428   1.299   4.927 -1.5415 -2.1717  1.1369
 6098SOL    HW229949   5.484   1.375   5.060  0.8050  1.4119 -1.7725
 6099SOL     OW29950   1.319   9.353   2.244  0.0269 -0.8297 -0.4545
 6099SOL    HW129951   1.384   9.428   2.236 -0.4832 -0.3971 -0.5645
 6099SOL    HW229952   1.361   9.268   2.212  0.1816 -0.3560 -1.5005
 6100SOL     OW29953   1.568   6.815   6.474  0.0249  0.1426 -1.0132
 6100SOL    HW129954   1.520   6.729   6.492  1.4838 -0.3905  0.4343
 6100SOL    HW229955   1.585   6.862   6.561  1.0316  0.9094 -1.6187
 6101SOL     OW29956   4.556   7.050   4.183 -0.1512 -0.3113  0.5704
 6101SOL    HW129957   4.635   7.073   4.239 -0.3083  1.8810 -0.0633
 6101SOL    HW229958   4.498   7.131   4.173 -1.7490 -1.5227 -0.1389
 6102SOL     OW29959   1.987   4.287   4.581 -0.5010 -0.3398  0.2028
 6102SOL    HW129960   1.982   4.268   4.482 -1.9262  0.7823  0.0463
 6102SOL    HW229961   1.904   4.253   4.625 -0.4566  0.3401  0.8158
 6103SOL     OW29962   2.128   7.300   0.213  0.1649  0.5350 -0.3249
 6103SOL    HW129963   2.163   7.268   0.125  0.9365 -0.4604  0.3309
 6103SOL    HW229964   2.029   7.288   0.216  0.3916 -1.5430 -0.2180
 6104SOL     OW29965   8.856   3.872   5.159  0.3916 -0.0255 -0.5778
 6104SOL    HW129966   8.823   3.956   5.118  0.8992  0.9223  0.9143
 6104SOL    HW229967   8.780   3.807   5.169 -0.1171  0.4738 -1.1857
 6105SOL     OW29968   6.402   5.446   9.829  0.2507  0.1780  0.4780
 6105SOL    HW129969   6.487   5.393   9.836  0.6844  0.3068 -2.7946
 6105SOL    HW229970   6.422   5.536   9.791 -1.3152  0.3607  0.0548
 6106SOL     OW29971   7.290   1.420   5.072  0.0578 -0.3392  0.2961
 6106SOL    HW129972   7.225   1.478   5.122 -0.6204  0.9113 -1.9177
 6106SOL    HW229973   7.358   1.383   5.135 -1.5775  0.0298  2.3286
 6107SOL     OW29974   9.798   3.825   5.977  0.2309  0.2359  0.3790
 6107SOL    HW129975   9.819   3.738   6.021  0.6857  0.3237  0.3344
 6107SOL    HW229976   9.862   3.840   5.902  0.1869  0.6407  0.4250
 6108SOL     OW29977   0.020   1.421   7.537  0.5857  0.1986  0.1631
 6108SOL    HW129978  -0.036   1.346   7.572 -0.2503 -0.0858 -1.7215
 6108SOL    HW229979  -0.000   1.505   7.588 -0.0748 -0.3641  0.8304
 6109SOL     OW29980   3.161   3.121   0.115  0.0264 -1.0384  0.3152
 6109SOL    HW129981   3.189   3.179   0.039  0.7199  0.1206  1.4352
 6109SOL    HW229982   3.223   3.044   0.124 -0.2321 -1.3357 -0.4765
 6110SOL     OW29983   9.967   1.237   1.517  0.1448 -0.3191  0.0467
 6110SOL    HW129984  10.028   1.172   1.562 -0.4838  0.4957  2.1191
 6110SOL    HW229985  10.008   1.328   1.519 -0.5473 -0.0130  0.2454
 6111SOL     OW29986   2.493   4.753   3.226 -0.0260 -0.2962  0.3677
 6111SOL    HW129987   2.554   4.742   3.148  1.3808  0.1230  1.3765
 6111SOL    HW229988   2.485   4.665   3.275 -0.3291 -0.3782  0.1728
 6112SOL     OW29989   7.321   8.298   4.658 -0.7747  0.4005 -0.2730
 6112SOL    HW129990   7.352   8.222   4.601  0.5492  0.3725  0.4765
 6112SOL    HW229991   7.301   8.378   4.600 -1.0142 -0.1351 -0.9308
 6113SOL     OW29992   2.967   3.444   3.928  0.4936  0.5037 -0.7831
 6113SOL    HW129993   3.012   3.355   3.936  0.0106  0.3264  0.0320
 6113SOL    HW229994   2.943   3.461   3.833  0.7297 -0.1670 -0.9650
 6114SOL     OW29995   1.398   5.267   2.911  0.1082  0.7993  0.0673
 6114SOL    HW129996   1.408   5.207   2.831 -0.9004  0.1702  0.4003
 6114SOL    HW229997   1.477   5.257   2.970  0.7286  1.0490 -0.7085
 6115SOL     OW29998   7.680   4.177   6.586 -0.0664  0.3668 -0.3655
 6115SOL    HW129999   7.649   4.234   6.511  0.0627 -1.3394 -1.7519
 6115SOL    HW230000   7.639   4.086   6.578 -0.4463  0.3035  1.9141
 6116SOL     OW30001   3.294   0.221   1.388 -0.1520 -0.2010 -0.0750
 6116SOL    HW130002   3.388   0.233   1.358  0.4536 -1.2906  1.3333
 6116SOL    HW230003   3.257   0.309   1.419  0.8607 -0.0323  0.6531
 6117SOL     OW30004   0.689   4.052   9.878 -0.1507 -0.7076  0.2099
 6117SOL    HW130005   0.655   3.979   9.818 -0.5939 -0.5330  0.2468
 6117SOL    HW230006   0.678   4.140   9.832  1.7574 -0.8012 -0.4379
 6118SOL     OW30007   5.329   9.298   4.164  0.3648 -0.3468  0.5091
 6118SOL    HW130008   5.235   9.320   4.137  0.5236  0.4318  0.5836
 6118SOL    HW230009   5.362   9.221   4.109  0.8638  1.5380 -1.9126
 6119SOL     OW30010   8.926   9.159   7.744  0.1169 -0.1579  0.1115
 6119SOL    HW130011   8.841   9.189   7.787 -0.8404 -1.6253 -0.7096
 6119SOL    HW230012   8.907   9.127   7.651  1.6878  0.2174 -0.3552
 6120SOL     OW30013   7.859   3.601   2.455 -0.7608 -0.1594 -0.0857
 6120SOL    HW130014   7.895   3.667   2.389 -2.2971  0.2274 -0.5767
 6120SOL    HW230015   7.933   3.545   2.491  0.0991 -0.4680 -2.2506
 6121SOL     OW30016   2.890   4.175   5.858  0.4068  0.0559  0.1514
 6121SOL    HW130017   2.972   4.232   5.851 -0.0397  0.6784 -0.0182
 6121SOL    HW230018   2.851   4.160   5.767 -0.5631  1.0796  0.3884
 6122SOL     OW30019   0.995   9.353   4.663  0.1081 -1.0736  0.3237
 6122SOL    HW130020   1.014   9.285   4.734 -1.1467  0.3561  2.0440
 6122SOL    HW230021   1.057   9.431   4.673 -2.1580  0.5696  1.8326
 6123SOL     OW30022   2.478   2.985   5.930 -0.5497 -0.2532  0.0775
 6123SOL    HW130023   2.515   3.078   5.934 -0.7300 -0.1222 -1.0570
 6123SOL    HW230024   2.398   2.978   5.989 -2.2558  1.1298 -1.9739
 6124SOL     OW30025   9.886   1.705   6.767  0.5949  0.3555 -0.1820
 6124SOL    HW130026   9.886   1.805   6.761  1.1841  0.3579 -0.1671
 6124SOL    HW230027   9.862   1.666   6.678  2.9137  0.4763 -0.8847
 6125SOL     OW30028   2.994   7.331   0.782 -0.1151  0.0412 -0.1884
 6125SOL    HW130029   2.948   7.410   0.742 -1.0611  0.7386  2.2186
 6125SOL    HW230030   3.092   7.339   0.767 -0.0302  2.5290  1.4127
 6126SOL     OW30031   4.824   5.352   0.218  0.1430  0.2317  0.4380
 6126SOL    HW130032   4.789   5.281   0.278 -0.6502  2.1234  2.2556
 6126SOL    HW230033   4.757   5.372   0.146  0.4545 -0.9523 -0.2063
 6127SOL     OW30034   7.958   8.922   3.467  0.8419  0.4659  0.0774
 6127SOL    HW130035   7.928   8.866   3.544 -0.8769  0.2990 -0.6796
 6127SOL    HW230036   7.878   8.963   3.423  1.7143 -0.1443 -2.1565
 6128SOL     OW30037   6.894   5.792   1.034  0.8615  0.5366 -0.0611
 6128SOL    HW130038   6.938   5.882   1.043 -0.5305  1.1644  0.6958
 6128SOL    HW230039   6.867   5.759   1.124  0.2357 -0.0684 -0.4642
 6129SOL     OW30040   0.794   2.400   1.325  0.7959 -0.1829  0.2943
 6129SOL    HW130041   0.774   2.421   1.420  1.0430  0.7602  0.1438
 6129SOL    HW230042   0.893   2.409   1.309  0.7129  0.0062 -0.1231
 6130SOL     OW30043   8.789   2.935   1.126  0.1482 -0.6703  0.1920
 6130SOL    HW130044   8.791   2.858   1.063  1.7002 -0.1768 -0.3681
 6130SOL    HW230045   8.758   3.017   1.078 -0.3298 -0.6698  0.4954
 6131SOL     OW30046   0.424   8.419   7.860 -0.0329  0.2761 -0.3247
 6131SOL    HW130047   0.475   8.383   7.783 -0.1693  1.2025 -0.8586
 6131SOL    HW230048   0.487   8.459   7.927  0.0018  0.6204 -0.5621
 6132SOL     OW30049   0.880   6.723   0.624  0.2118  0.2641 -0.0084
 6132SOL    HW130050   0.851   6.751   0.532 -2.2080 -2.5241 -0.1635
 6132SOL    HW230051   0.810   6.749   0.690  0.7307 -0.0533  0.6705
 6133SOL     OW30052   8.336   2.845   4.422 -0.2026  0.2096 -0.9013
 6133SOL    HW130053   8.300   2.766   4.472  0.7771 -0.5194 -1.3489
 6133SOL    HW230054   8.369   2.816   4.333  1.8315  0.8173 -0.3572
 6134SOL     OW30055   3.304   1.722   0.161 -0.6089  0.0341  0.6884
 6134SOL    HW130056   3.358   1.648   0.120  0.1979  0.0716  1.6647
 6134SOL    HW230057   3.347   1.751   0.246 -1.8555  0.4761  1.1769
 6135SOL     OW30058   0.810   4.932   5.123  0.2987  0.5658  0.1130
 6135SOL    HW130059   0.905   4.921   5.095  0.2042  0.7116 -0.2647
 6135SOL    HW230060   0.806   4.962   5.218  0.6561  1.8346 -0.2632
 6136SOL     OW30061   9.917   8.986   1.508 -0.5824  0.5302  0.5056
 6136SOL    HW130062   9.832   8.969   1.458  0.1876 -3.2614  0.3311
 6136SOL    HW230063   9.901   8.973   1.606  0.1896 -2.0621  0.3075
 6137SOL     OW30064   2.137   2.948   4.179 -0.5505 -0.1551 -0.0997
 6137SOL    HW130065   2.197   2.926   4.256  0.1798 -1.3771 -1.0003
 6137SOL    HW230066   2.059   2.885   4.179 -0.7995  0.1525 -0.0889
 6138SOL     OW30067   1.074   5.019   4.547 -0.8153  0.3910  0.5289
 6138SOL    HW130068   1.031   5.082   4.612 -2.1211 -0.3420  0.3854
 6138SOL    HW230069   1.106   4.938   4.595 -1.7702 -0.1463  0.2538
 6139SOL     OW30070   2.369   5.779   1.601 -0.5655  0.6973  0.4596
 6139SOL    HW130071   2.337   5.685   1.586  2.3571 -0.2774 -0.0279
 6139SOL    HW230072   2.331   5.813   1.687  0.4187 -1.9039  1.9869
 6140SOL     OW30073   3.891   0.313   6.546  0.6233 -0.3113  0.7119
 6140SOL    HW130074   3.918   0.388   6.486  0.4644  0.1292  1.1844
 6140SOL    HW230075   3.826   0.347   6.614 -0.3220 -1.1328  0.2266
 6141SOL     OW30076   1.930   7.106   6.916 -0.0589 -0.0417 -0.7455
 6141SOL    HW130077   1.995   7.131   6.844  0.0954  1.4549 -0.0858
 6141SOL    HW230078   1.837   7.106   6.878  0.1180 -0.2102 -1.1855
 6142SOL     OW30079   6.998   3.049   0.992 -0.2144  0.3295 -0.2099
 6142SOL    HW130080   6.920   3.017   0.939 -0.0823 -1.8140  0.8256
 6142SOL    HW230081   7.076   3.064   0.931 -1.2430  1.9892 -1.1716
 6143SOL     OW30082   0.017   5.407   5.418  0.0131 -0.4298  0.0849
 6143SOL    HW130083  -0.076   5.397   5.452  0.1513 -0.3571  0.4850
 6143SOL    HW230084   0.081   5.408   5.495  0.2414  0.7084 -0.1001
 6144SOL     OW30085   4.339   7.410   0.002 -0.0478 -0.1406  0.7990
 6144SOL    HW130086   4.323   7.364  -0.086  0.9091  0.0936  0.5039
 6144SOL    HW230087   4.253   7.411   0.054 -1.6366  3.0572 -1.6920
 6145SOL     OW30088   1.322   6.062   0.624  0.4716 -0.2318 -0.2859
 6145SOL    HW130089   1.231   6.082   0.587 -0.0199 -0.9372  0.4814
 6145SOL    HW230090   1.346   5.967   0.602  0.2616 -0.5914  0.9826
 6146SOL     OW30091   7.365   0.501   7.743  0.0461 -0.2125  0.3646
 6146SOL    HW130092   7.266   0.512   7.741  0.2219  1.4572  0.6023
 6146SOL    HW230093   7.400   0.492   7.649 -0.7596 -5.2152  0.3905
 6147SOL     OW30094   0.657   3.148   6.375 -0.1597  0.1374 -0.3152
 6147SOL    HW130095   0.655   3.082   6.449 -0.1126 -0.1924 -0.6047
 6147SOL    HW230096   0.749   3.187   6.367  0.1632 -0.7476 -1.0011
 6148SOL     OW30097   1.682   0.127   5.550  0.3223  0.3863  0.2941
 6148SOL    HW130098   1.602   0.158   5.499  0.1083 -1.6671 -0.6388
 6148SOL    HW230099   1.735   0.062   5.495  1.4768  0.0904  1.7108
 6149SOL     OW30100   9.975   5.660   1.989  0.0591 -0.3575 -0.2848
 6149SOL    HW130101  10.074   5.658   1.978  0.0083 -0.6181 -0.7041
 6149SOL    HW230102   9.933   5.695   1.905 -0.2847 -1.5725 -0.6340
 6150SOL     OW30103   2.832   8.724   1.673  0.1031 -0.3438  0.1388
 6150SOL    HW130104   2.880   8.653   1.622  2.1424  0.9777  0.1381
 6150SOL    HW230105   2.820   8.804   1.614  0.4266  0.3613  1.0211
 6151SOL     OW30106   4.591   0.475   2.596  0.3834  0.5489 -0.1206
 6151SOL    HW130107   4.682   0.468   2.555  0.7852  1.7534  0.5413
 6151SOL    HW230108   4.599   0.508   2.690 -0.8991  3.4253 -0.9811
 6152SOL     OW30109   9.099   2.329   0.450 -1.0518 -0.4466 -0.4223
 6152SOL    HW130110   9.163   2.289   0.516 -1.5969  0.1189  0.4514
 6152SOL    HW230111   9.143   2.335   0.360  0.4274  0.7562  0.3744
 6153SOL     OW30112   6.781   0.866   7.564 -0.4163 -0.1279  0.4667
 6153SOL    HW130113   6.864   0.810   7.558 -1.0259 -0.9464 -0.4087
 6153SOL    HW230114   6.807   0.961   7.579  0.6906 -0.3843  0.2379
 6154SOL     OW30115   1.560   0.216   7.155  0.1111 -0.3299  0.0439
 6154SOL    HW130116   1.527   0.274   7.080 -0.0602  0.4441  0.7253
 6154SOL    HW230117   1.619   0.269   7.216 -1.2906 -0.4472  1.5319
 6155SOL     OW30118   7.716   7.157   1.754  0.1520 -0.0832  0.3322
 6155SOL    HW130119   7.692   7.062   1.774 -0.8151  0.3755  1.4245
 6155SOL    HW230120   7.675   7.216   1.823  0.3929  1.1725 -0.5930
 6156SOL     OW30121   1.350   2.944   3.491  0.6861  0.4761  0.0774
 6156SOL    HW130122   1.433   2.996   3.470  1.1742 -0.5204 -0.5175
 6156SOL    HW230123   1.359   2.852   3.453 -0.9768  0.5693 -0.5803
 6157SOL     OW30124   0.683   2.795   3.951 -0.0326  0.0599  0.5924
 6157SOL    HW130125   0.725   2.727   3.890 -0.2693 -2.0405  2.7249
 6157SOL    HW230126   0.588   2.771   3.967 -0.5451  1.7488  0.1965
 6158SOL     OW30127   1.583   3.541   6.541 -0.1493  0.4675 -0.2423
 6158SOL    HW130128   1.585   3.567   6.444 -0.0806 -2.9924 -1.2582
 6158SOL    HW230129   1.553   3.446   6.549 -1.1346  1.0099  3.2413
 6159SOL     OW30130   7.510   3.647   3.481  0.3364  0.2734  0.0497
 6159SOL    HW130131   7.430   3.616   3.533 -0.6698  0.8798 -1.0881
 6159SOL    HW230132   7.480   3.714   3.412  1.5045 -1.0562 -1.8062
 6160SOL     OW30133   7.465   8.137   2.992 -0.0978 -0.3445 -0.5466
 6160SOL    HW130134   7.536   8.069   2.974 -0.2157 -0.5115 -0.3807
 6160SOL    HW230135   7.507   8.219   3.032 -0.2115 -1.1057  1.1677
 6161SOL     OW30136   2.256   7.877   2.905 -0.4024 -0.1665  0.0078
 6161SOL    HW130137   2.338   7.924   2.938  0.1237 -2.2871  1.8621
 6161SOL    HW230138   2.261   7.867   2.806  0.2698  2.1421 -0.2182
 6162SOL     OW30139   0.485   3.521   1.887  0.1592 -0.3837 -0.3839
 6162SOL    HW130140   0.574   3.498   1.847  0.2923 -1.3611  0.4559
 6162SOL    HW230141   0.444   3.596   1.835  2.0982  1.0467  0.0896
 6163SOL     OW30142   0.398   1.529   5.882  0.2541 -0.3730  0.3226
 6163SOL    HW130143   0.444   1.593   5.944  3.0887 -1.7787 -0.2238
 6163SOL    HW230144   0.390   1.440   5.926  0.2363 -0.7782 -0.4915
 6164SOL     OW30145   5.108   0.091   6.586  0.2135 -0.2771 -0.3605
 6164SOL    HW130146   5.151   0.102   6.676  0.9375  0.4298 -0.7945
 6164SOL    HW230147   5.121   0.174   6.532  0.6482 -1.0713 -1.4903
 6165SOL     OW30148   8.723   6.082   1.313 -0.3974  0.0221 -0.5588
 6165SOL    HW130149   8.710   6.164   1.257 -0.5657 -1.8148 -3.3157
 6165SOL    HW230150   8.639   6.063   1.364 -0.3268  1.5898  0.1493
 6166SOL     OW30151   4.434   9.272   4.807 -0.0498 -0.2195  0.7090
 6166SOL    HW130152   4.468   9.334   4.878 -0.2830  0.0789  0.5586
 6166SOL    HW230153   4.445   9.313   4.717 -0.4896 -0.2602  0.6318
 6167SOL     OW30154   8.811   1.751   2.337  0.2130  0.3761  0.0008
 6167SOL    HW130155   8.824   1.802   2.422  2.8628 -1.5967  0.8531
 6167SOL    HW230156   8.892   1.761   2.279  0.1471 -1.6150 -0.4701
 6168SOL     OW30157   4.460   0.585   7.258 -0.3243 -0.2389 -0.2129
 6168SOL    HW130158   4.521   0.632   7.194 -0.3701  0.6597  0.4019
 6168SOL    HW230159   4.500   0.497   7.283  0.3688  0.0178 -0.4000
 6169SOL     OW30160   9.177   0.359   5.879  0.1752  0.1617  0.3859
 6169SOL    HW130161   9.249   0.342   5.946 -2.8664 -0.4781  3.6157
 6169SOL    HW230162   9.118   0.279   5.873 -0.6071  0.8596 -1.8762
 6170SOL     OW30163   2.301   8.166   6.802 -0.3793  0.5623 -0.1789
 6170SOL    HW130164   2.243   8.176   6.883  2.3230  1.5460  1.7412
 6170SOL    HW230165   2.299   8.250   6.748 -1.6439  0.1558 -0.7837
 6171SOL     OW30166   3.149   0.492   2.168  0.4601 -0.6987  0.0152
 6171SOL    HW130167   3.188   0.563   2.110  3.4601 -0.6704  2.0192
 6171SOL    HW230168   3.119   0.532   2.255 -3.4040 -0.8637 -1.1493
 6172SOL     OW30169   2.750   2.799   4.342 -0.2522 -0.3047  0.2840
 6172SOL    HW130170   2.676   2.849   4.388  0.3118 -1.1340  2.1384
 6172SOL    HW230171   2.837   2.843   4.363  0.0099 -0.7094  0.0316
 6173SOL     OW30172   4.224   0.030   7.846 -0.5174 -0.8207 -0.3687
 6173SOL    HW130173   4.280  -0.053   7.841  3.5462  1.6059  2.0813
 6173SOL    HW230174   4.217   0.071   7.755 -0.2437 -2.3713 -1.1046
 6174SOL     OW30175   0.459   4.238   6.934 -0.1553 -0.5526 -0.2426
 6174SOL    HW130176   0.550   4.262   6.967  0.1837 -0.0076 -1.5623
 6174SOL    HW230177   0.406   4.199   7.009 -0.0584  2.4890  1.4524
 6175SOL     OW30178   1.949   8.531   2.035  0.8141 -0.5944  1.1761
 6175SOL    HW130179   1.901   8.595   1.975  1.2420 -1.6790 -0.3550
 6175SOL    HW230180   1.983   8.580   2.116 -0.1322  0.8026  0.7429
 6176SOL     OW30181   8.843   4.953   0.411  0.1691  0.2436 -0.1951
 6176SOL    HW130182   8.861   4.973   0.315  0.2113  0.0434 -0.2292
 6176SOL    HW230183   8.897   5.015   0.468 -1.4394  1.7861 -0.2961
 6177SOL     OW30184   9.167   8.773   4.955 -0.2095  0.3904 -0.4885
 6177SOL    HW130185   9.186   8.779   5.052 -0.1893  0.2848 -0.4854
 6177SOL    HW230186   9.068   8.780   4.940 -0.2340  0.1276 -0.4385
 6178SOL     OW30187   5.247   5.936   9.953 -0.4010  0.7227  0.5053
 6178SOL    HW130188   5.273   5.891   9.868  3.0205  1.2979  1.1989
 6178SOL    HW230189   5.213   6.028   9.932 -0.7332  0.4214 -0.3155
 6179SOL     OW30190   9.800   9.194   7.388  0.1847  0.0935 -0.2216
 6179SOL    HW130191   9.720   9.238   7.430 -0.6708 -1.1569 -0.5001
 6179SOL    HW230192   9.772   9.107   7.349  2.1084 -1.3341  1.5087
 6180SOL     OW30193   4.357   6.726   0.204  0.0516  0.2120 -0.5453
 6180SOL    HW130194   4.338   6.669   0.284 -1.2088 -1.0270 -1.6935
 6180SOL    HW230195   4.452   6.714   0.175 -0.2133 -1.3609 -0.7939
 6181SOL     OW30196   1.511   8.414   1.279  0.3580 -0.0417  0.1326
 6181SOL    HW130197   1.571   8.340   1.248 -0.6767 -0.2584 -1.3865
 6181SOL    HW230198   1.565   8.479   1.333  1.3450 -1.7094  1.2140
 6182SOL     OW30199   8.054   1.766   3.345  0.6941 -0.3444 -0.4676
 6182SOL    HW130200   8.094   1.845   3.391  1.0184  0.7067 -2.4868
 6182SOL    HW230201   8.103   1.683   3.372  1.1487  0.3123  0.7278
 6183SOL     OW30202   8.452   7.240   7.442 -0.0170  0.6196  0.4240
 6183SOL    HW130203   8.532   7.298   7.461  1.3864 -1.2713  0.4778
 6183SOL    HW230204   8.414   7.264   7.353  1.3922  0.7284 -0.1759
 6184SOL     OW30205   7.331   7.393   2.846  0.1525  0.2478 -0.0373
 6184SOL    HW130206   7.398   7.397   2.772  0.0813 -1.2573 -0.2120
 6184SOL    HW230207   7.240   7.381   2.807 -0.3270  2.9324  0.1730
 6185SOL     OW30208   9.829   9.478   5.535 -0.1187  0.2430  0.2312
 6185SOL    HW130209   9.889   9.495   5.457 -1.1146  1.7835 -0.2317
 6185SOL    HW230210   9.837   9.383   5.564  1.2916  0.0147 -0.8728
 6186SOL     OW30211   1.426   1.179   2.482  0.6094 -0.1989  0.2676
 6186SOL    HW130212   1.405   1.097   2.534  1.6853 -0.1290  0.8177
 6186SOL    HW230213   1.381   1.174   2.393 -1.3140 -0.2782  1.2112
 6187SOL     OW30214   3.884   8.713   2.355  0.3540 -0.1821  0.0720
 6187SOL    HW130215   3.871   8.777   2.279 -3.6074 -0.3888  0.4849
 6187SOL    HW230216   3.839   8.748   2.437 -0.3948 -2.6573  0.7619
 6188SOL     OW30217   6.821   2.237   4.205 -0.1892  0.0881  0.7730
 6188SOL    HW130218   6.873   2.213   4.287  0.2327 -0.6028  0.3144
 6188SOL    HW230219   6.739   2.288   4.230 -0.0274 -0.0707  1.6168
 6189SOL     OW30220   5.033   9.918   7.322  0.0128 -0.4272  0.0084
 6189SOL    HW130221   5.013   9.922   7.224 -1.8112 -0.3767  0.3658
 6189SOL    HW230222   5.035  10.011   7.359  1.0741 -0.4229 -0.0403
 6190SOL     OW30223   8.032   6.317   6.615  0.2320  0.8328 -0.3808
 6190SOL    HW130224   8.033   6.248   6.543  2.7940  1.2660 -0.8005
 6190SOL    HW230225   8.014   6.407   6.575 -0.4934  0.7781 -0.1829
 6191SOL     OW30226   5.891   9.071   7.945  0.1916  0.4457  0.2851
 6191SOL    HW130227   5.802   9.044   7.984  0.8161  0.0219  1.4633
 6191SOL    HW230228   5.924   8.997   7.886 -0.0422  0.4282  0.1724
 6192SOL     OW30229   7.189   9.641   3.024  0.0954  0.9888 -0.4071
 6192SOL    HW130230   7.153   9.623   3.115 -1.1874 -3.3979 -1.6490
 6192SOL    HW230231   7.289   9.637   3.025  0.0322 -0.9444  0.4928
 6193SOL     OW30232   2.315   4.535   2.989 -0.3498 -0.5136  0.1476
 6193SOL    HW130233   2.233   4.534   3.045  0.3345  1.8328  1.2439
 6193SOL    HW230234   2.309   4.610   2.922  1.0290 -0.0789  0.4847
 6194SOL     OW30235   4.430   3.316   3.616 -0.1827  0.1339 -0.0760
 6194SOL    HW130236   4.422   3.388   3.685 -0.8440  0.7414 -0.7916
 6194SOL    HW230237   4.482   3.351   3.538  0.5194 -0.5407  0.0805
 6195SOL     OW30238   3.038   8.092   2.690 -0.2753 -0.8337  0.1306
 6195SOL    HW130239   2.997   8.113   2.601 -0.4273 -1.9265 -0.0678
 6195SOL    HW230240   2.992   8.012   2.730  0.8711 -1.3414  0.4487
 6196SOL     OW30241   3.311   7.494   5.386  0.3330  0.6799  0.0627
 6196SOL    HW130242   3.293   7.580   5.338  0.0386  1.0187  0.7753
 6196SOL    HW230243   3.360   7.513   5.471  1.9023 -0.0171 -0.6692
 6197SOL     OW30244   8.910   4.966   0.976  0.1170  0.1353 -0.3800
 6197SOL    HW130245   8.875   4.930   1.062 -0.6898  1.0968 -0.2987
 6197SOL    HW230246   9.010   4.973   0.981  0.0101  1.0947  0.8482
 6198SOL     OW30247   1.149   6.591   6.416  0.1893 -0.0923  0.5298
 6198SOL    HW130248   1.066   6.571   6.468  0.2813  0.3271  0.8322
 6198SOL    HW230249   1.162   6.519   6.347 -0.1737 -0.4065  0.7830
 6199SOL     OW30250   0.647   5.246   3.270 -0.1301 -0.3548  0.3336
 6199SOL    HW130251   0.721   5.257   3.204  1.8681 -0.5937  2.4929
 6199SOL    HW230252   0.606   5.335   3.289  0.8305  0.0539  0.5137
 6200SOL     OW30253   5.972   9.485   6.098  0.3569  0.8041 -0.1559
 6200SOL    HW130254   5.895   9.548   6.094  0.3040  0.8165  0.9431
 6200SOL    HW230255   6.040   9.519   6.164  0.2158 -0.3981  0.6278
 6201SOL     OW30256   8.992   0.793   1.949 -0.4006 -0.4542 -0.1791
 6201SOL    HW130257   8.964   0.752   1.862 -0.0359  1.0609 -1.0303
 6201SOL    HW230258   9.087   0.822   1.943 -0.5228  0.1136  0.5649
 6202SOL     OW30259   4.215   8.404   3.958 -0.0093 -0.2686  0.8280
 6202SOL    HW130260   4.168   8.489   3.938 -1.0923 -1.0543  0.0019
 6202SOL    HW230261   4.167   8.355   4.032  0.2292 -0.4749  0.8498
 6203SOL     OW30262   5.821   0.307   3.605  0.5541 -0.0290 -0.0685
 6203SOL    HW130263   5.824   0.341   3.699  1.3073 -1.1400  0.3256
 6203SOL    HW230264   5.738   0.252   3.592  1.4498 -1.5760  0.5726
 6204SOL     OW30265   4.813   9.899   0.779  0.5064  0.3195 -0.2225
 6204SOL    HW130266   4.864   9.852   0.707  0.7527 -0.5683  0.5233
 6204SOL    HW230267   4.716   9.901   0.755  0.6418  0.3925 -0.7693
 6205SOL     OW30268   9.225   8.193   2.261 -0.4133  0.0045  0.3943
 6205SOL    HW130269   9.175   8.271   2.224 -0.6312  0.6807  2.0750
 6205SOL    HW230270   9.294   8.163   2.194 -0.1690  1.7882 -0.1818
 6206SOL     OW30271   7.650   7.681   5.127  0.2990 -0.1173  0.2990
 6206SOL    HW130272   7.689   7.589   5.125  1.2334  0.2706  0.6809
 6206SOL    HW230273   7.679   7.728   5.211  0.8293  0.9737 -0.4885
 6207SOL     OW30274   1.617   7.263   2.827 -0.2050  0.0578 -0.1232
 6207SOL    HW130275   1.623   7.358   2.799 -0.5312  0.3752  0.8816
 6207SOL    HW230276   1.603   7.205   2.746  0.7612  0.7777 -0.8176
 6208SOL     OW30277   8.635   8.545   7.417 -0.0973 -0.1054 -0.4190
 6208SOL    HW130278   8.649   8.511   7.510  0.8200  0.8275 -0.1932
 6208SOL    HW230279   8.724   8.553   7.371 -0.4448  0.4107 -1.0128
 6209SOL     OW30280   2.926   5.527   2.655 -0.8651 -0.3432  0.0135
 6209SOL    HW130281   2.999   5.590   2.683 -1.2342 -0.0778  0.3848
 6209SOL    HW230282   2.924   5.522   2.555 -0.1292 -0.5984  0.0053
 6210SOL     OW30283   8.418   7.175   6.626 -0.0163  0.1170  0.0433
 6210SOL    HW130284   8.510   7.144   6.605 -0.0840 -1.1147  1.4413
 6210SOL    HW230285   8.372   7.205   6.543  2.4813  3.1109 -0.3197
 6211SOL     OW30286   4.913   9.506   3.662 -0.4240  0.1348  0.3685
 6211SOL    HW130287   4.896   9.408   3.651  2.3732 -0.5513  1.6157
 6211SOL    HW230288   4.840   9.546   3.717 -1.2539 -1.3835  0.4205
 6212SOL     OW30289   9.082   2.765   4.640  0.1311 -0.1551 -0.6438
 6212SOL    HW130290   9.152   2.696   4.626  0.2275 -0.3772  0.8042
 6212SOL    HW230291   9.004   2.724   4.688  0.4349  0.8651  0.7379
 6213SOL     OW30292   0.528   7.006   0.656  0.0646 -0.4928  0.0570
 6213SOL    HW130293   0.624   7.001   0.685  0.3315  1.3232 -0.4196
 6213SOL    HW230294   0.503   6.923   0.608  1.5903 -0.7427 -0.3300
 6214SOL     OW30295   9.741   0.803   0.667 -0.4040  0.1395 -0.1289
 6214SOL    HW130296   9.793   0.811   0.581  0.2290  1.3825  0.3656
 6214SOL    HW230297   9.654   0.757   0.649 -0.7375  1.3429 -1.6239
 6215SOL     OW30298   5.104   8.749   6.375 -0.2779 -0.6412 -0.0413
 6215SOL    HW130299   5.145   8.837   6.352 -1.0750  0.1034  1.3042
 6215SOL    HW230300   5.173   8.677   6.371  0.8904  0.4032  1.0121
 6216SOL     OW30301   5.713   4.565   0.884  0.3320 -0.5340 -0.0624
 6216SOL    HW130302   5.777   4.641   0.888  0.9719 -1.0517 -0.5207
 6216SOL    HW230303   5.696   4.540   0.789  0.8695 -1.6026  0.1247
 6217SOL     OW30304   3.474   1.687   6.465  0.0151 -0.0285 -0.7538
 6217SOL    HW130305   3.446   1.642   6.550 -1.2870 -3.5532 -2.9999
 6217SOL    HW230306   3.549   1.636   6.423 -0.8807  0.3860 -2.9025
 6218SOL     OW30307   7.515   5.074   2.833  0.0417  0.0982 -0.1923
 6218SOL    HW130308   7.588   5.113   2.889  1.1499 -1.0494 -0.8457
 6218SOL    HW230309   7.445   5.144   2.817  1.0552  1.2387  0.3086
 6219SOL     OW30310   7.861   8.105   7.261 -0.2859 -0.2478 -0.1121
 6219SOL    HW130311   7.774   8.152   7.275 -0.5263 -0.3784 -1.1560
 6219SOL    HW230312   7.848   8.007   7.275 -0.5862 -0.4113 -1.4578
 6220SOL     OW30313   1.018   1.228   0.895  0.5450 -0.0523 -0.2390
 6220SOL    HW130314   1.032   1.319   0.935  0.2897 -0.7134  1.4232
 6220SOL    HW230315   0.994   1.237   0.799 -2.1955  1.7848  0.5427
 6221SOL     OW30316   2.384   1.358   3.706 -0.2283 -0.0725 -0.3836
 6221SOL    HW130317   2.313   1.423   3.679 -1.2492 -1.4022 -0.9625
 6221SOL    HW230318   2.474   1.394   3.680 -0.7100  1.4201 -0.0487
 6222SOL     OW30319   0.789   9.720   6.405 -0.1768 -0.2396 -0.6119
 6222SOL    HW130320   0.848   9.668   6.466 -0.9782 -1.2079 -0.6460
 6222SOL    HW230321   0.724   9.774   6.459 -1.5753 -1.9003 -0.5945
 6223SOL     OW30322   0.709   5.203   8.018  0.2804 -0.3734  0.4183
 6223SOL    HW130323   0.798   5.237   7.987  1.5045 -2.4220  1.5413
 6223SOL    HW230324   0.690   5.239   8.110 -0.2863  0.4425 -0.0123
 6224SOL     OW30325   3.562   8.863   0.517 -0.0456 -0.3259  0.2187
 6224SOL    HW130326   3.526   8.932   0.453 -1.4691  0.1547  1.5250
 6224SOL    HW230327   3.510   8.865   0.602  2.2446 -0.4962  1.6929
 6225SOL     OW30328   2.251   8.469   5.442 -0.6606  0.2104 -0.0033
 6225SOL    HW130329   2.263   8.564   5.471 -0.0087  0.2396 -0.3646
 6225SOL    HW230330   2.319   8.446   5.373 -0.9462 -0.4627 -0.0689
 6226SOL     OW30331   4.813   5.093   1.630  0.6174  0.6624 -0.4764
 6226SOL    HW130332   4.905   5.084   1.592  0.8718 -1.4730  0.5343
 6226SOL    HW230333   4.764   5.006   1.620 -0.8883  1.4416 -0.0062
 6227SOL     OW30334   0.041   5.995   6.346 -0.4075 -0.2359  0.0837
 6227SOL    HW130335   0.009   6.018   6.254  1.1582 -1.0972 -0.6912
 6227SOL    HW230336   0.118   5.932   6.340 -0.0402  0.0011  1.9871
 6228SOL     OW30337   7.439   0.558   4.585  0.1854  0.0862 -0.3844
 6228SOL    HW130338   7.475   0.558   4.492  1.7336 -1.6398  0.1941
 6228SOL    HW230339   7.460   0.471   4.629 -0.9110  0.7180  1.4523
 6229SOL     OW30340   5.555   2.481   6.142 -0.5356 -0.0404 -0.0847
 6229SOL    HW130341   5.508   2.421   6.208 -0.2027 -1.4612 -1.1075
 6229SOL    HW230342   5.553   2.438   6.052  0.7670  0.9548 -0.5937
 6230SOL     OW30343   7.167   9.104   8.709  0.0662  0.2376  0.0435
 6230SOL    HW130344   7.226   9.136   8.636 -0.2565  0.5959 -0.0591
 6230SOL    HW230345   7.210   9.120   8.797  0.1572  0.4245 -0.0362
 6231SOL     OW30346   7.009   3.720   2.303 -0.1654 -0.1383 -0.4615
 6231SOL    HW130347   6.929   3.661   2.310 -0.3932  0.2655  0.3549
 6231SOL    HW230348   6.981   3.813   2.279  0.0509  0.0114 -0.1437
 6232SOL     OW30349   1.189   4.211   0.178 -0.3356 -0.0679 -0.2320
 6232SOL    HW130350   1.099   4.230   0.138  0.6021  2.6863 -1.1813
 6232SOL    HW230351   1.245   4.163   0.111 -0.1051  0.9549 -0.7874
 6233SOL     OW30352   7.449   9.426   4.839  0.3935 -0.1944 -0.1329
 6233SOL    HW130353   7.374   9.411   4.903  1.4048 -0.1208  1.0945
 6233SOL    HW230354   7.498   9.341   4.824  1.2128  0.1557  0.5406
 6234SOL     OW30355   2.375   4.186  10.080  0.0043 -0.4290  0.5566
 6234SOL    HW130356   2.301   4.184  10.148 -1.0241  2.7437 -0.3781
 6234SOL    HW230357   2.442   4.255  10.106  1.2297 -1.3832 -0.0400
 6235SOL     OW30358   8.622   1.176   6.706  0.4667 -0.1843  0.3135
 6235SOL    HW130359   8.594   1.157   6.800  0.4581  0.1252  0.3739
 6235SOL    HW230360   8.541   1.185   6.648  0.4992 -1.1937  0.1172
 6236SOL     OW30361   9.405   4.561  10.050 -0.1238 -0.5176 -0.0241
 6236SOL    HW130362   9.364   4.565   9.959 -1.1277  0.4862  0.4630
 6236SOL    HW230363   9.505   4.553  10.041 -0.3923 -2.7882 -1.1999
 6237SOL     OW30364   0.685   7.025   2.680 -0.4247  0.1230 -0.5228
 6237SOL    HW130365   0.706   7.023   2.778  0.2216 -2.4578 -0.6643
 6237SOL    HW230366   0.589   7.051   2.667 -0.9027 -0.8489  0.8902
 6238SOL     OW30367   2.080   0.539   4.888  0.4576  0.3271  0.3378
 6238SOL    HW130368   2.103   0.446   4.919 -2.1651 -0.9146 -1.2198
 6238SOL    HW230369   2.149   0.571   4.823  0.2264 -1.4601 -0.8179
 6239SOL     OW30370   4.070   1.124   7.108  0.4331  0.0548 -1.1261
 6239SOL    HW130371   4.115   1.079   7.186  1.1852 -0.6173 -1.9406
 6239SOL    HW230372   4.103   1.218   7.101 -2.1481  1.2021  1.4075
 6240SOL     OW30373   7.412   5.977   0.950 -0.2990 -0.1722  0.5499
 6240SOL    HW130374   7.340   5.950   0.886  0.4702 -0.1187 -0.3435
 6240SOL    HW230375   7.399   5.928   1.037 -0.0966 -1.9066 -0.3729
 6241SOL     OW30376   2.239   4.733   1.718 -0.5442 -0.1321  0.5523
 6241SOL    HW130377   2.149   4.765   1.688  0.2514  1.5160 -0.1300
 6241SOL    HW230378   2.260   4.773   1.807 -0.1362  0.1564  0.3283
 6242SOL     OW30379   2.048   5.699   4.708  0.1427 -0.2581 -0.5890
 6242SOL    HW130380   2.095   5.612   4.718  0.2323 -0.0574  0.9617
 6242SOL    HW230381   1.959   5.694   4.754  0.1978  0.4924 -0.3835
 6243SOL     OW30382   0.894   1.190   1.740  0.3335 -0.2746  0.6865
 6243SOL    HW130383   0.991   1.186   1.763  0.3238  0.0073  0.7731
 6243SOL    HW230384   0.842   1.217   1.821  0.1144 -1.0949  0.8221
 6244SOL     OW30385   9.802   0.688   0.401 -0.0209 -0.5966 -0.0214
 6244SOL    HW130386   9.898   0.665   0.420  0.2341 -0.3853 -1.0413
 6244SOL    HW230387   9.796   0.732   0.312 -1.0173 -0.2053  0.2431
 6245SOL     OW30388   2.761   6.584   1.162 -0.5817  0.0122  0.2895
 6245SOL    HW130389   2.796   6.637   1.084  0.5763 -0.7797  0.2651
 6245SOL    HW230390   2.824   6.509   1.183 -1.8768 -0.9742  0.7388
 6246SOL     OW30391   8.719   5.561   0.471 -0.1950 -0.0991 -0.0643
 6246SOL    HW130392   8.816   5.584   0.484  0.1183 -0.2886 -1.9857
 6246SOL    HW230393   8.711   5.486   0.406 -1.5602 -1.4159  1.5753
 6247SOL     OW30394   2.677   0.169   5.617 -0.0281 -0.1888 -0.0578
 6247SOL    HW130395   2.708   0.101   5.551 -0.9890 -0.2877 -0.4207
 6247SOL    HW230396   2.710   0.145   5.708  1.2750 -0.0700 -0.4971
 6248SOL     OW30397   0.917   9.712   5.018  0.3598  0.2911 -0.5029
 6248SOL    HW130398   0.956   9.796   4.979  1.9877  1.1023  2.6883
 6248SOL    HW230399   0.976   9.635   4.995 -0.3073  0.2639 -2.1510
 6249SOL     OW30400   7.408   0.689   3.159 -0.4322 -0.5092  0.0208
 6249SOL    HW130401   7.416   0.633   3.077 -1.2959  0.1447 -0.5312
 6249SOL    HW230402   7.467   0.770   3.150  0.5795 -1.1647  0.6810
 6250SOL     OW30403   0.588   5.941   3.960 -0.0020  0.4540  0.6375
 6250SOL    HW130404   0.524   5.947   3.884  0.1722 -0.4128  0.4231
 6250SOL    HW230405   0.552   5.881   4.031 -0.1977  1.3107  1.2846
 6251SOL     OW30406   2.136   6.740   2.544  0.0099  0.2977 -0.3653
 6251SOL    HW130407   2.098   6.648   2.555  1.2892 -0.2645 -0.5676
 6251SOL    HW230408   2.101   6.781   2.460  0.5851 -0.5914 -1.0485
 6252SOL     OW30409   1.048   4.013   4.035 -0.2428 -0.2855  0.1523
 6252SOL    HW130410   1.002   3.938   4.081  0.4329  0.5636  2.2677
 6252SOL    HW230411   1.145   3.990   4.022  0.0395  0.3421  1.1082
 6253SOL     OW30412   1.577   4.506   7.060 -0.0070  0.2238 -0.4305
 6253SOL    HW130413   1.667   4.534   7.095  0.0643 -1.5269  0.9035
 6253SOL    HW230414   1.584   4.485   6.963  0.9263  0.5829 -0.4476
 6254SOL     OW30415   7.286   7.723   6.677  0.3645 -0.0366  0.1571
 6254SOL    HW130416   7.296   7.625   6.663  0.3605 -0.2036  1.2359
 6254SOL    HW230417   7.250   7.766   6.594  0.2330 -0.9655 -0.2689
 6255SOL     OW30418   7.832   8.624   5.883 -0.5874  0.3441 -0.4131
 6255SOL    HW130419   7.809   8.574   5.966  1.3472  0.8267  0.4439
 6255SOL    HW230420   7.840   8.559   5.807 -1.6823 -0.1825 -0.0889
 6256SOL     OW30421   4.752   4.717   0.687  0.3591  0.4250 -0.2679
 6256SOL    HW130422   4.663   4.671   0.685 -0.3254  1.7384 -0.2686
 6256SOL    HW230423   4.824   4.650   0.670 -0.7245 -0.3824 -1.8289
 6257SOL     OW30424   6.725   0.457   2.593  0.1482  0.4713  0.2417
 6257SOL    HW130425   6.771   0.379   2.550 -1.8842 -0.9522  0.5430
 6257SOL    HW230426   6.671   0.506   2.524 -1.3207 -0.4766  0.6856
 6258SOL     OW30427   2.785   0.512   5.936  1.0199 -0.4654 -0.6164
 6258SOL    HW130428   2.791   0.455   5.855  0.9267  0.6655 -1.4348
 6258SOL    HW230429   2.702   0.568   5.932  0.8314 -0.6611  0.4302
 6259SOL     OW30430   8.461   3.713   2.453  0.1498  0.2059 -0.7648
 6259SOL    HW130431   8.427   3.702   2.359 -2.4125 -2.3597  0.3933
 6259SOL    HW230432   8.431   3.801   2.489 -0.7931  0.2235 -1.5652
 6260SOL     OW30433   8.986   5.431   1.339 -0.3690 -0.2718 -0.0798
 6260SOL    HW130434   9.045   5.464   1.266 -1.5087 -0.5269 -1.1413
 6260SOL    HW230435   8.920   5.503   1.363  0.9730  0.3847  1.7897
 6261SOL     OW30436   8.198   8.968   7.505 -0.4428  0.4171  0.1568
 6261SOL    HW130437   8.209   8.981   7.603 -0.2942  2.0207 -0.0519
 6261SOL    HW230438   8.120   9.022   7.473 -1.9795 -1.9793 -0.2199
 6262SOL     OW30439   8.973   5.494   3.115  0.8405 -0.4086  0.0676
 6262SOL    HW130440   8.915   5.418   3.086 -1.4850  0.5854  1.9832
 6262SOL    HW230441   9.033   5.520   3.039 -1.1728 -1.4876 -1.9556
 6263SOL     OW30442   8.755   3.186   5.497 -0.0580  0.1171  0.4087
 6263SOL    HW130443   8.719   3.159   5.587  1.0812  0.4081  0.9553
 6263SOL    HW230444   8.679   3.197   5.433 -0.7534 -1.6791  0.9066
 6264SOL     OW30445   5.998   1.703   5.214  0.7614  0.2036 -0.1442
 6264SOL    HW130446   6.089   1.704   5.172 -0.2258  1.7842 -2.3523
 6264SOL    HW230447   5.941   1.774   5.171 -1.6575 -1.0912  0.8543
 6265SOL     OW30448   3.558   0.894   4.200 -0.2598 -0.3789 -0.2839
 6265SOL    HW130449   3.472   0.845   4.184 -0.3376 -0.6085  0.7924
 6265SOL    HW230450   3.595   0.868   4.289  1.3517 -0.9015 -1.0880
 6266SOL     OW30451   3.223   8.677   1.433 -0.2681 -0.9479 -0.0705
 6266SOL    HW130452   3.302   8.656   1.375  0.8689 -1.9464  1.7984
 6266SOL    HW230453   3.213   8.607   1.503 -1.8036  0.0787  0.7737
 6267SOL     OW30454   7.397   0.834   4.343  0.2232 -0.3854  0.6406
 6267SOL    HW130455   7.456   0.768   4.296  1.6214  3.0439 -2.7207
 6267SOL    HW230456   7.309   0.840   4.295  0.8854  1.6219 -0.4002
 6268SOL     OW30457   5.901   2.579   4.649 -0.0155  0.1878  0.9502
 6268SOL    HW130458   5.824   2.605   4.706 -0.6866  0.0775  0.0936
 6268SOL    HW230459   5.938   2.492   4.681 -1.9803 -1.1536 -0.3417
 6269SOL     OW30460   0.460   1.553   1.942  0.2579 -0.2996  0.8192
 6269SOL    HW130461   0.500   1.480   1.887  0.2327  0.2135  0.1156
 6269SOL    HW230462   0.533   1.603   1.989  0.3390 -0.2471  0.6378
 6270SOL     OW30463   1.836   7.489   7.028  0.0976  0.6569  0.2854
 6270SOL    HW130464   1.803   7.408   7.075  2.0603 -0.7892 -0.7355
 6270SOL    HW230465   1.815   7.571   7.081 -0.7981 -0.6402  1.9347
 6271SOL     OW30466   5.426   5.107   1.342  0.0765 -0.3820  0.2354
 6271SOL    HW130467   5.327   5.095   1.350  0.2794 -1.5023  1.0751
 6271SOL    HW230468   5.458   5.170   1.412 -0.1552  0.6648 -0.5814
 6272SOL     OW30469   8.575   5.106   4.811 -0.4403 -0.0268  0.0227
 6272SOL    HW130470   8.529   5.190   4.840  0.4832  0.2665  0.6133
 6272SOL    HW230471   8.631   5.125   4.730 -0.3526 -0.1118  0.0643
 6273SOL     OW30472   3.808   8.547   5.395 -0.2031 -0.6297  0.2548
 6273SOL    HW130473   3.786   8.480   5.466 -1.9630 -0.0019  0.3092
 6273SOL    HW230474   3.886   8.602   5.425 -0.6751 -0.6351  1.5236
 6274SOL     OW30475   5.015   7.783   2.736 -0.0654 -0.1330 -0.2218
 6274SOL    HW130476   5.034   7.797   2.833  1.3038  0.3578 -0.5415
 6274SOL    HW230477   4.917   7.795   2.719 -0.3395 -0.3499  1.1135
 6275SOL     OW30478   8.494   5.953   3.381 -0.5706  0.1824  0.2974
 6275SOL    HW130479   8.454   5.935   3.291 -2.5373  1.5259  0.8821
 6275SOL    HW230480   8.500   5.868   3.433 -0.3027 -0.4388 -0.7356
 6276SOL     OW30481   2.145   6.127   5.164 -0.4677  0.4739 -1.0283
 6276SOL    HW130482   2.232   6.083   5.144 -0.9798 -0.7102 -0.6712
 6276SOL    HW230483   2.086   6.122   5.083 -1.9149 -2.8378  0.1429
 6277SOL     OW30484   5.659   8.570   7.728  0.0242  0.0098 -0.1884
 6277SOL    HW130485   5.624   8.484   7.691 -0.6028 -0.0668  0.5717
 6277SOL    HW230486   5.635   8.645   7.666  0.2330 -0.3071 -0.6550
 6278SOL     OW30487   6.609   2.071   3.661  0.8582 -0.1243 -0.4438
 6278SOL    HW130488   6.591   1.973   3.663  1.8275 -0.3224 -1.1907
 6278SOL    HW230489   6.574   2.110   3.576  1.7763 -0.0743 -0.7955
 6279SOL     OW30490   0.221   6.536   4.497  0.4315  0.2577  0.0773
 6279SOL    HW130491   0.220   6.491   4.408 -0.7352 -0.2505  0.3391
 6279SOL    HW230492   0.127   6.547   4.530  0.7136  2.5028  0.2112
 6280SOL     OW30493   6.761   0.360   3.076 -0.1557 -0.0207  0.1594
 6280SOL    HW130494   6.835   0.428   3.078 -0.3552  0.2136 -0.3627
 6280SOL    HW230495   6.782   0.289   3.009 -0.5837  0.2515 -0.2635
 6281SOL     OW30496   3.290   1.364   7.468 -0.2419 -0.0955  0.2831
 6281SOL    HW130497   3.225   1.432   7.435 -0.8268 -0.4362  0.7126
 6281SOL    HW230498   3.381   1.404   7.476 -0.6072  0.6638  0.6421
 6282SOL     OW30499   4.009   8.128   6.216  0.1612  0.5678 -0.2611
 6282SOL    HW130500   3.961   8.126   6.128 -2.2001 -0.0086  1.0099
 6282SOL    HW230501   4.090   8.069   6.210  0.3409  0.9683 -2.2100
 6283SOL     OW30502   9.860   2.531   2.661  0.1098  0.5936 -0.4236
 6283SOL    HW130503   9.945   2.498   2.701  1.2017  2.1514 -1.3957
 6283SOL    HW230504   9.807   2.453   2.626  0.3359 -0.5315  1.6753
 6284SOL     OW30505   3.270   5.402   5.311 -0.1652  0.3853 -0.2257
 6284SOL    HW130506   3.356   5.453   5.315  0.3819 -0.4865 -0.7282
 6284SOL    HW230507   3.206   5.440   5.377  0.5543  1.1347  0.0548
 6285SOL     OW30508   2.341   3.096   5.598 -0.6607  0.1970 -0.2613
 6285SOL    HW130509   2.352   2.999   5.620  2.5912  0.3982 -0.7668
 6285SOL    HW230510   2.281   3.139   5.666 -1.8079 -2.0639  0.1949
 6286SOL     OW30511   6.693   4.341   1.421  0.0588 -0.1361 -0.0254
 6286SOL    HW130512   6.754   4.373   1.494 -0.6136 -1.6954  1.2400
 6286SOL    HW230513   6.740   4.273   1.366  0.4922  0.8843 -0.9290
 6287SOL     OW30514   2.396   2.525   3.269  0.1662  0.0610 -0.4154
 6287SOL    HW130515   2.299   2.514   3.291  0.1478  2.7928  1.1355
 6287SOL    HW230516   2.408   2.606   3.211  1.4203 -0.8098 -1.3994
 6288SOL     OW30517   8.826   9.283   2.043  0.1539  0.5710  0.7235
 6288SOL    HW130518   8.760   9.350   2.008  0.9455  1.1823  0.3795
 6288SOL    HW230519   8.792   9.246   2.129 -0.4062  1.2581  0.8099
 6289SOL     OW30520   2.827   7.572   5.743 -0.1292  0.3533 -0.3959
 6289SOL    HW130521   2.731   7.599   5.740 -0.7130 -1.4674  1.0155
 6289SOL    HW230522   2.863   7.589   5.835  1.3648  2.4427 -1.3070
 6290SOL     OW30523   0.816   3.197   3.586  0.9384  0.3590  0.1877
 6290SOL    HW130524   0.909   3.183   3.553  1.0231 -0.4422  0.7426
 6290SOL    HW230525   0.787   3.117   3.639 -0.9082 -0.4413 -1.9385
 6291SOL     OW30526   8.770   5.016   3.197 -0.0877 -0.0486  0.1023
 6291SOL    HW130527   8.820   5.098   3.221 -0.1003 -0.0326  0.0755
 6291SOL    HW230528   8.824   4.935   3.219 -0.5057 -0.0599  1.1228
 6292SOL     OW30529   9.396   2.545   5.751  0.0461 -0.2782  0.0864
 6292SOL    HW130530   9.372   2.542   5.848 -1.8125  1.9703 -0.2820
 6292SOL    HW230531   9.494   2.564   5.741  0.0910  0.2420  1.5065
 6293SOL     OW30532   2.137   3.205   7.784 -0.7063 -0.6776  0.6473
 6293SOL    HW130533   2.039   3.189   7.781 -0.7131 -0.5471 -0.0332
 6293SOL    HW230534   2.159   3.271   7.856 -1.1846 -0.2480  0.4029
 6294SOL     OW30535   3.327   2.139   5.469 -0.2548 -0.1635  0.2074
 6294SOL    HW130536   3.346   2.071   5.541 -1.0523  0.7283  1.2717
 6294SOL    HW230537   3.405   2.200   5.459 -1.0770  1.2526  2.0705
 6295SOL     OW30538   0.796   7.483   0.139  0.4807 -0.6668 -0.2974
 6295SOL    HW130539   0.743   7.399   0.130 -2.1252  0.7719  0.9968
 6295SOL    HW230540   0.736   7.562   0.125  2.7726  1.0189 -1.0428
 6296SOL     OW30541   5.342   0.509   3.747  0.4386  0.1446 -0.2768
 6296SOL    HW130542   5.274   0.582   3.744 -0.3688 -0.6091 -0.3744
 6296SOL    HW230543   5.428   0.543   3.708  0.0120  0.9804 -0.5121
 6297SOL     OW30544   9.668   1.048   0.755 -0.2198 -0.1133  0.2313
 6297SOL    HW130545   9.702   1.127   0.807  1.7017  0.2871 -1.5751
 6297SOL    HW230546   9.729   0.970   0.769 -1.1668 -0.7811  0.6577
 6298SOL     OW30547   5.517   9.548   4.931 -0.5388 -0.2203  0.4978
 6298SOL    HW130548   5.594   9.549   4.995 -0.3060 -0.9277  0.2384
 6298SOL    HW230549   5.532   9.617   4.860  0.6336 -1.4330 -0.4469
 6299SOL     OW30550   9.379   7.365   1.065  0.0591  0.3769 -0.2319
 6299SOL    HW130551   9.288   7.394   1.096 -1.1187 -1.7247 -1.5347
 6299SOL    HW230552   9.422   7.309   1.136 -0.0823  0.5762  0.0100
 6300SOL     OW30553   6.418   9.102   5.719 -0.0073 -0.1865  0.0770
 6300SOL    HW130554   6.396   9.035   5.648 -0.6092  0.4219 -0.3206
 6300SOL    HW230555   6.463   9.056   5.796 -3.2649 -1.6253  1.2227
 6301SOL     OW30556   1.952   7.358   7.318 -0.0395  0.0094  0.0744
 6301SOL    HW130557   1.935   7.444   7.269  1.3928  1.3921  1.9175
 6301SOL    HW230558   1.988   7.378   7.409 -0.4401 -2.5543  0.8400
 6302SOL     OW30559   0.295   9.929   2.938  0.4336 -0.4418  0.1867
 6302SOL    HW130560   0.280  10.023   2.968  1.0331  0.3472 -1.8490
 6302SOL    HW230561   0.209   9.878   2.944  0.1149  0.2246  1.3591
 6303SOL     OW30562   2.438   6.474   6.717 -0.1160  0.2320  0.4416
 6303SOL    HW130563   2.536   6.486   6.735  0.0087  0.6480 -0.4718
 6303SOL    HW230564   2.425   6.407   6.643 -0.5225  0.0889  0.6399
 6304SOL     OW30565   0.168   4.252   4.069 -0.0650  0.4551  0.0937
 6304SOL    HW130566   0.143   4.176   4.008  0.4139  0.3960 -0.0326
 6304SOL    HW230567   0.134   4.338   4.031 -0.1852  0.3609 -0.0117
 6305SOL     OW30568   4.664   7.831   5.666  0.2171  0.0764  0.0627
 6305SOL    HW130569   4.602   7.907   5.685  0.2350 -0.0139  0.4792
 6305SOL    HW230570   4.612   7.755   5.628 -0.2426 -0.6783  2.1414
 6306SOL     OW30571   1.757   0.811   0.314 -0.1652  0.6869  0.2860
 6306SOL    HW130572   1.797   0.732   0.268  0.7888  0.9408  0.6515
 6306SOL    HW230573   1.698   0.781   0.389 -1.2171  0.2889 -0.6982
 6307SOL     OW30574   1.630   1.379   6.327  0.0449 -0.0341  0.0140
 6307SOL    HW130575   1.697   1.451   6.346  1.6113 -1.9451  1.9956
 6307SOL    HW230576   1.657   1.330   6.244  0.7888 -0.4518  0.5033
 6308SOL     OW30577   5.794   8.855   6.692 -0.0478  0.5817  0.4402
 6308SOL    HW130578   5.759   8.772   6.736  1.7468 -0.3728  0.0922
 6308SOL    HW230579   5.807   8.837   6.594 -1.3947  1.8601  0.0055
 6309SOL     OW30580   9.754   7.140   7.210  0.5658 -0.4045 -0.2639
 6309SOL    HW130581   9.668   7.151   7.161 -0.6001 -0.6352  1.6814
 6309SOL    HW230582   9.817   7.083   7.156 -0.4407 -0.1474 -1.7325
 6310SOL     OW30583   2.594   2.701   5.085  0.2949 -0.6774 -0.0265
 6310SOL    HW130584   2.502   2.736   5.069 -0.4161 -2.2486  0.5381
 6310SOL    HW230585   2.627   2.732   5.174  0.1645 -0.4436 -0.0581
 6311SOL     OW30586   2.108   7.718   6.565  0.6742 -0.4187 -0.0823
 6311SOL    HW130587   2.152   7.712   6.655  0.1527 -0.2051  0.1976
 6311SOL    HW230588   2.100   7.627   6.525 -1.6546 -0.9201  1.3712
 6312SOL     OW30589   5.698   2.868   4.924  0.3096 -0.0519  0.5886
 6312SOL    HW130590   5.750   2.949   4.896  0.0476  0.4123  1.4167
 6312SOL    HW230591   5.735   2.833   5.011  0.7708 -1.1519 -0.0420
 6313SOL     OW30592   3.025   6.359   6.774 -0.3373  0.0889 -0.4002
 6313SOL    HW130593   3.005   6.408   6.858 -1.0731 -1.2042  0.1972
 6313SOL    HW230594   2.957   6.382   6.704 -0.7871 -0.2233 -0.0649
 6314SOL     OW30595   3.064   3.954   3.134 -0.1113  0.2437 -0.1884
 6314SOL    HW130596   3.141   3.995   3.083  0.9342 -0.5858  0.6971
 6314SOL    HW230597   2.984   4.012   3.124  1.1834  2.2248  0.5718
 6315SOL     OW30598   4.217   1.276   1.518  0.0747  0.2321  0.3365
 6315SOL    HW130599   4.191   1.205   1.452 -0.5129  1.1458 -0.4455
 6315SOL    HW230600   4.246   1.357   1.468 -0.3208  0.9131  1.2068
 6316SOL     OW30601   2.152   4.894   4.546  0.1862  0.2163 -0.2913
 6316SOL    HW130602   2.099   4.837   4.483  0.2173  0.1512 -0.2585
 6316SOL    HW230603   2.180   4.978   4.500  0.6825 -0.0796 -0.5342
 6317SOL     OW30604   2.657   8.865   0.987 -0.3342  0.0033 -0.4441
 6317SOL    HW130605   2.647   8.768   1.010  2.9303  0.3187  2.9130
 6317SOL    HW230606   2.747   8.879   0.944 -0.3697  1.6595  0.0040
 6318SOL     OW30607   1.953   4.222   6.964  0.0946 -0.1039 -0.4092
 6318SOL    HW130608   1.975   4.289   7.035 -2.2440 -1.0600  1.2860
 6318SOL    HW230609   1.869   4.250   6.917  1.8076  0.7128 -3.1217
 6319SOL     OW30610   9.375   6.001   5.080  0.0520 -0.3903 -0.0356
 6319SOL    HW130611   9.279   6.022   5.061  0.0111 -1.1773 -0.7002
 6319SOL    HW230612   9.398   5.912   5.041  1.2850  0.1811 -0.6381
 6320SOL     OW30613   9.365   2.936   6.950 -0.3215 -0.1531  0.3870
 6320SOL    HW130614   9.438   2.876   6.980  0.2528 -0.2030 -1.0491
 6320SOL    HW230615   9.348   2.922   6.852 -1.2331  0.9149  0.3709
 6321SOL     OW30616   3.803   0.674   2.809  0.0856  0.2786 -0.0242
 6321SOL    HW130617   3.715   0.716   2.788 -0.9610 -1.3891  0.8384
 6321SOL    HW230618   3.798   0.629   2.899  1.0772 -1.8004 -0.9666
 6322SOL     OW30619   1.204   8.997   0.605  0.2795  0.3109 -0.5740
 6322SOL    HW130620   1.205   9.070   0.673 -0.4564  0.0298 -0.2543
 6322SOL    HW230621   1.185   9.035   0.515 -0.0554  0.5238 -0.4148
 6323SOL     OW30622   1.142   0.511   6.766  0.4900 -0.2294 -0.7311
 6323SOL    HW130623   1.172   0.468   6.851  0.2180  0.8730 -0.0638
 6323SOL    HW230624   1.069   0.577   6.786 -1.1331 -1.5723 -2.0980
 6324SOL     OW30625   2.964   4.102   2.194  0.4029  0.5431 -0.5939
 6324SOL    HW130626   3.030   4.053   2.251 -1.3488 -1.5377 -0.2799
 6324SOL    HW230627   2.981   4.081   2.098 -0.5977 -1.0730 -0.4402
 6325SOL     OW30628   0.158   5.959   0.836 -0.1649 -0.0766 -0.1370
 6325SOL    HW130629   0.150   5.859   0.834  0.4069 -0.1897  1.9197
 6325SOL    HW230630   0.225   5.985   0.906 -1.1146  1.7954  0.0929
 6326SOL     OW30631   0.162   1.689   5.385 -0.3348  0.0384  0.1110
 6326SOL    HW130632   0.230   1.761   5.388 -1.2615  0.8865  1.3152
 6326SOL    HW230633   0.170   1.639   5.299  0.9301  0.9636 -0.3209
 6327SOL     OW30634   1.008   6.561   0.953 -0.2105  0.4751 -0.2243
 6327SOL    HW130635   1.074   6.632   0.977  0.0449  0.3521 -0.5548
 6327SOL    HW230636   1.056   6.483   0.913 -0.2690 -0.6365  1.7783
 6328SOL     OW30637   2.214   9.494   5.297  0.7198  0.0094 -0.1963
 6328SOL    HW130638   2.256   9.549   5.224 -0.6419  0.9879 -0.2632
 6328SOL    HW230639   2.141   9.438   5.258  1.3842 -1.0479  0.0670
 6329SOL     OW30640   9.412   5.981   6.875 -0.2245  0.0811  0.3982
 6329SOL    HW130641   9.351   6.055   6.904 -0.2568  0.6005 -0.9645
 6329SOL    HW230642   9.444   5.931   6.956  0.5594  2.1767  1.4318
 6330SOL     OW30643   1.317   8.811   5.289  0.0144 -0.4567 -0.4548
 6330SOL    HW130644   1.388   8.877   5.266  0.6403 -0.3143  1.7850
 6330SOL    HW230645   1.360   8.722   5.307 -0.1591 -0.0405  2.2858
 6331SOL     OW30646   5.717   5.214   2.476 -0.2674  0.0650  0.2947
 6331SOL    HW130647   5.716   5.313   2.485 -0.1291  0.0842  0.1011
 6331SOL    HW230648   5.799   5.178   2.520 -0.2115  0.0542  0.1820
 6332SOL     OW30649   8.454   8.262   2.109  0.3959 -0.2235  0.4251
 6332SOL    HW130650   8.383   8.222   2.167  1.2494 -0.7212  1.1514
 6332SOL    HW230651   8.415   8.334   2.052 -0.7356 -0.6723  0.6285
 6333SOL     OW30652   1.515   3.735   3.055 -0.4359  0.1128 -0.3977
 6333SOL    HW130653   1.430   3.757   3.103  0.5259  1.8868  0.5590
 6333SOL    HW230654   1.512   3.775   2.963 -0.1820  1.1494  0.0389
 6334SOL     OW30655   4.781   3.730   6.995 -0.2784 -0.6154 -0.1138
 6334SOL    HW130656   4.725   3.651   7.018 -2.3899  1.9514  4.2686
 6334SOL    HW230657   4.878   3.707   7.004 -0.7259 -3.4887 -2.0232
 6335SOL     OW30658   3.724   6.731   0.587 -0.3047 -0.1122  1.0760
 6335SOL    HW130659   3.748   6.824   0.557 -1.6344  0.5435  1.9960
 6335SOL    HW230660   3.626   6.727   0.608 -0.5386 -2.0924 -0.2593
 6336SOL     OW30661   8.503   6.011   1.448 -0.3694 -0.3807 -0.1973
 6336SOL    HW130662   8.515   6.044   1.542  0.3253 -0.5711 -0.2151
 6336SOL    HW230663   8.416   6.045   1.411 -0.2834  0.3277  0.2450
 6337SOL     OW30664   8.723   4.148   1.891 -0.0976  0.7013  0.1729
 6337SOL    HW130665   8.742   4.234   1.939  1.3508 -0.5426  1.9139
 6337SOL    HW230666   8.658   4.094   1.944  1.0014 -0.3923  0.4410
 6338SOL     OW30667   7.054   2.800   4.463 -0.4514  0.1260 -0.2629
 6338SOL    HW130668   6.984   2.793   4.392  0.1603  1.0178 -0.9632
 6338SOL    HW230669   7.043   2.887   4.512 -0.1206  0.0637 -0.0780
 6339SOL     OW30670   3.250   6.215   4.781  0.1522 -0.1414  1.0129
 6339SOL    HW130671   3.278   6.158   4.704 -1.2754 -2.0271  1.8379
 6339SOL    HW230672   3.268   6.166   4.867 -1.3054  0.5385  1.7297
 6340SOL     OW30673   1.459   5.701  10.025 -0.8736 -0.0228  0.0141
 6340SOL    HW130674   1.429   5.793  10.001  0.9396  0.7811  0.7651
 6340SOL    HW230675   1.554   5.688   9.997 -1.1426 -1.7000 -0.1668
 6341SOL     OW30676   3.141   5.556   7.464 -0.0639  0.5627  0.0148
 6341SOL    HW130677   3.106   5.637   7.510 -1.8827 -0.5657  0.6544
 6341SOL    HW230678   3.110   5.555   7.369  2.8517  2.3714 -1.0067
 6342SOL     OW30679   4.394   6.322   2.772 -0.5045  0.2546 -0.0951
 6342SOL    HW130680   4.445   6.351   2.853 -2.0014  1.5237  0.4304
 6342SOL    HW230681   4.456   6.320   2.693  1.6333 -3.8242  1.5728
 6343SOL     OW30682   7.063   5.205   0.297 -0.2617  0.4499  0.4872
 6343SOL    HW130683   7.160   5.226   0.291 -0.4811  1.5569  0.6534
 6343SOL    HW230684   7.010   5.283   0.263 -1.1185  0.4700  1.8245
 6344SOL     OW30685   8.144   4.601   5.978  0.8103 -0.1479  0.4607
 6344SOL    HW130686   8.153   4.560   6.069  0.7787  1.5769  1.2578
 6344SOL    HW230687   8.213   4.673   5.967 -0.6503  1.2025 -0.0058
 6345SOL     OW30688   9.477   7.125   1.624  0.5373  0.0776  0.2077
 6345SOL    HW130689   9.575   7.129   1.606  0.6957  0.2966  1.1273
 6345SOL    HW230690   9.459   7.063   1.700 -0.0079  0.3390  0.2951
 6346SOL     OW30691   0.150   3.842   7.515 -0.1951 -0.0415 -0.1318
 6346SOL    HW130692   0.108   3.818   7.427 -2.3675 -3.1209  1.6813
 6346SOL    HW230693   0.079   3.866   7.581  1.2008 -0.8801  1.7070
 6347SOL     OW30694   1.541   7.400   0.737 -0.2118  0.2813 -0.0812
 6347SOL    HW130695   1.542   7.498   0.757 -0.9172  0.3159 -0.2120
 6347SOL    HW230696   1.601   7.383   0.658  1.6583  0.2918  1.2929
 6348SOL     OW30697   4.392   3.189   1.000 -0.0307  0.0311 -0.2974
 6348SOL    HW130698   4.360   3.252   0.929  0.6855  0.7560  0.0151
 6348SOL    HW230699   4.347   3.212   1.087  1.7247  1.4330  0.2800
 6349SOL     OW30700   4.850   7.114   0.420 -0.0739 -0.2574 -0.2114
 6349SOL    HW130701   4.891   7.052   0.353 -0.2661  0.9915 -1.5190
 6349SOL    HW230702   4.853   7.072   0.511  1.7983 -1.2365 -0.6931
 6350SOL     OW30703   2.558   7.308   1.500  0.5635  0.4816  0.1203
 6350SOL    HW130704   2.533   7.288   1.405 -0.0284 -0.3179  0.4317
 6350SOL    HW230705   2.539   7.404   1.520 -0.0209  0.4682 -0.3481
 6351SOL     OW30706   2.475   2.448   7.485  0.1023  0.4736 -0.0002
 6351SOL    HW130707   2.450   2.352   7.475 -1.9526  0.8945  0.9039
 6351SOL    HW230708   2.539   2.458   7.561 -0.4172 -0.0585  0.5090
 6352SOL     OW30709   8.532   6.725   2.718  0.0726 -0.3532  0.1483
 6352SOL    HW130710   8.624   6.700   2.748  0.2538 -0.7944 -0.7674
 6352SOL    HW230711   8.487   6.645   2.679  0.0946  0.3767 -1.4004
 6353SOL     OW30712   6.534   1.951   7.286  0.7461 -0.2023  0.4377
 6353SOL    HW130713   6.631   1.966   7.307  0.2867  2.7255  0.6281
 6353SOL    HW230714   6.514   1.985   7.194 -0.6627  1.8422  1.4572
 6354SOL     OW30715   9.893   5.480   6.702  0.1168  0.0049 -0.2056
 6354SOL    HW130716   9.960   5.554   6.690 -1.7728  1.8264  0.1414
 6354SOL    HW230717   9.856   5.454   6.613  0.6938 -0.4650 -0.3154
 6355SOL     OW30718   6.874   9.485   7.528 -0.3279  0.2336 -0.0868
 6355SOL    HW130719   6.787   9.528   7.551 -1.4199 -1.8935 -0.0619
 6355SOL    HW230720   6.883   9.481   7.428 -0.2316  0.4998 -0.0893
 6356SOL     OW30721   0.559   6.210   5.660 -0.4502 -0.2538 -0.0229
 6356SOL    HW130722   0.594   6.120   5.686 -2.5576 -0.0672  3.7645
 6356SOL    HW230723   0.633   6.267   5.625  1.6789 -2.0739  1.4398
 6357SOL     OW30724   3.959   2.482   5.557  0.6786 -0.2780  0.0036
 6357SOL    HW130725   3.905   2.417   5.503 -0.7613  2.0936 -1.4905
 6357SOL    HW230726   4.046   2.500   5.511  0.5682 -0.2484 -0.1941
 6358SOL     OW30727   8.435   5.116   2.577 -0.2038  0.4211  0.1462
 6358SOL    HW130728   8.397   5.030   2.610  2.4593 -1.5476 -1.6898
 6358SOL    HW230729   8.482   5.163   2.652  0.1712 -0.7945  0.6854
 6359SOL     OW30730   2.090   5.961   0.428  0.1138  0.3070  0.3060
 6359SOL    HW130731   2.154   5.917   0.365 -1.3753 -1.2853 -0.1410
 6359SOL    HW230732   2.106   5.930   0.521  0.0942  0.0135  0.2120
 6360SOL     OW30733   3.427   8.597   4.623 -0.0806  0.0740 -0.7658
 6360SOL    HW130734   3.358   8.604   4.551  0.0546 -0.1139 -0.9149
 6360SOL    HW230735   3.387   8.624   4.710  0.0688  1.4289 -1.1045
 6361SOL     OW30736   5.944   7.494   6.027  0.0814  0.1925 -0.2658
 6361SOL    HW130737   5.846   7.480   6.035  0.0799  0.6650  0.5076
 6361SOL    HW230738   5.962   7.563   5.956 -0.1373  0.0080 -0.5006
 6362SOL     OW30739   8.854   0.232   1.893  0.0379 -0.2217 -0.1579
 6362SOL    HW130740   8.868   0.164   1.821 -1.2463 -0.1717 -0.4717
 6362SOL    HW230741   8.864   0.188   1.983  2.2719 -0.1504 -0.3454
 6363SOL     OW30742   0.208   9.690   0.541  0.2282  0.6048  0.0054
 6363SOL    HW130743   0.160   9.683   0.453  0.6802  1.5785 -0.3305
 6363SOL    HW230744   0.238   9.600   0.570 -1.5104  0.0164  0.0552
 6364SOL     OW30745   8.519   6.016   6.366  0.0446 -0.4727 -0.0764
 6364SOL    HW130746   8.536   5.946   6.436  1.5709  1.4287  1.4937
 6364SOL    HW230747   8.604   6.038   6.319 -0.6844 -0.6116 -1.4861
 6365SOL     OW30748   9.494   1.559   6.581 -0.6289  0.4516 -0.6256
 6365SOL    HW130749   9.540   1.645   6.603 -2.7661  1.5553 -0.3335
 6365SOL    HW230750   9.547   1.509   6.513  0.8436  1.8036 -0.4942
 6366SOL     OW30751   6.947   4.637   3.011  0.0441  0.5058 -0.1520
 6366SOL    HW130752   6.917   4.549   2.973  3.8722 -1.5157  1.2559
 6366SOL    HW230753   6.920   4.711   2.948 -1.5709 -1.8350 -2.3210
 6367SOL     OW30754   5.675   7.505   1.839 -0.1961 -0.0010 -1.2852
 6367SOL    HW130755   5.743   7.447   1.883  0.3579  1.5217 -0.1125
 6367SOL    HW230756   5.587   7.458   1.838  0.0207 -0.4721  0.5182
 6368SOL     OW30757   0.195   0.676   7.130  0.5791  0.2850 -0.3452
 6368SOL    HW130758   0.144   0.614   7.189 -3.3734  0.4317 -3.4104
 6368SOL    HW230759   0.290   0.644   7.120 -0.8622 -4.2067 -0.3803
 6369SOL     OW30760   6.403   1.902   4.860 -0.4478  0.0951 -0.0213
 6369SOL    HW130761   6.388   1.924   4.956  0.4974 -0.4884  0.2558
 6369SOL    HW230762   6.434   1.807   4.851  0.9167  0.6016 -0.7770
 6370SOL     OW30763   2.343   8.812   6.282 -0.1646 -0.0944 -0.2272
 6370SOL    HW130764   2.359   8.792   6.379  2.1171  1.7839 -0.1573
 6370SOL    HW230765   2.303   8.903   6.274 -0.2896 -0.2202 -1.0624
 6371SOL     OW30766   9.301   4.353   3.690  0.1435  0.4978 -0.1114
 6371SOL    HW130767   9.299   4.291   3.611 -1.0742 -1.3396  1.3347
 6371SOL    HW230768   9.210   4.393   3.703  0.1085  0.0978  0.8976
 6372SOL     OW30769   9.190   0.406   8.094  0.4473  0.1377 -0.1645
 6372SOL    HW130770   9.183   0.493   8.045 -0.5894  0.5982  0.7859
 6372SOL    HW230771   9.112   0.348   8.072  0.0587  0.2817  0.8115
 6373SOL     OW30772   0.603   0.234   2.653 -0.1578 -0.2266 -0.0127
 6373SOL    HW130773   0.650   0.229   2.741 -0.9174 -1.0801  0.3510
 6373SOL    HW230774   0.650   0.300   2.594  0.6619 -0.0350  0.8397
 6374SOL     OW30775   5.754   8.932   3.674  0.5391  0.2604 -0.5229
 6374SOL    HW130776   5.813   8.854   3.696 -0.9801 -0.4596  1.0897
 6374SOL    HW230777   5.658   8.903   3.673 -0.0898  2.2068  0.5972
 6375SOL     OW30778   1.936   7.486   5.914  0.4272 -0.3691 -0.4806
 6375SOL    HW130779   1.947   7.499   5.815 -1.7433  1.1652 -0.5647
 6375SOL    HW230780   1.874   7.556   5.949  1.9080 -0.3371  2.1431
 6376SOL     OW30781   6.851   1.551   6.281 -0.2259  0.5548 -0.1164
 6376SOL    HW130782   6.917   1.618   6.314  1.4817 -0.6370 -1.0019
 6376SOL    HW230783   6.884   1.458   6.302 -3.1095 -0.0256  2.1505
 6377SOL     OW30784   6.839   9.587   6.248 -0.5740 -0.1101 -0.2395
 6377SOL    HW130785   6.764   9.617   6.306  0.7622  2.9522  0.0045
 6377SOL    HW230786   6.892   9.517   6.295 -0.8191  0.7551  1.3522
 6378SOL     OW30787   5.380   4.525   0.094  0.3666 -0.2823 -0.1934
 6378SOL    HW130788   5.389   4.551   0.190  0.0263  0.4706 -0.3656
 6378SOL    HW230789   5.324   4.593   0.045  2.1808  0.3841 -1.3768
 6379SOL     OW30790   2.768   3.203   3.668  0.4491  0.0444  0.1031
 6379SOL    HW130791   2.712   3.217   3.749  0.1646  1.3118 -0.3138
 6379SOL    HW230792   2.710   3.198   3.587  0.6401 -2.1805  0.0518
 6380SOL     OW30793   5.299   7.718   1.685  0.2215 -0.3623  0.1979
 6380SOL    HW130794   5.329   7.796   1.629 -0.0206 -0.8615 -0.6434
 6380SOL    HW230795   5.285   7.639   1.626  0.7808 -1.1354  1.1060
 6381SOL     OW30796   1.701   7.715   3.415  0.5151 -0.0916  0.0300
 6381SOL    HW130797   1.784   7.697   3.362 -0.6392 -2.3654 -1.0488
 6381SOL    HW230798   1.621   7.685   3.364 -0.9657  1.5465  1.3070
 6382SOL     OW30799   7.793   2.532   0.293  0.5552 -0.1695  0.1408
 6382SOL    HW130800   7.762   2.592   0.366 -2.4058 -0.6076 -0.6890
 6382SOL    HW230801   7.775   2.576   0.205  0.3197 -1.3861 -0.4173
 6383SOL     OW30802   8.582   6.406   0.221 -0.1756  0.3857  0.3909
 6383SOL    HW130803   8.500   6.462   0.231 -1.1708 -0.6854 -1.5649
 6383SOL    HW230804   8.557   6.316   0.184  1.8355 -0.0314 -0.0004
 6384SOL     OW30805   2.265   5.225   1.683 -0.6156  0.4550  0.2394
 6384SOL    HW130806   2.359   5.240   1.714 -0.2820 -0.9851 -0.0398
 6384SOL    HW230807   2.210   5.189   1.758 -1.3699  2.8469  0.8629
 6385SOL     OW30808   1.457   2.791   7.607 -0.0907 -0.1476  0.1761
 6385SOL    HW130809   1.414   2.755   7.690  1.2192  1.5046  1.5896
 6385SOL    HW230810   1.496   2.715   7.555 -0.2207 -1.1162  1.4600
 6386SOL     OW30811   4.816   8.935   3.261  0.7620 -0.1392  0.3873
 6386SOL    HW130812   4.784   8.949   3.167  0.7581 -2.5644 -0.0180
 6386SOL    HW230813   4.914   8.915   3.260  1.3856  2.6721  1.2013
 6387SOL     OW30814   8.258   7.583   1.992  0.3075 -0.2251  0.3425
 6387SOL    HW130815   8.235   7.520   2.067  0.5626  0.6386  1.1503
 6387SOL    HW230816   8.332   7.543   1.938 -0.1848 -1.0645  0.2740
 6388SOL     OW30817   3.335   2.036   3.858 -0.8354  0.4825 -0.1671
 6388SOL    HW130818   3.421   2.019   3.906 -0.5080  0.4119 -0.7754
 6388SOL    HW230819   3.259   2.007   3.916 -0.4536  0.5890  0.3928
 6389SOL     OW30820   1.000   7.906   4.502  0.4435 -0.4801  0.2517
 6389SOL    HW130821   1.051   7.985   4.537  0.3179 -0.7059  0.9385
 6389SOL    HW230822   1.052   7.823   4.517  1.2186 -0.3767 -1.7635
 6390SOL     OW30823   0.167   4.820   3.048 -0.4829  0.3587  0.1468
 6390SOL    HW130824   0.257   4.853   3.077 -0.3670 -1.0008  1.3708
 6390SOL    HW230825   0.124   4.769   3.122 -1.7335 -0.0779 -0.8557
 6391SOL     OW30826   5.488   1.354   5.673 -0.2787 -0.0563 -0.2946
 6391SOL    HW130827   5.478   1.255   5.670 -1.9164 -0.0387  2.4626
 6391SOL    HW230828   5.585   1.378   5.672  0.1456 -1.7340 -0.0505
 6392SOL     OW30829   3.854   2.341   0.856  0.8710 -0.2317 -0.2188
 6392SOL    HW130830   3.774   2.400   0.868 -0.0996 -1.4983 -0.4589
 6392SOL    HW230831   3.935   2.399   0.841  0.1204  1.0691  0.5940
 6393SOL     OW30832   6.639   2.452   0.872  0.1675  0.6352  0.5083
 6393SOL    HW130833   6.689   2.489   0.950  0.0550 -0.1591  0.9534
 6393SOL    HW230834   6.695   2.383   0.826 -0.2907  0.1616  0.6627
 6394SOL     OW30835   4.901   9.271   5.374  0.3401  0.6360  0.1314
 6394SOL    HW130836   4.838   9.245   5.300  1.0842  0.5461 -0.4731
 6394SOL    HW230837   4.857   9.339   5.432 -0.5440  0.1400  0.0579
 6395SOL     OW30838   7.033   6.295   7.367  0.3023  0.2965 -0.5872
 6395SOL    HW130839   7.098   6.363   7.401  0.0531  0.6217 -0.7649
 6395SOL    HW230840   6.945   6.306   7.413  0.8193 -1.1629  0.8084
 6396SOL     OW30841   1.076   0.289   0.238  0.7752 -0.0838  0.5266
 6396SOL    HW130842   1.074   0.377   0.287  1.2408  0.2390 -0.0233
 6396SOL    HW230843   1.055   0.305   0.141 -1.5967 -0.9063  0.8755
 6397SOL     OW30844   9.537   0.478   5.636  0.1612 -0.3142 -0.0477
 6397SOL    HW130845   9.441   0.494   5.659  0.1711 -0.6270  0.2234
 6397SOL    HW230846   9.544   0.441   5.543 -0.0364 -0.9724  0.1955
 6398SOL     OW30847   6.936   5.254   1.079 -0.0015  0.2295  0.5411
 6398SOL    HW130848   6.959   5.213   1.167  2.5647 -1.3936 -0.8442
 6398SOL    HW230849   7.004   5.324   1.055  0.7165 -1.0542 -1.2580
 6399SOL     OW30850   0.468   5.956   1.969 -0.1672  0.4124 -0.0180
 6399SOL    HW130851   0.464   6.035   2.031 -0.0499  0.2189  0.2365
 6399SOL    HW230852   0.504   5.985   1.881  0.1280  0.5918  0.1623
 6400SOL     OW30853   2.423   9.638   1.055 -0.8072  0.4914  0.6077
 6400SOL    HW130854   2.442   9.591   1.141 -2.1991  0.4108  0.8900
 6400SOL    HW230855   2.338   9.602   1.016 -0.1794  0.5297 -0.7999
 6401SOL     OW30856   9.426   4.156   4.348  0.2765  0.2694  0.7479
 6401SOL    HW130857   9.352   4.095   4.323  0.4445  0.0782  0.7164
 6401SOL    HW230858   9.408   4.247   4.311  0.4376  0.0318  0.0881
 6402SOL     OW30859   4.142   4.550   0.027 -0.0946 -0.3875  0.7192
 6402SOL    HW130860   4.242   4.559   0.022 -0.0664 -0.1937  1.4844
 6402SOL    HW230861   4.100   4.616  -0.036  0.2926 -2.5505 -1.8957
 6403SOL     OW30862   5.264   0.268   8.220 -0.0099  0.1069  0.2160
 6403SOL    HW130863   5.346   0.326   8.225 -0.3649  0.5254  1.3314
 6403SOL    HW230864   5.190   0.318   8.175  0.6599 -0.6698 -1.8292
 6404SOL     OW30865   4.401   9.843   2.105 -0.9452  0.1520 -0.0452
 6404SOL    HW130866   4.420   9.747   2.083 -0.4045  0.2656 -0.0693
 6404SOL    HW230867   4.307   9.865   2.077 -1.0432 -0.3455 -0.1173
 6405SOL     OW30868   4.558   4.567   3.788  0.3934  0.0646 -0.0125
 6405SOL    HW130869   4.516   4.556   3.698 -0.4344  0.4164  0.3246
 6405SOL    HW230870   4.599   4.481   3.816  0.6906 -0.0374 -0.7409
 6406SOL     OW30871   5.204   0.194   4.957 -0.0048 -0.2624  0.3183
 6406SOL    HW130872   5.139   0.230   4.891 -0.1530 -0.8385  0.1520
 6406SOL    HW230873   5.155   0.156   5.035  0.1992  2.1595  1.6845
 6407SOL     OW30874   9.752   6.351   3.396  0.2652  0.9944 -0.6102
 6407SOL    HW130875   9.750   6.255   3.370 -0.4284  1.2832 -1.6455
 6407SOL    HW230876   9.709   6.362   3.486  0.5059  0.3158 -0.4090
 6408SOL     OW30877   8.663   4.042   4.941 -0.1869  0.0967  0.0355
 6408SOL    HW130878   8.724   3.985   4.885 -1.2242  0.5302 -1.5645
 6408SOL    HW230879   8.689   4.138   4.931 -2.0371  0.4375 -1.8639
 6409SOL     OW30880   0.626   8.589   6.781 -0.0189 -0.8641  0.4191
 6409SOL    HW130881   0.719   8.556   6.765  0.5047  0.2615  1.0795
 6409SOL    HW230882   0.577   8.591   6.694  2.0015  2.7792 -0.7779
 6410SOL     OW30883   1.073   2.364   1.255 -0.1881 -0.5066  0.2745
 6410SOL    HW130884   1.134   2.310   1.197  0.5028  2.1554 -1.5206
 6410SOL    HW230885   1.121   2.390   1.339  1.1192  1.3818 -1.0268
 6411SOL     OW30886   3.661   5.434   5.597 -0.1889  0.1291  0.1127
 6411SOL    HW130887   3.759   5.433   5.616  0.1375 -0.8410 -1.5425
 6411SOL    HW230888   3.616   5.366   5.654  0.1020  0.4798  0.7754
 6412SOL     OW30889   5.183   8.998   4.138  0.2128  0.6946 -0.5032
 6412SOL    HW130890   5.282   9.003   4.128  0.3837 -1.1989 -0.0136
 6412SOL    HW230891   5.161   8.945   4.220 -1.1869 -1.0125 -1.9294
 6413SOL     OW30892   5.030   5.225   3.173 -0.1633  0.7674  0.4203
 6413SOL    HW130893   4.940   5.260   3.147 -0.3833  1.2281  1.7609
 6413SOL    HW230894   5.053   5.258   3.264  1.2501  0.4242  0.1971
 6414SOL     OW30895   2.003   0.045   5.134  0.1234  0.0773  0.1229
 6414SOL    HW130896   2.086  -0.009   5.124  0.5547  0.5658  1.0558
 6414SOL    HW230897   1.960   0.026   5.222 -1.5234 -1.2270 -0.9274
 6415SOL     OW30898   0.361   2.572   3.643 -0.4892 -0.1259 -0.4051
 6415SOL    HW130899   0.395   2.479   3.629 -0.0276 -0.1179  0.6261
 6415SOL    HW230900   0.298   2.596   3.569 -1.1242 -1.4935 -0.3129
 6416SOL     OW30901   7.378   2.795   0.715 -0.4180 -0.1955  0.1839
 6416SOL    HW130902   7.474   2.790   0.741 -0.6245  0.0359  1.0107
 6416SOL    HW230903   7.322   2.806   0.797 -1.1234  0.0011 -0.3195
 6417SOL     OW30904   0.036   7.995   7.652 -0.5514  0.0711 -0.2985
 6417SOL    HW130905   0.097   8.072   7.635  0.6899 -0.9354 -0.4802
 6417SOL    HW230906  -0.057   8.029   7.667 -0.3805  1.4914 -2.1965
 6418SOL     OW30907   1.853   2.026   5.714 -0.1426  0.0408  0.3373
 6418SOL    HW130908   1.769   2.071   5.684  0.4252  0.2869 -0.9208
 6418SOL    HW230909   1.916   2.018   5.637  0.6515 -0.9129  1.0704
 6419SOL     OW30910   1.432   8.798   3.277 -0.3394  0.1752 -0.1943
 6419SOL    HW130911   1.474   8.735   3.212  1.5333  0.1737  0.9605
 6419SOL    HW230912   1.345   8.761   3.309 -0.2888 -0.7842 -1.1700
 6420SOL     OW30913   5.856   9.527   3.588 -0.1726 -0.0284 -0.3325
 6420SOL    HW130914   5.893   9.435   3.575 -0.1963  0.0910 -1.2952
 6420SOL    HW230915   5.929   9.587   3.623  0.0146 -0.2642 -0.3143
 6421SOL     OW30916   1.302   5.013   3.968  0.4176 -0.2015  0.2067
 6421SOL    HW130917   1.267   5.076   4.038 -0.7498  0.3985 -0.8822
 6421SOL    HW230918   1.333   4.929   4.012 -2.2995 -0.7189  1.2800
 6422SOL     OW30919   0.614   3.001   0.087  0.4427  0.4240  0.2665
 6422SOL    HW130920   0.653   3.090   0.065 -0.1343  0.6841  0.2892
 6422SOL    HW230921   0.572   2.962   0.005 -0.5883  0.8262  0.5952
 6423SOL     OW30922   2.313   3.945   7.824 -0.5576  0.0627  0.0437
 6423SOL    HW130923   2.280   3.879   7.891 -1.4776 -0.3414 -0.7956
 6423SOL    HW230924   2.388   3.904   7.772  0.3528  0.4793  0.9977
 6424SOL     OW30925   5.265   3.783   2.169  0.0913 -0.0299 -0.3319
 6424SOL    HW130926   5.254   3.696   2.217  1.4466 -1.1014 -1.9085
 6424SOL    HW230927   5.338   3.836   2.212 -1.1313  0.5878  0.9891
 6425SOL     OW30928   7.294   1.447   7.441 -0.3453  0.0174 -0.1116
 6425SOL    HW130929   7.284   1.425   7.344 -1.8445  0.5772 -0.0944
 6425SOL    HW230930   7.380   1.409   7.475  0.6943  0.6643 -1.9038
 6426SOL     OW30931   1.428   9.351   4.668  0.3924 -0.8191  0.0014
 6426SOL    HW130932   1.430   9.449   4.684  1.6769 -1.0567  1.3141
 6426SOL    HW230933   1.444   9.333   4.571 -2.5943  0.3843 -0.7737
 6427SOL     OW30934   2.635   2.766   5.915 -0.4615 -0.0973  0.1892
 6427SOL    HW130935   2.587   2.691   5.870  1.3667 -0.7035 -0.8289
 6427SOL    HW230936   2.572   2.842   5.930 -2.0730 -1.4101  0.2368
 6428SOL     OW30937   9.578   2.506   6.297 -0.1317  0.2780  0.1867
 6428SOL    HW130938   9.527   2.425   6.269 -0.5977  0.6355 -0.0034
 6428SOL    HW230939   9.671   2.501   6.261  0.1651 -0.6766  1.0590
 6429SOL     OW30940   9.209   8.641   1.272  0.5404 -0.0088 -0.3453
 6429SOL    HW130941   9.307   8.646   1.291  0.2604  0.3682  1.0597
 6429SOL    HW230942   9.161   8.604   1.352 -0.4743 -0.0701 -0.9722
 6430SOL     OW30943   7.386   2.880   0.252  0.2177 -0.3550 -0.3359
 6430SOL    HW130944   7.333   2.810   0.301 -0.8160 -0.4010 -1.5030
 6430SOL    HW230945   7.455   2.918   0.313 -0.1659 -1.3754  0.7498
 6431SOL     OW30946   3.569   7.466   3.151 -0.0525 -0.1540  0.5952
 6431SOL    HW130947   3.554   7.555   3.108  0.3211 -0.5704 -0.4110
 6431SOL    HW230948   3.549   7.393   3.085  0.3490 -0.8025  1.1826
 6432SOL     OW30949   2.219   5.194   3.945  0.4630  0.1226 -0.3352
 6432SOL    HW130950   2.184   5.101   3.941 -0.7576  0.5707 -0.2202
 6432SOL    HW230951   2.143   5.258   3.955  1.2853  1.1378 -0.4948
 6433SOL     OW30952   1.475   8.872   4.937 -0.5141 -0.5050  0.3057
 6433SOL    HW130953   1.473   8.775   4.915  0.3302 -0.1549 -1.4591
 6433SOL    HW230954   1.405   8.920   4.883 -1.4695 -0.2418  1.7598
 6434SOL     OW30955   1.236   6.416   7.107  0.2031 -0.4819 -0.3492
 6434SOL    HW130956   1.218   6.423   7.009  0.9256  0.4524 -0.4233
 6434SOL    HW230957   1.328   6.380   7.122 -0.1964 -1.3631 -0.0049
 6435SOL     OW30958   1.924   0.850   2.678  0.1061 -0.3624 -0.2191
 6435SOL    HW130959   1.881   0.876   2.765  0.4269  0.0063 -0.1663
 6435SOL    HW230960   1.861   0.796   2.624  0.4940 -2.0835  0.9909
 6436SOL     OW30961   9.522   7.518   6.466 -0.4154 -0.3065  0.6375
 6436SOL    HW130962   9.511   7.537   6.564  0.8015  0.9784  0.5439
 6436SOL    HW230963   9.612   7.476   6.451 -0.8203 -1.0020  0.1278
 6437SOL     OW30964   8.015   6.281   2.506  0.4994  0.1623 -0.3499
 6437SOL    HW130965   8.076   6.250   2.579  0.3516  1.0370  0.1504
 6437SOL    HW230966   7.922   6.290   2.542  0.3577  0.2358 -0.7349
 6438SOL     OW30967   2.688   7.688   5.456  0.4452  0.1402 -0.3935
 6438SOL    HW130968   2.608   7.718   5.406  0.0318 -0.2321  0.0326
 6438SOL    HW230969   2.702   7.748   5.535  0.8715  0.4974 -0.7369
 6439SOL     OW30970   3.766   4.687   4.547  0.2175 -0.1615  0.0374
 6439SOL    HW130971   3.801   4.781   4.545  0.0932 -0.1236 -0.3622
 6439SOL    HW230972   3.797   4.642   4.631  1.7426 -0.3307 -0.6050
 6440SOL     OW30973   3.225   7.269   6.651 -0.4781  0.1891  0.1733
 6440SOL    HW130974   3.256   7.314   6.735 -0.2256  2.3019 -1.0054
 6440SOL    HW230975   3.177   7.184   6.674  1.0602 -0.1282  2.3424
 6441SOL     OW30976   3.457   9.688   1.334  0.3017  0.5022 -0.1339
 6441SOL    HW130977   3.551   9.658   1.318  0.4086 -0.2421  1.7653
 6441SOL    HW230978   3.393   9.619   1.299  0.5335 -1.2615  2.7885
 6442SOL     OW30979   5.979   6.065   1.816  0.2419  0.5967 -0.3335
 6442SOL    HW130980   6.046   6.008   1.864 -1.4231  0.2557  1.6887
 6442SOL    HW230981   5.981   6.043   1.719  0.8890 -1.6614  0.1385
 6443SOL     OW30982   4.242   2.164   6.640 -0.4789  0.2813  0.6351
 6443SOL    HW130983   4.202   2.086   6.687 -0.8417 -0.0513 -0.2111
 6443SOL    HW230984   4.189   2.246   6.660 -0.3242  0.2428  1.2140
 6444SOL     OW30985   8.991   2.129   1.998 -0.2804 -0.6880  0.0037
 6444SOL    HW130986   8.995   2.220   1.956 -1.3351 -1.0508 -0.9037
 6444SOL    HW230987   8.924   2.131   2.073  0.2974 -0.5074  0.5188
 6445SOL     OW30988   1.837   3.062   6.699 -0.2063 -0.5041  0.1045
 6445SOL    HW130989   1.751   3.083   6.652 -0.8377 -1.6444  0.7311
 6445SOL    HW230990   1.817   3.018   6.786  1.0197 -0.7597  0.2644
 6446SOL     OW30991   9.072   1.879   3.671  0.4899 -1.1624  1.1532
 6446SOL    HW130992   9.046   1.923   3.757 -0.4463  1.7735 -0.5722
 6446SOL    HW230993   8.995   1.885   3.606  1.8952 -1.4964 -0.5879
 6447SOL     OW30994   9.536   9.874   6.856  0.7967  0.2724 -0.0602
 6447SOL    HW130995   9.535   9.779   6.824  0.1952 -0.3005  1.5609
 6447SOL    HW230996   9.494   9.878   6.947 -0.6505  2.3600 -0.7878
 6448SOL     OW30997   7.535   0.389   1.206  0.3796  0.1910  0.1249
 6448SOL    HW130998   7.604   0.441   1.256  0.0904 -0.0762  0.8052
 6448SOL    HW230999   7.520   0.431   1.116  0.6464  0.8715  0.3968
 6449SOL     OW31000   9.449   0.010   1.670 -0.3343 -0.5769 -0.5169
 6449SOL    HW131001   9.418   0.100   1.638  0.4126 -0.8414 -2.0483
 6449SOL    HW231002   9.384  -0.059   1.640  0.6766 -0.8984 -2.0378
 6450SOL     OW31003   9.662   0.698   7.320 -0.2441  0.2178 -0.7169
 6450SOL    HW131004   9.691   0.710   7.225 -0.5325  1.8511 -0.6263
 6450SOL    HW231005   9.585   0.759   7.339  0.0651  0.1939  0.6708
 6451SOL     OW31006   5.585   9.470   5.427  0.4137 -0.9239 -0.0831
 6451SOL    HW131007   5.494   9.493   5.393  0.6015  1.3001  0.8401
 6451SOL    HW231008   5.606   9.374   5.406 -0.6146 -0.4278 -3.5789
 6452SOL     OW31009   8.729   2.735   2.217 -0.0699  0.2797  0.2665
 6452SOL    HW131010   8.689   2.820   2.253 -2.8164 -0.9813  0.3654
 6452SOL    HW231011   8.721   2.735   2.117 -0.6844 -0.1510  0.3157
 6453SOL     OW31012   7.850   9.976   5.509 -0.3773  0.0020 -0.1276
 6453SOL    HW131013   7.806   9.997   5.596 -1.2171 -0.7111 -0.3652
 6453SOL    HW231014   7.780   9.960   5.439  0.2523 -1.0294 -0.5427
 6454SOL     OW31015   5.121   6.580   9.969  0.3966  0.5335 -0.2769
 6454SOL    HW131016   5.107   6.592  10.067 -0.4558 -1.9711 -0.0354
 6454SOL    HW231017   5.206   6.530   9.953  0.7862  1.3664 -0.8490
 6455SOL     OW31018   0.153   2.522   7.432  0.2034  0.2304  0.1011
 6455SOL    HW131019   0.189   2.484   7.347 -1.6623 -0.7736 -0.2792
 6455SOL    HW231020   0.056   2.499   7.440  0.3132  0.4294  2.4334
 6456SOL     OW31021   3.636   7.040   5.675 -0.0965 -0.7229  0.1851
 6456SOL    HW131022   3.667   7.058   5.768 -1.2248  1.3809  0.1962
 6456SOL    HW231023   3.703   7.074   5.610 -0.5349  0.2226  0.2241
 6457SOL     OW31024   4.802   7.056   1.025  0.3737 -0.1792  0.4051
 6457SOL    HW131025   4.706   7.034   1.040 -0.0114  0.2367 -1.3468
 6457SOL    HW231026   4.851   7.055   1.112 -0.9402 -1.7099  1.1338
 6458SOL     OW31027   0.140   5.513   4.798 -0.2254 -0.3945  0.9787
 6458SOL    HW131028   0.162   5.416   4.786 -0.1275 -0.3293  0.6266
 6458SOL    HW231029   0.189   5.549   4.878  0.9983 -0.2343  0.1541
 6459SOL     OW31030   4.708   7.532   3.191  0.1446  0.0761  0.2089
 6459SOL    HW131031   4.612   7.555   3.208  0.7283  1.6613  1.4284
 6459SOL    HW231032   4.714   7.436   3.161 -2.1754  0.9479 -3.4631
 6460SOL     OW31033   8.277   0.053   2.565  0.9290  0.6258  0.2349
 6460SOL    HW131034   8.276   0.033   2.467  0.2567 -0.1838  0.4006
 6460SOL    HW231035   8.185   0.076   2.595  0.9768  0.0374  0.8376
 6461SOL     OW31036   6.067   2.691   1.784 -0.3772 -0.3356  0.2597
 6461SOL    HW131037   6.052   2.648   1.695 -2.3855  0.7972  0.0305
 6461SOL    HW231038   6.025   2.634   1.855  1.1762 -1.2108  0.5227
 6462SOL     OW31039   8.505   8.897   5.924  0.0313 -0.1851 -0.7117
 6462SOL    HW131040   8.525   8.825   5.990  0.2275  0.0184 -0.5513
 6462SOL    HW231041   8.562   8.884   5.843  1.5646  0.9774  0.1525
 6463SOL     OW31042   8.428   3.936   1.700 -0.5147  0.7185 -0.4107
 6463SOL    HW131043   8.510   3.882   1.718  0.6591  2.6308  0.0921
 6463SOL    HW231044   8.441   3.992   1.617 -1.9269 -0.1632 -1.2564
 6464SOL     OW31045   4.704   9.159   6.940  0.0542 -0.2130  0.4155
 6464SOL    HW131046   4.709   9.237   7.003 -0.6077 -0.1854  0.4392
 6464SOL    HW231047   4.794   9.143   6.899 -0.1432  1.5392 -0.7598
 6465SOL     OW31048   3.629   5.098   3.477 -0.5327  0.0351 -0.0386
 6465SOL    HW131049   3.694   5.164   3.438  0.5187 -0.2299  1.2399
 6465SOL    HW231050   3.543   5.145   3.499  0.5527  1.2066  1.7800
 6466SOL     OW31051   8.205   1.861   6.458  0.5621  0.3661  0.4664
 6466SOL    HW131052   8.157   1.912   6.387  0.1802  0.3711  0.7270
 6466SOL    HW231053   8.183   1.764   6.450  0.5858  0.3558  0.5269
 6467SOL     OW31054   3.516   9.206   5.593  0.0559 -0.0793 -0.1119
 6467SOL    HW131055   3.463   9.124   5.574  1.5747 -1.3195  0.8395
 6467SOL    HW231056   3.528   9.259   5.509 -0.7879 -0.9114 -0.7604
 6468SOL     OW31057   3.142   3.637   3.508  0.3959 -0.1369 -0.4330
 6468SOL    HW131058   3.200   3.561   3.536 -0.8380 -1.0103 -0.2159
 6468SOL    HW231059   3.084   3.665   3.585  1.4871  1.6424 -0.2204
 6469SOL     OW31060   8.623   2.783   3.507  0.2025 -0.3659 -0.2449
 6469SOL    HW131061   8.543   2.833   3.540  0.7559  0.5118 -0.2251
 6469SOL    HW231062   8.599   2.736   3.422 -0.5475 -0.7260  0.1579
 6470SOL     OW31063   0.891   3.490   0.708 -0.4330  0.0449 -0.1947
 6470SOL    HW131064   0.970   3.511   0.766 -0.3107 -3.2945  0.9556
 6470SOL    HW231065   0.858   3.574   0.665  1.5371  2.0859  2.1099
 6471SOL     OW31066   2.765   8.813   0.718 -0.1224  0.0330  0.3716
 6471SOL    HW131067   2.809   8.902   0.729  0.7530 -0.2869 -0.4156
 6471SOL    HW231068   2.677   8.824   0.673 -0.1507  0.5377  0.5525
 6472SOL     OW31069   4.656   7.305   4.264 -0.4452 -0.1789 -0.1792
 6472SOL    HW131070   4.686   7.393   4.300  1.2762 -1.0570  0.5634
 6472SOL    HW231071   4.556   7.301   4.266 -0.5417  1.8479 -0.4610
 6473SOL     OW31072   9.413   5.757   4.959  0.1683 -0.0229  0.1578
 6473SOL    HW131073   9.461   5.708   5.032  0.0454 -1.8328 -0.9551
 6473SOL    HW231074   9.453   5.732   4.871 -3.1958 -2.0687 -0.8620
 6474SOL     OW31075   8.093   9.668   4.135 -0.4614 -0.0124  0.0487
 6474SOL    HW131076   8.015   9.714   4.092 -0.5922  1.0502  1.3830
 6474SOL    HW231077   8.060   9.611   4.210 -0.1442 -1.1951 -0.6952
 6475SOL     OW31078   8.663   9.476   4.435 -0.0623  0.0581  0.1587
 6475SOL    HW131079   8.607   9.425   4.370 -1.3573 -1.4862  2.3685
 6475SOL    HW231080   8.606   9.502   4.514  1.2066  2.7700  0.2320
 6476SOL     OW31081   1.817   7.049   6.354  0.1294  0.0783 -0.1970
 6476SOL    HW131082   1.769   6.981   6.410 -0.0461  0.6783  0.3937
 6476SOL    HW231083   1.771   7.056   6.265  0.7273 -1.2616 -0.6274
 6477SOL     OW31084   3.223   4.415   1.304  0.0427 -0.0574 -0.0702
 6477SOL    HW131085   3.152   4.349   1.279  0.8484 -1.4859  1.3798
 6477SOL    HW231086   3.186   4.508   1.294 -1.8925 -0.7671  0.2444
 6478SOL     OW31087   8.501   5.194   4.043 -0.2426 -0.1593 -0.6337
 6478SOL    HW131088   8.448   5.186   3.959  0.6345 -1.8786 -1.0404
 6478SOL    HW231089   8.454   5.145   4.117 -0.4027  0.3406 -0.3952
 6479SOL     OW31090   8.288   7.057   4.844 -0.8011  0.1594  0.1977
 6479SOL    HW131091   8.275   7.150   4.877 -2.0354  0.1741 -0.3055
 6479SOL    HW231092   8.384   7.044   4.819 -0.7062  1.4446 -0.1742
 6480SOL     OW31093   8.469   2.821   7.288  0.5948 -0.1671  0.0819
 6480SOL    HW131094   8.553   2.843   7.338  1.6339 -0.2957 -1.5438
 6480SOL    HW231095   8.425   2.905   7.258  0.1454 -0.0990  0.9354
 6481SOL     OW31096   3.236   6.925   5.910  0.0807 -0.1331 -0.4084
 6481SOL    HW131097   3.170   6.871   5.961  2.6840 -0.1528  3.1541
 6481SOL    HW231098   3.301   6.863   5.865 -0.5849 -0.0531 -1.4953
 6482SOL     OW31099   5.805   8.975   7.435  0.2051 -0.0708  0.1706
 6482SOL    HW131100   5.738   9.026   7.381  0.2109 -0.6859 -0.4339
 6482SOL    HW231101   5.858   9.038   7.491 -2.2652  0.2385  2.2238
 6483SOL     OW31102   2.718   7.256   0.825 -0.0589 -0.5810 -0.5659
 6483SOL    HW131103   2.683   7.177   0.875  0.6520 -1.5899 -1.6281
 6483SOL    HW231104   2.810   7.277   0.857 -0.1599 -0.3312 -0.4424
 6484SOL     OW31105   8.993   0.543   4.168  0.4175 -0.4624 -0.3243
 6484SOL    HW131106   9.020   0.558   4.263 -0.5069 -0.6453 -0.0305
 6484SOL    HW231107   8.894   0.535   4.162  0.3224  1.2644 -1.5401
 6485SOL     OW31108   0.677   3.771   6.093 -0.2633 -0.5366 -0.5397
 6485SOL    HW131109   0.726   3.716   6.160 -0.6193 -0.3213 -0.1041
 6485SOL    HW231110   0.741   3.802   6.023 -0.2031 -2.1656 -1.2311
 6486SOL     OW31111   2.490   8.921   3.551 -0.3260 -0.0354  0.5465
 6486SOL    HW131112   2.585   8.905   3.576 -0.6754 -1.8215  0.8365
 6486SOL    HW231113   2.482   8.931   3.452 -0.2841 -3.7077  0.0989
 6487SOL     OW31114   1.274   1.682   6.674  0.1578 -0.2093  0.8714
 6487SOL    HW131115   1.306   1.702   6.582 -0.0706 -0.4459  0.7400
 6487SOL    HW231116   1.178   1.710   6.683 -0.2557 -1.5305  0.5913
 6488SOL     OW31117   8.174   6.545   3.216 -0.3144 -0.1946 -0.4403
 6488SOL    HW131118   8.260   6.533   3.165 -0.2971 -2.1950  0.0102
 6488SOL    HW231119   8.195   6.575   3.309 -0.2922  2.4624 -1.2694
 6489SOL     OW31120   4.581   4.116   7.312  0.0082  0.3490 -0.2258
 6489SOL    HW131121   4.615   4.024   7.298  0.7489  0.8472 -1.7899
 6489SOL    HW231122   4.635   4.162   7.383  1.3665  0.4768 -1.3328
 6490SOL     OW31123   3.335   1.512   2.858 -1.0261  0.4226  0.1978
 6490SOL    HW131124   3.411   1.456   2.888  0.3192  0.8556 -2.2547
 6490SOL    HW231125   3.269   1.522   2.932  1.0265 -0.4202  2.1777
 6491SOL     OW31126   9.793   7.551   7.435 -0.2740 -0.1518  0.7093
 6491SOL    HW131127   9.711   7.604   7.459  0.6129  0.1901  3.1262
 6491SOL    HW231128   9.874   7.595   7.473  0.8822 -1.3014 -0.3617
 6492SOL     OW31129   6.414   9.014   3.794  0.0676 -0.0785  0.2077
 6492SOL    HW131130   6.331   9.029   3.847 -1.3865 -0.6241 -1.8657
 6492SOL    HW231131   6.465   9.100   3.787 -0.9769  0.5585  0.3791
 6493SOL     OW31132   2.695   2.197   7.132 -0.5921 -0.2864 -0.1735
 6493SOL    HW131133   2.643   2.132   7.188 -3.2678  1.5207 -0.4469
 6493SOL    HW231134   2.705   2.283   7.182  1.4770 -0.3475 -0.4688
 6494SOL     OW31135   1.509   4.045   6.414 -0.7023 -0.2200 -0.4109
 6494SOL    HW131136   1.443   3.998   6.472 -0.0049 -1.1227 -0.3451
 6494SOL    HW231137   1.578   3.980   6.382  0.2349  0.7403 -0.3662
 6495SOL     OW31138   8.700   3.695   4.405 -0.5080  0.5274 -0.0188
 6495SOL    HW131139   8.702   3.624   4.475  0.3018 -1.2777 -1.8207
 6495SOL    HW231140   8.605   3.710   4.375 -0.7814  0.8747  0.9911
 6496SOL     OW31141   3.473   6.886   9.720  0.0620 -0.3234 -0.3127
 6496SOL    HW131142   3.565   6.904   9.684  0.1883 -0.6856 -0.1671
 6496SOL    HW231143   3.473   6.801   9.772 -0.9866 -1.7778 -2.6303
 6497SOL     OW31144   9.032   8.117   0.178  0.0148 -0.3545  0.2639
 6497SOL    HW131145   9.114   8.172   0.195  0.7025 -1.0616 -0.6657
 6497SOL    HW231146   8.951   8.176   0.182  0.7940  0.9059 -1.4579
 6498SOL     OW31147   8.694   7.075   6.560 -0.0909 -0.1095  0.3954
 6498SOL    HW131148   8.726   7.132   6.485 -0.2166  0.2888  0.6429
 6498SOL    HW231149   8.670   6.984   6.525 -0.7118  0.2603 -0.1395
 6499SOL     OW31150   4.608   9.742   5.825  1.2842 -0.1853  0.3929
 6499SOL    HW131151   4.532   9.722   5.887  0.1546  0.8608 -0.6270
 6499SOL    HW231152   4.596   9.691   5.740  1.5776  0.1913  0.1224
 6500SOL     OW31153   8.657   4.165   3.535  0.3235 -0.3578 -0.1668
 6500SOL    HW131154   8.742   4.130   3.575 -1.4463 -2.7972  1.6147
 6500SOL    HW231155   8.612   4.226   3.600  0.3041  0.3410 -0.8175
 6501SOL     OW31156   6.524   0.568   2.739  0.2340 -0.3901  0.0471
 6501SOL    HW131157   6.524   0.558   2.838  0.8098 -1.1097 -0.0220
 6501SOL    HW231158   6.608   0.528   2.701 -0.0719 -0.2929 -0.7489
 6502SOL     OW31159   6.388   1.120   2.737  0.2399 -0.2520  0.0112
 6502SOL    HW131160   6.390   1.028   2.775  1.7727  0.0665  0.7395
 6502SOL    HW231161   6.481   1.154   2.724 -0.2752  0.2915 -2.5295
 6503SOL     OW31162   3.763   6.956   3.855 -0.1308  0.0705  0.3499
 6503SOL    HW131163   3.760   7.050   3.822 -1.9868 -0.7910 -2.1207
 6503SOL    HW231164   3.858   6.923   3.853 -0.0356  0.3141 -3.5779
 6504SOL     OW31165   9.494   1.750   2.589 -0.3970 -0.1180 -0.4779
 6504SOL    HW131166   9.478   1.675   2.524 -0.1110  0.6658 -1.4689
 6504SOL    HW231167   9.451   1.834   2.554  0.8735  0.6232 -0.2867
 6505SOL     OW31168   1.726   9.725   5.978  0.2090  0.3176  0.4052
 6505SOL    HW131169   1.711   9.757   5.885 -1.0510 -0.7228  0.2326
 6505SOL    HW231170   1.722   9.802   6.041  0.4477  0.9385 -0.3316
 6506SOL     OW31171   2.699   8.848   3.204 -0.0215 -0.6377  0.0775
 6506SOL    HW131172   2.750   8.933   3.193  0.5108 -1.1469 -1.5304
 6506SOL    HW231173   2.761   8.770   3.195 -0.9130 -1.2387 -0.9704
 6507SOL     OW31174   2.448   1.012   0.184 -0.6528 -0.3557 -0.4494
 6507SOL    HW131175   2.401   1.044   0.266 -2.6340  0.7370 -1.9420
 6507SOL    HW231176   2.466   0.914   0.192  0.4658  0.0066  1.8593
 6508SOL     OW31177   4.608   8.908   1.367 -0.4889 -0.1069  0.0283
 6508SOL    HW131178   4.574   8.915   1.273  0.0707  0.3394 -0.1391
 6508SOL    HW231179   4.626   8.999   1.402 -2.1136 -0.1684  1.0927
 6509SOL     OW31180   1.852   2.715   5.588  0.3848  0.3021 -0.1469
 6509SOL    HW131181   1.782   2.779   5.621 -0.3053  0.3632 -1.7023
 6509SOL    HW231182   1.939   2.762   5.580 -0.0636  0.9999 -1.0416
 6510SOL     OW31183   1.123   4.373   4.107 -0.0522  0.7820  0.0492
 6510SOL    HW131184   1.218   4.344   4.092 -0.0841  0.2886  0.7651
 6510SOL    HW231185   1.062   4.311   4.057 -0.0430  0.4912  0.3916
 6511SOL     OW31186   4.464   7.104   5.580  0.3334  0.1009 -0.1067
 6511SOL    HW131187   4.413   7.103   5.666 -1.9472 -2.0470 -1.4203
 6511SOL    HW231188   4.482   7.199   5.552  1.2356  0.8168  2.7629
 6512SOL     OW31189   3.327   2.428   0.294 -0.3197  0.2238  0.2342
 6512SOL    HW131190   3.272   2.369   0.235 -1.7711  1.7807 -0.0340
 6512SOL    HW231191   3.424   2.417   0.272 -0.7538 -0.1326 -1.6062
 6513SOL     OW31192   0.136   0.640   6.113 -0.0258 -0.1811  0.3216
 6513SOL    HW131193   0.074   0.563   6.127 -1.0703  0.6955  0.5870
 6513SOL    HW231194   0.230   0.607   6.111 -0.6107 -1.8260 -2.2761
 6514SOL     OW31195   4.956   7.552   3.350 -0.1231  0.6883  0.6991
 6514SOL    HW131196   4.984   7.459   3.325 -0.7700  0.2782  1.4853
 6514SOL    HW231197   4.870   7.574   3.304 -1.1616  0.0416  2.3031
 6515SOL     OW31198   3.370   4.015   7.729  0.1684  0.0981 -0.1939
 6515SOL    HW131199   3.403   3.960   7.805 -2.9163 -0.8343  0.5343
 6515SOL    HW231200   3.356   3.956   7.649 -0.4462  0.3622 -0.2786
 6516SOL     OW31201   3.976   2.990   5.189 -0.2877  0.7994 -0.2024
 6516SOL    HW131202   4.028   3.070   5.220  2.5908 -1.1560  0.1546
 6516SOL    HW231203   3.899   2.975   5.251  0.7637  1.6571  1.3342
 6517SOL     OW31204   9.323   2.053   4.929  0.2458  0.3301 -0.2124
 6517SOL    HW131205   9.285   1.970   4.969 -1.1267  0.8256 -0.4713
 6517SOL    HW231206   9.423   2.046   4.926  0.2077 -0.7800  0.9133
 6518SOL     OW31207   1.256   8.795   7.654  0.0847  0.0880 -0.2820
 6518SOL    HW131208   1.325   8.864   7.678 -0.5660  0.7456 -0.2775
 6518SOL    HW231209   1.214   8.819   7.566 -2.0363  1.1863  0.9814
 6519SOL     OW31210   7.307   1.367   7.187  0.4289 -0.2419  0.3380
 6519SOL    HW131211   7.340   1.274   7.169  0.8288 -0.0845  0.2396
 6519SOL    HW231212   7.243   1.395   7.115  1.2827  0.0291 -0.3235
 6520SOL     OW31213   2.528   7.302   2.009  0.2499  0.2946 -0.1177
 6520SOL    HW131214   2.570   7.220   1.970 -0.8420  0.1688 -1.0621
 6520SOL    HW231215   2.500   7.363   1.936 -2.0772 -0.0674  0.4203
 6521SOL     OW31216   0.839   8.213   4.393 -0.4661 -0.1086  0.0015
 6521SOL    HW131217   0.898   8.275   4.341 -1.1382  0.3110 -0.2695
 6521SOL    HW231218   0.869   8.211   4.489  0.2486 -0.2308 -0.2261
 6522SOL     OW31219   7.708   9.686   2.711  0.5412 -0.6169 -0.3397
 6522SOL    HW131220   7.704   9.748   2.632  1.2359  0.2942  0.3330
 6522SOL    HW231221   7.789   9.707   2.765 -0.4485 -0.6044  1.1490
 6523SOL     OW31222   6.534   8.865   4.534  0.6795 -0.2875 -0.2529
 6523SOL    HW131223   6.618   8.904   4.572  0.5860  1.3146 -1.6059
 6523SOL    HW231224   6.557   8.804   4.458  0.7260 -1.5021  0.7263
 6524SOL     OW31225   7.894   5.799   1.491  0.2519 -0.4177 -0.5512
 6524SOL    HW131226   7.804   5.778   1.529  1.4811  0.0569  2.8825
 6524SOL    HW231227   7.965   5.764   1.552  2.3737  1.8327 -1.6116
 6525SOL     OW31228   2.061   6.141   1.790  1.1142  0.5990  0.0928
 6525SOL    HW131229   2.015   6.221   1.750  1.1047  1.5931  2.0354
 6525SOL    HW231230   2.005   6.104   1.864  1.5519 -0.6634 -0.2044
 6526SOL     OW31231   0.564   8.529   7.511  0.5356  0.8439  0.5148
 6526SOL    HW131232   0.467   8.515   7.489  0.1070  2.3171  1.4313
 6526SOL    HW231233   0.599   8.449   7.559 -0.0524  0.0410 -0.3629
 6527SOL     OW31234   1.208   8.628   1.867  0.1224 -0.5366 -0.2415
 6527SOL    HW131235   1.201   8.727   1.876  1.6733 -0.4609  0.3588
 6527SOL    HW231236   1.222   8.603   1.771 -1.2589 -0.2558 -0.5251
 6528SOL     OW31237   9.372   5.563   6.354  0.3168 -0.2005  0.3382
 6528SOL    HW131238   9.311   5.488   6.377  0.8330 -0.2430  1.5858
 6528SOL    HW231239   9.374   5.574   6.254  0.7374 -2.2750  0.0893
 6529SOL     OW31240   9.997   5.137   3.220 -0.4380 -0.2942 -1.0466
 6529SOL    HW131241  10.083   5.099   3.254 -0.5267 -0.1026 -0.6028
 6529SOL    HW231242   9.921   5.103   3.277 -0.8233 -1.6432 -2.3318
 6530SOL     OW31243   9.924   6.325   0.650  0.2367  0.5059  0.3322
 6530SOL    HW131244   9.962   6.410   0.615 -0.3853  1.2124  1.3374
 6530SOL    HW231245   9.983   6.289   0.722  0.7937 -0.2098 -0.4795
 6531SOL     OW31246   3.999   9.292   0.558  0.2917  0.1358  0.8217
 6531SOL    HW131247   4.066   9.219   0.549  0.5193  0.4292  0.1090
 6531SOL    HW231248   3.917   9.257   0.604 -0.4264 -1.1091 -1.3284
 6532SOL     OW31249   5.082   4.471   6.018 -0.0415 -0.3615 -0.3200
 6532SOL    HW131250   5.059   4.374   6.012 -0.2950 -0.3362  0.2392
 6532SOL    HW231251   5.072   4.503   6.112  0.0124  0.2147 -0.5026
 6533SOL     OW31252   8.197   4.549   0.366 -0.0257  0.2922 -0.2098
 6533SOL    HW131253   8.148   4.631   0.396 -0.4570 -0.3795  0.9522
 6533SOL    HW231254   8.219   4.557   0.269  1.9858  2.8277  0.3827
 6534SOL     OW31255   2.401   4.180   3.868  0.3706 -0.3503 -0.4191
 6534SOL    HW131256   2.383   4.262   3.812  3.3381 -0.5650 -1.8149
 6534SOL    HW231257   2.404   4.100   3.808  1.3956 -0.9080  0.3728
 6535SOL     OW31258   9.311   3.936   6.087 -0.0269  0.0047  0.3164
 6535SOL    HW131259   9.296   3.992   6.168  0.7685 -0.3168  0.6827
 6535SOL    HW231260   9.377   3.864   6.107  0.7635  0.3882 -0.8288
 6536SOL     OW31261   2.630   7.036   0.972  0.1916 -0.4897  0.2124
 6536SOL    HW131262   2.547   6.993   1.006 -1.4859  2.1547 -0.4287
 6536SOL    HW231263   2.679   7.078   1.048 -1.0324  1.2011  0.0879
 6537SOL     OW31264   6.218   1.470   6.596  0.9982  0.3604  0.3348
 6537SOL    HW131265   6.163   1.451   6.677  0.7704 -0.1358  0.0634
 6537SOL    HW231266   6.289   1.400   6.587  0.4988 -0.0641 -0.3625
 6538SOL     OW31267   2.082   4.489   3.085  0.1821  0.3421 -0.1765
 6538SOL    HW131268   2.015   4.508   3.013 -0.6388  1.2562  0.8118
 6538SOL    HW231269   2.040   4.429   3.154  0.5534  0.4928  0.1801
 6539SOL     OW31270   7.027   8.944   5.921  0.9562  0.4572  0.5216
 6539SOL    HW131271   7.028   8.881   5.999  0.1570 -0.4834 -0.2122
 6539SOL    HW231272   7.116   8.990   5.914  1.5495 -0.5915  1.0594
 6540SOL     OW31273   9.947   2.039   1.483  0.0775  0.1431  0.0397
 6540SOL    HW131274   9.881   1.964   1.490  2.5181 -1.9455  1.7378
 6540SOL    HW231275   9.998   2.029   1.397  1.0461 -0.7313  0.7036
 6541SOL     OW31276   0.552   4.566   4.875 -0.1564 -0.6344 -0.1313
 6541SOL    HW131277   0.458   4.582   4.844 -0.7086 -1.9173  0.8165
 6541SOL    HW231278   0.591   4.651   4.909 -1.5415 -0.4120  0.9389
 6542SOL     OW31279   0.924   7.513   4.976 -0.0827  0.3706  0.1240
 6542SOL    HW131280   1.019   7.540   4.964  0.1082  0.4529  1.6737
 6542SOL    HW231281   0.866   7.563   4.912  0.6217  2.2243  0.8954
 6543SOL     OW31282   7.287   9.927   1.311  0.3409  0.1184 -0.4568
 6543SOL    HW131283   7.316   9.840   1.353  1.2687  2.2726  3.6691
 6543SOL    HW231284   7.342   9.944   1.230  0.4601 -2.9190 -1.0724
 6544SOL     OW31285   4.697   9.225   3.823 -0.4477 -0.2608 -0.1430
 6544SOL    HW131286   4.789   9.233   3.784 -0.4451 -2.0775 -0.5692
 6544SOL    HW231287   4.702   9.234   3.922  0.1634 -0.0486 -0.1893
 6545SOL     OW31288   0.988   7.841   2.158  0.0763 -0.6555 -0.5556
 6545SOL    HW131289   0.966   7.827   2.062 -0.8461 -1.8113 -0.1813
 6545SOL    HW231290   0.964   7.934   2.185 -2.6805 -1.2969 -0.6393
 6546SOL     OW31291   7.614   7.071   1.111  0.2769  0.3095 -0.3525
 6546SOL    HW131292   7.680   7.072   1.035 -1.7567 -0.2108 -2.1920
 6546SOL    HW231293   7.542   7.004   1.092 -0.9794  1.0975  1.4283
 6547SOL     OW31294   0.405   7.165   1.601  0.0465  0.3514 -0.2831
 6547SOL    HW131295   0.487   7.133   1.649 -1.5918 -1.6193  1.3457
 6547SOL    HW231296   0.410   7.139   1.505  1.4721  0.5044 -0.2558
 6548SOL     OW31297   0.535   7.630   1.656 -0.1547 -0.2274  0.2537
 6548SOL    HW131298   0.498   7.719   1.628 -1.2934 -0.4228  1.1057
 6548SOL    HW231299   0.496   7.558   1.599  2.4443 -0.0052 -1.9331
 6549SOL     OW31300   3.644   6.675   6.725 -0.3267 -0.2708 -0.3526
 6549SOL    HW131301   3.630   6.638   6.633  0.4740 -0.1513 -0.5306
 6549SOL    HW231302   3.680   6.768   6.718 -2.1215  0.4824  0.0950
 6550SOL     OW31303   8.325   4.139   4.646  0.3791  0.2357  0.0838
 6550SOL    HW131304   8.396   4.208   4.662  1.1321 -0.8326  1.4460
 6550SOL    HW231305   8.334   4.065   4.713  1.0372 -2.3671 -2.7661
 6551SOL     OW31306   6.946   0.095   7.854 -0.2313  0.3199  0.2795
 6551SOL    HW131307   6.871   0.152   7.887 -0.6074 -0.3306  0.5426
 6551SOL    HW231308   6.968   0.121   7.760  0.5776  1.9036  0.8955
 6552SOL     OW31309   4.281   3.895   3.755  0.3657  0.2189  0.3790
 6552SOL    HW131310   4.296   3.846   3.670  2.0379  1.6816 -0.1905
 6552SOL    HW231311   4.270   3.993   3.736 -3.9600  0.0529  1.3743
 6553SOL     OW31312   6.892   4.378   2.923 -0.3802 -0.3452  0.3867
 6553SOL    HW131313   6.918   4.336   3.010 -0.3018  1.1906  1.1146
 6553SOL    HW231314   6.972   4.383   2.863 -0.3198 -0.9288  0.4117
 6554SOL     OW31315   3.052   6.723   4.112  1.0097  0.0489  0.0424
 6554SOL    HW131316   3.042   6.817   4.142 -0.9086 -0.9762  2.8548
 6554SOL    HW231317   3.129   6.680   4.161  0.5254 -0.4463  0.3761
 6555SOL     OW31318   6.174   9.084   3.937 -0.3090  0.1234 -0.0692
 6555SOL    HW131319   6.076   9.068   3.942 -0.5558  1.8296  0.8391
 6555SOL    HW231320   6.214   9.078   4.029  0.5578 -1.2333 -0.5158
 6556SOL     OW31321   4.412   1.305   3.814 -0.0324  0.0628  0.3026
 6556SOL    HW131322   4.374   1.228   3.763  0.7715 -0.3563  0.3310
 6556SOL    HW231323   4.351   1.384   3.805  0.4911  0.2396 -1.9813
 6557SOL     OW31324   4.912   8.934   4.794  0.3963  0.3966 -0.4030
 6557SOL    HW131325   4.977   8.970   4.727  1.2051 -1.1086 -0.4491
 6557SOL    HW231326   4.953   8.934   4.885  0.2547  0.0062 -0.3343
 6558SOL     OW31327   7.913   0.124   6.388 -0.0805 -0.1118 -0.2013
 6558SOL    HW131328   8.008   0.156   6.396 -0.5289  1.2786 -0.3514
 6558SOL    HW231329   7.898   0.050   6.453  0.8546  0.2691  0.4641
 6559SOL     OW31330   0.584   9.093   7.718 -0.2095 -0.2074  0.0930
 6559SOL    HW131331   0.485   9.081   7.709 -0.0998  0.1194 -1.8056
 6559SOL    HW231332   0.627   9.003   7.726 -0.7273 -0.3111  1.8020
 6560SOL     OW31333   4.098   4.661   1.661 -0.1040  0.1740 -0.0185
 6560SOL    HW131334   4.190   4.625   1.679 -0.0214  0.3880 -0.0162
 6560SOL    HW231335   4.039   4.641   1.738 -0.0637  0.0186 -0.0275
 6561SOL     OW31336   3.523   9.700   2.002 -0.3112 -0.1135  0.1995
 6561SOL    HW131337   3.550   9.757   2.079 -1.2977  0.5588  0.0537
 6561SOL    HW231338   3.481   9.616   2.036  0.0949 -0.2393  0.3982
 6562SOL     OW31339   0.818   4.027   0.295  0.5303  0.0217 -0.0178
 6562SOL    HW131340   0.900   3.991   0.340 -1.2572 -0.7123  2.7827
 6562SOL    HW231341   0.788   3.962   0.225  1.5345 -0.3764 -0.0907
 6563SOL     OW31342   0.045   8.162   4.184 -1.1143  0.2270  0.3533
 6563SOL    HW131343  -0.035   8.102   4.181 -0.5894 -0.3930 -1.4116
 6563SOL    HW231344   0.122   8.117   4.139 -0.0414  1.2430  1.1464
 6564SOL     OW31345   7.946   9.081   2.291  0.3377 -0.2182  0.1708
 6564SOL    HW131346   7.995   9.146   2.349  0.7875 -0.4269  0.0280
 6564SOL    HW231347   7.864   9.125   2.254  0.3537  0.0963  0.5066
 6565SOL     OW31348   7.166   2.214   6.697  0.0090 -0.6060  0.3722
 6565SOL    HW131349   7.220   2.297   6.680  0.9553 -1.0610  1.1103
 6565SOL    HW231350   7.140   2.173   6.610 -0.6998  0.6040 -0.0115
 6566SOL     OW31351   9.456   8.260   5.431  0.6435 -0.5117  0.1098
 6566SOL    HW131352   9.387   8.316   5.477  0.7483 -0.6402  0.4220
 6566SOL    HW231353   9.410   8.198   5.368  0.4901 -0.4222  0.1307
 6567SOL     OW31354   4.874   8.323   4.766 -0.1836  0.2261  0.1479
 6567SOL    HW131355   4.946   8.282   4.821  1.3630  0.8856 -1.3011
 6567SOL    HW231356   4.818   8.383   4.823  0.3039 -0.4320  1.3377
 6568SOL     OW31357   6.427   8.747   4.761  0.3419 -0.2797 -0.0352
 6568SOL    HW131358   6.328   8.749   4.747  0.4077  2.7326 -0.3719
 6568SOL    HW231359   6.473   8.783   4.680  1.6734 -0.5033  0.6037
 6569SOL     OW31360   7.423   7.260   7.235  0.1854 -0.9039 -0.4942
 6569SOL    HW131361   7.400   7.355   7.255  1.4138 -0.3904 -1.4165
 6569SOL    HW231362   7.523   7.249   7.233  0.0706 -2.5999  1.3296
 6570SOL     OW31363   7.214   6.573   2.800  0.8004  0.8962 -0.1400
 6570SOL    HW131364   7.163   6.557   2.716 -1.6340  0.6473  1.3403
 6570SOL    HW231365   7.231   6.671   2.810  1.4063  0.8953 -1.0721
 6571SOL     OW31366   2.081   7.064   2.829  0.1024 -0.4930 -0.4646
 6571SOL    HW131367   2.004   7.118   2.794  0.9401  1.0248 -0.0073
 6571SOL    HW231368   2.132   7.025   2.753  0.0438  0.1449 -0.8343
 6572SOL     OW31369   7.582   6.370   3.127 -0.3787 -0.2868 -0.3414
 6572SOL    HW131370   7.544   6.417   3.047 -2.1735 -2.0174 -0.5320
 6572SOL    HW231371   7.514   6.368   3.200  0.6104 -0.3139  0.5957
 6573SOL     OW31372   0.430   4.647   1.780 -0.5626 -0.3818  0.5304
 6573SOL    HW131373   0.458   4.573   1.842  2.1426 -0.6787 -0.9841
 6573SOL    HW231374   0.342   4.624   1.738  0.1554 -2.6491  0.2258
 6574SOL     OW31375   5.921   4.307   0.839 -0.2481  0.4131 -0.2877
 6574SOL    HW131376   5.993   4.377   0.844 -0.2452  0.3240  1.4400
 6574SOL    HW231377   5.840   4.340   0.888 -0.3115 -0.7207  0.3743
 6575SOL     OW31378   5.979   0.403   7.615 -0.3367 -0.2066  0.0658
 6575SOL    HW131379   5.965   0.468   7.540  0.6635  0.0817  0.1144
 6575SOL    HW231380   5.969   0.310   7.580  1.5633 -0.1232 -0.7833
 6576SOL     OW31381   8.410   5.886   3.116  0.2491  0.2997 -0.2796
 6576SOL    HW131382   8.353   5.825   3.061  0.7273  1.2775 -1.8984
 6576SOL    HW231383   8.506   5.873   3.092  0.5959 -0.2240  1.3196
 6577SOL     OW31384   8.501   4.875   2.099  0.2487  0.4296  0.1798
 6577SOL    HW131385   8.571   4.887   2.029  0.0789  1.0253  0.1155
 6577SOL    HW231386   8.490   4.959   2.152  0.0496  0.1319  0.6232
 6578SOL     OW31387   5.481   6.754   0.093  0.3049 -0.1069 -0.2418
 6578SOL    HW131388   5.540   6.696   0.149  0.6205 -0.2038 -0.6739
 6578SOL    HW231389   5.491   6.849   0.123  0.0946 -0.2211  0.1960
 6579SOL     OW31390   7.981   8.428   6.674  0.3632  0.2289 -0.3261
 6579SOL    HW131391   7.914   8.500   6.691 -0.1017  0.4404 -2.8562
 6579SOL    HW231392   8.019   8.439   6.582  0.8946 -2.2868 -0.4386
 6580SOL     OW31393   6.570   0.204   2.651  0.1752 -0.4662  0.7036
 6580SOL    HW131394   6.583   0.281   2.589  1.7542 -1.5308 -0.3357
 6580SOL    HW231395   6.660   0.165   2.674 -0.6801 -2.9077  0.0147
 6581SOL     OW31396   6.275   5.494   1.822  0.2358  0.4263 -0.2818
 6581SOL    HW131397   6.232   5.477   1.733  0.8142  1.1402 -0.7022
 6581SOL    HW231398   6.354   5.434   1.833  0.0881  0.2490 -0.2066
 6582SOL     OW31399   9.753   0.242   3.057  0.3436 -0.4362 -0.6274
 6582SOL    HW131400   9.848   0.274   3.062  0.1978  0.1947 -1.8560
 6582SOL    HW231401   9.753   0.142   3.049  0.8682 -0.5257  0.3295
 6583SOL     OW31402   6.811   8.091   6.826  0.4383  0.5096 -0.2772
 6583SOL    HW131403   6.715   8.108   6.801 -0.0573 -0.4998  0.9058
 6583SOL    HW231404   6.848   8.173   6.870  0.1774  0.9674 -0.8966
 6584SOL     OW31405   3.428   4.693   3.959 -0.0972 -0.2442 -0.0886
 6584SOL    HW131406   3.428   4.793   3.953 -0.9709 -0.3461 -2.5331
 6584SOL    HW231407   3.344   4.658   3.917 -0.0836 -2.0002  1.2945
 6585SOL     OW31408   6.968   6.179   6.876 -0.3913 -0.3833 -0.4441
 6585SOL    HW131409   6.937   6.269   6.846 -0.8433 -0.2114  0.5074
 6585SOL    HW231410   7.025   6.190   6.958 -0.2122 -0.9407 -0.4905
 6586SOL     OW31411   1.215   0.369   6.080  0.1162 -0.0654 -0.2223
 6586SOL    HW131412   1.276   0.364   6.159 -0.6799  0.3907  0.4288
 6586SOL    HW231413   1.253   0.430   6.011  0.5345 -0.0179  0.0525
 6587SOL     OW31414   8.304   1.555   4.064 -0.0533  0.3383  0.3061
 6587SOL    HW131415   8.212   1.522   4.046  0.0724  0.2962 -0.2711
 6587SOL    HW231416   8.357   1.554   3.979  0.4745  0.3720  0.6327
 6588SOL     OW31417   8.926   0.183   2.366 -0.3900 -0.1605 -0.5264
 6588SOL    HW131418   8.868   0.134   2.432  1.0635 -0.5921  0.4570
 6588SOL    HW231419   8.905   0.151   2.274  1.1493 -3.3712  0.1476
 6589SOL     OW31420   7.949   1.903   0.417  0.5564  0.2382  0.2560
 6589SOL    HW131421   7.932   1.816   0.371  1.4897 -0.5547  1.3838
 6589SOL    HW231422   8.041   1.935   0.396  0.8887  0.0088  1.3578
 6590SOL     OW31423   6.526   3.687   1.752 -0.4576  0.2594 -0.1706
 6590SOL    HW131424   6.490   3.731   1.670  1.4764  1.9378 -0.1729
 6590SOL    HW231425   6.545   3.757   1.821  1.9234 -0.6420  0.1409
 6591SOL     OW31426   4.946   9.913   5.590 -0.0279  0.0921  0.3593
 6591SOL    HW131427   4.895   9.864   5.520  0.5241 -0.8369  0.5835
 6591SOL    HW231428   4.913   9.885   5.681  1.6268 -1.3785  0.5278
 6592SOL     OW31429   6.876   3.410   2.572  0.5665 -0.7335 -0.0881
 6592SOL    HW131430   6.837   3.357   2.647  0.2171 -0.3195  0.0245
 6592SOL    HW231431   6.974   3.392   2.566  0.5267 -1.0588  0.2242
 6593SOL     OW31432   8.628   6.207   2.022 -0.1805  0.1364  0.0978
 6593SOL    HW131433   8.717   6.163   2.023  0.7729  1.9387 -1.9715
 6593SOL    HW231434   8.556   6.138   2.021  1.2625 -1.3805 -2.7175
 6594SOL     OW31435   2.139   0.343   2.404 -0.2035  0.4681  0.1418
 6594SOL    HW131436   2.086   0.271   2.358  0.1358 -0.0672  0.5782
 6594SOL    HW231437   2.216   0.370   2.347 -1.2447  1.6465 -0.7492
 6595SOL     OW31438   3.390   1.354   3.523 -0.2200 -0.3608  0.1210
 6595SOL    HW131439   3.376   1.367   3.621 -1.2125 -0.4020 -0.0088
 6595SOL    HW231440   3.438   1.268   3.507  2.8235  1.1415  0.7444
 6596SOL     OW31441   2.684   6.082   1.499 -0.3289 -0.3228 -0.2904
 6596SOL    HW131442   2.612   6.094   1.431 -0.6950 -1.3823 -0.0958
 6596SOL    HW231443   2.706   6.171   1.540  1.5569  0.7204 -3.4376
 6597SOL     OW31444   4.268   8.446   1.544 -0.8386  0.3680  0.3050
 6597SOL    HW131445   4.367   8.445   1.560 -0.6266  0.8349 -0.9286
 6597SOL    HW231446   4.248   8.411   1.452 -2.0960 -3.1950  1.8383
 6598SOL     OW31447   4.873   9.875   4.171  0.2632  0.5252 -0.5507
 6598SOL    HW131448   4.953   9.822   4.201 -0.6610  0.3016  1.6571
 6598SOL    HW231449   4.892   9.972   4.184 -0.3716  0.3992  1.4833
 6599SOL     OW31450   2.025   2.004   2.473 -0.3795 -0.0743 -0.0957
 6599SOL    HW131451   2.022   2.103   2.478  1.0386 -0.0857  1.3980
 6599SOL    HW231452   2.072   1.976   2.389 -0.0570  0.5294 -0.1199
 6600SOL     OW31453   8.180   1.422   6.910  0.1466  0.4329 -0.3992
 6600SOL    HW131454   8.112   1.484   6.950 -1.3347 -0.6080 -1.2430
 6600SOL    HW231455   8.234   1.381   6.983  0.0358  1.4655  0.2706
 6601SOL     OW31456   1.714   3.282   5.207 -0.3461 -0.0895  0.5507
 6601SOL    HW131457   1.647   3.356   5.218  0.7788  1.0849 -0.3697
 6601SOL    HW231458   1.734   3.243   5.297 -1.5886  0.1526  0.9489
 6602SOL     OW31459   0.995   2.730   5.823  0.4229 -0.2043  0.5071
 6602SOL    HW131460   1.089   2.707   5.796  0.5450  0.5936  0.2599
 6602SOL    HW231461   0.994   2.757   5.919  0.6841  1.1927  0.1288
 6603SOL     OW31462   5.223   2.707   5.809  0.0528  0.0349  0.2261
 6603SOL    HW131463   5.158   2.772   5.848 -0.0141  0.2569 -0.2429
 6603SOL    HW231464   5.276   2.665   5.882 -2.1235 -1.7891  0.8402
 6604SOL     OW31465   7.095   2.630   2.247 -0.4803 -0.7646  0.9339
 6604SOL    HW131466   7.120   2.533   2.253 -0.7259 -0.8641  0.3339
 6604SOL    HW231467   7.135   2.679   2.325  1.2100 -1.0013  0.2553
 6605SOL     OW31468   6.063   9.420   4.453 -0.0054  0.1300  0.0779
 6605SOL    HW131469   5.986   9.424   4.517  0.6767  1.3330  0.8428
 6605SOL    HW231470   6.036   9.367   4.373 -2.3145  2.1342 -0.5510
 6606SOL     OW31471   8.026   9.141   2.016  0.1741  0.0784  0.0117
 6606SOL    HW131472   7.951   9.196   1.981  0.9161  0.6720 -0.6550
 6606SOL    HW231473   7.991   9.077   2.085 -0.8715  0.6011 -0.0251
 6607SOL     OW31474   8.868   7.767   1.989 -0.1313 -0.2122 -0.1393
 6607SOL    HW131475   8.843   7.733   1.898  0.6032  0.1167 -0.4684
 6607SOL    HW231476   8.802   7.734   2.056 -1.6262  0.9326 -1.0378
 6608SOL     OW31477   8.476   1.969   6.464  0.3399  0.2220 -0.3429
 6608SOL    HW131478   8.387   1.924   6.472  1.0121 -0.9363  0.8418
 6608SOL    HW231479   8.519   1.943   6.378 -0.7101  1.2496 -1.1904
 6609SOL     OW31480   9.657   4.199   1.492  0.0269  0.1786 -0.1225
 6609SOL    HW131481   9.629   4.180   1.586  0.0815  0.6680 -0.0073
 6609SOL    HW231482   9.591   4.157   1.429  1.4785 -2.5284  0.0897
 6610SOL     OW31483   0.296   1.140   5.085 -0.0959 -0.2300 -0.2168
 6610SOL    HW131484   0.367   1.209   5.101 -1.5377  1.2217  0.0705
 6610SOL    HW231485   0.236   1.135   5.165 -1.1057 -0.4769 -0.9760
 6611SOL     OW31486   1.000   6.831   1.323 -0.4844  0.5007 -0.0540
 6611SOL    HW131487   0.972   6.839   1.228  0.3992 -0.8033 -0.4339
 6611SOL    HW231488   0.973   6.741   1.358 -0.9422  1.0249  0.9814
 6612SOL     OW31489   7.804   4.866   1.846 -0.3412 -0.3005  0.0558
 6612SOL    HW131490   7.883   4.814   1.815 -0.2675 -0.3077  0.2520
 6612SOL    HW231491   7.730   4.804   1.872 -0.2477 -0.3081  0.3045
 6613SOL     OW31492   9.247   2.134   2.653  0.2612 -0.0575 -0.2629
 6613SOL    HW131493   9.327   2.130   2.713  0.9118  3.8347 -0.7188
 6613SOL    HW231494   9.164   2.124   2.707  0.9614 -0.4867  0.7500
 6614SOL     OW31495   4.292   7.345   3.124 -0.1154 -0.4283 -0.0897
 6614SOL    HW131496   4.346   7.272   3.166 -0.7807 -1.2049 -0.5630
 6614SOL    HW231497   4.196   7.332   3.146 -0.0526  1.4236  1.4460
 6615SOL     OW31498   1.807   1.662   0.828  0.1199  0.0178 -0.2024
 6615SOL    HW131499   1.790   1.615   0.742 -1.2116  0.8395 -0.4132
 6615SOL    HW231500   1.895   1.709   0.824  0.5869 -0.9056 -0.6818
 6616SOL     OW31501   9.395   9.251   7.679 -0.5168 -0.0551  0.0485
 6616SOL    HW131502   9.447   9.231   7.762 -1.2612 -0.2018  0.4817
 6616SOL    HW231503   9.309   9.294   7.703 -0.7321 -0.0832 -0.6535
 6617SOL     OW31504   1.216   0.567   0.480 -0.4791 -0.6231 -0.3768
 6617SOL    HW131505   1.260   0.491   0.527  0.9719 -0.4465 -1.4211
 6617SOL    HW231506   1.141   0.602   0.536  1.1903 -0.4301  1.7930
 6618SOL     OW31507   8.222   9.402   1.741 -0.2521 -0.0772 -0.2801
 6618SOL    HW131508   8.186   9.330   1.682 -1.5300  1.2232 -1.0893
 6618SOL    HW231509   8.304   9.441   1.699  0.0776 -0.6123 -0.1446
 6619SOL     OW31510   1.918   9.398   6.311  0.3013 -0.1226 -0.2635
 6619SOL    HW131511   1.893   9.489   6.345  0.8699 -0.8390  2.1524
 6619SOL    HW231512   1.855   9.330   6.348  1.0219 -0.9431 -0.5356
 6620SOL     OW31513   3.114   3.219   2.301 -0.4839 -0.1587  0.1894
 6620SOL    HW131514   3.030   3.193   2.348  0.2642 -2.1540  0.4587
 6620SOL    HW231515   3.142   3.310   2.332 -1.4798 -0.3104  1.5731
 6621SOL     OW31516   8.598   2.440   6.402  0.3454 -0.6792 -0.5913
 6621SOL    HW131517   8.535   2.420   6.477  1.2115 -3.0408 -0.4577
 6621SOL    HW231518   8.690   2.456   6.438  0.7384 -1.6954 -1.1438
 6622SOL     OW31519   6.179   0.133   5.570  0.5171  0.0607 -0.4553
 6622SOL    HW131520   6.097   0.151   5.516  0.5899  0.9616 -0.2771
 6622SOL    HW231521   6.233   0.062   5.526 -0.9641 -1.4098  0.0767
 6623SOL     OW31522   9.630   1.995   6.213 -0.9098  0.3874  0.4228
 6623SOL    HW131523   9.719   1.949   6.212 -1.2156 -0.2403 -1.4767
 6623SOL    HW231524   9.613   2.034   6.303  1.9368  1.8179  0.3880
 6624SOL     OW31525   1.235   1.977   5.899 -0.6069  0.0107 -0.2118
 6624SOL    HW131526   1.154   2.012   5.946 -0.4871  0.9821 -0.7071
 6624SOL    HW231527   1.310   2.042   5.911 -1.0830  1.2305 -3.2908
 6625SOL     OW31528   6.664   7.487   5.723 -0.0342 -0.6180 -0.2059
 6625SOL    HW131529   6.647   7.480   5.625  2.1766 -1.5440 -0.5601
 6625SOL    HW231530   6.582   7.458   5.773 -2.4201  3.1742 -1.7210
 6626SOL     OW31531   2.081   6.715   5.381  0.3538  0.5951  0.3711
 6626SOL    HW131532   2.052   6.712   5.477  1.7403 -1.3158  0.7637
 6626SOL    HW231533   2.151   6.785   5.370 -0.7529  1.7352  0.4654
 6627SOL     OW31534   5.262   1.452   5.305  0.2693 -0.5243 -0.0592
 6627SOL    HW131535   5.279   1.483   5.398 -0.7425  0.3101 -0.1486
 6627SOL    HW231536   5.313   1.510   5.241  2.2556 -2.0934  0.0503
 6628SOL     OW31537   2.676   6.702   6.627 -0.4473 -0.0782  0.0071
 6628SOL    HW131538   2.732   6.650   6.691 -0.2127 -2.1603 -1.7992
 6628SOL    HW231539   2.585   6.660   6.621 -0.8859  0.8761 -0.0480
 6629SOL     OW31540   3.131   0.806   3.282 -0.7180 -0.9512  0.1011
 6629SOL    HW131541   3.141   0.882   3.218  1.7680 -0.5697  0.8893
 6629SOL    HW231542   3.073   0.833   3.358  0.8187  0.4903  0.7944
 6630SOL     OW31543   9.607   4.478   1.753 -0.6656  0.0321  0.2204
 6630SOL    HW131544   9.681   4.536   1.719  0.1331 -1.3166 -0.4144
 6630SOL    HW231545   9.617   4.466   1.852 -0.2522  0.1797  0.1986
 6631SOL     OW31546   8.660   6.849   6.369 -0.5015 -0.3567 -0.1713
 6631SOL    HW131547   8.602   6.908   6.314 -0.3058 -1.1214 -1.2077
 6631SOL    HW231548   8.700   6.778   6.312  1.3543  0.0684  0.5404
 6632SOL     OW31549   7.711   3.654   1.334 -0.4526 -0.8519  0.3090
 6632SOL    HW131550   7.676   3.672   1.242 -2.0435 -1.4027  0.7954
 6632SOL    HW231551   7.783   3.585   1.328  1.0252  0.7451 -0.7640
 6633SOL     OW31552   8.928   2.345   4.012  0.9770  0.5352 -0.3392
 6633SOL    HW131553   8.841   2.331   3.965  1.3974 -1.5224 -0.5584
 6633SOL    HW231554   8.934   2.440   4.044 -1.3500  0.6945 -0.2876
 6634SOL     OW31555   9.346   1.292   4.678 -0.5208 -0.0646 -0.2324
 6634SOL    HW131556   9.322   1.228   4.751 -0.2560  0.7857  0.6045
 6634SOL    HW231557   9.319   1.385   4.704  0.7176  0.4265 -0.6821
 6635SOL     OW31558   2.294   7.309   5.497  0.0773  0.0536 -0.2288
 6635SOL    HW131559   2.393   7.319   5.481  0.0980 -1.7040 -1.4273
 6635SOL    HW231560   2.262   7.381   5.557  2.1692  0.4535  0.4389
 6636SOL     OW31561   9.490   3.040   0.876 -0.1988 -0.3129  0.3625
 6636SOL    HW131562   9.499   3.096   0.793 -0.4104  0.6614  0.9992
 6636SOL    HW231563   9.405   2.987   0.870  0.4554 -1.2607 -0.6541
 6637SOL     OW31564   0.455   2.587   5.571 -0.2549 -0.1626  0.0059
 6637SOL    HW131565   0.443   2.592   5.671  0.4733 -1.0053  0.1409
 6637SOL    HW231566   0.484   2.496   5.546 -0.5854  0.0082 -1.0130
 6638SOL     OW31567   9.348   6.768   4.806 -0.2942 -0.1513  0.4677
 6638SOL    HW131568   9.303   6.680   4.823  1.9835 -1.1188  1.5960
 6638SOL    HW231569   9.389   6.801   4.891 -0.7054  1.7746 -0.0646
 6639SOL     OW31570   3.822   4.539   2.712 -0.6106  0.1004 -0.4301
 6639SOL    HW131571   3.857   4.632   2.704  0.0747 -0.0689  0.5559
 6639SOL    HW231572   3.733   4.533   2.667 -1.7894  1.8458  1.5831
 6640SOL     OW31573   7.573   1.664   1.189 -0.0484  0.6915 -0.0021
 6640SOL    HW131574   7.631   1.599   1.238 -1.5168  0.3586  1.3255
 6640SOL    HW231575   7.613   1.756   1.195  1.0402  0.2385 -0.2591
 6641SOL     OW31576   3.876   0.089   0.557  0.2813 -0.0198 -0.2591
 6641SOL    HW131577   3.903   0.159   0.491 -0.0188  0.4896  0.1546
 6641SOL    HW231578   3.789   0.116   0.600  0.4713 -0.3501  0.3360
 6642SOL     OW31579   3.358   6.913   6.418 -0.0916 -0.3894  0.1413
 6642SOL    HW131580   3.331   6.999   6.376 -0.7469  0.0890  1.5131
 6642SOL    HW231581   3.447   6.884   6.382 -0.5678  0.0882 -1.4274
 6643SOL     OW31582   2.672   7.011   1.976 -0.0079 -0.7618 -0.2962
 6643SOL    HW131583   2.731   7.022   1.896  0.4852 -0.8780  0.0471
 6643SOL    HW231584   2.727   7.023   2.059 -0.7784  0.7185  0.0219
 6644SOL     OW31585   1.136   3.159   5.998  0.3359  0.5071 -0.2720
 6644SOL    HW131586   1.079   3.153   5.916 -1.2448 -0.7354  0.9000
 6644SOL    HW231587   1.151   3.255   6.021  0.5087  0.8621 -1.8107
 6645SOL     OW31588   1.117   6.959   0.766 -0.2146  0.8790  0.1351
 6645SOL    HW131589   1.026   6.924   0.785 -0.6051  1.2925 -0.9116
 6645SOL    HW231590   1.114   7.016   0.683  1.2834 -0.4402 -0.8646
 6646SOL     OW31591   4.598   9.641   2.384 -0.0242 -0.2217 -0.1537
 6646SOL    HW131592   4.541   9.560   2.399  1.4918 -1.0397  1.4125
 6646SOL    HW231593   4.639   9.637   2.293 -1.9101  0.0471 -1.0405
 6647SOL     OW31594   8.953   2.594   0.961 -0.2071 -0.1025  0.7160
 6647SOL    HW131595   9.010   2.512   0.965 -0.8750 -0.5945  0.3475
 6647SOL    HW231596   8.861   2.572   0.995 -0.5859  0.3161 -0.0209
 6648SOL     OW31597   3.791   7.814   3.888 -0.8370  0.5433  0.0733
 6648SOL    HW131598   3.874   7.763   3.908 -1.1182 -0.1142 -0.4124
 6648SOL    HW231599   3.763   7.797   3.794 -0.4090  2.3492 -0.4094
 6649SOL     OW31600   8.410   6.535   6.670 -0.3152 -0.5790  0.1948
 6649SOL    HW131601   8.471   6.483   6.731 -1.9659 -0.8645  1.6519
 6649SOL    HW231602   8.342   6.584   6.725 -1.7924 -0.7665 -1.4231
 6650SOL     OW31603   9.342   2.565   7.081  0.0832 -0.0283 -0.3999
 6650SOL    HW131604   9.401   2.485   7.096  1.2168  0.8520 -0.0808
 6650SOL    HW231605   9.329   2.614   7.167  1.6808  1.6780 -1.0953
 6651SOL     OW31606   2.895   2.968   3.472  0.0727 -0.0804  0.5092
 6651SOL    HW131607   2.983   2.925   3.493 -0.1817 -1.6069 -1.3786
 6651SOL    HW231608   2.833   2.957   3.549  0.9738 -0.5172  1.1838
 6652SOL     OW31609   0.645   6.071   4.192 -0.4762 -0.0690 -0.0755
 6652SOL    HW131610   0.647   5.981   4.235 -0.7768 -0.2328 -0.4009
 6652SOL    HW231611   0.681   6.065   4.099 -0.7978  0.0819 -0.2119
 6653SOL     OW31612   9.821   1.526   7.143 -0.3993  0.0557 -0.2160
 6653SOL    HW131613   9.723   1.515   7.162  0.1201 -1.3561  1.8264
 6653SOL    HW231614   9.841   1.487   7.054 -1.3768 -1.4960  0.2135
 6654SOL     OW31615   2.791   4.418   5.955 -0.1533  0.1024  0.1995
 6654SOL    HW131616   2.834   4.334   5.922 -1.0350  0.3044 -1.5031
 6654SOL    HW231617   2.853   4.495   5.943  0.0676 -0.0536  0.3350
 6655SOL     OW31618   9.268   0.430   5.204 -0.1533  0.3024  0.0900
 6655SOL    HW131619   9.232   0.338   5.218 -0.5354  0.4836  0.3085
 6655SOL    HW231620   9.315   0.434   5.115 -1.2023  0.2275 -0.4778
 6656SOL     OW31621   2.234   3.841   3.920 -0.1645 -0.1202 -0.4108
 6656SOL    HW131622   2.275   3.752   3.903  1.1812  0.5302 -0.6592
 6656SOL    HW231623   2.179   3.868   3.841 -0.1406 -0.4977 -0.5554
 6657SOL     OW31624   7.003   1.070   2.685  0.5014  0.1059 -0.1696
 6657SOL    HW131625   7.073   1.103   2.749 -0.0344 -0.9860  0.9963
 6657SOL    HW231626   7.045   1.050   2.596  1.4479  0.5889  0.1675
 6658SOL     OW31627   8.325   4.753   3.992 -0.0272 -0.3894  0.0572
 6658SOL    HW131628   8.346   4.758   3.894  1.3328 -0.2309  0.3514
 6658SOL    HW231629   8.238   4.800   4.010 -0.6382 -1.0324 -1.1702
 6659SOL     OW31630   2.251   1.338   2.846 -0.2075 -0.5231  0.0985
 6659SOL    HW131631   2.310   1.353   2.766 -0.6588 -0.9252 -0.3176
 6659SOL    HW231632   2.208   1.425   2.872 -0.6566 -0.5375 -0.5788
 6660SOL     OW31633   1.255   3.956   1.920 -0.6447 -0.2185 -0.8254
 6660SOL    HW131634   1.251   4.046   1.962  1.2112 -0.0898 -0.9122
 6660SOL    HW231635   1.287   3.889   1.987  1.0608 -0.2419 -1.6441
 6661SOL     OW31636   8.672   1.270   0.559 -0.4104 -0.5023 -0.0220
 6661SOL    HW131637   8.628   1.279   0.648 -1.3215  0.8016 -0.5860
 6661SOL    HW231638   8.728   1.351   0.540 -2.1676  0.3611 -1.6650
 6662SOL     OW31639   5.820   8.968   4.550 -0.1269  0.7719  0.2804
 6662SOL    HW131640   5.813   9.060   4.512  1.9947 -0.7648 -4.1735
 6662SOL    HW231641   5.737   8.916   4.527 -0.0381  0.6839  0.1577
 6663SOL     OW31642   2.159   9.726   2.166  0.5974  0.3716 -0.0159
 6663SOL    HW131643   2.068   9.691   2.143  0.4225  0.9545 -0.2248
 6663SOL    HW231644   2.189   9.790   2.095  2.3068 -1.8198 -1.3372
 6664SOL     OW31645   9.160   3.847   0.739  0.3899 -0.1361  0.2402
 6664SOL    HW131646   9.086   3.821   0.801 -1.3553  0.3095 -1.5983
 6664SOL    HW231647   9.195   3.766   0.693  1.0885 -0.3553  1.1563
 6665SOL     OW31648   5.044   0.373   6.790  0.0260  0.0036  0.0593
 6665SOL    HW131649   4.969   0.309   6.775  0.4503  0.1262 -3.1198
 6665SOL    HW231650   5.021   0.461   6.750  0.7939  0.8544  1.4476
 6666SOL     OW31651   4.551   3.278   0.194 -0.8486 -0.4883  0.7801
 6666SOL    HW131652   4.503   3.191   0.185  0.8427 -1.2054 -1.9179
 6666SOL    HW231653   4.501   3.348   0.143 -0.8226 -0.4563  0.7990
 6667SOL     OW31654   9.266   4.254   1.079  0.4856 -0.0514  0.3925
 6667SOL    HW131655   9.221   4.282   1.163 -0.8110  0.0435 -0.3186
 6667SOL    HW231656   9.281   4.334   1.021 -2.8875 -0.7008 -1.4798
 6668SOL     OW31657   7.998   9.751   5.568  0.5869 -0.4592 -0.0841
 6668SOL    HW131658   8.019   9.687   5.494 -1.8058  0.9554 -2.0769
 6668SOL    HW231659   7.942   9.826   5.532 -0.5153  0.3397  3.1372
 6669SOL     OW31660   3.135   7.097   2.214 -0.0511 -0.4518 -0.4024
 6669SOL    HW131661   3.079   7.129   2.290 -0.2877 -0.3353 -0.6248
 6669SOL    HW231662   3.223   7.064   2.249  0.0169  0.0144 -0.1265
 6670SOL     OW31663   9.392   4.337   6.017 -0.5801 -0.0252 -0.3692
 6670SOL    HW131664   9.426   4.394   5.943 -0.4984  0.4987  0.0645
 6670SOL    HW231665   9.307   4.376   6.053  0.8089  1.2711  1.6223
 6671SOL     OW31666   6.023   9.101   8.185 -0.1363 -0.2226  0.0863
 6671SOL    HW131667   6.096   9.034   8.200  1.6357  1.1961 -1.8440
 6671SOL    HW231668   5.983   9.087   8.094 -0.2202  0.8886 -0.0566
 6672SOL     OW31669   2.088   6.929   4.028 -0.2879  0.0684 -0.3003
 6672SOL    HW131670   2.114   6.943   3.932 -0.4326 -0.4446 -0.4180
 6672SOL    HW231671   1.993   6.897   4.032 -0.0560 -0.5870 -0.0272
 6673SOL     OW31672   0.730   8.016   5.127 -0.3615 -0.1326 -0.2595
 6673SOL    HW131673   0.807   8.042   5.069  0.1429 -0.3449  0.3103
 6673SOL    HW231674   0.648   8.063   5.097  0.1207  0.5557 -0.5023
 6674SOL     OW31675   5.097   2.445   5.621  0.3625 -0.1022 -0.2508
 6674SOL    HW131676   5.138   2.366   5.667  0.4044  0.0856  0.0344
 6674SOL    HW231677   5.143   2.529   5.651  1.3562 -0.1070 -1.7057
 6675SOL     OW31678   1.873   6.648   5.981  0.0501 -0.4199 -0.0524
 6675SOL    HW131679   1.887   6.741   6.014 -0.1031 -0.5140  0.2727
 6675SOL    HW231680   1.854   6.587   6.057 -1.5403 -0.4046 -0.4184
 6676SOL     OW31681   6.396   4.160   0.889  0.0725  0.0913 -0.1812
 6676SOL    HW131682   6.417   4.242   0.942  0.9931 -0.7049  0.7101
 6676SOL    HW231683   6.302   4.131   0.909 -0.6019  1.4625 -1.2417
 6677SOL     OW31684   2.905   6.961   3.291  0.1827  0.1112  0.3177
 6677SOL    HW131685   2.982   6.994   3.346  1.4511 -0.1099 -1.2669
 6677SOL    HW231686   2.902   6.861   3.295  2.1309 -0.1047 -2.3457
 6678SOL     OW31687   0.871   6.671   2.759  0.6607 -0.4028  0.7093
 6678SOL    HW131688   0.821   6.710   2.836  0.2553 -0.3077  0.3918
 6678SOL    HW231689   0.929   6.596   2.793  1.1600  0.2143  1.2538
 6679SOL     OW31690   3.132   6.810   4.711  0.9719  0.7066  0.0978
 6679SOL    HW131691   3.051   6.862   4.742  0.9162  0.5943  0.1405
 6679SOL    HW231692   3.150   6.736   4.775  2.3573  1.9994  1.2387
 6680SOL     OW31693   8.572   8.321   4.222  1.1379 -0.1081  0.3009
 6680SOL    HW131694   8.632   8.243   4.203  0.8695 -0.2741  0.1378
 6680SOL    HW231695   8.560   8.329   4.321 -0.3691 -1.4466  0.2498
 6681SOL     OW31696   2.624   1.489   0.535  0.3028 -0.9727 -0.3481
 6681SOL    HW131697   2.637   1.414   0.600  1.5391  0.4418  1.0948
 6681SOL    HW231698   2.539   1.538   0.558 -0.4889 -1.8921 -1.2714
 6682SOL     OW31699   8.587   3.194   6.047  0.7112  0.2868 -0.2257
 6682SOL    HW131700   8.540   3.184   5.959 -0.8075  1.6053  0.3935
 6682SOL    HW231701   8.652   3.269   6.041  1.0972 -0.0593 -0.4117
 6683SOL     OW31702   2.949   0.695   5.245 -0.1422  0.0598 -0.2007
 6683SOL    HW131703   2.900   0.611   5.268 -0.0686 -0.3491 -1.4790
 6683SOL    HW231704   3.048   0.680   5.257 -0.1677  0.1295  0.0892
 6684SOL     OW31705   8.276   5.125   7.180  0.2268  0.0837  0.1361
 6684SOL    HW131706   8.333   5.108   7.260  1.0689 -0.5293 -0.5829
 6684SOL    HW231707   8.195   5.176   7.207  1.7806  2.2072  0.9717
 6685SOL     OW31708   2.001   1.040   4.283 -0.1285  0.3167 -0.7540
 6685SOL    HW131709   1.970   0.951   4.317  0.4711 -0.0520 -1.1677
 6685SOL    HW231710   2.034   1.030   4.190  2.4270  0.4219  0.0938
 6686SOL     OW31711   2.473   3.007   6.613  0.3146 -0.7089  0.5661
 6686SOL    HW131712   2.497   2.967   6.524 -0.8553 -0.7350  0.2547
 6686SOL    HW231713   2.513   3.099   6.620  0.5309 -0.7636  0.0808
 6687SOL     OW31714   2.904   5.848   7.195 -0.3804 -0.0628 -0.4336
 6687SOL    HW131715   2.921   5.750   7.198 -0.2978 -0.0564 -0.7323
 6687SOL    HW231716   2.871   5.878   7.285  1.1489 -0.0828  0.1561
 6688SOL     OW31717   1.092   9.218   2.948 -0.4497 -0.0705 -0.5267
 6688SOL    HW131718   1.110   9.208   2.850 -1.8781 -0.5824 -0.7505
 6688SOL    HW231719   1.157   9.283   2.987  0.3645 -0.1373 -1.7464
 6689SOL     OW31720   5.023   8.372   3.577 -0.7143 -0.0123  0.5294
 6689SOL    HW131721   4.969   8.442   3.531 -1.8826 -0.3647  1.3272
 6689SOL    HW231722   5.113   8.366   3.534 -1.6778 -0.1704 -1.5608
 6690SOL     OW31723   3.924   3.887   5.740 -0.4452  0.1551 -0.0008
 6690SOL    HW131724   3.981   3.939   5.676  1.3170 -0.6861  0.8570
 6690SOL    HW231725   3.879   3.812   5.691 -0.3523  0.4568 -0.5588
 6691SOL     OW31726   6.404   2.903   0.415  0.1240 -0.7944 -0.4578
 6691SOL    HW131727   6.481   2.852   0.455  0.8058 -0.8178 -1.7922
 6691SOL    HW231728   6.320   2.850   0.424  0.3982 -1.1161  0.2722
 6692SOL     OW31729   1.912   9.665   0.623  0.4019  0.3906  0.1734
 6692SOL    HW131730   1.856   9.613   0.558  1.0797  1.7733 -1.5512
 6692SOL    HW231731   1.982   9.604   0.662  0.2721 -0.3517 -0.7267
 6693SOL     OW31732   5.932   1.235   5.748  0.3941  0.5551  0.1879
 6693SOL    HW131733   5.947   1.141   5.778 -0.1861  0.1870 -0.6671
 6693SOL    HW231734   5.965   1.246   5.654  0.2203  1.1446  0.1917
 6694SOL     OW31735   3.879   9.447   2.925 -0.1334  0.0602  0.4770
 6694SOL    HW131736   3.789   9.444   2.881  0.1342  3.3497 -0.4469
 6694SOL    HW231737   3.948   9.411   2.863 -0.4886 -0.2981  0.2876
 6695SOL     OW31738   9.926   7.578   6.739 -0.7885 -0.4101 -0.5957
 6695SOL    HW131739  10.026   7.581   6.727 -0.7953 -0.1778 -0.5965
 6695SOL    HW231740   9.905   7.583   6.837 -0.7308 -2.3525 -0.4689
 6696SOL     OW31741   7.920   1.169   0.771  0.2718 -0.3017 -0.0860
 6696SOL    HW131742   7.944   1.080   0.810  1.1761 -0.5285 -1.1415
 6696SOL    HW231743   7.891   1.230   0.845  1.3107 -0.9371  0.8663
 6697SOL     OW31744   3.778   8.042   5.056  0.2847 -1.1563  0.4065
 6697SOL    HW131745   3.727   8.048   5.141  2.5768 -2.5205  1.9200
 6697SOL    HW231746   3.714   8.037   4.979 -1.8086  0.2968  1.9994
 6698SOL     OW31747   3.366   8.015   2.377  0.3668 -0.1475 -0.1352
 6698SOL    HW131748   3.324   8.000   2.466 -0.3322  1.9453 -0.0993
 6698SOL    HW231749   3.316   7.963   2.307  0.5834 -1.3490  0.5931
 6699SOL     OW31750   3.942   7.820   0.646  0.2317 -0.4721 -0.1168
 6699SOL    HW131751   4.003   7.863   0.580  1.0077 -2.5243 -0.7812
 6699SOL    HW231752   3.962   7.722   0.651 -1.1419 -0.6896  1.7217
 6700SOL     OW31753   6.225   9.488   3.990 -0.3708 -0.0303  0.5745
 6700SOL    HW131754   6.296   9.420   3.972 -0.6623 -0.5626  1.3980
 6700SOL    HW231755   6.267   9.573   4.020 -0.0210  0.0509 -0.1317
 6701SOL     OW31756   8.289   6.741   0.921  0.0080  0.3146  0.7999
 6701SOL    HW131757   8.299   6.710   0.827  0.0946 -0.0805  0.9394
 6701SOL    HW231758   8.277   6.840   0.922  0.6393  0.3949  0.4200
 6702SOL     OW31759   4.094   3.205   5.387  0.2228 -0.2587  0.3466
 6702SOL    HW131760   4.030   3.214   5.463  1.4666  2.6469  1.0869
 6702SOL    HW231761   4.105   3.293   5.341  2.8294 -0.9654 -0.4867
 6703SOL     OW31762   8.403   8.242   5.259  0.6257 -0.1933 -0.4028
 6703SOL    HW131763   8.442   8.285   5.178  2.2677  0.2014  0.5725
 6703SOL    HW231764   8.305   8.260   5.262  0.9514  1.8432 -1.0395
 6704SOL     OW31765   3.066   3.104   7.170 -0.0663 -0.2320 -0.8539
 6704SOL    HW131766   3.089   3.147   7.083 -0.2689  2.3971  0.3375
 6704SOL    HW231767   3.149   3.096   7.225 -0.5574  1.6374  0.1915
 6705SOL     OW31768   0.077   2.545   6.612  0.4749  0.7304 -0.2040
 6705SOL    HW131769   0.060   2.454   6.651  1.0977  1.2978  1.4301
 6705SOL    HW231770  -0.010   2.591   6.595  0.1252 -0.4384 -1.7551
 6706SOL     OW31771   9.433   9.270   5.614  0.3792  0.1847 -0.1583
 6706SOL    HW131772   9.462   9.218   5.535  1.7266  0.8048 -0.0874
 6706SOL    HW231773   9.475   9.361   5.612  0.5919  0.1357  1.3722
 6707SOL     OW31774   7.441   2.010   2.153 -0.2174 -0.5296 -0.4539
 6707SOL    HW131775   7.473   2.041   2.242  0.7837 -0.6147 -0.7832
 6707SOL    HW231776   7.484   1.922   2.130  1.6575  0.8073 -2.2376
 6708SOL     OW31777   4.779   2.217   0.757  0.4095  0.4752  0.0012
 6708SOL    HW131778   4.688   2.245   0.726  0.1571  0.6510  0.8809
 6708SOL    HW231779   4.803   2.130   0.715  0.5094  1.2174 -1.4776
 6709SOL     OW31780   4.247   5.687   2.437 -0.4599 -0.2876  0.0431
 6709SOL    HW131781   4.190   5.717   2.360 -1.1583 -2.5676 -0.3693
 6709SOL    HW231782   4.191   5.636   2.502  1.0530 -2.5676 -0.3756
 6710SOL     OW31783   9.918   9.588   1.460  0.5604  0.6195  0.2158
 6710SOL    HW131784   9.861   9.521   1.507  0.1124  2.1287  1.8548
 6710SOL    HW231785  10.012   9.581   1.494  0.8286 -0.0707 -0.6079
 6711SOL     OW31786   2.028   5.530   3.168 -0.2035  0.4629  0.7880
 6711SOL    HW131787   2.008   5.463   3.239 -1.5541 -0.7732 -0.7042
 6711SOL    HW231788   1.944   5.576   3.142 -0.1173 -0.5531 -1.4083
 6712SOL     OW31789   4.796   9.956   1.134 -0.0680 -0.0471 -0.4607
 6712SOL    HW131790   4.794   9.965   1.234 -0.6583 -0.3568 -0.4457
 6712SOL    HW231791   4.891   9.945   1.104 -0.1903 -4.3220  0.4581
 6713SOL     OW31792   0.987   9.657   3.504  0.1813  0.1380 -0.2193
 6713SOL    HW131793   1.023   9.722   3.571  0.9959  1.9485 -2.3444
 6713SOL    HW231794   1.063   9.608   3.461 -0.2665 -0.2891 -0.5325
 6714SOL     OW31795   7.998   5.988   5.674 -0.0129  0.7030 -0.3431
 6714SOL    HW131796   7.916   5.961   5.624 -2.1849  2.9117  1.8377
 6714SOL    HW231797   8.009   6.087   5.668  1.7486  0.5725  0.5055
 6715SOL     OW31798   0.623   6.431   9.800  0.3931 -0.7986  0.1209
 6715SOL    HW131799   0.669   6.355   9.845 -1.2132 -1.3870  0.8204
 6715SOL    HW231800   0.545   6.396   9.747  2.0217 -0.0788 -2.8550
 6716SOL     OW31801   7.775   7.615   6.332 -0.0622  0.0277  0.2133
 6716SOL    HW131802   7.801   7.614   6.428  1.4778  0.2406 -0.1946
 6716SOL    HW231803   7.675   7.622   6.325 -0.1292  0.8629  1.7744
 6717SOL     OW31804   4.593   4.054   1.576  0.0195  0.2850  0.0590
 6717SOL    HW131805   4.681   4.101   1.570  0.4600 -0.3424  1.3803
 6717SOL    HW231806   4.531   4.090   1.506  1.5612  0.2091 -1.3762
 6718SOL     OW31807   1.383   8.272   6.706  0.1242 -0.5204  0.3264
 6718SOL    HW131808   1.399   8.322   6.621 -0.5919  0.5446  0.8113
 6718SOL    HW231809   1.385   8.336   6.783 -3.2173 -0.8084  0.7321
 6719SOL     OW31810   6.832   4.028   2.648  0.5739  0.1969  0.2312
 6719SOL    HW131811   6.790   3.942   2.620  1.4297 -0.4029  0.7643
 6719SOL    HW231812   6.770   4.077   2.709  0.0625 -0.0087 -0.1147
 6720SOL     OW31813   2.069   1.734   0.787  0.3862  0.1537 -0.1928
 6720SOL    HW131814   2.111   1.815   0.827 -0.2471  0.5043 -0.2406
 6720SOL    HW231815   2.039   1.754   0.694 -0.4048  0.0704  0.0440
 6721SOL     OW31816   4.790   8.645   3.064  0.3181 -0.5223 -0.4966
 6721SOL    HW131817   4.772   8.552   3.096  0.6046 -0.6161 -0.6081
 6721SOL    HW231818   4.860   8.687   3.122 -1.8095  0.6147  1.2963
 6722SOL     OW31819   3.611   4.059   4.672  0.2721  0.1061  0.0710
 6722SOL    HW131820   3.609   3.969   4.717  0.4017  0.6433  1.1668
 6722SOL    HW231821   3.704   4.080   4.644  0.2088 -0.1818 -0.3647
 6723SOL     OW31822   2.851   2.802   2.210 -0.3794  0.0368 -0.2921
 6723SOL    HW131823   2.932   2.778   2.156 -0.9544  0.9148 -1.5685
 6723SOL    HW231824   2.794   2.865   2.158 -0.7633  1.2035  1.5195
 6724SOL     OW31825   7.298   8.283   4.332  0.6334 -0.2192  0.4668
 6724SOL    HW131826   7.234   8.328   4.395 -0.5795 -0.2594 -0.7183
 6724SOL    HW231827   7.317   8.344   4.255  1.9103 -0.2722  0.7415
 6725SOL     OW31828   8.780   6.198   2.850 -0.2668  0.5839 -0.2449
 6725SOL    HW131829   8.841   6.118   2.843  0.0688  0.6824  1.2815
 6725SOL    HW231830   8.694   6.170   2.892 -0.4196  0.8803 -0.3623
 6726SOL     OW31831   6.455   0.444   6.142  0.1014  0.3498  0.0620
 6726SOL    HW131832   6.383   0.376   6.130  2.0476 -1.9384  0.9733
 6726SOL    HW231833   6.484   0.478   6.053 -0.3883 -0.5441 -0.4433
 6727SOL     OW31834   8.971   9.541   2.882 -0.0524 -0.2419 -0.5303
 6727SOL    HW131835   8.936   9.605   2.951  0.0746  0.2129 -0.8854
 6727SOL    HW231836   9.071   9.533   2.892 -0.0952 -0.5454 -0.3505
 6728SOL     OW31837   8.372   1.524   6.068  0.0944  0.1055 -0.9335
 6728SOL    HW131838   8.424   1.532   6.153  0.5315 -0.9940 -1.0983
 6728SOL    HW231839   8.286   1.575   6.077 -0.2326 -0.6622  0.4619
 6729SOL     OW31840   1.727   6.554   4.078 -0.1765 -0.3581 -0.5366
 6729SOL    HW131841   1.668   6.537   3.999  0.8328 -2.0951 -0.9583
 6729SOL    HW231842   1.676   6.537   4.162 -0.9289  0.3796 -0.8404
 6730SOL     OW31843   4.359   3.795   2.359 -0.3072  0.3770 -0.0676
 6730SOL    HW131844   4.293   3.786   2.433  0.0274  0.2126  0.2159
 6730SOL    HW231845   4.452   3.784   2.396 -0.1871 -0.7105 -0.6786
 6731SOL     OW31846   2.525   0.124   3.611  0.3484 -0.0751 -0.2830
 6731SOL    HW131847   2.484   0.143   3.700  0.8969 -1.8747  0.3756
 6731SOL    HW231848   2.476   0.175   3.540 -1.0077  0.2531  0.8639
 6732SOL     OW31849   3.235   1.442   0.366 -0.4217 -0.9333  0.1516
 6732SOL    HW131850   3.177   1.368   0.401 -1.6536 -0.2679 -0.4512
 6732SOL    HW231851   3.260   1.422   0.271 -0.2165 -0.8999  0.1997
 6733SOL     OW31852   4.367   6.810   0.672 -0.1109 -0.1556  0.0489
 6733SOL    HW131853   4.312   6.837   0.751 -0.9927  0.6142 -0.8216
 6733SOL    HW231854   4.331   6.853   0.589  1.0298 -0.6589 -0.7268
 6734SOL     OW31855   8.706   3.160   0.977  0.4106  0.9375  0.6957
 6734SOL    HW131856   8.638   3.148   0.905  0.9602 -0.1112  0.3351
 6734SOL    HW231857   8.784   3.211   0.941  2.0550 -2.2168 -0.3720
 6735SOL     OW31858   8.852   6.322   5.671  0.1699 -0.4515  0.5417
 6735SOL    HW131859   8.901   6.358   5.750 -0.0710 -1.2428  1.0627
 6735SOL    HW231860   8.896   6.238   5.640 -0.2817 -0.6397  0.4052
 6736SOL     OW31861   0.787   1.605   4.222 -0.1431 -0.3687  0.2816
 6736SOL    HW131862   0.730   1.586   4.142 -2.0229  0.9009  1.2898
 6736SOL    HW231863   0.823   1.519   4.259 -1.7567 -1.2254 -0.1049
 6737SOL     OW31864   3.581   3.442   5.386  0.4376 -0.2145 -0.3315
 6737SOL    HW131865   3.507   3.390   5.342  0.0939 -1.1943  1.3702
 6737SOL    HW231866   3.616   3.510   5.321 -0.8991 -0.7759 -1.6942
 6738SOL     OW31867   8.019   1.236   3.404 -0.4818 -0.4890 -0.0832
 6738SOL    HW131868   8.029   1.242   3.503 -1.0008 -0.9858  0.0005
 6738SOL    HW231869   8.077   1.162   3.369 -1.0089 -0.9269 -0.0371
 6739SOL     OW31870   8.151   0.957   5.188  0.2823  0.2319 -0.3919
 6739SOL    HW131871   8.158   1.045   5.234  0.3526  0.4195 -0.7660
 6739SOL    HW231872   8.089   0.964   5.110 -0.1246 -0.1780 -0.1142
 6740SOL     OW31873   6.407   1.148   6.410 -0.2801  0.3775 -0.9389
 6740SOL    HW131874   6.309   1.165   6.418  0.0741  2.5953 -1.0189
 6740SOL    HW231875   6.453   1.178   6.493  0.4422  0.2074 -1.2738
 6741SOL     OW31876   3.994   8.112   5.330 -0.1689 -0.4563  0.5061
 6741SOL    HW131877   4.017   8.041   5.263  0.5115 -0.3735  0.6446
 6741SOL    HW231878   3.911   8.087   5.378 -1.2610 -0.0006 -1.1111
 6742SOL     OW31879   9.051   9.017   4.136 -0.6068  0.1800 -0.0427
 6742SOL    HW131880   8.979   9.085   4.146 -1.5073 -0.9985  1.7496
 6742SOL    HW231881   9.031   8.958   4.058 -0.8932  0.6841 -0.3505
 6743SOL     OW31882   7.021   7.418   7.179 -0.0240 -0.4453 -0.3769
 6743SOL    HW131883   7.018   7.370   7.267 -0.8814  0.1354 -0.0752
 6743SOL    HW231884   7.086   7.494   7.185 -0.9498  0.3151  0.1411
 6744SOL     OW31885   3.152   5.115   7.038  0.5874 -0.3077  0.0753
 6744SOL    HW131886   3.171   5.018   7.048  0.9140 -0.6477 -3.2517
 6744SOL    HW231887   3.230   5.161   6.995 -0.0170  1.2132  0.5496
 6745SOL     OW31888   0.171   7.446   6.209 -0.5893 -0.0581 -0.4073
 6745SOL    HW131889   0.154   7.519   6.275  0.2337 -0.1235 -0.1163
 6745SOL    HW231890   0.269   7.441   6.190 -0.5752 -1.4603 -0.0025
 6746SOL     OW31891   5.116   7.646   4.101 -0.5514 -0.5732 -0.0280
 6746SOL    HW131892   5.086   7.724   4.156 -0.2544 -0.5829  0.1497
 6746SOL    HW231893   5.183   7.677   4.034  0.2046 -0.8222  0.6056
 6747SOL     OW31894   9.731   9.815   6.463 -0.4636 -0.0869 -0.2264
 6747SOL    HW131895   9.784   9.789   6.544 -1.2659 -0.6451  0.1303
 6747SOL    HW231896   9.649   9.864   6.492  0.4988  1.9424 -0.8434
 6748SOL     OW31897   8.864   8.804   7.454  0.0363  0.2347 -0.4993
 6748SOL    HW131898   8.787   8.776   7.512 -0.3682  1.1400 -0.5808
 6748SOL    HW231899   8.935   8.845   7.512  0.2081 -0.0732 -0.4914
 6749SOL     OW31900   3.078   7.933   3.121 -0.6503  0.5975  0.2507
 6749SOL    HW131901   3.113   7.842   3.096 -0.7709 -0.2724  3.0924
 6749SOL    HW231902   3.149   7.984   3.168 -1.5111  0.8670  1.2643
 6750SOL     OW31903   9.534   5.118   9.861 -0.2077 -0.6312  0.5243
 6750SOL    HW131904   9.498   5.043   9.916  0.3212 -2.1511 -1.1552
 6750SOL    HW231905   9.516   5.100   9.764 -1.7117  2.3007  0.1952
 6751SOL     OW31906   9.910   2.600   1.115 -0.5012 -0.4885  0.1271
 6751SOL    HW131907   9.844   2.663   1.155 -0.3060  0.7723 -1.4979
 6751SOL    HW231908   9.987   2.651   1.077 -0.2557 -1.7066 -1.0780
 6752SOL     OW31909   1.064   4.184   1.475 -0.3751 -0.6286 -0.1180
 6752SOL    HW131910   1.003   4.135   1.537  1.2072 -0.7080  1.4326
 6752SOL    HW231911   1.010   4.235   1.408 -2.2317  1.3892  2.7931
 6753SOL     OW31912   0.843   0.609   3.288  0.1237 -0.2528  0.0727
 6753SOL    HW131913   0.928   0.560   3.310 -0.6191 -1.6155 -0.0395
 6753SOL    HW231914   0.798   0.563   3.212  0.8841  2.3302 -2.0085
 6754SOL     OW31915   5.481   6.262   2.908  0.0168  0.4344 -0.1006
 6754SOL    HW131916   5.440   6.354   2.905 -1.1903 -0.1109 -0.4517
 6754SOL    HW231917   5.537   6.254   2.991  0.4976  1.6386 -0.2912
 6755SOL     OW31918   4.973   8.167   7.630 -0.1224 -0.3083 -0.2146
 6755SOL    HW131919   5.028   8.180   7.547 -0.4839 -1.1091 -0.5791
 6755SOL    HW231920   5.031   8.132   7.704  0.3548  1.0739  0.0923
 6756SOL     OW31921   0.693   7.459   6.767 -0.1386 -0.0699  0.4886
 6756SOL    HW131922   0.715   7.518   6.690 -0.5530  0.6515  0.9124
 6756SOL    HW231923   0.616   7.498   6.818 -1.3982 -1.7302 -0.0625
 6757SOL     OW31924   3.929   6.069   1.184 -0.6788  0.0101 -0.2378
 6757SOL    HW131925   3.901   6.071   1.088  1.1935  0.1094 -0.7954
 6757SOL    HW231926   3.913   6.159   1.225  0.2763  0.5234 -0.9772
 6758SOL     OW31927   3.368   2.286   3.031  0.0105  0.1751  0.1039
 6758SOL    HW131928   3.350   2.278   2.933  0.6125  0.9400 -0.0762
 6758SOL    HW231929   3.463   2.258   3.050  0.1999  0.9552  0.3250
 6759SOL     OW31930   2.158   1.077   2.866 -0.1404  0.3354  0.3048
 6759SOL    HW131931   2.163   1.032   2.777 -0.9102 -0.5790  0.7127
 6759SOL    HW231932   2.213   1.161   2.864 -0.2208  0.3714 -1.0475
 6760SOL     OW31933   2.858   0.264   7.247  0.0467 -0.2614 -0.0765
 6760SOL    HW131934   2.789   0.285   7.178  1.0298 -0.8236 -1.2450
 6760SOL    HW231935   2.840   0.173   7.286 -1.4020  0.6810  1.5381
 6761SOL     OW31936   5.910   1.189   1.441 -0.6155  0.4196 -0.1613
 6761SOL    HW131937   5.904   1.289   1.436 -0.3470  0.3924 -0.9938
 6761SOL    HW231938   5.842   1.148   1.380  1.1611  0.1011 -1.9764
 6762SOL     OW31939   5.896   1.735   6.717  0.3319  0.0216  0.1851
 6762SOL    HW131940   5.914   1.680   6.636 -1.2232 -0.0394 -0.1217
 6762SOL    HW231941   5.976   1.732   6.777  1.1927 -0.5633 -0.9758
 6763SOL     OW31942   9.761   8.239   2.364 -0.1995  0.3656 -0.4924
 6763SOL    HW131943   9.688   8.199   2.309  0.7062  1.2773 -2.4364
 6763SOL    HW231944   9.771   8.188   2.449 -1.8590 -0.8897 -1.0170
 6764SOL     OW31945   8.693   1.000   2.278 -0.3045  0.0671 -0.1527
 6764SOL    HW131946   8.702   1.069   2.350  1.3017  0.6195 -0.8571
 6764SOL    HW231947   8.742   0.917   2.304 -2.1199 -0.7921  0.6315
 6765SOL     OW31948   2.754   8.509  10.081  0.4234 -0.2333 -1.0069
 6765SOL    HW131949   2.801   8.510   9.993 -0.5407 -0.5171 -1.5359
 6765SOL    HW231950   2.692   8.431  10.085 -1.9871  1.5944 -1.3870
 6766SOL     OW31951   0.134   3.274   4.230 -0.6282  0.2581  0.2885
 6766SOL    HW131952   0.045   3.320   4.238  0.0336  1.4381  0.9782
 6766SOL    HW231953   0.186   3.315   4.155 -0.2834  0.2039  0.4986
 6767SOL     OW31954   0.146   0.801   5.296 -0.1929 -0.7799  0.3818
 6767SOL    HW131955   0.096   0.841   5.219  0.3329  1.2232  1.0764
 6767SOL    HW231956   0.243   0.798   5.276 -0.0628 -0.3369  0.9457
 6768SOL     OW31957   3.703   2.462   6.079  0.2720  0.7452  0.4446
 6768SOL    HW131958   3.735   2.554   6.103  2.9027 -0.0653  0.2091
 6768SOL    HW231959   3.774   2.416   6.026 -1.3653 -1.1366 -0.1361
 6769SOL     OW31960   1.362   0.026   5.194 -0.0028  0.2815  0.0019
 6769SOL    HW131961   1.447  -0.013   5.159 -0.3098  0.4642 -0.9542
 6769SOL    HW231962   1.293   0.028   5.122 -0.9320 -0.1740  0.8623
 6770SOL     OW31963   7.421   9.928   1.057  0.2509  0.1764 -0.5900
 6770SOL    HW131964   7.483   9.990   1.104  0.1400  0.9027 -1.3716
 6770SOL    HW231965   7.459   9.836   1.055  0.6965  0.3487  0.0659
 6771SOL     OW31966   8.403   5.136   2.290 -0.0378  0.7845 -0.4692
 6771SOL    HW131967   8.367   5.056   2.338  0.4830  1.5777  1.2748
 6771SOL    HW231968   8.484   5.170   2.337 -1.1866  3.3308 -0.2069
 6772SOL     OW31969   5.269   1.328   4.313  0.4941  0.0911  0.0491
 6772SOL    HW131970   5.230   1.269   4.384  0.9442  0.0288  0.2458
 6772SOL    HW231971   5.313   1.272   4.243  0.4731  0.1744 -0.0303
 6773SOL     OW31972   1.951   1.238   6.555  0.4945  0.2721  0.4893
 6773SOL    HW131973   1.938   1.141   6.574 -2.1609  0.8360  1.7603
 6773SOL    HW231974   1.928   1.257   6.459  1.4532 -0.3874  0.1143
 6774SOL     OW31975   3.059   1.139   3.618  0.0247 -0.2142  0.4825
 6774SOL    HW131976   2.960   1.149   3.605  0.3817  2.4227 -0.5741
 6774SOL    HW231977   3.078   1.119   3.715 -1.5545 -1.2675  0.5913
 6775SOL     OW31978   5.262   0.031   7.153 -0.4486 -0.1486 -0.4899
 6775SOL    HW131979   5.169   0.021   7.120 -0.4744  1.3628 -0.8843
 6775SOL    HW231980   5.261   0.057   7.250 -0.4233 -0.6874 -0.3429
 6776SOL     OW31981   7.829   1.470   5.014  0.3799 -0.2973 -0.0731
 6776SOL    HW131982   7.883   1.526   4.951  0.6090  1.9731  2.0649
 6776SOL    HW231983   7.767   1.412   4.962  2.1441 -0.1326 -2.4532
 6777SOL     OW31984   3.830   0.894   7.569 -0.0456 -0.3371  0.1433
 6777SOL    HW131985   3.797   0.855   7.483  0.1726 -0.3524  0.0663
 6777SOL    HW231986   3.777   0.976   7.591 -0.2896 -0.4941  0.1389
 6778SOL     OW31987   6.356   1.671   6.266  0.1920 -0.4749  1.0253
 6778SOL    HW131988   6.361   1.572   6.282  1.9852 -0.3523  1.3830
 6778SOL    HW231989   6.443   1.713   6.292  0.7859  0.6876 -2.5529
 6779SOL     OW31990   9.746   5.998   5.117 -0.3064  0.1742  0.0017
 6779SOL    HW131991   9.768   6.041   5.029 -2.2003  0.0281 -0.5624
 6779SOL    HW231992   9.647   5.987   5.125 -0.2238  0.9240  2.5130
 6780SOL     OW31993   2.563   0.548   6.938  0.5192 -0.0632 -0.4419
 6780SOL    HW131994   2.606   0.474   6.990 -0.0825  0.5556  0.9439
 6780SOL    HW231995   2.511   0.509   6.862  0.8653 -1.0068 -0.2042
 6781SOL     OW31996   5.826   3.603   0.960  0.0179  0.1186 -0.2738
 6781SOL    HW131997   5.862   3.670   0.896  0.5144 -0.7273 -0.8910
 6781SOL    HW231998   5.901   3.548   0.998 -0.1647  1.2189  1.7532
 6782SOL     OW31999   9.848   4.915   3.686 -0.0545 -0.5727  0.0557
 6782SOL    HW132000   9.809   4.834   3.642  0.6286 -0.6676 -0.3782
 6782SOL    HW232001   9.948   4.912   3.681  0.0655 -0.7567  1.9101
 6783SOL     OW32002   0.958   1.908   3.787 -0.1636  0.7012  0.7920
 6783SOL    HW132003   0.944   1.994   3.740  1.4677  0.7864  0.4425
 6783SOL    HW232004   0.898   1.904   3.867 -2.9730  0.5376 -1.2497
 6784SOL     OW32005   6.739   0.860   7.110  0.1145 -1.1472  0.5216
 6784SOL    HW132006   6.723   0.947   7.062  0.4031 -0.9342  0.8108
 6784SOL    HW232007   6.835   0.834   7.099 -0.1846 -1.9077 -0.3556
 6785SOL     OW32008   0.073   5.604   7.617  0.7475  0.1555 -0.2109
 6785SOL    HW132009   0.086   5.563   7.527  1.6455  2.3858 -1.1283
 6785SOL    HW232010   0.152   5.660   7.640 -0.3451  1.1898  1.1068
 6786SOL     OW32011   9.745   0.876   6.602 -0.0298 -0.1551 -0.6099
 6786SOL    HW132012   9.781   0.789   6.568 -1.5153 -1.1505  0.2779
 6786SOL    HW232013   9.809   0.915   6.669 -0.4561 -1.7757  0.7769
 6787SOL     OW32014   2.659   9.707   2.510  0.0412  0.3158  0.2358
 6787SOL    HW132015   2.592   9.634   2.520 -0.3627  0.7781  1.0205
 6787SOL    HW232016   2.612   9.796   2.508  0.4454  0.4964 -1.8110
 6788SOL     OW32017   0.475   2.550   1.930  0.3376  0.5498 -0.3343
 6788SOL    HW132018   0.555   2.608   1.924 -0.0085  1.1288  0.6027
 6788SOL    HW232019   0.452   2.514   1.839  0.6509  1.7320 -0.8813
 6789SOL     OW32020   6.395   1.352   4.058  0.5407  0.1179  0.2885
 6789SOL    HW132021   6.388   1.344   4.158 -1.3645  0.8068  0.2271
 6789SOL    HW232022   6.427   1.444   4.034 -1.4879  0.8155  0.1953
 6790SOL     OW32023   2.287   8.729   5.391  0.2758 -0.3291 -0.4070
 6790SOL    HW132024   2.297   8.687   5.301 -0.5694 -1.6231  0.0976
 6790SOL    HW232025   2.221   8.804   5.385 -2.6698 -2.8252 -0.0967
 6791SOL     OW32026   1.861   7.880   1.943 -0.4584 -0.1900  0.5912
 6791SOL    HW132027   1.897   7.793   1.909 -0.1519  0.1383  0.0556
 6791SOL    HW232028   1.766   7.891   1.913 -0.3690 -0.1588  0.3129
 6792SOL     OW32029   3.206   3.762   1.031  0.2937 -0.2025 -0.0234
 6792SOL    HW132030   3.185   3.838   0.970 -1.2692 -0.5167  0.0932
 6792SOL    HW232031   3.196   3.791   1.126 -0.2737 -0.5177  0.0225
 6793SOL     OW32032   0.567   0.482   9.991 -0.2583  0.0962 -0.3088
 6793SOL    HW132033   0.558   0.383   9.986 -1.3310  0.2049 -0.6570
 6793SOL    HW232034   0.496   0.519  10.051  0.6220  0.5846  0.4452
 6794SOL     OW32035   9.760   4.294   7.377 -0.8622  0.0513 -0.7392
 6794SOL    HW132036   9.820   4.214   7.378  2.0250  2.0655 -2.8746
 6794SOL    HW232037   9.769   4.344   7.464  1.9422  1.2032 -1.6078
 6795SOL     OW32038   1.732   0.984   5.832  0.0976 -0.3993  0.6325
 6795SOL    HW132039   1.647   0.969   5.781  1.6741  0.8827 -2.5055
 6795SOL    HW232040   1.799   0.915   5.807  0.9057  0.2427  0.9798
 6796SOL     OW32041   0.384   3.762   7.378  0.2289  0.0104  0.0751
 6796SOL    HW132042   0.288   3.736   7.385  0.2151 -0.0908 -0.4075
 6796SOL    HW232043   0.416   3.798   7.465  0.0917 -1.1125  0.6032
 6797SOL     OW32044   8.449   0.948   5.142  0.3316 -0.1934 -0.4229
 6797SOL    HW132045   8.509   1.027   5.130  0.0773 -0.0290 -0.6269
 6797SOL    HW232046   8.354   0.979   5.154  0.0880 -0.4939 -1.4968
 6798SOL     OW32047   8.256   1.441   1.224 -0.1630 -0.0616 -0.4995
 6798SOL    HW132048   8.225   1.512   1.288  1.8817 -0.8351  1.4143
 6798SOL    HW232049   8.179   1.381   1.201 -0.5516 -0.9155  2.7971
 6799SOL     OW32050   3.614   8.047   1.484  0.1508 -0.5052 -0.2494
 6799SOL    HW132051   3.676   8.034   1.562  1.7689  1.3349 -1.1691
 6799SOL    HW232052   3.536   7.986   1.493  0.5285 -0.6419  2.5775
 6800SOL     OW32053   3.510   4.721   4.477  0.2307  0.5539 -0.1883
 6800SOL    HW132054   3.499   4.818   4.452 -1.7120  0.5837  0.7050
 6800SOL    HW232055   3.602   4.707   4.515 -0.1712  2.5226  1.6610
 6801SOL     OW32056   0.353   9.579   2.697 -0.1263  0.3466 -0.4530
 6801SOL    HW132057   0.312   9.538   2.616 -0.0561 -2.3965  0.8603
 6801SOL    HW232058   0.292   9.568   2.776 -0.2138  3.0091 -0.0742
 6802SOL     OW32059   0.748   8.783   3.165 -0.0903 -0.0862 -0.0822
 6802SOL    HW132060   0.823   8.792   3.098 -0.3809  3.7502  0.0032
 6802SOL    HW232061   0.665   8.822   3.127 -0.6727  0.6724  1.9158
 6803SOL     OW32062   7.782   9.266   5.152  0.1462  0.2283  0.2775
 6803SOL    HW132063   7.850   9.338   5.138  1.2135 -0.9091 -0.3973
 6803SOL    HW232064   7.812   9.205   5.226  0.4927 -1.0128 -0.8657
 6804SOL     OW32065   9.014   4.063   3.365 -0.1616 -0.4183  0.5636
 6804SOL    HW132066   9.053   3.972   3.349  0.1121 -0.1291 -0.4499
 6804SOL    HW232067   8.937   4.077   3.304  1.1845  0.8886 -0.8927
 6805SOL     OW32068   7.157   7.868   3.657  0.0307 -0.3857 -0.6500
 6805SOL    HW132069   7.083   7.816   3.701  0.9027 -1.1098 -0.0248
 6805SOL    HW232070   7.165   7.839   3.561 -0.2779 -0.5455 -0.6286
 6806SOL     OW32071   9.259   2.049   2.026 -0.1049 -0.1032 -0.5921
 6806SOL    HW132072   9.299   2.024   1.938 -0.2038 -1.2613 -0.3278
 6806SOL    HW232073   9.160   2.058   2.016 -0.2265 -1.1439 -0.4155
 6807SOL     OW32074   3.620   9.744   6.770 -0.1549  0.1598  0.1423
 6807SOL    HW132075   3.633   9.645   6.769 -1.5256 -0.0333 -1.6941
 6807SOL    HW232076   3.581   9.772   6.859 -0.4794 -1.0380  0.3829
 6808SOL     OW32077   1.630   7.387   0.111  0.3781 -0.0658 -0.1935
 6808SOL    HW132078   1.657   7.468   0.059  2.6088  0.8726  2.3193
 6808SOL    HW232079   1.589   7.415   0.197  1.3016 -1.6070  0.7714
 6809SOL     OW32080   9.103   5.013   4.099  0.7498  0.0901 -0.9327
 6809SOL    HW132081   9.191   4.966   4.106  1.6565  1.4802 -2.8734
 6809SOL    HW232082   9.055   4.982   4.017 -1.4201 -2.0075  1.0338
 6810SOL     OW32083   2.772   9.957   5.468  0.1975 -0.4640 -0.2454
 6810SOL    HW132084   2.795   9.972   5.372 -1.9359 -0.9258 -0.8564
 6810SOL    HW232085   2.756   9.859   5.483  0.7057 -0.4200  0.6416
 6811SOL     OW32086   8.075   6.868   4.430  0.4903 -0.3564  0.5047
 6811SOL    HW132087   8.056   6.786   4.484  0.4578 -0.8886 -0.3148
 6811SOL    HW232088   8.168   6.900   4.449  0.6904 -0.8919  0.4184
 6812SOL     OW32089   1.363   9.653   1.247  0.5535 -0.3651  0.5408
 6812SOL    HW132090   1.446   9.609   1.214 -0.6048 -1.1301 -1.4419
 6812SOL    HW232091   1.328   9.716   1.178 -1.4742 -1.3905  0.5816
 6813SOL     OW32092   9.195   2.678   6.408  0.1353 -0.6275 -0.0563
 6813SOL    HW132093   9.242   2.633   6.484 -0.7619 -0.9814  0.2972
 6813SOL    HW232094   9.096   2.675   6.424  0.0023  0.3614 -0.6439
 6814SOL     OW32095   8.656   7.139   1.315  0.0517  0.2985 -0.1783
 6814SOL    HW132096   8.646   7.180   1.406 -0.4379 -0.9102  0.3205
 6814SOL    HW232097   8.678   7.042   1.325  1.5141  0.4948 -1.3407
 6815SOL     OW32098   9.702   1.972   2.763 -0.3374  0.6489  0.1493
 6815SOL    HW132099   9.734   1.879   2.745 -1.0979  0.7157 -1.6262
 6815SOL    HW232100   9.774   2.037   2.740 -0.4895  0.6015 -0.4725
 6816SOL     OW32101   2.768   3.236   5.363  0.4145 -1.0259 -0.1102
 6816SOL    HW132102   2.781   3.234   5.264  1.3506  0.6088 -0.0345
 6816SOL    HW232103   2.846   3.193   5.408  0.7565 -0.3071 -0.0199
 6817SOL     OW32104   3.180   8.591   4.434  0.4127  0.5500  0.0417
 6817SOL    HW132105   3.190   8.516   4.368 -2.9059  0.8780 -0.9138
 6817SOL    HW232106   3.213   8.676   4.393 -0.4808  0.5171 -0.7850
 6818SOL     OW32107   4.940   6.129   0.867  0.2977  0.2626 -0.1348
 6818SOL    HW132108   4.892   6.057   0.917 -0.6376  0.3615 -0.8738
 6818SOL    HW232109   4.974   6.197   0.931  0.1371 -0.2231  0.4684
 6819SOL     OW32110   2.238   7.951   4.956  0.1000 -0.6568 -0.0779
 6819SOL    HW132111   2.318   7.993   4.912  0.7498 -1.2505  0.5215
 6819SOL    HW232112   2.199   8.016   5.022  0.2497 -0.4635 -0.1789
 6820SOL     OW32113   2.162   8.722   4.194  0.2299 -0.0499 -0.6194
 6820SOL    HW132114   2.203   8.806   4.230  1.8958 -1.2571  0.3709
 6820SOL    HW232115   2.165   8.724   4.094 -1.2777  1.7976 -0.6587
 6821SOL     OW32116   2.596   8.125   6.306  0.2244  0.6325  0.1108
 6821SOL    HW132117   2.578   8.194   6.236 -1.9235 -0.0402 -0.0418
 6821SOL    HW232118   2.514   8.069   6.319  1.9881 -2.0682  0.0351
 6822SOL     OW32119   2.014   4.464   7.085 -0.1470 -0.8075 -0.1516
 6822SOL    HW132120   1.953   4.538   7.114  1.0255 -0.4441  1.4451
 6822SOL    HW232121   2.068   4.494   7.007  0.2769  0.0244  0.4522
 6823SOL     OW32122   1.383   5.076   2.326  0.0324  0.3942 -0.4719
 6823SOL    HW132123   1.376   4.988   2.373 -0.2965  0.6752  0.0116
 6823SOL    HW232124   1.390   5.149   2.393  3.4950  0.5058 -0.9057
 6824SOL     OW32125   0.751   8.874   7.724 -0.2434 -0.2325  0.2135
 6824SOL    HW132126   0.770   8.791   7.776 -0.6277  1.0939  2.5336
 6824SOL    HW232127   0.838   8.920   7.702 -0.0342 -1.2080 -1.0428
 6825SOL     OW32128   4.488   4.714   3.124 -0.1153 -0.6324  0.5546
 6825SOL    HW132129   4.498   4.641   3.056 -1.3369  0.0671 -0.4006
 6825SOL    HW232130   4.578   4.742   3.157  0.4742 -1.1969 -0.5536
 6826SOL     OW32131   9.579   5.159   7.522  0.0691  0.1755  0.5527
 6826SOL    HW132132   9.662   5.105   7.534  0.5577  0.6034 -0.7661
 6826SOL    HW232133   9.525   5.121   7.447 -1.5977 -0.8874  2.2347
 6827SOL     OW32134   4.277   3.511   0.483  0.6418  0.1229  0.3341
 6827SOL    HW132135   4.253   3.416   0.465 -1.9429  0.6439  0.8237
 6827SOL    HW232136   4.377   3.520   0.489  0.9727 -2.3191 -0.8730
 6828SOL     OW32137   2.810   2.999   7.128  0.6963  0.1151 -0.0843
 6828SOL    HW132138   2.771   3.068   7.067 -0.9497 -0.2160  0.5836
 6828SOL    HW232139   2.905   3.023   7.148  1.5462 -0.1966 -3.4174
 6829SOL     OW32140   1.842   3.420   2.654  0.2177 -0.7003  0.4537
 6829SOL    HW132141   1.751   3.389   2.625  0.2579 -0.0372 -0.4050
 6829SOL    HW232142   1.898   3.341   2.678 -0.8244 -1.0690  1.7093
 6830SOL     OW32143   1.859   1.639   7.523  0.0499  0.2891  0.1007
 6830SOL    HW132144   1.936   1.577   7.540 -0.8934 -1.3553 -1.4007
 6830SOL    HW232145   1.876   1.689   7.438  0.1839  1.1097  0.6065
 6831SOL     OW32146   2.607   0.413   5.204  0.1516  0.7034 -0.1814
 6831SOL    HW132147   2.622   0.507   5.171  0.5279  1.2163  1.4412
 6831SOL    HW232148   2.658   0.349   5.146  0.1196  1.5246 -1.1221
 6832SOL     OW32149   1.415   2.177   3.858  0.1259  0.1609 -0.0663
 6832SOL    HW132150   1.362   2.235   3.921 -0.5968 -1.3743  0.7627
 6832SOL    HW232151   1.378   2.186   3.766 -0.6712  0.1855  0.2528
 6833SOL     OW32152   2.539   8.540   5.026 -0.6231 -0.4429  0.3112
 6833SOL    HW132153   2.620   8.504   4.979 -1.7891 -1.1904 -1.1537
 6833SOL    HW232154   2.564   8.624   5.075  1.0532 -0.7055 -0.0563
 6834SOL     OW32155   3.227   1.350   1.737 -0.0312  0.2969 -0.3273
 6834SOL    HW132156   3.240   1.448   1.725  0.3783  0.2265 -0.4957
 6834SOL    HW232157   3.304   1.313   1.789 -1.2349  0.4126  1.5633
 6835SOL     OW32158   9.160   7.153   3.446  0.2311  0.4081  0.1182
 6835SOL    HW132159   9.210   7.086   3.501 -0.3735  0.2101  0.4254
 6835SOL    HW232160   9.162   7.124   3.350  2.8721  1.7069 -0.2836
 6836SOL     OW32161   3.679   1.499   6.389 -0.1814 -0.3211 -0.0422
 6836SOL    HW132162   3.765   1.529   6.348 -0.8979 -0.4099 -1.6594
 6836SOL    HW232163   3.650   1.413   6.346 -1.0844 -0.2692  0.4572
 6837SOL     OW32164   6.140   7.193   3.943  0.3127  0.7210 -0.1863
 6837SOL    HW132165   6.169   7.227   3.854  1.1307 -0.6884 -0.4731
 6837SOL    HW232166   6.054   7.144   3.934  0.9092 -0.3110 -0.3997
 6838SOL     OW32167   8.272   1.920   5.405 -0.1753 -0.0412 -0.2259
 6838SOL    HW132168   8.253   2.001   5.350 -1.8419 -0.8496 -0.8949
 6838SOL    HW232169   8.300   1.844   5.346  0.3467 -0.2515  0.2823
 6839SOL     OW32170   2.788   8.495   0.500 -0.5075  0.8534  0.8147
 6839SOL    HW132171   2.707   8.457   0.455 -0.9426  3.1321 -0.4255
 6839SOL    HW232172   2.777   8.489   0.599 -0.6918 -1.8572  0.6717
 6840SOL     OW32173   5.490   7.895   5.812 -0.3233  0.5692 -0.5881
 6840SOL    HW132174   5.535   7.814   5.775 -0.7590  0.2268 -0.3711
 6840SOL    HW232175   5.399   7.871   5.844 -0.5108  1.1754 -0.6523
 6841SOL     OW32176   0.501   8.474   0.910 -0.2950  0.0423  0.3942
 6841SOL    HW132177   0.454   8.536   0.847  1.4495  1.3957  0.3867
 6841SOL    HW232178   0.525   8.389   0.862  0.0720  0.6297 -0.4615
 6842SOL     OW32179   4.437   1.627   1.260  0.2209 -0.3674  0.3552
 6842SOL    HW132180   4.526   1.665   1.285  0.7168 -1.5279  0.3831
 6842SOL    HW232181   4.409   1.559   1.328 -2.4287  2.6442  2.3964
 6843SOL     OW32182   1.469   1.845   5.525 -0.1756  0.0069  0.6034
 6843SOL    HW132183   1.423   1.883   5.445  0.6965 -1.7201 -0.7676
 6843SOL    HW232184   1.447   1.747   5.532  0.9927 -0.1924  1.5802
 6844SOL     OW32185   2.427   8.950   1.769 -0.1299  1.4470  0.1451
 6844SOL    HW132186   2.406   9.006   1.849 -0.8528  0.2873  0.7767
 6844SOL    HW232187   2.399   8.855   1.786  0.5726  0.9990 -1.1194
 6845SOL     OW32188   4.345   0.993   1.771  0.1008 -0.1746  0.6592
 6845SOL    HW132189   4.299   1.073   1.810  1.9844  0.1017  2.3844
 6845SOL    HW232190   4.405   0.952   1.840  2.2824 -0.6315 -1.4415
 6846SOL     OW32191   1.153   4.504   4.554  0.5031 -0.2093 -0.2428
 6846SOL    HW132192   1.206   4.420   4.546 -1.1636 -1.2188 -1.0005
 6846SOL    HW232193   1.164   4.558   4.470  0.2773 -0.4523 -0.4302
 6847SOL     OW32194   2.401   0.913   5.488  0.6941  0.3469  0.1697
 6847SOL    HW132195   2.394   0.851   5.566  1.9226  1.4279  1.1514
 6847SOL    HW232196   2.474   0.883   5.427  0.6388  0.2738  0.1395
 6848SOL     OW32197   9.961   5.956   7.060 -0.0433  0.2016 -0.6604
 6848SOL    HW132198   9.892   5.900   7.106  0.4331  1.0524  1.1751
 6848SOL    HW232199  10.027   5.897   7.015 -1.0903 -0.6514 -1.1042
 6849SOL     OW32200   6.211   1.172   5.155  0.0923 -0.1695 -0.1282
 6849SOL    HW132201   6.195   1.193   5.059  2.4290  1.2090 -0.2674
 6849SOL    HW232202   6.295   1.118   5.164 -0.8537 -1.4760  1.0238
 6850SOL     OW32203   1.105   1.346   7.496  0.0061  0.4037 -0.0662
 6850SOL    HW132204   1.035   1.415   7.519  0.0068 -0.2256  1.9257
 6850SOL    HW232205   1.080   1.259   7.537  2.0703  0.2222  0.8661
 6851SOL     OW32206   2.462   6.186   1.372 -0.2755 -0.1341 -0.2190
 6851SOL    HW132207   2.439   6.249   1.298  1.6013  1.1848  0.2850
 6851SOL    HW232208   2.391   6.190   1.443  0.0866  1.7976  0.0455
 6852SOL     OW32209   2.952   2.253   7.704 -0.1623 -0.4359  0.3607
 6852SOL    HW132210   2.984   2.159   7.716  0.4011 -0.5997 -2.0319
 6852SOL    HW232211   3.019   2.304   7.650 -1.2008  0.8905  0.2876
 6853SOL     OW32212   8.561   8.521   3.976 -0.2999  0.1637 -0.4819
 6853SOL    HW132213   8.543   8.453   4.047 -0.2356  1.2012  0.5482
 6853SOL    HW232214   8.659   8.520   3.952  0.1254  1.4053  1.1310
 6854SOL     OW32215   0.996   5.664   5.285  0.0803 -0.2347 -0.2205
 6854SOL    HW132216   1.061   5.740   5.280  0.8595 -0.9124 -0.4971
 6854SOL    HW232217   0.903   5.699   5.275  0.3758  0.7861  0.4886
 6855SOL     OW32218   7.452   2.042   3.488  0.1552 -0.0020 -0.0041
 6855SOL    HW132219   7.360   2.020   3.455  0.3490 -0.6662 -0.1287
 6855SOL    HW232220   7.479   2.132   3.456  0.1596 -0.4524 -1.3034
 6856SOL     OW32221   8.474   4.372   4.695 -0.1346  0.3778 -0.4289
 6856SOL    HW132222   8.520   4.394   4.610 -0.8651 -1.8083 -1.4084
 6856SOL    HW232223   8.397   4.436   4.708  1.7801  2.6230  0.1322
 6857SOL     OW32224   7.776   1.400   5.534  0.5191  0.0735  0.3443
 6857SOL    HW132225   7.725   1.468   5.587  1.5175  0.6819  0.5333
 6857SOL    HW232226   7.820   1.444   5.456  0.9646 -0.4049  0.3254
 6858SOL     OW32227   9.477   4.087   4.627  0.2279  0.0743 -0.6991
 6858SOL    HW132228   9.452   4.140   4.546  1.1097  0.3796 -0.7799
 6858SOL    HW232229   9.394   4.055   4.673 -0.3272  1.3321 -0.7842
 6859SOL     OW32230   2.827   6.227   0.653  0.3458 -0.0754  0.3335
 6859SOL    HW132231   2.784   6.316   0.638  1.3351  0.2132 -0.7887
 6859SOL    HW232232   2.820   6.203   0.750 -1.0151  0.6545  0.4285
 6860SOL     OW32233   7.976   7.016   4.792 -0.3098 -0.6250  0.1239
 6860SOL    HW132234   7.951   7.030   4.697  0.8865  0.2598 -0.0781
 6860SOL    HW232235   8.062   7.065   4.811  0.7876 -2.8350  0.9887
 6861SOL     OW32236   4.076   1.038   1.350  0.2679 -0.1098 -0.3170
 6861SOL    HW132237   4.152   1.020   1.287  0.0011 -1.2824 -0.3217
 6861SOL    HW232238   4.083   0.975   1.428  0.1662  0.8230  0.4456
 6862SOL     OW32239   0.745   0.982   4.759  0.2827  0.1491 -0.2412
 6862SOL    HW132240   0.774   0.904   4.815  0.0827 -1.9526 -2.9484
 6862SOL    HW232241   0.748   1.066   4.813  1.2088 -1.6332  2.5347
 6863SOL     OW32242   0.429   9.271   2.072 -0.4317 -0.4992 -0.0860
 6863SOL    HW132243   0.330   9.272   2.083 -0.2947 -0.3814  1.2932
 6863SOL    HW232244   0.458   9.351   2.021 -1.0882 -0.7504 -0.8483
 6864SOL     OW32245   5.839   9.670   4.276  0.1167  0.5168  0.1885
 6864SOL    HW132246   5.843   9.623   4.187 -1.0129  1.2631 -0.2701
 6864SOL    HW232247   5.930   9.671   4.317  1.0360  1.7465 -1.7999
 6865SOL     OW32248   4.321   1.987   4.280 -0.1926  0.3606  0.2776
 6865SOL    HW132249   4.267   1.916   4.235 -0.6237  0.5044  0.5638
 6865SOL    HW232250   4.409   1.950   4.307 -0.0268  0.2068 -0.4724
 6866SOL     OW32251   0.876   6.391   7.332 -0.4682  0.5277  0.9672
 6866SOL    HW132252   0.914   6.308   7.374 -0.4259 -0.0363 -0.1506
 6866SOL    HW232253   0.776   6.390   7.342 -0.6133 -0.4536 -0.4084
 6867SOL     OW32254   3.718   6.733   1.885 -0.1117  0.1391  0.4676
 6867SOL    HW132255   3.654   6.776   1.949  0.2531 -1.3941  1.9083
 6867SOL    HW232256   3.787   6.682   1.936 -0.1982 -1.6683 -1.1471
 6868SOL     OW32257   7.452   3.617   1.796  0.3621 -0.3727 -0.2220
 6868SOL    HW132258   7.374   3.559   1.817 -0.0366  0.8442  1.7721
 6868SOL    HW232259   7.452   3.641   1.698 -0.1656 -2.6476 -0.7985
 6869SOL     OW32260   3.634   9.575   7.726  0.1857  0.5893 -0.0380
 6869SOL    HW132261   3.680   9.644   7.782  0.3232 -0.1731  0.7889
 6869SOL    HW232262   3.643   9.485   7.769  0.6937 -0.0805 -1.5075
 6870SOL     OW32263   6.394   9.527   5.165  0.0178  0.2199  0.2237
 6870SOL    HW132264   6.326   9.547   5.236  0.5306 -0.0438  0.7927
 6870SOL    HW232265   6.436   9.438   5.183  0.2730  0.2257 -0.3219
 6871SOL     OW32266   8.867   3.345   6.371 -0.0378  0.1922 -0.5350
 6871SOL    HW132267   8.865   3.370   6.467 -0.8238 -0.5706 -0.3487
 6871SOL    HW232268   8.775   3.353   6.332  0.3968  1.1085 -1.3825
 6872SOL     OW32269   6.678   0.740   5.813  0.4702 -0.3110 -0.7896
 6872SOL    HW132270   6.592   0.758   5.764 -0.0166  1.3466  0.6174
 6872SOL    HW232271   6.754   0.781   5.764  0.0429  0.9433 -0.4251
 6873SOL     OW32272   9.062   2.196   3.030 -0.5671  0.3783 -0.3176
 6873SOL    HW132273   9.099   2.115   3.074  1.3411  1.2823 -0.2162
 6873SOL    HW232274   8.982   2.228   3.081 -0.0510 -0.2006  0.8642
 6874SOL     OW32275   8.274   8.313   1.787  0.1429  0.0846  0.1072
 6874SOL    HW132276   8.353   8.257   1.763  0.7041  0.7509  0.4073
 6874SOL    HW232277   8.192   8.256   1.788  0.1771 -0.1328 -2.7686
 6875SOL     OW32278   3.969   1.654   2.140 -0.4398  0.2637 -0.1483
 6875SOL    HW132279   3.898   1.650   2.210 -2.1927  1.5039 -1.8025
 6875SOL    HW232280   3.940   1.714   2.066  2.7344  1.5236 -0.4693
 6876SOL     OW32281   2.512   4.692   4.485  0.3660  0.4620  0.0835
 6876SOL    HW132282   2.443   4.704   4.413  0.2166  0.0998  0.1653
 6876SOL    HW232283   2.570   4.614   4.462 -0.2480 -0.2028  0.8099
 6877SOL     OW32284   7.885   1.480   6.945 -0.3444  0.3611 -0.3961
 6877SOL    HW132285   7.792   1.516   6.934 -0.3437 -0.1989 -2.3652
 6877SOL    HW232286   7.907   1.419   6.869  1.2335 -0.4208  0.6484
 6878SOL     OW32287   3.680   6.881   4.722 -0.2996 -0.1344 -0.1358
 6878SOL    HW132288   3.611   6.812   4.741 -0.7433  0.4533  0.4117
 6878SOL    HW232289   3.654   6.935   4.642 -1.1083  0.8936  0.7915
 6879SOL     OW32290   2.106   8.233   5.523 -0.2195  0.2283  0.3644
 6879SOL    HW132291   2.142   8.318   5.483 -0.2900  1.2998  2.5005
 6879SOL    HW232292   2.173   8.160   5.511 -0.0407  0.6515 -1.2708
 6880SOL     OW32293   0.085   6.214   0.828  0.2281  0.2536  0.0240
 6880SOL    HW132294   0.109   6.118   0.815 -1.7372 -0.2098 -0.3257
 6880SOL    HW232295   0.007   6.221   0.891  1.1132  1.6954  0.9958
 6881SOL     OW32296   8.981   9.847   4.238 -0.1491 -0.5470 -0.3828
 6881SOL    HW132297   8.920   9.773   4.265 -0.0556 -0.3309  0.4313
 6881SOL    HW232298   8.937   9.935   4.257 -1.1408 -0.3585 -3.2993
 6882SOL     OW32299   1.441   8.371   2.333  0.4082 -0.2697 -0.2772
 6882SOL    HW132300   1.406   8.464   2.327 -0.6712 -0.7050 -0.9447
 6882SOL    HW232301   1.388   8.319   2.400  1.6233 -0.1370  0.7886
 6883SOL     OW32302   6.671   3.564   1.144 -0.1695  0.4670  0.1140
 6883SOL    HW132303   6.681   3.602   1.052  3.7597 -0.9799 -0.1403
 6883SOL    HW232304   6.695   3.635   1.211  2.3396 -0.0262 -0.2070
 6884SOL     OW32305   4.029   2.500   6.432 -0.1896 -0.0971  0.0584
 6884SOL    HW132306   4.079   2.433   6.488 -2.3874 -0.5301  1.5885
 6884SOL    HW232307   4.007   2.460   6.344 -0.9923 -1.2284  0.7549
 6885SOL     OW32308   9.007   5.297   0.801 -0.1440 -0.2056 -0.1785
 6885SOL    HW132309   8.914   5.272   0.775  0.7446 -0.4873 -3.2688
 6885SOL    HW232310   9.011   5.396   0.815 -1.0985 -0.3032  0.8460
 6886SOL     OW32311   1.545   9.417   5.978 -0.1501  0.1304 -0.0158
 6886SOL    HW132312   1.477   9.490   5.977 -2.2951 -1.7885 -2.8667
 6886SOL    HW232313   1.627   9.447   5.930 -0.5245  1.1258 -0.0450
 6887SOL     OW32314   3.818   6.976   1.350 -0.3505 -0.1162 -0.2040
 6887SOL    HW132315   3.878   6.982   1.270 -0.4549 -0.9760 -0.3491
 6887SOL    HW232316   3.874   6.978   1.433 -0.3216  1.9544 -0.2570
 6888SOL     OW32317   4.251   5.111   1.609 -0.9319  0.0085 -0.4865
 6888SOL    HW132318   4.296   5.037   1.558  0.6134  1.3202 -1.1103
 6888SOL    HW232319   4.153   5.096   1.611 -0.5391 -2.6182  0.3372
 6889SOL     OW32320   4.381   5.552   4.592 -0.1625 -0.1980 -0.2445
 6889SOL    HW132321   4.312   5.579   4.525 -0.5473  0.8702  0.5645
 6889SOL    HW232322   4.454   5.620   4.594 -0.2738 -0.0992  0.5868
 6890SOL     OW32323   2.811   3.574   3.481  0.1381  0.3268  0.2573
 6890SOL    HW132324   2.849   3.665   3.496 -0.9058  0.7388  0.4319
 6890SOL    HW232325   2.774   3.568   3.388  1.0788 -0.2424 -0.0928
 6891SOL     OW32326   2.830   3.434   4.361  0.0189  0.2530  0.0580
 6891SOL    HW132327   2.873   3.346   4.342 -3.5960 -1.3604 -1.2419
 6891SOL    HW232328   2.839   3.494   4.281 -0.2801 -0.1326 -0.2650
 6892SOL     OW32329   3.146   9.491   5.484 -0.0148 -0.0204  0.1341
 6892SOL    HW132330   3.118   9.395   5.483 -0.8424  0.1993 -2.5277
 6892SOL    HW232331   3.079   9.545   5.535 -1.5760 -0.3068 -1.5871
 6893SOL     OW32332   2.238   0.655   4.062  0.0381  0.4427 -0.2120
 6893SOL    HW132333   2.159   0.594   4.056  1.6811 -1.8079  0.2551
 6893SOL    HW232334   2.226   0.719   4.138 -0.7009 -0.8083  0.7353
 6894SOL     OW32335   3.955   9.869   4.659 -0.0357  0.2026 -0.5775
 6894SOL    HW132336   3.940   9.772   4.640  1.2785 -0.0738 -0.2649
 6894SOL    HW232337   3.979   9.917   4.574 -2.8964  0.7116 -1.1398
 6895SOL     OW32338   4.717   4.926   0.484 -0.4938 -0.2470 -0.4389
 6895SOL    HW132339   4.717   4.855   0.554 -0.2019 -1.8474 -2.0218
 6895SOL    HW232340   4.683   5.012   0.523  1.2910 -0.6404  2.1065
 6896SOL     OW32341   1.667   5.370   5.626 -0.3645  0.6551  0.3274
 6896SOL    HW132342   1.737   5.411   5.568 -0.0515  2.0516  1.6772
 6896SOL    HW232343   1.686   5.389   5.722 -1.1350 -1.2464  0.8835
 6897SOL     OW32344   8.999   6.625   0.896  0.1884  0.0196  0.3140
 6897SOL    HW132345   9.002   6.655   0.991 -2.9731  0.5333  0.3305
 6897SOL    HW232346   9.016   6.703   0.836 -3.1225  0.9492  0.4454
 6898SOL     OW32347   1.090   8.779   6.065 -0.3817  0.0153 -0.0955
 6898SOL    HW132348   1.105   8.789   5.966 -0.3887 -0.2122 -0.1197
 6898SOL    HW232349   1.030   8.852   6.096 -0.4415  0.0452 -0.2754
 6899SOL     OW32350   4.205   0.196   5.827  0.0315  0.0531  0.1876
 6899SOL    HW132351   4.189   0.130   5.900  0.0472 -2.4392 -2.0004
 6899SOL    HW232352   4.300   0.226   5.828  0.2271 -0.5899  0.6815
 6900SOL     OW32353   9.703   9.710   1.375  0.5114  0.0961 -0.1940
 6900SOL    HW132354   9.770   9.646   1.414 -2.1987 -3.5350 -1.2471
 6900SOL    HW232355   9.730   9.734   1.282  1.6230  0.6628  0.2615
 6901SOL     OW32356   1.661   6.359   6.073  0.1516 -0.1807 -0.4073
 6901SOL    HW132357   1.593   6.413   6.023 -3.1199 -2.5780  1.2559
 6901SOL    HW232358   1.667   6.268   6.032 -2.0068 -1.9269  2.9512
 6902SOL     OW32359   6.519   8.347   5.179 -0.1002  0.0760  0.4863
 6902SOL    HW132360   6.540   8.255   5.212 -0.1891 -0.3540 -0.6349
 6902SOL    HW232361   6.602   8.390   5.146 -0.1882  0.1264  0.3315
 6903SOL     OW32362   3.574   4.445   5.596  0.0604  0.4522  0.1895
 6903SOL    HW132363   3.584   4.530   5.546 -1.4292 -0.1308 -1.1455
 6903SOL    HW232364   3.623   4.372   5.549 -0.5719  0.1023  0.0594
 6904SOL     OW32365   9.052   8.145   5.276  0.5387 -0.4240  0.7368
 6904SOL    HW132366   9.034   8.126   5.373 -2.3509 -3.0677 -0.2654
 6904SOL    HW232367   9.025   8.066   5.221 -0.1346  1.9743 -2.4779
 6905SOL     OW32368   7.212   9.639   3.329 -0.1654  0.1950  0.3446
 6905SOL    HW132369   7.249   9.717   3.379  1.1534  0.2702 -0.7011
 6905SOL    HW232370   7.160   9.581   3.391  1.9487 -0.0548  1.9616
 6906SOL     OW32371   8.555   0.666   2.298 -0.3405  0.0456 -0.0779
 6906SOL    HW132372   8.642   0.644   2.254 -0.9587 -0.5952 -1.0051
 6906SOL    HW232373   8.548   0.617   2.385  0.7388  1.0487  0.5973
 6907SOL     OW32374   5.286   7.759   6.780 -0.4554  0.6550 -0.1307
 6907SOL    HW132375   5.258   7.851   6.752  0.6928  1.5599  1.5926
 6907SOL    HW232376   5.206   7.705   6.806 -1.3900  0.3173 -3.5018
 6908SOL     OW32377   3.874   3.515   5.650 -0.1381  0.1946  0.1053
 6908SOL    HW132378   3.941   3.530   5.722  2.1503 -1.5675 -1.6095
 6908SOL    HW232379   3.810   3.444   5.678 -0.0747  0.4498  0.9180
 6909SOL     OW32380   0.643   2.381   7.287  0.1826  0.1067 -0.0317
 6909SOL    HW132381   0.649   2.333   7.374  1.0416  0.4750  0.1199
 6909SOL    HW232382   0.560   2.352   7.238 -0.0297 -0.4833  0.6705
 6910SOL     OW32383   4.782   0.157   7.473  0.2436  0.0183  0.3205
 6910SOL    HW132384   4.882   0.153   7.466  0.2754 -1.1202  1.3488
 6910SOL    HW232385   4.750   0.241   7.431  1.4546 -0.6733 -2.0824
 6911SOL     OW32386   6.115   0.956   7.838  0.2048 -0.6225 -0.0608
 6911SOL    HW132387   6.026   0.970   7.882  0.3680  0.6511 -0.1120
 6911SOL    HW232388   6.162   0.880   7.882 -0.0928 -0.0602  1.2493
 6912SOL     OW32389   6.895   7.468   3.561 -0.0979  0.1762 -0.1377
 6912SOL    HW132390   6.919   7.508   3.472 -0.5300  0.9247  0.0774
 6912SOL    HW232391   6.932   7.525   3.634  0.3724 -0.5145  0.1616
 6913SOL     OW32392   4.552   5.196   0.340 -0.0811  0.4146 -0.3093
 6913SOL    HW132393   4.620   5.231   0.404  1.9132 -1.3678 -1.3567
 6913SOL    HW232394   4.474   5.158   0.390  1.9195 -1.9304  1.1716
 6914SOL     OW32395   0.530   7.351   6.489 -0.1888  0.1555 -0.1124
 6914SOL    HW132396   0.583   7.424   6.531 -0.3983 -0.1195  0.6380
 6914SOL    HW232397   0.504   7.284   6.559 -0.2268 -0.4933 -0.7465
 6915SOL     OW32398   3.090   8.671   5.572  0.2880 -0.0259  0.0595
 6915SOL    HW132399   3.189   8.659   5.563  0.3452  0.7041 -0.3702
 6915SOL    HW232400   3.054   8.706   5.486 -0.4146 -0.7191  0.0700
 6916SOL     OW32401   0.001   4.070   5.994 -0.5409  0.1062 -0.4439
 6916SOL    HW132402   0.052   4.109   5.917 -2.0796 -0.3123 -1.6936
 6916SOL    HW232403   0.004   3.971   5.988  0.8498  0.0296  1.0738
 6917SOL     OW32404   2.238   6.508   4.136 -0.3731 -0.0788  0.0524
 6917SOL    HW132405   2.321   6.547   4.096 -0.1998  0.8495  1.3132
 6917SOL    HW232406   2.171   6.581   4.150 -1.4606 -0.8359 -1.0558
 6918SOL     OW32407   6.634   8.753   4.289 -0.5205  0.5825 -0.1533
 6918SOL    HW132408   6.564   8.728   4.222 -1.4216  0.7669  0.7091
 6918SOL    HW232409   6.723   8.717   4.260 -1.1271 -0.3942 -0.8142
 6919SOL     OW32410   3.272   3.985   5.909 -0.1236 -0.2135 -0.4512
 6919SOL    HW132411   3.210   4.032   5.972  0.1195  0.8837 -1.0036
 6919SOL    HW232412   3.294   4.047   5.833 -0.1764 -1.4037 -1.4517
 6920SOL     OW32413   0.174   9.535   6.353 -0.4763  0.4316  0.1404
 6920SOL    HW132414   0.079   9.540   6.383 -0.6267  0.7374 -0.3868
 6920SOL    HW232415   0.224   9.615   6.387  0.1501 -0.8680  2.3517
 6921SOL     OW32416   4.006   4.538   0.265  0.2183  0.1461 -0.0673
 6921SOL    HW132417   4.067   4.511   0.191 -1.2239 -1.2597 -0.7491
 6921SOL    HW232418   4.030   4.488   0.348 -0.2731 -0.7018 -0.4391
 6922SOL     OW32419   9.297   7.086   2.071  0.2833  0.7486 -0.8040
 6922SOL    HW132420   9.221   7.148   2.092  0.9801  1.4802 -0.3574
 6922SOL    HW232421   9.377   7.113   2.126  0.6613 -0.4154 -0.7788
 6923SOL     OW32422   6.188   8.450   7.642  0.1468 -0.2327  0.2691
 6923SOL    HW132423   6.125   8.458   7.565 -0.1187 -0.1541  0.4949
 6923SOL    HW232424   6.261   8.385   7.619  0.5540  0.4447 -0.3766
 6924SOL     OW32425   3.799   6.471   0.091 -0.1419  0.6489 -0.2056
 6924SOL    HW132426   3.844   6.400   0.146  1.1347  1.4760 -0.1515
 6924SOL    HW232427   3.774   6.433   0.002  2.0043  0.5176 -0.7976
 6925SOL     OW32428   8.307   9.089   7.089  0.3977  0.3663 -0.2568
 6925SOL    HW132429   8.382   9.049   7.037  0.2301 -1.2967  0.7833
 6925SOL    HW232430   8.223   9.038   7.071 -0.2109  1.3760 -0.3398
 6926SOL     OW32431   2.659   4.095  10.006  0.1772  0.7287  0.6114
 6926SOL    HW132432   2.741   4.038  10.010 -0.0819  0.4198  1.8196
 6926SOL    HW232433   2.647   4.142  10.094 -1.2009  0.4013  0.6014
 6927SOL     OW32434   9.763   0.409   5.158 -0.4109 -0.2836 -0.4040
 6927SOL    HW132435   9.718   0.419   5.247 -0.8833 -0.2479 -0.6428
 6927SOL    HW232436   9.694   0.386   5.088 -0.0755 -0.1057 -0.7946
 6928SOL     OW32437   6.954   3.016   3.021  0.0428  0.0046  0.2547
 6928SOL    HW132438   6.906   2.978   2.942  1.5507 -1.3448 -0.0336
 6928SOL    HW232439   6.904   2.992   3.105 -1.0076  0.5836 -0.1887
 6929SOL     OW32440   3.398   9.552   5.552  0.4872  0.2986  0.1633
 6929SOL    HW132441   3.437   9.545   5.461  0.7032 -0.7456  0.3332
 6929SOL    HW232442   3.299   9.544   5.547  0.4374  0.9980 -0.0545
 6930SOL     OW32443   1.823   5.560   4.384 -1.0443 -0.6226  0.0444
 6930SOL    HW132444   1.784   5.505   4.457  1.4919 -1.4844  0.7836
 6930SOL    HW232445   1.884   5.629   4.423 -2.9887  1.7707 -0.9776
 6931SOL     OW32446   1.590   0.231   5.783 -0.0190  0.0360  0.8297
 6931SOL    HW132447   1.642   0.199   5.705  0.2354 -0.6004  1.2547
 6931SOL    HW232448   1.541   0.154   5.825 -1.4527  0.6445  0.3268
 6932SOL     OW32449   7.695   6.896   5.742 -0.1586 -0.2213  0.1639
 6932SOL    HW132450   7.739   6.959   5.806 -0.8353  0.6103 -0.1897
 6932SOL    HW232451   7.705   6.803   5.777 -1.3025  0.3043  1.9535
 6933SOL     OW32452   0.990   7.182   5.263 -0.4175 -0.2042  0.1458
 6933SOL    HW132453   0.930   7.251   5.304  2.1621  1.6083  1.0034
 6933SOL    HW232454   0.992   7.195   5.164  1.5286  2.2458  0.4660
 6934SOL     OW32455   5.354   9.445   6.570 -0.1657 -0.4989 -0.4153
 6934SOL    HW132456   5.416   9.517   6.539 -1.0215  0.4702  0.0829
 6934SOL    HW232457   5.324   9.391   6.492  0.3222 -0.1777 -0.8269
 6935SOL     OW32458   3.029   6.836   2.392 -0.1077  0.0000  0.4229
 6935SOL    HW132459   3.087   6.908   2.431  2.2955 -1.0202 -1.1030
 6935SOL    HW232460   2.964   6.877   2.327  0.7364  0.8917  0.1209
 6936SOL     OW32461   8.698   9.699   6.944 -0.7715 -0.1601 -0.2954
 6936SOL    HW132462   8.734   9.667   7.032  1.1342 -1.3143 -1.4524
 6936SOL    HW232463   8.743   9.650   6.870 -0.7307  2.3362 -1.9988
 6937SOL     OW32464   0.937   3.462   4.144 -0.3014  0.2859 -0.5566
 6937SOL    HW132465   0.936   3.454   4.044  0.9613  2.0647 -0.7432
 6937SOL    HW232466   1.008   3.528   4.171  0.2843 -1.1955  1.5972
 6938SOL     OW32467   4.787   3.010   4.655 -0.1635 -0.0835  0.1946
 6938SOL    HW132468   4.751   3.078   4.591 -0.6989 -1.0510 -0.5435
 6938SOL    HW232469   4.790   2.921   4.611  1.2176 -0.4147  0.9247
 6939SOL     OW32470   8.598   6.049   0.048  0.3549  0.5215 -0.2958
 6939SOL    HW132471   8.678   6.107   0.029  0.1031  0.3370 -2.0054
 6939SOL    HW232472   8.529   6.103   0.095  1.4774  0.6826  1.2281
 6940SOL     OW32473   2.011   5.215   6.003  0.5826  0.1143 -0.2929
 6940SOL    HW132474   2.054   5.300   5.973  0.6036 -0.5088 -2.1316
 6940SOL    HW232475   1.944   5.234   6.074  1.3354  1.5311  0.0570
 6941SOL     OW32476   1.076   2.894   1.752  0.6237 -0.0844 -0.0415
 6941SOL    HW132477   0.978   2.901   1.730  1.0255  3.7090 -0.8752
 6941SOL    HW232478   1.098   2.958   1.826  2.6560 -0.2463 -0.4846
 6942SOL     OW32479   0.161   0.484   4.888  0.3032 -0.6029  0.2683
 6942SOL    HW132480   0.145   0.420   4.813 -1.0575 -0.2480  0.2468
 6942SOL    HW232481   0.077   0.536   4.906  0.8205 -0.2028  1.5688
 6943SOL     OW32482   6.791   0.130   2.941 -0.3502  0.4213  0.8847
 6943SOL    HW132483   6.822   0.046   2.984 -0.6418  0.8386  1.9315
 6943SOL    HW232484   6.707   0.162   2.986 -0.8491  0.6934 -0.2088
 6944SOL     OW32485   7.927   4.898   6.342 -0.5047  0.0231 -0.2182
 6944SOL    HW132486   8.020   4.862   6.349 -1.1731 -2.0435 -1.5758
 6944SOL    HW232487   7.931   4.996   6.325  1.4278 -0.0752 -0.4262
 6945SOL     OW32488   7.160   0.223   2.354 -0.5173  0.4967  0.1994
 6945SOL    HW132489   7.071   0.244   2.314  0.2130  1.5184 -0.9006
 6945SOL    HW232490   7.225   0.201   2.282 -0.4091 -2.4709  1.1201
 6946SOL     OW32491   9.205   0.041   0.181 -0.4481 -0.3547 -0.5107
 6946SOL    HW132492   9.274   0.042   0.110  0.8754  0.4652  0.7626
 6946SOL    HW232493   9.114   0.048   0.139  0.3486  1.0937 -2.0589
 6947SOL     OW32494   1.194   2.928   6.126  0.1399 -0.1265 -0.7240
 6947SOL    HW132495   1.158   3.013   6.088 -1.3690 -0.3003  0.2728
 6947SOL    HW232496   1.280   2.905   6.080  1.0285  2.3865 -0.4306
 6948SOL     OW32497   8.818   7.956   3.708  0.1390  0.2263 -0.8518
 6948SOL    HW132498   8.876   8.037   3.704  0.3519  0.1574  0.5568
 6948SOL    HW232499   8.745   7.963   3.640  0.9182  0.9958 -1.6149
 6949SOL     OW32500   8.325   4.779   7.430  0.1586  0.3836  0.4150
 6949SOL    HW132501   8.422   4.800   7.419  0.5192  0.2919  3.2497
 6949SOL    HW232502   8.277   4.858   7.467 -0.4264 -0.3422  1.2169
 6950SOL     OW32503   7.325   0.731   3.619 -0.2388  0.1623  0.2754
 6950SOL    HW132504   7.269   0.809   3.593 -0.2563 -0.6168 -2.1494
 6950SOL    HW232505   7.315   0.713   3.717  0.8065  3.9837  1.1481
 6951SOL     OW32506   1.877   7.322   0.776 -0.4246 -0.8269 -0.1242
 6951SOL    HW132507   1.904   7.238   0.823  1.3278  1.4110  3.0761
 6951SOL    HW232508   1.790   7.355   0.814  0.5227  0.4828  0.9800
 6952SOL     OW32509   6.198   4.148   2.111  0.7398  0.2810  0.1327
 6952SOL    HW132510   6.270   4.081   2.127  0.5613 -0.2072 -1.0898
 6952SOL    HW232511   6.111   4.113   2.146  0.6072 -0.2230 -0.6866
 6953SOL     OW32512   0.245   2.405   7.206  0.3175 -0.2805  0.7166
 6953SOL    HW132513   0.336   2.379   7.175  0.3810  1.2252 -0.4069
 6953SOL    HW232514   0.179   2.389   7.133  0.3269  2.4361  0.0426
 6954SOL     OW32515   8.032   0.917   4.931 -0.4904 -0.4372 -0.5459
 6954SOL    HW132516   8.131   0.915   4.916 -0.2233 -2.3429  1.1757
 6954SOL    HW232517   7.985   0.924   4.844  1.1445 -0.3048 -1.4374
 6955SOL     OW32518   7.710   2.459   2.079 -0.1987 -0.2196 -0.1539
 6955SOL    HW132519   7.630   2.519   2.072 -1.3132 -1.7052 -0.4187
 6955SOL    HW232520   7.794   2.514   2.072 -1.1831  1.0383 -2.6253
 6956SOL     OW32521   9.672   5.576   7.814 -0.5479  0.1330  0.2423
 6956SOL    HW132522   9.601   5.509   7.836 -0.2436 -0.6937 -1.1904
 6956SOL    HW232523   9.651   5.663   7.859 -1.5922 -0.5692  1.1490
 6957SOL     OW32524   4.526   5.007   1.539 -0.1538 -0.2567 -0.2153
 6957SOL    HW132525   4.529   5.034   1.443  0.7654  0.0258 -0.1131
 6957SOL    HW232526   4.550   4.911   1.548  0.2971 -0.1444 -0.2159
 6958SOL     OW32527   7.590   6.071   3.464 -0.5755 -0.1006  0.5637
 6958SOL    HW132528   7.557   6.048   3.372 -0.0837 -2.5034  0.9647
 6958SOL    HW232529   7.689   6.084   3.462 -0.6518  0.5054  0.6358
 6959SOL     OW32530   2.673   8.500   7.002  0.0723 -0.5489  0.2432
 6959SOL    HW132531   2.660   8.412   6.956 -1.5641  0.6788 -1.6944
 6959SOL    HW232532   2.761   8.539   6.975  0.2532 -1.0324  0.1371
 6960SOL     OW32533   1.072   0.422   1.247 -0.1893  0.1818  0.3031
 6960SOL    HW132534   1.016   0.376   1.179 -0.9109  0.0618  0.9673
 6960SOL    HW232535   1.038   0.399   1.339 -0.0657  1.3934  0.6614
 6961SOL     OW32536   0.344   8.990   3.352  0.3765 -0.2862  0.3668
 6961SOL    HW132537   0.362   8.931   3.273 -1.5414 -0.2386 -0.1183
 6961SOL    HW232538   0.429   9.035   3.380  0.5604  1.9678 -3.4926
 6962SOL     OW32539   3.035   2.023   2.579 -0.2736 -0.6060 -0.0342
 6962SOL    HW132540   2.981   1.979   2.650 -0.7763  1.5244  0.9221
 6962SOL    HW232541   2.993   2.110   2.553  0.9906 -0.4058 -1.5140
 6963SOL     OW32542   5.771   3.330   1.170 -0.2266 -0.2169  0.2939
 6963SOL    HW132543   5.692   3.387   1.149 -0.7537 -0.7642  0.7731
 6963SOL    HW232544   5.782   3.261   1.098 -0.5275 -0.5016  0.5201
 6964SOL     OW32545   3.032   6.072   5.223  0.3855  0.0751  0.1259
 6964SOL    HW132546   3.002   5.988   5.178  1.0479 -0.2059  0.1957
 6964SOL    HW232547   3.024   6.061   5.322  0.7548 -0.0170  0.1465
 6965SOL     OW32548   8.303   5.943   6.668  0.5063 -0.0916 -0.2052
 6965SOL    HW132549   8.381   5.972   6.724  0.9683 -0.4063 -0.6816
 6965SOL    HW232550   8.234   5.902   6.727 -0.3920  2.4278  0.5583
 6966SOL     OW32551   0.013   0.467   2.623 -0.0459 -0.4104  0.0228
 6966SOL    HW132552   0.082   0.449   2.693  0.4073  0.3111 -0.2303
 6966SOL    HW232553   0.024   0.560   2.589 -0.7767 -0.4885 -0.4353
 6967SOL     OW32554   9.919   1.970   4.631  0.6273  0.0177 -0.8198
 6967SOL    HW132555   9.999   1.959   4.689  0.4166  1.6066 -0.2081
 6967SOL    HW232556   9.901   1.884   4.582  2.5143 -0.4324 -0.7538
 6968SOL     OW32557   0.609   2.076   5.831  0.5822 -0.4281  0.1642
 6968SOL    HW132558   0.599   2.033   5.921 -0.1566 -1.3079 -0.3399
 6968SOL    HW232559   0.522   2.073   5.782  0.3660  2.1644  0.3359
 6969SOL     OW32560   9.992   1.421   2.094  0.2978 -0.5350  0.0297
 6969SOL    HW132561   9.938   1.505   2.107 -0.5492 -1.0735  0.0042
 6969SOL    HW232562   9.971   1.356   2.166 -0.2300 -1.3456 -0.8440
 6970SOL     OW32563   2.921   6.706   3.223 -0.4633 -0.5246 -0.3620
 6970SOL    HW132564   2.974   6.699   3.138 -1.8305 -0.6963 -1.2175
 6970SOL    HW232565   2.898   6.614   3.256 -0.2753 -0.4510 -0.0256
 6971SOL     OW32566   1.722   0.633   6.589  0.2920  0.1210  0.4306
 6971SOL    HW132567   1.649   0.688   6.632  1.5663  0.8559  1.7155
 6971SOL    HW232568   1.734   0.662   6.494 -0.7740  0.3155  0.3490
 6972SOL     OW32569   6.731   3.724   0.931 -0.0239 -0.0776  0.5571
 6972SOL    HW132570   6.687   3.750   0.846  0.3954  2.0296  0.9484
 6972SOL    HW232571   6.825   3.695   0.912 -0.5768 -1.5658  0.0787
 6973SOL     OW32572   1.458   4.439   6.150 -0.0502  0.3709 -0.6157
 6973SOL    HW132573   1.412   4.526   6.171  1.4028  0.9689  0.2166
 6973SOL    HW232574   1.390   4.368   6.132 -1.2721  1.3552  0.0556
 6974SOL     OW32575   7.604   5.439   3.067  0.5335 -0.4812 -0.2036
 6974SOL    HW132576   7.664   5.499   3.120  0.1758 -2.2240  2.2369
 6974SOL    HW232577   7.509   5.469   3.079  0.4214 -1.0746  0.4574
 6975SOL     OW32578   6.249   8.354   5.446 -0.5662 -0.3742  0.0981
 6975SOL    HW132579   6.310   8.310   5.512 -0.7864 -1.2448 -0.2653
 6975SOL    HW232580   6.288   8.442   5.418  0.3692 -0.7755  0.1040
 6976SOL     OW32581   3.174   8.709   0.369 -0.2205 -0.0075 -0.7133
 6976SOL    HW132582   3.114   8.678   0.295  3.2042 -2.9050 -2.4521
 6976SOL    HW232583   3.202   8.630   0.423  2.5520  1.1435 -0.4087
 6977SOL     OW32584   1.501   8.072   1.496 -0.2483 -0.3478  0.1236
 6977SOL    HW132585   1.510   8.001   1.426  0.8685  1.1908 -1.3493
 6977SOL    HW232586   1.585   8.126   1.499 -1.4034  1.4509  0.6043
 6978SOL     OW32587   8.091   3.711   3.746 -0.4454 -0.6984  0.1816
 6978SOL    HW132588   8.029   3.742   3.673 -3.4500 -2.7111  1.7899
 6978SOL    HW232589   8.128   3.621   3.722  2.8081  0.9438 -1.2657
 6979SOL     OW32590   5.892   6.213   0.522 -0.2465 -0.0069 -0.1334
 6979SOL    HW132591   5.805   6.203   0.473 -1.2240 -0.6993  1.6742
 6979SOL    HW232592   5.877   6.269   0.604  1.1829  0.4568 -0.1765
 6980SOL     OW32593   3.191   7.223   1.070  0.6651  0.1531 -0.0898
 6980SOL    HW132594   3.212   7.157   1.142 -0.3448 -0.7553 -0.6287
 6980SOL    HW232595   3.093   7.221   1.050  0.3654  2.7748  0.8534
 6981SOL     OW32596   7.064   5.573   0.432  0.6784 -0.3665  0.4106
 6981SOL    HW132597   7.137   5.631   0.467  1.1410 -1.1038  0.6693
 6981SOL    HW232598   7.047   5.498   0.496  0.8746 -1.1773 -0.4821
 6982SOL     OW32599   9.749   0.060   2.169 -0.0392 -0.2761 -0.1462
 6982SOL    HW132600   9.826   0.124   2.158 -0.5144  0.4990  0.9440
 6982SOL    HW232601   9.722   0.025   2.080 -1.1595  2.7001 -1.0219
 6983SOL     OW32602   2.888   8.143   3.450  0.3880 -0.4563  0.2422
 6983SOL    HW132603   2.909   8.100   3.538  1.8173 -0.8328 -0.2727
 6983SOL    HW232604   2.972   8.153   3.396 -0.3266  0.6345 -0.7025
 6984SOL     OW32605   8.352   0.670   7.325 -0.0575 -0.6254  0.2527
 6984SOL    HW132606   8.365   0.722   7.409  0.1647 -0.2166 -0.0331
 6984SOL    HW232607   8.376   0.727   7.246  0.4123 -1.2421 -0.0522
 6985SOL     OW32608   0.511   8.278   3.558 -0.2002  0.2368  0.3876
 6985SOL    HW132609   0.424   8.305   3.518 -0.5976 -2.0837 -0.3756
 6985SOL    HW232610   0.523   8.322   3.647 -3.5785 -1.8490  1.9495
 6986SOL     OW32611   6.132   4.256   2.775  0.2314  0.3153  0.1343
 6986SOL    HW132612   6.140   4.207   2.688  0.5635 -0.6000  0.6744
 6986SOL    HW232613   6.218   4.303   2.795  0.4329 -0.1414  0.3568
 6987SOL     OW32614   7.561   6.931   5.502  0.3497 -0.2133  0.2390
 6987SOL    HW132615   7.603   6.920   5.593  1.2309  0.4728 -0.0859
 6987SOL    HW232616   7.559   7.027   5.477 -2.8709 -0.0334  0.9162
 6988SOL     OW32617   1.022   0.199   2.792 -0.0613  0.1779 -0.0729
 6988SOL    HW132618   1.042   0.263   2.718 -1.9033  0.2122 -0.5811
 6988SOL    HW232619   0.924   0.203   2.813  0.3201 -0.3877  1.8547
 6989SOL     OW32620   9.196   9.756   3.829  0.2018 -0.4275 -0.0929
 6989SOL    HW132621   9.271   9.790   3.886 -0.1228 -0.5462  0.4131
 6989SOL    HW232622   9.234   9.705   3.751  0.6627  0.3228 -0.3641
 6990SOL     OW32623   4.015   5.866   0.564  0.4530  0.2290  0.5209
 6990SOL    HW132624   3.950   5.790   0.563  2.2921 -1.4487  2.2927
 6990SOL    HW232625   4.098   5.839   0.515  0.7339  1.4796  0.2990
 6991SOL     OW32626   3.823   3.074   3.898 -0.9549 -0.5484  0.0358
 6991SOL    HW132627   3.852   3.074   3.993 -0.2262  1.4539 -0.1742
 6991SOL    HW232628   3.724   3.085   3.893 -0.9777 -0.5424  0.5436
 6992SOL     OW32629   8.333   3.212   4.748 -0.6829 -0.0990  0.3850
 6992SOL    HW132630   8.391   3.280   4.793 -0.1629  0.1054 -0.5668
 6992SOL    HW232631   8.387   3.130   4.730 -0.5493  0.2677 -0.9291
 6993SOL     OW32632   5.302   0.574   5.445 -0.1040  0.1523  0.1302
 6993SOL    HW132633   5.303   0.512   5.523 -1.2597  0.4493  0.3988
 6993SOL    HW232634   5.393   0.578   5.403 -0.0478 -1.8367  0.0167
 6994SOL     OW32635   3.307   2.559   3.719 -0.0674  0.0905 -0.4033
 6994SOL    HW132636   3.279   2.551   3.624  0.3831 -0.1275 -0.5199
 6994SOL    HW232637   3.399   2.521   3.730 -1.1167 -2.2774  0.5915
 6995SOL     OW32638   5.948   2.941   0.694 -0.1098 -0.2881  0.1269
 6995SOL    HW132639   5.967   2.902   0.604 -0.1582 -1.9705  0.8339
 6995SOL    HW232640   5.978   3.036   0.696  0.7190 -0.5031 -1.3800
 6996SOL     OW32641   9.897   3.724   0.064  0.1620  0.5475 -0.3251
 6996SOL    HW132642   9.865   3.812   0.099 -1.8195 -0.3921  0.2700
 6996SOL    HW232643   9.819   3.670   0.032  1.2397 -1.3663  0.1710
 6997SOL     OW32644   6.932   2.791   2.038  0.3214 -0.2276 -0.1866
 6997SOL    HW132645   6.983   2.862   1.989  1.6468 -0.0540  1.4175
 6997SOL    HW232646   6.978   2.771   2.124 -2.4619  0.1000  1.4081
 6998SOL     OW32647   5.955   8.937   2.379  0.3870  0.3551  0.2996
 6998SOL    HW132648   5.983   8.907   2.470  2.4918  0.3562 -0.3278
 6998SOL    HW232649   6.024   8.909   2.312 -1.3220 -0.0123 -1.3684
 6999SOL     OW32650   2.044   7.665   0.437 -0.1277  0.7338 -0.5364
 6999SOL    HW132651   2.021   7.644   0.532 -1.2573 -1.1017 -1.1703
 6999SOL    HW232652   1.999   7.750   0.410 -2.0708 -0.1556 -0.2110
 7000SOL     OW32653   5.352   9.774   1.407  0.1639  0.0143  0.1542
 7000SOL    HW132654   5.259   9.774   1.445 -0.3330 -0.5926 -1.0553
 7000SOL    HW232655   5.396   9.687   1.426  0.6737  0.4828  1.1593
 7001SOL     OW32656   2.509   1.318   1.975  0.5591  0.3156  0.2173
 7001SOL    HW132657   2.477   1.281   1.887  0.0264  1.3271 -0.0292
 7001SOL    HW232658   2.449   1.286   2.048 -2.1891  3.5874 -0.4602
 7002SOL     OW32659   5.780   2.297   1.260  0.1574  0.0683 -0.1085
 7002SOL    HW132660   5.738   2.263   1.176  0.8495  1.7736 -1.1562
 7002SOL    HW232661   5.752   2.239   1.336 -2.2057 -0.2238 -1.1566
 7003SOL     OW32662   5.376   2.293   5.645 -0.0168 -0.5192  0.1530
 7003SOL    HW132663   5.330   2.204   5.648  1.6522 -1.3677  1.1010
 7003SOL    HW232664   5.465   2.283   5.600  0.1299  0.6960  0.1641
 7004SOL     OW32665   3.621   0.508   7.535  0.3055  0.2301 -0.5973
 7004SOL    HW132666   3.671   0.436   7.582 -1.7539 -0.4629  0.5728
 7004SOL    HW232667   3.608   0.586   7.596  0.6158  0.7176 -1.1464
 7005SOL     OW32668   2.956   7.709   3.335 -0.0362  0.5569  0.5148
 7005SOL    HW132669   2.928   7.799   3.303 -3.2714 -0.6326 -0.2732
 7005SOL    HW232670   2.906   7.686   3.419  0.2828 -0.7168  0.3761
 7006SOL     OW32671   2.975   5.413   3.840  0.4707 -0.0404 -0.0365
 7006SOL    HW132672   3.044   5.347   3.811  0.3551 -0.2889  0.2398
 7006SOL    HW232673   2.884   5.376   3.821  0.4199  0.3545 -0.5430
 7007SOL     OW32674   9.116   7.647   2.062 -0.2393 -0.0687  0.3838
 7007SOL    HW132675   9.152   7.665   2.153 -0.3967  1.0187  0.2356
 7007SOL    HW232676   9.020   7.675   2.058 -0.5237 -1.0490  0.1762
 7008SOL     OW32677   2.219   5.633   2.016  0.3263 -0.4500  0.0428
 7008SOL    HW132678   2.188   5.563   1.952 -0.6399  1.2746 -1.4390
 7008SOL    HW232679   2.252   5.713   1.964 -0.3159  0.9159  1.6803
 7009SOL     OW32680   4.128   1.344   2.188 -0.6061  0.4180 -0.4834
 7009SOL    HW132681   4.211   1.313   2.142 -0.1803 -0.2005  0.6870
 7009SOL    HW232682   4.139   1.439   2.216  1.0466 -0.6528  2.6840
 7010SOL     OW32683   9.623   1.341   2.036 -0.0420 -0.0875 -0.6180
 7010SOL    HW132684   9.626   1.278   2.113  0.3275  0.0088 -0.5500
 7010SOL    HW232685   9.528   1.364   2.015 -0.1353  0.1758  0.0499
 7011SOL     OW32686   1.177   6.771   3.152  0.1589  0.6775  0.1225
 7011SOL    HW132687   1.235   6.852   3.148  1.2430 -0.0681  0.2586
 7011SOL    HW232688   1.197   6.719   3.236  1.6079 -1.2543 -1.3731
 7012SOL     OW32689   3.425   4.426   3.731  0.3219 -0.1885 -0.3053
 7012SOL    HW132690   3.422   4.413   3.830  0.6540 -2.2394 -0.5416
 7012SOL    HW232691   3.497   4.368   3.692 -0.8143 -0.5482 -1.9186
 7013SOL     OW32692   0.643   1.493   2.644  0.3643  0.1227  0.0308
 7013SOL    HW132693   0.656   1.398   2.614  0.7133  0.1948 -0.0476
 7013SOL    HW232694   0.721   1.548   2.615 -0.2141  0.6064 -0.6220
 7014SOL     OW32695   5.673   0.435   1.962 -0.2638 -0.4632  0.0032
 7014SOL    HW132696   5.579   0.469   1.959 -0.5219 -1.2683 -2.0251
 7014SOL    HW232697   5.673   0.341   1.996 -0.3866 -0.9593 -1.3042
 7015SOL     OW32698   8.687   4.829   6.475 -0.7036 -0.9826 -0.5775
 7015SOL    HW132699   8.777   4.863   6.450  0.1539 -3.8436 -1.5354
 7015SOL    HW232700   8.695   4.762   6.549 -1.9721 -1.6815 -1.0458
 7016SOL     OW32701   8.075   8.975   1.816  0.0899 -0.1946  0.9338
 7016SOL    HW132702   7.998   8.972   1.753  1.3431  5.1930 -1.0636
 7016SOL    HW232703   8.058   9.042   1.888  1.4952 -1.5047  2.5593
 7017SOL     OW32704   7.409   3.716   9.908 -0.1554  0.1726  0.0059
 7017SOL    HW132705   7.501   3.732   9.943 -0.4242  0.8038  0.4296
 7017SOL    HW232706   7.381   3.794   9.852 -0.5793  0.1414  0.1770
 7018SOL     OW32707   6.671   0.256   0.957  0.3286 -0.4419  0.8072
 7018SOL    HW132708   6.713   0.343   0.931  1.9395 -1.2843  0.5115
 7018SOL    HW232709   6.743   0.190   0.977 -0.8878 -1.2333  2.6242
 7019SOL     OW32710   9.319   6.857   4.100  0.2704 -0.4348 -0.6782
 7019SOL    HW132711   9.369   6.844   4.186 -0.3503  2.9424  0.2598
 7019SOL    HW232712   9.325   6.953   4.072 -0.7918 -1.1852 -3.6469
 7020SOL     OW32713   3.704   0.495   2.265  0.2743 -0.1711  0.1091
 7020SOL    HW132714   3.769   0.520   2.192 -1.3270  0.0649 -1.2636
 7020SOL    HW232715   3.752   0.441   2.334  1.8766 -0.2606 -1.0247
 7021SOL     OW32716   4.618   4.172   0.992 -0.5224 -0.1145  0.2352
 7021SOL    HW132717   4.629   4.098   1.058 -0.8691  0.5249  1.0091
 7021SOL    HW232718   4.521   4.197   0.986 -0.3990  0.3037  0.0044
 7022SOL     OW32719   7.852   0.417   2.257 -0.2558  0.2930  0.4557
 7022SOL    HW132720   7.918   0.434   2.330  1.0252  0.6059 -0.7735
 7022SOL    HW232721   7.870   0.478   2.180 -0.1164 -1.6434 -1.0938
 7023SOL     OW32722   8.208   3.202   1.363 -0.0981 -0.0719 -0.3646
 7023SOL    HW132723   8.267   3.121   1.354 -1.8752 -1.4840  0.4746
 7023SOL    HW232724   8.261   3.276   1.404  0.7066 -1.8106  1.8647
 7024SOL     OW32725   0.745   5.643   4.669 -0.4544  0.2347  0.5408
 7024SOL    HW132726   0.686   5.721   4.690 -0.7709  1.0202 -2.9026
 7024SOL    HW232727   0.689   5.564   4.645 -0.1112 -0.2013  1.1627
 7025SOL     OW32728   0.583   2.082  10.026  0.1898 -0.1249  0.4086
 7025SOL    HW132729   0.545   2.129  10.106 -0.3645 -0.3824  0.2969
 7025SOL    HW232730   0.663   2.132   9.994  0.9215 -0.4856  1.6445
 7026SOL     OW32731   9.559   9.201   6.340  0.3254  0.1616 -0.2104
 7026SOL    HW132732   9.602   9.144   6.410 -0.8782 -1.8046 -1.0245
 7026SOL    HW232733   9.622   9.211   6.262  0.2893 -0.6604 -0.3570
 7027SOL     OW32734   1.074   7.637   6.733  0.2512 -0.0489 -0.0258
 7027SOL    HW132735   1.010   7.711   6.750 -0.9449 -1.3730  1.3772
 7027SOL    HW232736   1.035   7.551   6.766  2.6178 -0.9358  0.5716
 7028SOL     OW32737   8.820   7.378   3.915 -0.2338 -0.0257 -0.3890
 7028SOL    HW132738   8.728   7.397   3.881 -0.8945  0.2086  1.4835
 7028SOL    HW232739   8.885   7.437   3.867 -1.6150  3.0930  1.3819
 7029SOL     OW32740   2.726   8.851   4.245  0.9680 -0.3734  0.5832
 7029SOL    HW132741   2.728   8.951   4.243  2.0190 -0.3884  0.5814
 7029SOL    HW232742   2.815   8.817   4.277  2.1940 -1.4125 -3.5849
 7030SOL     OW32743   4.192   0.782   3.919  0.2095  0.7698 -0.2258
 7030SOL    HW132744   4.164   0.875   3.943 -1.8910  0.0810  0.0229
 7030SOL    HW232745   4.289   0.770   3.943  0.7966  3.2022 -1.2351
 7031SOL     OW32746   0.269   8.097   1.177  0.0877  0.8234  0.2282
 7031SOL    HW132747   0.352   8.049   1.148 -0.7385 -0.7693  0.4297
 7031SOL    HW232748   0.239   8.061   1.265 -2.3947 -0.6577 -1.1549
 7032SOL     OW32749   5.471   6.335   0.873  0.0502  0.1933  0.1428
 7032SOL    HW132750   5.405   6.350   0.800 -1.1714  0.5309  1.2934
 7032SOL    HW232751   5.503   6.240   0.870 -0.0878  0.1722 -0.7426
 7033SOL     OW32752   4.989   0.260   1.039  0.6141  0.2913  0.4955
 7033SOL    HW132753   4.997   0.332   0.970 -0.1611 -0.0813  0.0010
 7033SOL    HW232754   5.002   0.298   1.130  1.3999  0.8370  0.1609
 7034SOL     OW32755   2.303   4.189   1.826  0.4335  0.4083  0.4745
 7034SOL    HW132756   2.232   4.121   1.810  1.1079  0.0878 -1.3104
 7034SOL    HW232757   2.393   4.144   1.828  0.7779  1.0851  0.5425
 7035SOL     OW32758   2.266   4.948   6.730 -0.9647  0.3208  0.2799
 7035SOL    HW132759   2.303   5.012   6.662 -0.3205  1.7950  2.0016
 7035SOL    HW232760   2.342   4.896   6.771 -1.1382  0.9776  1.4320
 7036SOL     OW32761   0.741   1.170   2.927  0.3904 -0.3598 -0.1572
 7036SOL    HW132762   0.745   1.270   2.928  0.0649 -0.2799 -2.8807
 7036SOL    HW232763   0.824   1.134   2.885  1.5173 -1.3652  2.8264
 7037SOL     OW32764   3.011   6.182   2.148 -0.0690 -0.0028  0.0932
 7037SOL    HW132765   3.086   6.247   2.163  2.0686 -2.3212 -0.2096
 7037SOL    HW232766   2.992   6.176   2.050 -0.6144  0.5084  0.1621
 7038SOL     OW32767   2.590   1.819   9.999  0.2522 -0.1598 -0.3842
 7038SOL    HW132768   2.521   1.749   9.983 -0.4539  0.5217 -0.3506
 7038SOL    HW232769   2.545   1.907  10.016  1.1037  0.0463  0.8608
 7039SOL     OW32770   4.644   9.723   8.287  0.2564  0.0918  0.1189
 7039SOL    HW132771   4.627   9.821   8.296 -1.6921 -0.2930  0.9576
 7039SOL    HW232772   4.681   9.687   8.372 -1.2300 -0.3082  0.6098
 7040SOL     OW32773   9.573   2.142   1.758 -0.1903  1.0294  0.2836
 7040SOL    HW132774   9.663   2.176   1.733 -1.0300  1.8792 -1.7380
 7040SOL    HW232775   9.547   2.176   1.849  2.0686 -0.3511  1.4737
 7041SOL     OW32776   0.011   3.529   0.235 -0.1903 -0.2044 -0.3118
 7041SOL    HW132777  -0.027   3.561   0.148 -0.1366  1.0414  0.1164
 7041SOL    HW232778   0.054   3.605   0.283 -2.7527 -0.2208  2.1391
 7042SOL     OW32779   8.599   6.141   4.193 -0.0164  0.0076  0.1716
 7042SOL    HW132780   8.680   6.181   4.149  0.5258 -0.1878  0.9762
 7042SOL    HW232781   8.583   6.049   4.157  0.3875 -0.1255  0.3322
 7043SOL     OW32782   7.820   8.145   3.529  0.7789  0.0432 -0.0035
 7043SOL    HW132783   7.800   8.087   3.608  0.1465 -2.5031 -1.9704
 7043SOL    HW232784   7.773   8.109   3.448  0.1638  3.4539 -1.2629
 7044SOL     OW32785   3.492   2.934   7.685  0.1326  0.5716 -0.2469
 7044SOL    HW132786   3.556   2.996   7.730  0.3631  0.1972 -0.0567
 7044SOL    HW232787   3.410   2.925   7.740  0.6713 -0.3772  0.4217
 7045SOL     OW32788   0.038   0.957   6.421 -0.1707 -0.4831 -0.1156
 7045SOL    HW132789  -0.047   0.916   6.388 -1.4447  0.4703  1.9051
 7045SOL    HW232790   0.059   1.039   6.367 -0.1775 -1.0820 -1.0364
 7046SOL     OW32791   0.693   7.935   0.895  0.7691 -0.5422 -0.1054
 7046SOL    HW132792   0.716   7.924   0.799  0.9792  1.4456 -0.2980
 7046SOL    HW232793   0.761   7.993   0.940 -0.9994  1.1296  0.5014
 7047SOL     OW32794   6.001   8.583   4.751 -0.1171  0.1707  0.5411
 7047SOL    HW132795   6.021   8.513   4.819 -0.7276 -0.4676  0.0728
 7047SOL    HW232796   5.908   8.618   4.765  0.0578  0.6410  0.5535
 7048SOL     OW32797   9.657   0.294   6.839 -0.2674  1.1401 -0.2823
 7048SOL    HW132798   9.581   0.286   6.773  1.0064  1.9429 -1.8898
 7048SOL    HW232799   9.718   0.216   6.828 -1.4841 -0.1432  1.8632
 7049SOL     OW32800   4.772   5.691   1.534 -0.3644  0.8264 -0.2305
 7049SOL    HW132801   4.685   5.671   1.580 -0.1656 -1.0248 -0.6220
 7049SOL    HW232802   4.808   5.607   1.493  0.7952  1.9123 -1.4852
 7050SOL     OW32803   8.520   8.008   1.148  0.1829 -0.1952  0.1724
 7050SOL    HW132804   8.578   8.005   1.066 -0.4727  1.0135 -0.3523
 7050SOL    HW232805   8.512   7.916   1.186  1.5860 -0.5475 -0.3481
 7051SOL     OW32806   8.488   5.783   1.919 -0.5515 -0.3177  0.2328
 7051SOL    HW132807   8.459   5.688   1.930 -0.0433 -0.4729  0.2263
 7051SOL    HW232808   8.551   5.790   1.842 -0.3289 -0.0351  0.4407
 7052SOL     OW32809   0.149   9.689   3.559  0.1989  0.1174  0.5367
 7052SOL    HW132810   0.177   9.653   3.470  0.0571 -0.8420  0.8764
 7052SOL    HW232811   0.229   9.695   3.619  0.2046  0.2690  0.5136
 7053SOL     OW32812   9.045   5.300   1.836 -0.4126  0.7502  0.1195
 7053SOL    HW132813   9.092   5.226   1.788  0.4393  1.1965  0.2587
 7053SOL    HW232814   9.078   5.388   1.802 -1.8664  1.0725 -0.4861
 7054SOL     OW32815   1.818   2.646   1.711 -0.2784 -0.2996  0.2967
 7054SOL    HW132816   1.852   2.738   1.731  0.1493 -0.4752  0.3991
 7054SOL    HW232817   1.753   2.619   1.782 -1.7665  0.6172 -0.7022
 7055SOL     OW32818   7.325   3.240   3.436  0.0930  0.5474  0.1278
 7055SOL    HW132819   7.319   3.145   3.405  0.2859  0.6344 -0.1839
 7055SOL    HW232820   7.383   3.292   3.373  2.3420  0.2252  1.8738
 7056SOL     OW32821   7.931   1.898   7.375  0.9969 -0.3014 -0.2978
 7056SOL    HW132822   8.024   1.935   7.381  1.2880 -1.1848  1.0140
 7056SOL    HW232823   7.901   1.870   7.467 -0.5634 -0.0179 -0.7161
 7057SOL     OW32824   0.824   1.853   4.338  0.4728  0.1719 -0.1409
 7057SOL    HW132825   0.795   1.771   4.289  0.7976  0.1403 -0.2817
 7057SOL    HW232826   0.763   1.929   4.315 -1.1285 -0.5456  1.6369
 7058SOL     OW32827   1.054   3.441   5.370  0.8168  0.2334  0.4413
 7058SOL    HW132828   1.049   3.429   5.270  1.1530  1.6926  0.2266
 7058SOL    HW232829   1.147   3.468   5.395  0.8453 -0.5852  1.2094
 7059SOL     OW32830   6.857   8.636   6.474  0.0876 -0.3885 -0.5364
 7059SOL    HW132831   6.787   8.678   6.417 -0.8511 -0.9859  0.1533
 7059SOL    HW232832   6.888   8.551   6.432  1.6976  0.7711 -1.7319
 7060SOL     OW32833   6.959   3.630   2.744  0.1691 -0.0298 -0.3584
 7060SOL    HW132834   6.932   3.629   2.647  0.0258 -1.3721 -0.3119
 7060SOL    HW232835   6.973   3.536   2.775  0.0438  0.3915  0.9761
 7061SOL     OW32836   2.297   1.885   5.320 -0.0733 -0.3839  0.5447
 7061SOL    HW132837   2.354   1.922   5.246 -0.5133  0.9467  0.8621
 7061SOL    HW232838   2.355   1.845   5.390  0.3137 -2.9533 -1.1752
 7062SOL     OW32839   0.544   6.764   0.450 -1.2426 -0.1742 -0.9236
 7062SOL    HW132840   0.559   6.673   0.413 -0.5557  0.3554 -1.9857
 7062SOL    HW232841   0.621   6.823   0.426 -1.3944  0.5301  0.2767
 7063SOL     OW32842   9.374   4.954   7.390  0.6939 -0.0068  0.0475
 7063SOL    HW132843   9.368   4.855   7.394  0.2698 -0.1040 -2.2258
 7063SOL    HW232844   9.372   4.984   7.294  0.3116  2.2197  0.7132
 7064SOL     OW32845   4.089   2.107   1.882 -0.0616 -0.3447  0.6116
 7064SOL    HW132846   4.176   2.058   1.872 -0.2667 -0.6231  0.2003
 7064SOL    HW232847   4.028   2.052   1.939  0.3577  0.2756  1.6880
 7065SOL     OW32848   6.465   0.710   5.174  0.2080  0.5860 -0.1354
 7065SOL    HW132849   6.437   0.617   5.148 -1.7642  1.2883 -0.6449
 7065SOL    HW232850   6.544   0.737   5.119 -1.4619  0.5541 -2.6720
 7066SOL     OW32851   9.584   6.386   1.468  0.1230  0.1569  0.3814
 7066SOL    HW132852   9.675   6.396   1.427  0.2295 -1.1677  0.2519
 7066SOL    HW232853   9.555   6.291   1.460 -1.8877  0.8563 -0.8108
 7067SOL     OW32854   6.640   8.179   3.341 -0.0553  0.3745 -0.2430
 7067SOL    HW132855   6.680   8.152   3.428 -1.7923  0.0622  0.4611
 7067SOL    HW232856   6.564   8.242   3.356 -0.2298  0.4961 -1.5384
 7068SOL     OW32857   6.078   7.942   3.968  0.2228  0.6160 -0.2319
 7068SOL    HW132858   6.139   7.870   4.000  0.2445  0.2635 -1.0596
 7068SOL    HW232859   6.124   7.996   3.897 -0.8308 -0.3849 -1.7025
 7069SOL     OW32860   3.295   3.059   7.298  0.1016 -0.0827 -0.1297
 7069SOL    HW132861   3.320   2.965   7.274 -0.5242 -0.6246  1.2671
 7069SOL    HW232862   3.376   3.108   7.330  0.5269  0.0098 -1.3471
 7070SOL     OW32863   4.829   7.675   3.592  0.1004 -0.2921  0.9499
 7070SOL    HW132864   4.773   7.757   3.599 -0.6197 -0.8509  1.7437
 7070SOL    HW232865   4.885   7.680   3.509  1.0012  1.5711  1.6338
 7071SOL     OW32866   3.375   3.887   2.200  0.1146 -0.4537 -0.0145
 7071SOL    HW132867   3.369   3.855   2.295  0.3095  0.5094  0.3267
 7071SOL    HW232868   3.455   3.947   2.190 -0.9098  0.8725 -0.3622
 7072SOL     OW32869   3.963   2.769   0.697  0.3869  0.3231 -0.2916
 7072SOL    HW132870   4.052   2.782   0.652  0.1422  2.4709 -0.2454
 7072SOL    HW232871   3.922   2.859   0.713 -0.5765 -0.5123  2.1049
 7073SOL     OW32872   1.525   6.490   1.911 -0.2506  0.3474  0.2790
 7073SOL    HW132873   1.493   6.585   1.905  0.2250  0.7593  3.2852
 7073SOL    HW232874   1.484   6.447   1.991 -0.3138 -1.9599 -0.9715
 7074SOL     OW32875   3.595   2.080   3.152 -0.3563 -0.4540  0.2019
 7074SOL    HW132876   3.508   2.047   3.190 -0.9910  1.8764  0.8811
 7074SOL    HW232877   3.596   2.063   3.054 -1.0843 -1.5572  0.3736
 7075SOL     OW32878   8.614   1.153   3.656  0.3350 -0.4621  0.1547
 7075SOL    HW132879   8.675   1.230   3.635  0.0526 -0.6503 -1.4621
 7075SOL    HW232880   8.535   1.157   3.595 -0.3714 -1.2592  1.0123
 7076SOL     OW32881   4.630   4.194   5.164  0.3124 -0.0591  0.2297
 7076SOL    HW132882   4.599   4.234   5.078 -2.4363 -0.5748  0.9125
 7076SOL    HW232883   4.579   4.235   5.240  2.8122  0.5241  1.6520
 7077SOL     OW32884   1.798   2.697   5.216  0.2382  0.2582 -0.7132
 7077SOL    HW132885   1.739   2.661   5.143 -0.3689 -0.7777  0.2810
 7077SOL    HW232886   1.745   2.762   5.272  0.1707 -0.3140 -0.1075
 7078SOL     OW32887   5.044   0.127   5.154 -0.1361 -0.2266  0.1581
 7078SOL    HW132888   5.047   0.031   5.181 -1.8410 -0.1226  0.7481
 7078SOL    HW232889   5.023   0.183   5.234  0.7304  0.6287 -0.2097
 7079SOL     OW32890   9.207   8.483   4.182 -0.1635  0.0186 -0.1357
 7079SOL    HW132891   9.154   8.524   4.256 -1.7308 -1.5912 -0.3122
 7079SOL    HW232892   9.145   8.458   4.107  1.2433  0.5655 -1.4947
 7080SOL     OW32893   4.187   5.932   9.929 -0.4879 -0.5366 -0.4718
 7080SOL    HW132894   4.258   5.880   9.881 -1.1569 -1.0736 -0.8920
 7080SOL    HW232895   4.225   5.969  10.014  0.4514 -0.3499 -0.9571
 7081SOL     OW32896   9.012   4.917   6.838  0.1507  0.4505  0.1990
 7081SOL    HW132897   8.943   4.980   6.873 -0.7223 -0.0783 -0.5487
 7081SOL    HW232898   9.004   4.829   6.885 -0.5792 -0.0450 -0.8392
 7082SOL     OW32899   8.472   7.666   4.240  0.1369 -0.1115 -0.4717
 7082SOL    HW132900   8.511   7.578   4.211 -0.2912 -0.4795  0.0518
 7082SOL    HW232901   8.513   7.740   4.186  1.2507 -0.5268 -0.2198
 7083SOL     OW32902   3.763   7.843   0.875 -0.1068 -0.0043 -0.1107
 7083SOL    HW132903   3.690   7.775   0.876  0.4231 -0.5685  0.1051
 7083SOL    HW232904   3.820   7.829   0.794 -1.6632  1.9628 -1.6121
 7084SOL     OW32905   2.962   7.668   1.358  0.8568 -0.2346  0.8452
 7084SOL    HW132906   2.905   7.586   1.362 -0.2353  0.4165 -0.4425
 7084SOL    HW232907   3.037   7.654   1.293  1.9433 -0.9522  2.2383
 7085SOL     OW32908   9.615   3.342   3.553 -0.0793  0.2091 -0.2772
 7085SOL    HW132909   9.678   3.420   3.562  1.0599 -0.6510 -0.7830
 7085SOL    HW232910   9.564   3.331   3.638  1.0516  0.3930  0.4314
 7086SOL     OW32911   9.138   8.677   7.423  0.4383  0.2914 -0.3364
 7086SOL    HW132912   9.134   8.777   7.429  1.4784  0.3002  0.4580
 7086SOL    HW232913   9.233   8.649   7.412  0.0251 -0.5576 -1.9067
 7087SOL     OW32914   9.598   6.645   6.254 -0.3175  0.5825 -0.0492
 7087SOL    HW132915   9.509   6.691   6.255 -0.3650  0.4773  0.5444
 7087SOL    HW232916   9.659   6.691   6.318 -0.2292  0.0858  0.2258
 7088SOL     OW32917   6.569   8.315   6.530  0.2192  0.3148 -0.5586
 7088SOL    HW132918   6.482   8.290   6.574  1.8722 -1.4461  1.8532
 7088SOL    HW232919   6.599   8.240   6.472 -0.2184  1.2227 -1.9669
 7089SOL     OW32920   6.536   0.719   3.638  0.3061 -0.5522  0.0116
 7089SOL    HW132921   6.555   0.715   3.540  1.7540  2.0317  0.1515
 7089SOL    HW232922   6.454   0.666   3.658  0.2171 -1.4363 -2.5320
 7090SOL     OW32923   6.095   9.176   7.018  0.5734 -0.1664  0.2786
 7090SOL    HW132924   6.004   9.181   7.058 -0.0208  0.3540 -1.1142
 7090SOL    HW232925   6.115   9.082   6.991 -0.1685 -0.0105 -0.8215
 7091SOL     OW32926   7.970   6.600   4.921 -0.0698 -0.0204  0.1471
 7091SOL    HW132927   8.046   6.664   4.911  0.1017 -0.4706 -1.6630
 7091SOL    HW232928   7.976   6.531   4.849 -2.4180  0.1501 -0.2269
 7092SOL     OW32929   8.552   5.056   6.555 -0.3527 -0.1518 -0.1163
 7092SOL    HW132930   8.524   5.029   6.647  1.6593 -0.7857  0.3458
 7092SOL    HW232931   8.572   4.975   6.500  0.9137  0.2670 -0.2965
 7093SOL     OW32932   8.252   4.617   7.170 -0.2629 -0.0420 -0.4433
 7093SOL    HW132933   8.298   4.589   7.254 -1.2188 -1.0439 -0.2489
 7093SOL    HW232934   8.208   4.706   7.184  0.2796  0.1898 -0.1595
 7094SOL     OW32935   9.708   5.481   4.313 -0.0394 -0.2576  0.9892
 7094SOL    HW132936   9.684   5.404   4.253 -0.7243  1.0388 -0.4640
 7094SOL    HW232937   9.798   5.466   4.352 -0.1055 -1.7385  0.6212
 7095SOL     OW32938   7.967   4.407   6.377 -0.4046  0.1445  0.1167
 7095SOL    HW132939   7.960   4.320   6.426 -0.9806  0.2155  0.1736
 7095SOL    HW232940   7.931   4.480   6.435  2.7527  0.8933  1.2191
 7096SOL     OW32941   4.085   0.206   7.355  0.3794 -0.1970 -0.6002
 7096SOL    HW132942   4.153   0.271   7.323  0.4222 -0.2464 -0.6097
 7096SOL    HW232943   4.084   0.127   7.293  2.6982 -1.7584  1.2640
 7097SOL     OW32944   8.303   8.393   4.172  0.4498 -0.3167  0.1737
 7097SOL    HW132945   8.261   8.474   4.213 -1.8093 -0.4905 -1.7335
 7097SOL    HW232946   8.402   8.397   4.186  0.2628  2.2279  1.0463
 7098SOL     OW32947   1.896   0.718   5.975 -0.1019  0.5082 -0.3032
 7098SOL    HW132948   1.831   0.771   6.031 -1.1821 -1.5375  0.4505
 7098SOL    HW232949   1.874   0.621   5.983  1.2714  0.0032 -2.3818
 7099SOL     OW32950   1.328   1.159   0.565  0.6283 -0.3756  0.1193
 7099SOL    HW132951   1.352   1.150   0.662 -0.2589 -0.5075  0.3362
 7099SOL    HW232952   1.307   1.255   0.545  3.2906  0.1013 -0.5518
 7100SOL     OW32953   1.150   1.364   6.132  0.1439  0.3561  0.0840
 7100SOL    HW132954   1.224   1.375   6.198  0.6497 -0.3112 -0.3657
 7100SOL    HW232955   1.147   1.269   6.100 -1.6075  0.1240  0.9164
 7101SOL     OW32956   8.428   0.246   5.800  0.0067 -0.3758  0.0099
 7101SOL    HW132957   8.435   0.207   5.892  0.3533 -0.8267 -0.2114
 7101SOL    HW232958   8.474   0.334   5.798 -0.5240 -0.0826  0.4297
 7102SOL     OW32959   9.737   2.229   6.722  0.0406  0.5355  0.0707
 7102SOL    HW132960   9.710   2.274   6.637  0.4369  2.1239  0.7644
 7102SOL    HW232961   9.666   2.243   6.791 -0.3245 -0.8308 -0.0062
 7103SOL     OW32962   6.915   5.217   1.597 -0.1233 -0.1657 -0.0702
 7103SOL    HW132963   6.857   5.297   1.587 -0.4428 -0.4949 -0.9048
 7103SOL    HW232964   6.942   5.184   1.506  1.9749  0.4341  0.3086
 7104SOL     OW32965   7.820   6.442   6.981  0.3370  0.1156  0.1117
 7104SOL    HW132966   7.756   6.394   6.921  2.4869 -3.4872  0.5262
 7104SOL    HW232967   7.794   6.426   7.076  0.0719  1.2983  0.2515
 7105SOL     OW32968   4.588   5.067   2.637  0.5123  0.7891  0.7192
 7105SOL    HW132969   4.570   5.052   2.539 -0.2063 -1.1482  1.1263
 7105SOL    HW232970   4.626   5.159   2.650  0.6368  1.0650 -1.3798
 7106SOL     OW32971   6.760   6.980   3.531 -0.5236  0.1127  0.2127
 7106SOL    HW132972   6.714   6.993   3.443  0.0590 -0.6358 -0.2092
 7106SOL    HW232973   6.827   7.053   3.544  1.3352 -1.2679 -1.2431
 7107SOL     OW32974   0.353   8.673   3.231  0.5101 -0.1597  0.2589
 7107SOL    HW132975   0.297   8.597   3.265  1.7426 -0.8781  0.6975
 7107SOL    HW232976   0.353   8.671   3.131  1.6754 -1.5988  0.2718
 7108SOL     OW32977   4.052   9.394   7.048 -0.3047  0.0950  0.4557
 7108SOL    HW132978   4.118   9.326   7.079  0.4450  0.1655 -0.9479
 7108SOL    HW232979   3.983   9.409   7.119  1.0947 -0.0896  1.8673
 7109SOL     OW32980   0.624   9.470  10.026  0.2977  0.1441 -0.0710
 7109SOL    HW132981   0.713   9.428  10.014 -0.3990 -1.2487 -0.4045
 7109SOL    HW232982   0.589   9.500   9.937 -0.3183 -0.8707 -0.1780
 7110SOL     OW32983   1.153   6.620   5.943  0.1471 -0.2736  0.6942
 7110SOL    HW132984   1.167   6.522   5.956  0.8512 -0.4649 -1.4117
 7110SOL    HW232985   1.171   6.644   5.848  1.1425  2.1091  1.4507
 7111SOL     OW32986   0.485   4.176   6.288 -0.5673  0.1803  0.2778
 7111SOL    HW132987   0.385   4.176   6.295 -1.0673 -0.3727 -4.9049
 7111SOL    HW232988   0.517   4.082   6.278  0.5213  0.3772  1.6978
 7112SOL     OW32989   6.329   8.674   2.322  0.4498  0.4599 -0.1655
 7112SOL    HW132990   6.367   8.632   2.405 -1.0360  1.0559  0.8308
 7112SOL    HW232991   6.398   8.733   2.280  0.8501  1.0457  1.2710
 7113SOL     OW32992   7.188   2.733   3.020 -0.1749 -0.2602 -0.2601
 7113SOL    HW132993   7.126   2.692   3.087 -1.8677 -0.0500 -1.6606
 7113SOL    HW232994   7.203   2.829   3.042  0.6466 -0.6231  0.7862
 7114SOL     OW32995   4.002   6.394   1.583 -0.2777  0.0177 -0.2700
 7114SOL    HW132996   3.964   6.486   1.579 -0.9241 -0.2725 -1.1097
 7114SOL    HW232997   4.062   6.379   1.504  2.2612  0.7440  1.4644
 7115SOL     OW32998   1.459   0.493   7.156 -0.1078  0.2695  0.0053
 7115SOL    HW132999   1.406   0.540   7.228 -0.4595 -1.3350  0.8136
 7115SOL    HW233000   1.548   0.467   7.191  0.0851  0.3299 -0.4364
 7116SOL     OW33001   7.601   8.853   5.638 -0.2974  0.3695  0.7378
 7116SOL    HW133002   7.567   8.794   5.565 -0.0853 -0.7675  1.5541
 7116SOL    HW233003   7.589   8.949   5.611  0.2782 -0.0349 -1.0099
 7117SOL     OW33004   8.498   9.782   7.251  0.2210 -0.3187  0.1491
 7117SOL    HW133005   8.419   9.727   7.220  0.6733 -0.2932 -1.0747
 7117SOL    HW233006   8.582   9.729   7.238  0.7039  0.8081 -1.4354
 7118SOL     OW33007   2.646   0.337   7.069  0.0719 -0.0664 -0.3860
 7118SOL    HW133008   2.570   0.306   7.126 -0.0680  0.7776 -0.1063
 7118SOL    HW233009   2.655   0.277   6.990 -1.1738  0.0907 -0.6568
 7119SOL     OW33010   2.934   8.097   7.494  0.4434 -0.1016 -0.6105
 7119SOL    HW133011   3.034   8.099   7.489  0.4331  0.0726 -0.7259
 7119SOL    HW233012   2.898   8.037   7.423  0.4613 -0.1024 -0.6192
 7120SOL     OW33013   7.532   0.732   3.453 -0.0110 -0.2671 -0.9528
 7120SOL    HW133014   7.565   0.638   3.444  1.2407 -0.0245  0.8304
 7120SOL    HW233015   7.456   0.735   3.519 -1.3770 -0.3061 -2.4927
 7121SOL     OW33016   8.907   1.904   6.034  0.1147 -0.1204  0.3819
 7121SOL    HW133017   8.873   1.998   6.035  0.5176  0.0790 -1.5227
 7121SOL    HW233018   8.865   1.852   6.108 -1.2434  1.1759  0.5513
 7122SOL     OW33019   8.173   5.963   2.184 -0.4713 -0.2214 -0.1644
 7122SOL    HW133020   8.269   5.939   2.169 -0.8190 -1.6449 -0.2119
 7122SOL    HW233021   8.152   6.048   2.137  0.8622  0.3036  0.1632
 7123SOL     OW33022   3.632   3.862   7.174 -0.2990 -0.2341 -0.2638
 7123SOL    HW133023   3.637   3.961   7.181 -1.0984 -0.0406 -1.9677
 7123SOL    HW233024   3.719   3.822   7.200 -0.7703  0.7208  2.9762
 7124SOL     OW33025   6.536   0.896   4.300 -0.3145  0.5099 -0.3349
 7124SOL    HW133026   6.588   0.811   4.303 -0.2011  0.5785 -0.3157
 7124SOL    HW233027   6.443   0.880   4.333 -0.2632  0.4163 -0.2361
 7125SOL     OW33028   9.834   4.997   5.013  0.3006 -0.4646 -0.2648
 7125SOL    HW133029   9.884   5.019   4.929 -0.8272  0.7016 -0.6560
 7125SOL    HW233030   9.858   5.063   5.085 -1.2643  0.6364 -0.7095
 7126SOL     OW33031   3.098   3.998   1.616 -0.4168  0.5507  0.7401
 7126SOL    HW133032   3.152   3.926   1.574 -2.9475 -0.1648 -1.3750
 7126SOL    HW233033   3.055   3.963   1.700  0.3186  0.3667  1.0453
 7127SOL     OW33034   3.406   5.750   0.731 -0.3127  0.4192 -0.1409
 7127SOL    HW133035   3.328   5.767   0.791  0.2381  0.6381  0.5166
 7127SOL    HW233036   3.477   5.700   0.781 -0.6059 -1.0476 -1.1458
 7128SOL     OW33037   8.441   5.190   6.959 -0.0477  0.1577  0.2142
 7128SOL    HW133038   8.486   5.264   7.008 -1.4855  1.2083 -0.0126
 7128SOL    HW233039   8.371   5.149   7.018 -0.3378  0.0264 -0.2221
 7129SOL     OW33040   9.294   5.695   0.774 -0.3416  0.1248 -0.1638
 7129SOL    HW133041   9.344   5.731   0.695 -1.5989  0.5490 -0.7789
 7129SOL    HW233042   9.355   5.637   0.828  0.5325 -0.1768 -1.4409
 7130SOL     OW33043   8.500   2.300   2.475  0.4754 -0.5772 -0.8186
 7130SOL    HW133044   8.426   2.310   2.408  0.4919 -2.8382 -1.2204
 7130SOL    HW233045   8.523   2.390   2.513 -1.7353  0.3064 -1.4761
 7131SOL     OW33046   3.543   9.653   5.036  0.0124 -0.0269 -0.4156
 7131SOL    HW133047   3.570   9.582   4.971 -0.3852  0.5003 -1.1729
 7131SOL    HW233048   3.621   9.679   5.092  0.4966 -0.1380 -1.0244
 7132SOL     OW33049   4.374   2.453   7.132  0.7479 -0.3284 -0.1491
 7132SOL    HW133050   4.428   2.531   7.163 -0.0107  0.9330 -1.9451
 7132SOL    HW233051   4.414   2.414   7.049 -0.4252 -0.0928 -0.8508
 7133SOL     OW33052   0.813   3.871   1.857 -0.2018 -0.1834 -0.5134
 7133SOL    HW133053   0.737   3.885   1.920  0.8179  2.3042  0.2132
 7133SOL    HW233054   0.825   3.773   1.841 -1.2956 -0.7844  2.1091
 7134SOL     OW33055   1.004   7.777   2.516 -0.2653 -0.5615 -0.2423
 7134SOL    HW133056   1.058   7.852   2.477  0.7830 -1.0463  0.2642
 7134SOL    HW233057   1.062   7.697   2.529 -1.6890 -1.9683 -2.1454
 7135SOL     OW33058   8.337   6.995   7.466  0.1934 -0.0995 -0.1939
 7135SOL    HW133059   8.365   7.091   7.460 -0.3916  0.1088  0.2918
 7135SOL    HW233060   8.324   6.970   7.561  0.5288 -0.7234 -0.3084
 7136SOL     OW33061   1.642   2.523   3.131  0.1748  0.1528 -0.1574
 7136SOL    HW133062   1.596   2.471   3.203  1.0815  0.1331  0.4146
 7136SOL    HW233063   1.575   2.552   3.063 -0.4359 -1.2140 -0.1503
 7137SOL     OW33064   5.664   1.611   0.606 -0.6572  0.1814 -0.7954
 7137SOL    HW133065   5.756   1.649   0.599 -0.4851 -0.1980 -0.6525
 7137SOL    HW233066   5.660   1.550   0.685 -0.5950 -1.0078 -1.6934
 7138SOL     OW33067   5.313   7.833   4.886  0.1907  0.3282  0.3475
 7138SOL    HW133068   5.303   7.932   4.875  1.0241  0.6143  2.0954
 7138SOL    HW233069   5.409   7.810   4.901  0.4253 -1.0585 -2.7185
 7139SOL     OW33070   1.059   3.869   0.401 -0.0393 -0.5964  0.1424
 7139SOL    HW133071   1.136   3.884   0.339  0.2594 -0.7806  0.4699
 7139SOL    HW233072   1.092   3.834   0.488 -0.4376 -0.0385  0.5204
 7140SOL     OW33073   2.963   3.178   4.318  0.0708 -0.5486 -0.2225
 7140SOL    HW133074   3.050   3.159   4.273  1.4909 -0.3029  2.3445
 7140SOL    HW233075   2.956   3.124   4.401 -0.3735  2.4347  1.7547
 7141SOL     OW33076   2.373   4.128   5.787 -0.0199 -0.3122  0.1201
 7141SOL    HW133077   2.317   4.128   5.705 -0.1145  0.6215  0.1715
 7141SOL    HW233078   2.455   4.073   5.773  0.0521 -0.0034 -0.6684
 7142SOL     OW33079   9.649   1.777   6.919  0.1156  0.2133  0.2416
 7142SOL    HW133080   9.639   1.813   6.826 -2.9169 -0.9815  0.0218
 7142SOL    HW233081   9.657   1.677   6.915  2.2841  0.3354  1.1578
 7143SOL     OW33082   0.126   7.917   7.979  0.1753 -0.0555  0.0064
 7143SOL    HW133083   0.198   7.891   7.915  0.8162  0.4452  0.5091
 7143SOL    HW233084   0.155   7.998   8.030  0.1853 -1.1064  1.7414
 7144SOL     OW33085   8.680   8.416   7.669 -0.3914 -0.1284  0.0685
 7144SOL    HW133086   8.779   8.426   7.679 -0.2348 -1.7356  0.1712
 7144SOL    HW233087   8.638   8.409   7.759 -0.5393 -0.0464  0.0058
 7145SOL     OW33088   4.755   7.567   0.733  0.2857 -0.2927 -0.2908
 7145SOL    HW133089   4.724   7.581   0.639  0.9240  1.8486 -0.2193
 7145SOL    HW233090   4.684   7.520   0.785 -0.6765 -0.1571 -1.4519
 7146SOL     OW33091   0.324   4.372   7.781 -0.0289 -0.2595 -0.7098
 7146SOL    HW133092   0.381   4.450   7.755 -0.5431  0.0984 -0.7663
 7146SOL    HW233093   0.331   4.300   7.711  0.0836 -0.0783 -0.8831
 7147SOL     OW33094   0.005   8.195   5.584 -0.3700 -0.3304  0.0941
 7147SOL    HW133095  -0.029   8.269   5.525  1.1254  0.7535  0.5638
 7147SOL    HW233096   0.019   8.113   5.529 -0.2361  0.2977 -0.8274
 7148SOL     OW33097   3.432   6.263   3.964 -0.0531 -0.0686  0.5127
 7148SOL    HW133098   3.526   6.234   3.980  0.6864  1.0349 -1.6045
 7148SOL    HW233099   3.426   6.363   3.969 -1.0121 -0.1023  0.1700
 7149SOL     OW33100   3.970   8.130   6.483  0.6015 -0.4665  0.1332
 7149SOL    HW133101   3.967   8.228   6.499 -0.1425 -0.6080  0.9376
 7149SOL    HW233102   3.985   8.112   6.386 -0.8099  0.4548 -0.2783
 7150SOL     OW33103   0.852   5.000   6.313 -0.1396 -0.1481 -0.1942
 7150SOL    HW133104   0.848   5.063   6.235  0.6875  1.8234  1.3104
 7150SOL    HW233105   0.767   5.006   6.365 -0.2072 -0.5715 -0.2509
 7151SOL     OW33106   2.805   9.749   1.676 -0.8214  0.0783 -0.2770
 7151SOL    HW133107   2.722   9.738   1.731 -0.3184  0.3414  0.5394
 7151SOL    HW233108   2.837   9.843   1.684 -1.1585  0.3183 -1.6203
 7152SOL     OW33109   6.853   0.280   7.557 -0.6093  0.5461 -0.3199
 7152SOL    HW133110   6.798   0.200   7.533 -0.6890  0.2658  0.7785
 7152SOL    HW233111   6.950   0.258   7.545 -0.6512  0.4248 -0.4438
 7153SOL     OW33112   8.886   7.138   4.024 -0.2753  0.0184 -0.1037
 7153SOL    HW133113   8.860   7.206   3.956  0.4684  0.1278 -0.2862
 7153SOL    HW233114   8.898   7.182   4.113  1.8941  0.4552 -0.5720
 7154SOL     OW33115   8.381   7.045   5.277 -0.9882 -0.2079 -0.4133
 7154SOL    HW133116   8.475   7.018   5.254 -0.8090  0.9880 -1.1484
 7154SOL    HW233117   8.376   7.070   5.373 -0.5193 -0.1401 -0.4049
 7155SOL     OW33118   5.899   0.605   5.578  0.0470  0.1456 -0.4820
 7155SOL    HW133119   5.923   0.631   5.484  0.8150 -0.8853 -0.5758
 7155SOL    HW233120   5.854   0.516   5.577  2.1354 -0.9544  0.3298
 7156SOL     OW33121   7.846   4.675   3.087  0.0193  0.2953 -0.3135
 7156SOL    HW133122   7.752   4.648   3.067 -0.3775  2.0734 -0.9660
 7156SOL    HW233123   7.846   4.756   3.146  1.1344  0.3147 -0.3190
 7157SOL     OW33124   0.769   3.531   6.173  0.8174 -0.0069  0.3960
 7157SOL    HW133125   0.709   3.473   6.117  1.1378  1.1695 -1.1896
 7157SOL    HW233126   0.855   3.547   6.124  0.7592  1.7591  0.8464
 7158SOL     OW33127   1.929   8.274   0.216 -0.1637 -0.3506 -0.3607
 7158SOL    HW133128   1.996   8.283   0.141  0.2740 -2.2265 -0.2159
 7158SOL    HW233129   1.840   8.251   0.178  0.2589 -2.2078 -0.2642
 7159SOL     OW33130   7.866   2.310   5.782  0.2868 -0.0820 -0.4128
 7159SOL    HW133131   7.885   2.243   5.853 -0.2757 -0.0255 -0.2087
 7159SOL    HW233132   7.844   2.264   5.696  0.2184 -0.1580 -0.3545
 7160SOL     OW33133   5.199   0.090   7.785 -0.6573 -0.0636 -0.0752
 7160SOL    HW133134   5.216   0.103   7.883 -1.1482  1.3338 -0.1715
 7160SOL    HW233135   5.101   0.080   7.769 -0.5002 -1.2113 -0.3218
 7161SOL     OW33136   8.467   5.401   1.670  0.3807 -0.0175  0.4588
 7161SOL    HW133137   8.498   5.331   1.736 -0.7243 -0.9600 -0.0170
 7161SOL    HW233138   8.378   5.376   1.634 -0.3530  2.0268  0.8119
 7162SOL     OW33139   0.650   0.119   7.191  0.1039 -0.1032  0.5760
 7162SOL    HW133140   0.665   0.093   7.286 -0.4442  0.7260  0.8978
 7162SOL    HW233141   0.670   0.041   7.131  0.4782 -0.6161  1.3667
 7163SOL     OW33142   9.145   8.516   1.706 -0.1923 -0.4816  0.3760
 7163SOL    HW133143   9.059   8.465   1.708 -1.0581  0.9088 -0.4123
 7163SOL    HW233144   9.177   8.532   1.799 -2.4344  1.6909  0.8176
 7164SOL     OW33145   8.368   6.561   4.964 -0.3506 -0.1308  0.0320
 7164SOL    HW133146   8.326   6.633   5.019 -1.0322  0.0295 -0.6831
 7164SOL    HW233147   8.347   6.577   4.867 -2.0985 -2.3287  0.0003
 7165SOL     OW33148   9.037   4.446   5.313 -0.3944  0.1763 -0.3272
 7165SOL    HW133149   9.047   4.423   5.216 -1.5014  1.5652 -0.7876
 7165SOL    HW233150   8.944   4.427   5.342  0.2127 -1.1954  0.7379
 7166SOL     OW33151   3.028   9.895   3.886 -0.4782  0.1446 -0.0779
 7166SOL    HW133152   3.052   9.980   3.933  0.5402 -0.2682  0.1788
 7166SOL    HW233153   3.021   9.821   3.953 -1.4685  0.0501 -0.2881
 7167SOL     OW33154   0.687   9.014   0.372 -0.0682  0.5247 -0.2670
 7167SOL    HW133155   0.627   8.934   0.371 -0.9329  1.1210  1.5522
 7167SOL    HW233156   0.638   9.092   0.333 -0.3859  0.9355  0.9341
 7168SOL     OW33157   2.300   0.353   2.832 -0.2368  0.0235 -0.3336
 7168SOL    HW133158   2.382   0.304   2.862  0.3884  1.3013  0.0842
 7168SOL    HW233159   2.280   0.426   2.897 -1.5031 -0.0441 -0.6337
 7169SOL     OW33160   2.611   3.616   0.374 -0.6772 -0.0425  0.0107
 7169SOL    HW133161   2.660   3.703   0.372 -0.8850  0.0503 -1.9191
 7169SOL    HW233162   2.656   3.551   0.314 -1.0759 -0.9818  0.7082
 7170SOL     OW33163   0.919   6.814   5.992  0.9711 -0.4238 -0.1283
 7170SOL    HW133164   0.950   6.905   6.019  1.2489 -1.0239  1.6310
 7170SOL    HW233165   0.969   6.784   5.911  0.0762  1.4374 -1.4022
 7171SOL     OW33166   7.817   8.622   4.742 -0.3737  0.2069  0.1167
 7171SOL    HW133167   7.881   8.692   4.772 -0.3752 -0.1236  0.9195
 7171SOL    HW233168   7.855   8.532   4.763 -0.2880 -0.0354 -1.0783
 7172SOL     OW33169   7.524   7.247   2.339  0.2058 -0.2989  0.3527
 7172SOL    HW133170   7.518   7.339   2.300 -1.3090 -0.3894  0.3275
 7172SOL    HW233171   7.441   7.229   2.393  0.0881 -1.9896 -0.3795
 7173SOL     OW33172   3.550   3.488   0.061 -0.0733  0.4874 -0.2510
 7173SOL    HW133173   3.509   3.555  -0.001 -1.0683  1.3352  1.2736
 7173SOL    HW233174   3.598   3.418   0.009  2.2587  3.2030 -1.8155
 7174SOL     OW33175   8.996   2.192   2.768  0.3230  0.7680 -0.5127
 7174SOL    HW133176   8.897   2.205   2.756  0.3331  0.8602 -0.5015
 7174SOL    HW233177   9.021   2.213   2.862  0.4980  1.6903 -0.7539
 7175SOL     OW33178   0.663   2.220   4.360 -0.4011  0.1766  0.0791
 7175SOL    HW133179   0.597   2.163   4.408  0.5189 -0.6224  0.4058
 7175SOL    HW233180   0.756   2.192   4.384  0.0727  0.0641 -1.7935
 7176SOL     OW33181   2.163   0.361   5.779  0.5866 -0.3414  0.1626
 7176SOL    HW133182   2.120   0.358   5.689 -0.0518 -0.6436  0.4715
 7176SOL    HW233183   2.181   0.456   5.805 -2.2202 -0.0246  1.1036
 7177SOL     OW33184   8.383   3.709   2.199  0.1374  0.3661  0.1001
 7177SOL    HW133185   8.431   3.702   2.112  2.9336 -0.9507  1.6651
 7177SOL    HW233186   8.303   3.769   2.189  0.2232 -0.0144 -3.3924
 7178SOL     OW33187   3.995   7.371   1.544 -0.1316  0.0077  0.1589
 7178SOL    HW133188   4.071   7.376   1.609  1.0467  0.1881 -1.2017
 7178SOL    HW233189   3.927   7.305   1.576  1.5701 -1.6456  0.4084
 7179SOL     OW33190   0.382   9.842   2.026  0.1845  0.0570 -0.2172
 7179SOL    HW133191   0.437   9.903   2.084 -0.0205 -0.2362  0.2879
 7179SOL    HW233192   0.308   9.802   2.080  0.7510 -1.2077 -0.3534
 7180SOL     OW33193   5.125   5.943   2.154  0.3959 -0.3383  0.2177
 7180SOL    HW133194   5.075   5.857   2.148 -0.3178  0.1738 -1.2689
 7180SOL    HW233195   5.116   5.993   2.068  0.0618  1.6189  1.3607
 7181SOL     OW33196   2.294   0.996   2.645 -0.5988  0.0249 -0.1462
 7181SOL    HW133197   2.369   1.043   2.599  1.5062 -2.1770  0.8927
 7181SOL    HW233198   2.255   0.927   2.584  1.6275 -2.3034  0.9477
 7182SOL     OW33199   2.794   8.919   5.906  0.0246 -0.4571  0.0929
 7182SOL    HW133200   2.866   8.866   5.860  0.8349  0.8509 -0.1798
 7182SOL    HW233201   2.836   8.991   5.962 -1.0688  0.4054 -0.1742
 7183SOL     OW33202   6.369   7.979   7.171 -0.0336 -0.1173  0.4469
 7183SOL    HW133203   6.423   7.992   7.254 -0.2683  1.3984  0.3637
 7183SOL    HW233204   6.364   8.065   7.120 -1.9880 -0.3969  0.1271
 7184SOL     OW33205   0.053   8.325   4.381 -0.2029  0.2809  0.5248
 7184SOL    HW133206   0.043   8.278   4.294 -0.8061 -1.1278  1.3458
 7184SOL    HW233207   0.141   8.373   4.383  0.9963 -1.8708  0.1784
 7185SOL     OW33208   2.558   1.451   0.267 -0.3811 -0.0538  0.1412
 7185SOL    HW133209   2.601   1.451   0.356 -0.3632 -0.6053  0.1300
 7185SOL    HW233210   2.520   1.542   0.249 -0.7976 -0.0698  0.9072
 7186SOL     OW33211   0.503   7.668   0.960  0.2064  0.4271 -0.4504
 7186SOL    HW133212   0.415   7.646   0.918 -0.8715  0.5171  1.6745
 7186SOL    HW233213   0.539   7.753   0.920 -0.9962  0.7510 -0.8650
 7187SOL     OW33214   0.102   4.951   0.490 -0.3146 -0.2229 -0.4107
 7187SOL    HW133215   0.108   4.910   0.398  0.6311 -1.9313  0.3743
 7187SOL    HW233216   0.057   4.887   0.552  1.6133 -0.2872  0.9646
 7188SOL     OW33217   5.032   5.227   2.906  0.2946 -1.0354  0.0486
 7188SOL    HW133218   5.026   5.238   3.005  1.0585 -1.0583  0.0993
 7188SOL    HW233219   5.023   5.317   2.862 -0.4151 -1.0703  0.1159
 7189SOL     OW33220   8.636   7.252   0.573  0.1550 -0.3325 -0.1278
 7189SOL    HW133221   8.716   7.228   0.629 -1.0977 -1.2272  1.3070
 7189SOL    HW233222   8.640   7.202   0.486  1.5069  0.1687 -0.3715
 7190SOL     OW33223   5.021   3.815   6.700  0.5474  0.3360  0.1368
 7190SOL    HW133224   5.118   3.807   6.679  0.4518  1.6102 -0.8601
 7190SOL    HW233225   4.978   3.725   6.694  1.5425 -0.1372 -0.0125
 7191SOL     OW33226   2.985   0.741   6.948  0.3816  0.0595  0.6382
 7191SOL    HW133227   2.918   0.805   6.986  0.0377  0.1179 -0.0585
 7191SOL    HW233228   2.938   0.661   6.912  0.6011  0.5273 -0.7035
 7192SOL     OW33229   9.539   1.083   6.671 -0.7293  0.1394  0.3544
 7192SOL    HW133230   9.600   1.162   6.675  0.0469 -0.4965  1.4652
 7192SOL    HW233231   9.585   1.006   6.628 -1.1895  0.0339  0.0429
 7193SOL     OW33232   3.165   2.024   2.963 -0.7141 -0.5103  0.3778
 7193SOL    HW133233   3.260   1.997   2.955 -0.3237  0.1515  2.5510
 7193SOL    HW233234   3.122   2.020   2.873  1.5759  0.0066 -0.7752
 7194SOL     OW33235   0.886   4.734   7.517  0.1560  0.2274  0.1525
 7194SOL    HW133236   0.928   4.745   7.607 -0.4859  1.1710  0.3389
 7194SOL    HW233237   0.955   4.751   7.446  0.8994 -1.4064  0.4421
 7195SOL     OW33238   8.382   6.392   2.278 -0.7837  0.4206  0.1852
 7195SOL    HW133239   8.343   6.482   2.301 -1.9595 -0.0785  0.1565
 7195SOL    HW233240   8.372   6.376   2.180 -0.0169  0.5085  0.0854
 7196SOL     OW33241   5.730   8.662   6.916 -0.5648  0.3537  0.0331
 7196SOL    HW133242   5.649   8.719   6.925 -0.1922  0.9658 -0.4855
 7196SOL    HW233243   5.732   8.595   6.991 -1.0274  0.9860  0.6163
 7197SOL     OW33244   2.097   4.945   4.074 -0.0099  0.2438 -0.0163
 7197SOL    HW133245   2.014   4.986   4.036  0.0197  0.5748  0.2673
 7197SOL    HW233246   2.073   4.887   4.152  0.0177  0.2620  0.0055
 7198SOL     OW33247   7.020   3.051   4.530 -0.0399 -0.1841 -0.6745
 7198SOL    HW133248   7.049   3.139   4.492  0.1166 -0.4916 -1.2692
 7198SOL    HW233249   7.023   3.055   4.630  0.2690  0.3824 -0.7052
 7199SOL     OW33250   7.857   8.635   5.428  0.1672  0.2262 -0.1981
 7199SOL    HW133251   7.934   8.698   5.428 -1.6212  2.5536  1.8477
 7199SOL    HW233252   7.864   8.574   5.507 -0.7662  1.3955  0.8162
 7200SOL     OW33253   6.828   5.338   0.786 -0.0491  0.0625  0.0382
 7200SOL    HW133254   6.739   5.300   0.760 -0.7897  1.4315  0.5855
 7200SOL    HW233255   6.857   5.299   0.874 -1.3365  1.6055  1.1594
 7201SOL     OW33256   0.439   3.320   5.056  0.0008  0.1978 -0.0430
 7201SOL    HW133257   0.520   3.294   5.108 -0.0052  2.1155  0.9911
 7201SOL    HW233258   0.370   3.358   5.118 -1.9531 -1.9747 -0.8337
 7202SOL     OW33259   9.605   2.037   4.996  0.7698  0.0911  0.0460
 7202SOL    HW133260   9.645   2.057   4.907  1.3655 -1.9861 -0.1743
 7202SOL    HW233261   9.650   2.093   5.067  3.0336 -1.1190 -0.3989
 7203SOL     OW33262   4.238   0.632   6.093 -0.2522 -0.2529  0.8075
 7203SOL    HW133263   4.249   0.533   6.090  0.3319 -0.2627  2.7594
 7203SOL    HW233264   4.328   0.675   6.085 -0.6488  0.1927 -1.7247
 7204SOL     OW33265   4.936   3.597   7.772 -0.4825 -0.1973 -0.1058
 7204SOL    HW133266   5.015   3.601   7.833 -0.6984  2.5952  0.0474
 7204SOL    HW233267   4.863   3.544   7.815  1.1252 -2.4954 -0.1028
 7205SOL     OW33268   8.337   1.477   6.668 -0.0682 -0.5508  0.1021
 7205SOL    HW133269   8.275   1.457   6.744 -1.5199  1.0568 -0.6411
 7205SOL    HW233270   8.375   1.568   6.678  1.2268 -1.0633 -0.0952
 7206SOL     OW33271   0.046   6.888   6.931 -0.1262  0.0603  0.6550
 7206SOL    HW133272   0.083   6.807   6.976 -0.4601 -0.7185 -0.4521
 7206SOL    HW233273   0.103   6.911   6.851 -1.1213 -0.2222 -0.1463
 7207SOL     OW33274   2.632   1.583   2.092  0.5369  0.0007 -0.5536
 7207SOL    HW133275   2.625   1.540   2.182 -0.0970  1.8489  0.3031
 7207SOL    HW233276   2.561   1.546   2.031  0.7847 -1.0416 -0.2229
 7208SOL     OW33277   1.340   9.106   3.778  0.5497  0.3650  0.6764
 7208SOL    HW133278   1.289   9.122   3.863  0.1169  1.7757  0.1616
 7208SOL    HW233279   1.398   9.025   3.789 -1.1950 -0.8070  1.5572
 7209SOL     OW33280   7.473   4.219   1.764 -0.1152 -0.0424  0.2707
 7209SOL    HW133281   7.467   4.157   1.686 -1.5004  0.4078 -0.0114
 7209SOL    HW233282   7.536   4.294   1.743 -1.6726  0.9315 -1.0556
 7210SOL     OW33283   1.671   0.927   2.260  0.3391 -0.1093 -0.0734
 7210SOL    HW133284   1.675   1.016   2.216 -0.7196  0.0725  0.1679
 7210SOL    HW233285   1.596   0.874   2.221 -0.5269  0.0033  1.3876
 7211SOL     OW33286   6.946   4.882   1.708  0.1820  0.0471  0.1103
 7211SOL    HW133287   6.860   4.836   1.688  0.9362 -1.3089 -0.0427
 7211SOL    HW233288   6.995   4.833   1.779  0.7158  0.9586  0.3844
 7212SOL     OW33289   8.927   4.184   2.468 -0.0379  0.0390 -0.5835
 7212SOL    HW133290   8.946   4.264   2.412  0.6292  0.2439 -0.0762
 7212SOL    HW233291   8.856   4.206   2.535  0.9090  0.5481  0.2716
 7213SOL     OW33292   6.690   4.413   2.532 -0.6179 -0.0327  0.0623
 7213SOL    HW133293   6.714   4.504   2.567  0.1132 -0.7109  1.3741
 7213SOL    HW233294   6.593   4.411   2.506 -1.0816  0.6214  1.6867
 7214SOL     OW33295   8.137   5.634   6.979 -0.4652 -0.0324  0.1797
 7214SOL    HW133296   8.229   5.650   7.016  0.4838  0.2379 -2.2270
 7214SOL    HW233297   8.112   5.538   6.993  0.0214 -0.0276  1.1754
 7215SOL     OW33298   1.185   5.272   5.916  0.7869 -0.1891  0.2566
 7215SOL    HW133299   1.229   5.361   5.930  0.9432 -0.3830  1.0647
 7215SOL    HW233300   1.134   5.273   5.830  2.0450  0.1691 -0.5017
 7216SOL     OW33301   8.655   0.258   4.590 -0.4453 -0.0654 -0.0475
 7216SOL    HW133302   8.701   0.332   4.541 -0.4726  0.0247  0.0619
 7216SOL    HW233303   8.721   0.190   4.619 -0.5762 -0.6811 -1.1866
 7217SOL     OW33304   5.653   8.510   4.600  0.0334  0.4598  0.5093
 7217SOL    HW133305   5.698   8.423   4.619  0.1970  0.3527 -0.3626
 7217SOL    HW233306   5.638   8.520   4.502 -0.3216  1.2508  0.6337
 7218SOL     OW33307   5.026   7.568   6.386 -0.3800  0.5048 -0.5208
 7218SOL    HW133308   5.029   7.511   6.468  2.6043  2.3661  0.7696
 7218SOL    HW233309   4.958   7.640   6.397 -1.1358 -0.2332 -0.3597
 7219SOL     OW33310   4.387   6.589   0.467  0.8689 -0.5171  0.5775
 7219SOL    HW133311   4.484   6.575   0.445  1.9485  4.5295  1.6138
 7219SOL    HW233312   4.378   6.617   0.562 -1.4814  0.6083  0.0470
 7220SOL     OW33313   3.822   5.346   3.683 -0.5804  0.3860  0.1317
 7220SOL    HW133314   3.722   5.346   3.680 -0.5870 -0.7741  0.1368
 7220SOL    HW233315   3.852   5.346   3.779 -0.5793  0.0346  0.1317
 7221SOL     OW33316   4.239   9.230   5.118  0.0836 -0.2198  0.3025
 7221SOL    HW133317   4.312   9.188   5.064  1.3931  2.2506  0.1207
 7221SOL    HW233318   4.222   9.323   5.086 -2.3216 -0.3190  1.1557
 7222SOL     OW33319   5.149   3.556   6.560  0.2109  0.1956  0.0671
 7222SOL    HW133320   5.088   3.527   6.634 -1.5635  1.8788 -0.6717
 7222SOL    HW233321   5.178   3.477   6.506 -2.7524 -0.4737 -0.6193
 7223SOL     OW33322   2.568   3.264   6.686 -0.0774  0.1161 -0.3072
 7223SOL    HW133323   2.587   3.353   6.645  0.3734  0.5780  0.8974
 7223SOL    HW233324   2.643   3.237   6.746 -0.8070 -0.4699  0.3578
 7224SOL     OW33325   4.395   3.537   0.147  0.0552 -0.0823  1.1263
 7224SOL    HW133326   4.374   3.589   0.065  1.8134  0.4023  0.9586
 7224SOL    HW233327   4.320   3.474   0.168 -0.6687  0.2436 -0.4842
 7225SOL     OW33328   1.101   7.890   0.891 -0.0190  0.1859  0.6728
 7225SOL    HW133329   1.043   7.947   0.949 -0.6193 -0.1469  0.4120
 7225SOL    HW233330   1.052   7.805   0.870  1.2219 -0.8477  1.8411
 7226SOL     OW33331   1.622   9.099   7.089  0.4977 -0.2184 -0.2280
 7226SOL    HW133332   1.606   9.094   6.990 -0.4451 -0.3357 -0.0687
 7226SOL    HW233333   1.603   9.192   7.121  2.6254  0.3322 -0.4630
 7227SOL     OW33334   7.959   0.989   1.372  0.4355  0.7338  0.1675
 7227SOL    HW133335   8.012   0.909   1.345  1.1713  0.0287  3.4551
 7227SOL    HW233336   7.863   0.964   1.383  0.3500  0.7440 -0.5100
 7228SOL     OW33337   3.189   7.867   6.856  0.7418  0.5319 -0.1588
 7228SOL    HW133338   3.274   7.881   6.805  0.6537  2.2794  0.1112
 7228SOL    HW233339   3.179   7.771   6.880  3.0070  0.4170  0.4303
 7229SOL     OW33340   8.653   7.185   4.462  0.0489 -0.1906  0.1084
 7229SOL    HW133341   8.670   7.270   4.412 -0.3661 -0.1949 -0.0457
 7229SOL    HW233342   8.604   7.121   4.403 -1.1656  0.1049  0.7746
 7230SOL     OW33343   0.740   3.256   0.020 -0.0981 -0.3702  0.1097
 7230SOL    HW133344   0.663   3.302  -0.024 -0.1968  0.2018  0.8539
 7230SOL    HW233345   0.762   3.304   0.105 -0.3961 -1.8991  1.0581
 7231SOL     OW33346   6.888   9.055   5.270  0.3364  0.5006  0.2778
 7231SOL    HW133347   6.849   9.086   5.357  0.1021  0.3126  0.2389
 7231SOL    HW233348   6.964   8.993   5.289  0.6202  0.8665  0.3530
 7232SOL     OW33349   2.107   4.062   0.662 -0.4202  0.2537 -0.0227
 7232SOL    HW133350   2.080   4.035   0.754  0.0181  1.2214  0.3891
 7232SOL    HW233351   2.207   4.054   0.652 -0.5673 -0.9524 -0.7824
 7233SOL     OW33352   2.798   9.221   1.003  0.4183 -0.1536  0.2616
 7233SOL    HW133353   2.736   9.245   1.078  0.8861  1.9553  0.0018
 7233SOL    HW233354   2.870   9.290   0.996  0.9788 -0.8930 -1.4743
 7234SOL     OW33355   4.122   5.139   4.337  0.0745  0.3455  0.3239
 7234SOL    HW133356   4.105   5.165   4.432 -0.4328 -1.3265  0.7043
 7234SOL    HW233357   4.064   5.194   4.276  0.9354  1.9323  0.9130
 7235SOL     OW33358   4.289   1.485   3.504 -0.5748 -0.3270  0.1385
 7235SOL    HW133359   4.244   1.538   3.432 -0.7841 -0.5687  0.0915
 7235SOL    HW233360   4.334   1.548   3.567 -0.0392 -0.1281 -0.4293
 7236SOL     OW33361   4.924   1.100   6.899  0.3463 -0.1526 -0.5044
 7236SOL    HW133362   4.923   1.199   6.885  1.7894 -0.1534 -0.7458
 7236SOL    HW233363   4.867   1.056   6.831  0.2444  0.4693 -0.8236
 7237SOL     OW33364   8.836   2.589   7.379 -0.0685 -0.0256  0.7698
 7237SOL    HW133365   8.864   2.536   7.459  1.2562 -0.0728  0.2898
 7237SOL    HW233366   8.821   2.684   7.407  2.6706  0.4690  0.6657
 7238SOL     OW33367   2.673   9.672   1.294 -0.5321  0.1806  0.3152
 7238SOL    HW133368   2.663   9.680   1.194 -2.0540 -0.7034  0.3748
 7238SOL    HW233369   2.664   9.762   1.335 -0.3727  0.4890 -0.3113
 7239SOL     OW33370   0.998   1.651   5.391 -0.0671 -0.0990  0.1562
 7239SOL    HW133371   0.961   1.735   5.351  1.2913  0.6182  0.3668
 7239SOL    HW233372   1.051   1.602   5.321  0.4711  0.0298  0.4756
 7240SOL     OW33373   4.663   7.409   2.512  0.2629 -0.0693 -0.3299
 7240SOL    HW133374   4.618   7.375   2.429 -1.2985 -0.8122  0.7856
 7240SOL    HW233375   4.758   7.430   2.492  0.1738 -1.1803 -2.0758
 7241SOL     OW33376   2.248   2.056   4.326 -0.1041  0.0838  0.3473
 7241SOL    HW133377   2.158   2.091   4.350 -0.4899  1.3627 -2.7321
 7241SOL    HW233378   2.291   2.117   4.259  0.9340 -3.1141 -2.0636
 7242SOL     OW33379   2.068   3.311   1.548  0.2854  0.1206  0.2339
 7242SOL    HW133380   2.043   3.256   1.628 -3.8603  1.0564 -0.2853
 7242SOL    HW233381   2.059   3.408   1.571 -1.2239  0.3929 -1.4198
 7243SOL     OW33382   6.733   7.757   7.086  0.1284 -0.0065 -0.5205
 7243SOL    HW133383   6.791   7.800   7.017  1.4006  0.9480  1.1190
 7243SOL    HW233384   6.782   7.681   7.129 -0.3785 -0.1332 -0.1550
 7244SOL     OW33385   7.921   7.315   2.703 -0.1818 -0.0469  0.2286
 7244SOL    HW133386   7.869   7.397   2.679  0.6053  0.3806 -0.0427
 7244SOL    HW233387   8.013   7.342   2.732 -0.3658 -0.7339  1.4871
 7245SOL     OW33388   7.543   5.419   0.469 -0.2304  0.5484  0.0097
 7245SOL    HW133389   7.630   5.423   0.518 -0.1191  1.0271 -0.2277
 7245SOL    HW233390   7.539   5.336   0.414 -0.3326  0.0293  0.7861
 7246SOL     OW33391   9.381   7.314   3.471  0.2494 -0.1840 -0.5181
 7246SOL    HW133392   9.302   7.261   3.440 -1.0896  1.7572 -0.4910
 7246SOL    HW233393   9.386   7.311   3.571  1.3516 -1.8881 -0.6079
 7247SOL     OW33394   3.401   8.424  10.068 -0.3410 -0.1168 -0.2151
 7247SOL    HW133395   3.404   8.434   9.969  0.7700 -1.2612 -0.3172
 7247SOL    HW233396   3.458   8.494  10.111 -0.2114 -0.0920 -0.4250
 7248SOL     OW33397   6.794   5.234   7.027 -0.7273  0.4052 -0.1645
 7248SOL    HW133398   6.786   5.134   7.027 -1.0901  0.4324  0.1769
 7248SOL    HW233399   6.798   5.267   6.933  2.2424 -0.1499 -0.2591
 7249SOL     OW33400   1.375   5.484   1.266  0.2896  0.1737  0.2097
 7249SOL    HW133401   1.323   5.414   1.218 -0.3970  0.7526  0.0869
 7249SOL    HW233402   1.403   5.450   1.355  0.6388 -0.5296 -0.1632
 7250SOL     OW33403   2.535   8.308   1.626 -0.0893  0.0374  1.1500
 7250SOL    HW133404   2.439   8.323   1.601  0.0348 -1.3586 -0.2343
 7250SOL    HW233405   2.568   8.387   1.678 -1.9302  0.6174  1.4996
 7251SOL     OW33406   5.454   6.618   9.930 -0.2704 -0.5346  0.5221
 7251SOL    HW133407   5.474   6.682   9.856 -0.2029 -0.8351  0.2765
 7251SOL    HW233408   5.484   6.657  10.017  2.5895 -1.4823  0.0178
 7252SOL     OW33409   1.773   4.713   2.582 -0.1892  0.5912  0.3243
 7252SOL    HW133410   1.861   4.675   2.554 -0.7849 -0.4228 -0.1660
 7252SOL    HW233411   1.775   4.813   2.572 -0.3757  0.2980 -3.3492
 7253SOL     OW33412   2.092   8.610   4.473  0.0237  0.7329  0.2390
 7253SOL    HW133413   2.124   8.665   4.396  1.4410 -0.1220  0.2025
 7253SOL    HW233414   2.057   8.523   4.440  3.3866 -0.9005  0.7262
 7254SOL     OW33415   9.435   0.716   5.358 -0.4682 -0.2919  0.3531
 7254SOL    HW133416   9.439   0.806   5.315  0.6571 -0.0948  0.8404
 7254SOL    HW233417   9.347   0.704   5.403 -0.8904  0.2860 -0.3090
 7255SOL     OW33418   9.018   1.421   5.288 -0.2089 -0.0254  0.5687
 7255SOL    HW133419   8.946   1.448   5.223  0.6681 -0.2173 -0.4826
 7255SOL    HW233420   9.019   1.486   5.364 -1.8540 -0.3226  0.8755
 7256SOL     OW33421   1.210   9.516   3.422 -1.0773  0.0248 -0.0915
 7256SOL    HW133422   1.301   9.554   3.409 -1.0173 -0.0699  0.0545
 7256SOL    HW233423   1.202   9.430   3.372 -0.8557 -0.3247  0.4666
 7257SOL     OW33424   9.650   2.679   1.218  0.2292  0.0344  0.6215
 7257SOL    HW133425   9.621   2.604   1.158  0.8147 -0.7316  1.2898
 7257SOL    HW233426   9.606   2.764   1.189 -2.1910 -0.9717  1.2035
 7258SOL     OW33427   0.554   7.285   2.435 -0.5309  0.0941  0.4147
 7258SOL    HW133428   0.545   7.238   2.347  1.0624 -0.3954  0.5040
 7258SOL    HW233429   0.650   7.289   2.461 -0.6459  3.0385  0.5998
 7259SOL     OW33430   1.414   4.878   2.799  0.1538 -0.4701  0.1945
 7259SOL    HW133431   1.432   4.954   2.737  1.3745 -0.1153  0.9749
 7259SOL    HW233432   1.345   4.817   2.758 -1.0912  1.2157 -0.2750
 7260SOL     OW33433   8.376   2.342   4.572 -0.0602  0.3973  0.5238
 7260SOL    HW133434   8.380   2.243   4.585  2.2244  0.6629  2.2621
 7260SOL    HW233435   8.366   2.387   4.661 -0.2084  1.7620 -0.1684
 7261SOL     OW33436   7.413   0.441   0.769  0.0265 -0.3362 -0.4702
 7261SOL    HW133437   7.318   0.411   0.780  0.1306 -0.4362  0.2037
 7261SOL    HW233438   7.421   0.497   0.687 -0.4457 -1.0358 -0.9997
 7262SOL     OW33439   0.932   3.987   6.373 -0.1963  0.1291  0.2516
 7262SOL    HW133440   0.969   4.020   6.286 -0.1001  0.4779  0.4227
 7262SOL    HW233441   0.963   4.047   6.447  0.8289 -0.9444  0.7115
 7263SOL     OW33442   2.362   6.861   4.618  0.3038  0.3029  0.0930
 7263SOL    HW133443   2.447   6.886   4.664  0.3840  0.8124 -0.3190
 7263SOL    HW233444   2.380   6.792   4.549  0.2970  0.0390  0.3534
 7264SOL     OW33445   7.582   2.758   3.655  0.0411 -0.3456  0.2434
 7264SOL    HW133446   7.511   2.769   3.725 -0.5865 -0.5663 -0.3523
 7264SOL    HW233447   7.540   2.767   3.564  0.8423 -0.1138 -0.1048
 7265SOL     OW33448   1.008   1.379   4.434  0.1449 -0.1705 -0.5061
 7265SOL    HW133449   1.043   1.287   4.452  0.3322 -0.4278 -2.1142
 7265SOL    HW233450   0.922   1.392   4.484  0.1034 -1.2362 -0.2800
 7266SOL     OW33451   8.361   8.631   6.406  0.0086  0.2588 -0.3294
 7266SOL    HW133452   8.341   8.715   6.457 -1.8927 -0.8014  0.7357
 7266SOL    HW233453   8.449   8.594   6.436 -1.0223 -0.2792  2.1427
 7267SOL     OW33454   4.764   4.316   7.440  0.7722 -0.0698 -0.1334
 7267SOL    HW133455   4.780   4.356   7.530  1.8861 -2.0562  0.5984
 7267SOL    HW233456   4.689   4.364   7.394  1.1761  1.9139  1.2308
 7268SOL     OW33457   7.358   4.771   2.845  0.2171  0.2977 -0.4509
 7268SOL    HW133458   7.373   4.681   2.805  0.3763  0.7745 -1.4843
 7268SOL    HW233459   7.445   4.821   2.848 -0.0244  0.7342 -0.6786
 7269SOL     OW33460   8.136   8.802   0.813 -0.2956 -0.0257  0.1518
 7269SOL    HW133461   8.176   8.777   0.902 -1.8748 -0.7732  0.6715
 7269SOL    HW233462   8.200   8.860   0.763  1.6348 -1.5661  0.7596
 7270SOL     OW33463   0.069   5.935   3.490  0.5339  0.0984  0.2690
 7270SOL    HW133464   0.105   5.866   3.552  1.3823 -0.1833 -0.5271
 7270SOL    HW233465   0.135   6.009   3.479 -0.0904  0.7106  0.5944
 7271SOL     OW33466   1.962   0.973   0.651 -0.5814 -0.0015  0.0810
 7271SOL    HW133467   2.041   0.937   0.602 -1.3953 -2.1865  0.3349
 7271SOL    HW233468   1.887   0.989   0.586 -0.4535  0.5758  0.0745
 7272SOL     OW33469   2.515   7.286   5.064 -0.1214  0.2568  0.2244
 7272SOL    HW133470   2.463   7.202   5.050  0.2935  0.1415 -0.6989
 7272SOL    HW233471   2.458   7.365   5.040 -0.9666  0.3367  2.3825
 7273SOL     OW33472   0.484   2.460   0.961 -0.3630  0.0706 -0.5115
 7273SOL    HW133473   0.506   2.363   0.968 -0.1177  0.0915 -0.9713
 7273SOL    HW233474   0.499   2.491   0.867  0.6797  0.8202 -0.1106
 7274SOL     OW33475   8.199   8.623   4.705  0.1624  0.2099  0.4804
 7274SOL    HW133476   8.206   8.598   4.608 -0.1756 -0.0760  0.5260
 7274SOL    HW233477   8.287   8.657   4.738  0.1189  0.8921 -0.0907
 7275SOL     OW33478   7.068   4.362   1.368  0.1220 -0.4520 -0.0464
 7275SOL    HW133479   7.064   4.289   1.437 -3.0999 -0.5836 -0.2969
 7275SOL    HW233480   7.029   4.446   1.407  1.0077  0.2902 -0.7515
 7276SOL     OW33481   1.976   3.177   1.791  0.0443 -0.1668  0.1207
 7276SOL    HW133482   1.941   3.083   1.789 -0.8179  0.1546 -1.9908
 7276SOL    HW233483   1.899   3.241   1.791  0.6328  0.5528  0.8296
 7277SOL     OW33484   4.200   9.673   5.327 -0.1763  0.2748 -0.0740
 7277SOL    HW133485   4.236   9.761   5.356  0.0246 -0.0121  0.5599
 7277SOL    HW233486   4.101   9.679   5.315 -0.2077  0.4938  0.3031
 7278SOL     OW33487   1.709   6.960   0.668  0.5302 -0.5072  0.1865
 7278SOL    HW133488   1.648   7.018   0.723  0.1272 -1.0855  0.3483
 7278SOL    HW233489   1.783   7.017   0.631 -0.2932  0.2571 -0.2964
 7279SOL     OW33490   3.161   2.947   0.456  0.7547  0.0271  0.1452
 7279SOL    HW133491   3.126   3.017   0.394 -1.2231  0.1295  1.3682
 7279SOL    HW233492   3.133   2.857   0.423 -2.1138  0.1969  1.9923
 7280SOL     OW33493   6.767   2.855   2.865  0.6937 -0.1902 -0.5453
 7280SOL    HW133494   6.791   2.793   2.790  0.1421 -0.0674 -0.8300
 7280SOL    HW233495   6.730   2.803   2.942  0.6188 -0.2561 -0.6251
 7281SOL     OW33496   8.494   3.249   1.983  0.0142 -0.6465  0.3278
 7281SOL    HW133497   8.469   3.155   1.957 -0.5318 -0.3324 -0.3235
 7281SOL    HW233498   8.424   3.312   1.948  0.4863  0.0207  0.5839
 7282SOL     OW33499   1.508   9.038   0.453 -0.2408  0.5441  0.2487
 7282SOL    HW133500   1.536   8.994   0.368 -0.2538  1.0488 -0.0200
 7282SOL    HW233501   1.440   8.982   0.499  0.7955 -0.4163  0.6241
 7283SOL     OW33502   4.751   8.338   7.286 -0.4832 -0.0149  0.5585
 7283SOL    HW133503   4.738   8.349   7.385 -2.7726 -0.6163  0.3487
 7283SOL    HW233504   4.738   8.426   7.241 -1.4454 -0.1282  0.6036
 7284SOL     OW33505   8.748   0.536   3.511  0.6925  0.0116  0.0870
 7284SOL    HW133506   8.716   0.452   3.468 -0.4776  0.1790  0.6150
 7284SOL    HW233507   8.835   0.564   3.470  0.9057 -1.2563 -0.3316
 7285SOL     OW33508   1.790   5.724   2.427  0.2279  0.2915  0.4364
 7285SOL    HW133509   1.847   5.762   2.500  0.3516 -1.2130  1.1443
 7285SOL    HW233510   1.716   5.671   2.468 -0.5801  0.6780 -0.5167
 7286SOL     OW33511   8.760   7.594   5.817 -0.2765  0.0029  0.1986
 7286SOL    HW133512   8.777   7.674   5.874  1.1954 -1.1719  1.4581
 7286SOL    HW233513   8.831   7.587   5.747 -0.9558  0.3366 -0.5278
 7287SOL     OW33514   5.388   1.678   5.866  0.3101 -0.3544 -0.0694
 7287SOL    HW133515   5.308   1.625   5.894  0.3909  0.6665  2.3008
 7287SOL    HW233516   5.399   1.673   5.767 -0.8929 -3.0002 -0.1024
 7288SOL     OW33517   3.298   5.026   1.241  0.6599  0.4799 -0.3598
 7288SOL    HW133518   3.297   5.035   1.142  0.3230 -0.9533 -0.5077
 7288SOL    HW233519   3.380   5.069   1.278  1.8333 -0.7473 -1.4642
 7289SOL     OW33520   8.437   2.646   5.329  0.2256 -0.3725  0.0047
 7289SOL    HW133521   8.340   2.662   5.313  0.7015  2.2524 -0.4787
 7289SOL    HW233522   8.454   2.634   5.427 -0.5302 -0.6119  0.1076
 7290SOL     OW33523   7.166   2.231   1.345  0.4054 -0.5023 -0.6517
 7290SOL    HW133524   7.200   2.306   1.288  1.4798 -0.2999  0.2520
 7290SOL    HW233525   7.243   2.175   1.376 -0.1383 -0.4323  0.8681
 7291SOL     OW33526   2.275   4.707   0.986 -0.2847 -0.4070 -0.6360
 7291SOL    HW133527   2.253   4.711   0.889  1.6879 -2.0841 -1.1845
 7291SOL    HW233528   2.197   4.671   1.037 -1.2547  0.2898 -1.6078
 7292SOL     OW33529   2.071   9.351   3.771 -0.1206 -0.1868 -0.1466
 7292SOL    HW133530   2.168   9.338   3.793  0.2189 -2.0649 -2.5784
 7292SOL    HW233531   2.030   9.413   3.838  2.7911  0.7883  0.8154
 7293SOL     OW33532   2.495   5.858   5.733 -0.4592  0.2078 -0.5422
 7293SOL    HW133533   2.401   5.878   5.763  0.0069  2.4102 -0.4510
 7293SOL    HW233534   2.515   5.911   5.650  0.3529 -1.1002 -1.1953
 7294SOL     OW33535   6.264   5.256  10.019  0.0961 -0.0020 -0.0776
 7294SOL    HW133536   6.276   5.304   9.933 -1.4561  1.4538  0.4874
 7294SOL    HW233537   6.265   5.321  10.095 -3.2177 -0.6489  0.6162
 7295SOL     OW33538   3.075   3.028   9.805  0.4797  0.2595  0.3615
 7295SOL    HW133539   2.977   3.043   9.817  0.6636  2.0607 -0.3476
 7295SOL    HW233540   3.094   3.004   9.709  0.8231  0.6270  0.3366
 7296SOL     OW33541   7.785   0.138   1.115  0.1702 -0.2462 -0.4969
 7296SOL    HW133542   7.697   0.127   1.160  0.1069 -1.2190 -0.8442
 7296SOL    HW233543   7.781   0.099   1.023  1.0332 -0.5070 -0.4337
 7297SOL     OW33544   8.080   1.396   4.094  0.0879 -0.5638 -0.4045
 7297SOL    HW133545   8.099   1.299   4.082 -1.2146 -0.6357 -2.1481
 7297SOL    HW233546   8.038   1.411   4.183 -0.4009 -1.7119 -0.4322
 7298SOL     OW33547   7.165   4.688   0.235  0.5929 -0.0272  0.1724
 7298SOL    HW133548   7.208   4.680   0.325  0.7108 -0.3309  0.0913
 7298SOL    HW233549   7.135   4.782   0.220  2.2676  0.4381 -0.2559
 7299SOL     OW33550   3.242   1.789   7.048  0.1985  0.0143  0.3845
 7299SOL    HW133551   3.171   1.794   7.119  1.4605  0.3419  1.6513
 7299SOL    HW233552   3.291   1.702   7.057  0.5601  0.1907  0.1244
 7300SOL     OW33553   9.178   3.557   6.972 -0.2215 -0.0571 -0.3264
 7300SOL    HW133554   9.098   3.601   7.013  0.7093  1.6919 -0.3576
 7300SOL    HW233555   9.247   3.626   6.952  1.8271 -1.7075  0.9132
 7301SOL     OW33556   9.306   8.089   4.934 -0.2242  0.1261  0.3227
 7301SOL    HW133557   9.314   8.132   4.844  0.7799  0.5435  0.6137
 7301SOL    HW233558   9.241   8.012   4.928 -0.4273  0.3696 -0.6694
 7302SOL     OW33559   8.577   7.854   8.164 -0.6004 -0.3929  0.2530
 7302SOL    HW133560   8.478   7.865   8.164 -0.5527  0.0202  0.5078
 7302SOL    HW233561   8.608   7.834   8.071 -0.9135 -0.4524  0.1607
 7303SOL     OW33562   9.409   8.384   7.587 -0.0866  0.4853  0.8560
 7303SOL    HW133563   9.409   8.304   7.646 -0.3935 -0.4516 -0.3809
 7303SOL    HW233564   9.442   8.464   7.638 -0.7814 -0.1940  2.4011
 7304SOL     OW33565   2.660   2.413   1.979 -0.6311  0.1229 -0.0423
 7304SOL    HW133566   2.645   2.499   2.029  0.4456  0.2461  0.0855
 7304SOL    HW233567   2.700   2.434   1.890 -0.4845 -0.2377 -0.0586
 7305SOL     OW33568   3.715   9.611   1.245  0.2846 -0.3632 -0.5733
 7305SOL    HW133569   3.746   9.607   1.339  1.4272  0.7073 -0.8842
 7305SOL    HW233570   3.783   9.569   1.185 -1.1970 -2.5460 -0.7703
 7306SOL     OW33571   9.231   0.587   7.600 -0.2501 -0.4695 -0.4910
 7306SOL    HW133572   9.145   0.565   7.646 -1.8780  2.6405 -1.8929
 7306SOL    HW233573   9.211   0.631   7.512  2.7977 -0.9744 -1.4988
 7307SOL     OW33574   3.439   5.488   4.995 -0.2610 -0.0186 -0.4209
 7307SOL    HW133575   3.435   5.571   5.050 -1.1639 -0.6283  0.4378
 7307SOL    HW233576   3.350   5.444   4.994  0.7232 -2.1148  0.8820
 7308SOL     OW33577   9.653   8.507   4.762 -0.0935  0.1586  0.4558
 7308SOL    HW133578   9.641   8.564   4.844  0.5898 -1.0099  1.3936
 7308SOL    HW233579   9.576   8.521   4.700 -1.1240  0.3058  1.7528
 7309SOL     OW33580   9.498   5.533   3.501 -0.1082 -0.1512  0.2839
 7309SOL    HW133581   9.598   5.533   3.501 -0.0815 -1.7168 -1.3344
 7309SOL    HW233582   9.464   5.608   3.444  0.1699 -0.3903 -0.1970
 7310SOL     OW33583   8.465   1.588   2.831  0.1383  0.0566  0.3724
 7310SOL    HW133584   8.376   1.554   2.798 -0.5447  0.4531  1.7794
 7310SOL    HW233585   8.510   1.518   2.886 -1.6941  1.6293  4.0730
 7311SOL     OW33586   0.228   2.014   2.890  0.3263 -0.0290 -0.1234
 7311SOL    HW133587   0.215   1.958   2.808  0.8806  0.6888 -0.7081
 7311SOL    HW233588   0.310   1.984   2.938 -0.2698 -0.7769  0.4501
 7312SOL     OW33589   1.633   0.497   5.730  0.2778 -0.2233 -0.7230
 7312SOL    HW133590   1.715   0.533   5.775 -0.3393  0.9064 -0.4828
 7312SOL    HW233591   1.619   0.402   5.758  0.0164  0.4030  1.3482
 7313SOL     OW33592   2.051   3.672   5.662  0.0575  0.1835  0.2458
 7313SOL    HW133593   2.092   3.739   5.724 -0.8139  2.4657 -1.5468
 7313SOL    HW233594   2.124   3.621   5.616  0.7808  0.6642  0.8502
 7314SOL     OW33595   5.766   9.674   2.238 -0.1054  0.3140 -0.2998
 7314SOL    HW133596   5.773   9.578   2.210 -1.0022 -0.3491  1.6831
 7314SOL    HW233597   5.691   9.684   2.303  0.4644  2.2408  0.0794
 7315SOL     OW33598   2.918   1.521   3.441  0.0028  0.1410 -0.4753
 7315SOL    HW133599   2.907   1.591   3.512  1.6875  0.4111 -0.4712
 7315SOL    HW233600   3.008   1.530   3.398  0.3567 -2.1891 -0.3027
 7316SOL     OW33601   5.201   8.803   2.904  0.0175 -0.5625 -1.1853
 7316SOL    HW133602   5.206   8.715   2.857 -1.3883 -0.0351 -2.3375
 7316SOL    HW233603   5.131   8.799   2.975  2.2822 -1.4247  1.0526
 7317SOL     OW33604   9.288   1.308   6.031 -0.0995  0.0787 -0.2053
 7317SOL    HW133605   9.215   1.277   6.091 -0.4482  0.3735 -0.4776
 7317SOL    HW233606   9.287   1.255   5.946 -1.5101  1.6869 -1.2122
 7318SOL     OW33607   4.203   6.440   0.724 -0.3901  0.2430  0.2329
 7318SOL    HW133608   4.123   6.434   0.784 -0.5548  0.8776  0.0846
 7318SOL    HW233609   4.188   6.510   0.655 -0.9201 -1.6934 -1.6632
 7319SOL     OW33610   4.604   3.371   2.607 -0.5159 -0.2255 -0.1029
 7319SOL    HW133611   4.564   3.340   2.521  0.5928 -0.4560 -0.5501
 7319SOL    HW233612   4.686   3.426   2.588  0.1493 -0.8826  0.8265
 7320SOL     OW33613   2.287   1.762   4.289  0.2960 -0.4371  0.1588
 7320SOL    HW133614   2.218   1.715   4.344  0.5188 -2.0201 -0.8832
 7320SOL    HW233615   2.268   1.860   4.288 -1.5616 -0.7848  0.3892
 7321SOL     OW33616   0.387   3.510   3.174  0.0481  0.5687 -0.1680
 7321SOL    HW133617   0.309   3.570   3.193  0.3477  1.2283 -1.0031
 7321SOL    HW233618   0.354   3.423   3.139 -0.4349 -0.0854  1.8326
 7322SOL     OW33619   9.758   6.819   3.292  0.2033 -0.4360  0.1411
 7322SOL    HW133620   9.659   6.834   3.285  0.1661 -1.3193 -1.4074
 7322SOL    HW233621   9.775   6.731   3.338  0.2787 -0.1236  0.7148
 7323SOL     OW33622   1.114   2.162   1.736 -0.0344  0.5566  0.2154
 7323SOL    HW133623   1.204   2.118   1.745 -0.2678 -0.1069 -0.5848
 7323SOL    HW233624   1.091   2.210   1.821  1.7434  1.9906 -0.0843
 7324SOL     OW33625   3.654   2.222   5.683 -0.2045  0.1072 -0.0684
 7324SOL    HW133626   3.592   2.257   5.612 -2.0247  0.8451  1.8225
 7324SOL    HW233627   3.740   2.193   5.641 -0.9416  1.2467 -2.4640
 7325SOL     OW33628   8.077   6.212   0.213 -0.0233 -0.2836  0.2313
 7325SOL    HW133629   7.998   6.173   0.260 -1.2276 -0.0321 -1.5108
 7325SOL    HW233630   8.046   6.268   0.136  1.8460  0.0936 -0.2861
 7326SOL     OW33631   2.548   2.092   4.082  0.0699 -0.9073  0.6531
 7326SOL    HW133632   2.603   2.126   4.159  0.8487 -1.1671  0.2161
 7326SOL    HW233633   2.585   2.128   3.996 -1.2090 -0.0790  0.4406
 7327SOL     OW33634   7.114   9.955   7.376  0.3863 -0.2272 -0.0172
 7327SOL    HW133635   7.016   9.975   7.369  0.4765  0.3916  0.4620
 7327SOL    HW233636   7.165  10.041   7.380  0.9922 -0.5453 -0.7910
 7328SOL     OW33637   4.309   9.614   7.722 -0.0470 -0.1187 -0.2322
 7328SOL    HW133638   4.315   9.532   7.665 -0.8100 -0.2762 -0.0981
 7328SOL    HW233639   4.302   9.695   7.663  0.7689 -0.1430 -0.3638
 7329SOL     OW33640   1.751   9.782   1.418 -0.1664 -0.6753  0.2016
 7329SOL    HW133641   1.698   9.867   1.420 -1.7161 -1.6077 -0.8011
 7329SOL    HW233642   1.753   9.746   1.325  2.6482 -0.4263  0.1098
 7330SOL     OW33643   2.995   8.847   6.780 -0.1207 -0.4633 -0.0733
 7330SOL    HW133644   3.067   8.797   6.732 -0.0671 -2.1964  1.7465
 7330SOL    HW233645   3.029   8.877   6.870 -0.3361  2.4068 -0.8877
 7331SOL     OW33646   0.371   7.663   5.848  0.1933  0.4887 -0.1531
 7331SOL    HW133647   0.335   7.685   5.757 -1.1590 -0.9043  0.0243
 7331SOL    HW233648   0.343   7.732   5.913 -0.4818  0.4592 -0.4134
 7332SOL     OW33649   2.688   0.942   0.891  0.2836  0.2169  0.1773
 7332SOL    HW133650   2.723   0.925   0.799  1.1716  1.2217  0.3215
 7332SOL    HW233651   2.588   0.937   0.889  0.3157 -0.2864 -0.7313
 7333SOL     OW33652   1.987   1.681   6.870 -0.0171  0.3479 -0.5604
 7333SOL    HW133653   1.981   1.609   6.801  2.2439  0.3499 -0.7913
 7333SOL    HW233654   1.895   1.716   6.889 -0.7381  0.0411 -3.2285
 7334SOL     OW33655   5.115   5.450   2.117 -0.3738  0.2203  0.7107
 7334SOL    HW133656   5.047   5.377   2.127 -1.5882  1.1243 -0.7456
 7334SOL    HW233657   5.206   5.409   2.111 -0.9954 -1.1609  0.3749
 7335SOL     OW33658   9.869   2.249   4.768 -0.2741  0.0860  0.3154
 7335SOL    HW133659   9.950   2.272   4.822 -0.2864  0.9668 -0.0277
 7335SOL    HW233660   9.890   2.174   4.706 -0.8187 -2.3217  2.9424
 7336SOL     OW33661   1.280   3.182   4.492 -0.3215  0.4243 -0.4257
 7336SOL    HW133662   1.337   3.155   4.569 -3.0027 -0.6794  1.2082
 7336SOL    HW233663   1.298   3.121   4.415  1.1168  0.4773 -0.1615
 7337SOL     OW33664   1.118   8.497   2.736 -0.0311  0.5159  0.7263
 7337SOL    HW133665   1.160   8.581   2.772 -0.0586  0.1632  1.5955
 7337SOL    HW233666   1.113   8.503   2.636 -1.1771  2.0814  0.8581
 7338SOL     OW33667   9.165   8.936   3.260 -0.2769  1.3516 -0.3656
 7338SOL    HW133668   9.212   8.967   3.343 -1.8839  1.1086  0.6704
 7338SOL    HW233669   9.205   8.850   3.229  1.1106  2.0390 -0.5300
 7339SOL     OW33670   8.744   0.084   6.868 -0.1504 -0.7128  0.7946
 7339SOL    HW133671   8.660   0.038   6.894  0.3468 -1.2600  1.4597
 7339SOL    HW233672   8.736   0.182   6.885 -1.2441 -0.5409 -0.7019
 7340SOL     OW33673   8.120   1.622   6.022 -0.7465  0.6349 -0.8260
 7340SOL    HW133674   8.112   1.687   5.947 -0.0598  0.8574 -0.7107
 7340SOL    HW233675   8.056   1.547   6.008  0.0785  0.1580 -2.1576
 7341SOL     OW33676   1.376   2.886  10.009  0.2643 -0.8535  0.3769
 7341SOL    HW133677   1.381   2.832   9.925 -1.4953  1.3388 -1.1813
 7341SOL    HW233678   1.283   2.884  10.044  0.2161  1.0054  0.3860
 7342SOL     OW33679   3.743   3.761   5.584  0.0128 -0.4116 -0.0972
 7342SOL    HW133680   3.789   3.672   5.578 -0.9354 -1.2049  3.3589
 7342SOL    HW233681   3.645   3.748   5.595 -0.4798  1.1671 -2.2939
 7343SOL     OW33682   9.736   6.197   7.511  0.6183  0.1885  0.0961
 7343SOL    HW133683   9.663   6.259   7.483  0.4440 -1.0988 -2.4511
 7343SOL    HW233684   9.723   6.170   7.606 -1.1897  1.4060  0.2075
 7344SOL     OW33685   0.901   3.735   6.498 -0.4283 -0.0637 -0.5122
 7344SOL    HW133686   0.915   3.791   6.580  0.8762 -0.3815 -0.4935
 7344SOL    HW233687   0.918   3.790   6.416 -3.2843  0.6841 -0.6495
 7345SOL     OW33688   3.591   3.843   0.267  0.3292  0.0570 -0.0185
 7345SOL    HW133689   3.557   3.906   0.198  1.4560  2.1565  1.2951
 7345SOL    HW233690   3.667   3.790   0.229  0.6636  0.8946 -0.5240
 7346SOL     OW33691   0.659   7.475   3.152  0.1472  0.4268 -0.3079
 7346SOL    HW133692   0.646   7.544   3.223  2.6260 -0.7556  1.3508
 7346SOL    HW233693   0.757   7.460   3.137 -0.3343 -2.3746 -0.9725
 7347SOL     OW33694   7.531   3.238   5.023  0.6863 -0.0617 -0.1960
 7347SOL    HW133695   7.605   3.226   5.089  2.2216  0.7493 -1.7434
 7347SOL    HW233696   7.518   3.153   4.971  2.0022  0.4474 -1.3945
 7348SOL     OW33697   7.677   5.695   2.446  0.3246 -0.2751  0.2923
 7348SOL    HW133698   7.654   5.780   2.493  0.0409  0.0436 -0.4192
 7348SOL    HW233699   7.775   5.692   2.427  0.1817  0.3308 -0.5429
 7349SOL     OW33700   4.602   9.257   7.539 -0.0399 -0.7653 -0.0820
 7349SOL    HW133701   4.577   9.342   7.494  1.3508 -0.8318 -1.0125
 7349SOL    HW233702   4.547   9.182   7.503 -1.2354 -0.2938  0.7053
 7350SOL     OW33703   9.294   7.220   7.100 -0.5012  0.3395  0.3455
 7350SOL    HW133704   9.288   7.173   7.012  0.9238  2.2159 -0.8103
 7350SOL    HW233705   9.366   7.177   7.155  0.1776  0.5805 -0.3372
 7351SOL     OW33706   3.006   5.894   4.647 -0.1982  0.1094  0.1100
 7351SOL    HW133707   2.970   5.803   4.668 -0.9816  0.5012  0.4827
 7351SOL    HW233708   3.062   5.889   4.565  0.2390 -0.8219  0.4534
 7352SOL     OW33709   2.574   3.763   1.015  0.3678 -0.0124 -0.9081
 7352SOL    HW133710   2.514   3.683   1.008  1.7908 -1.1998  0.0631
 7352SOL    HW233711   2.522   3.846   0.993 -1.7633 -0.9378  0.4570
 7353SOL     OW33712   0.021   6.306   7.502 -0.3160 -0.4791  0.0593
 7353SOL    HW133713   0.057   6.398   7.484 -0.3692 -0.7948 -1.7402
 7353SOL    HW233714  -0.078   6.306   7.488 -0.3780 -0.6948  0.5196
 7354SOL     OW33715   2.211   5.908   1.831 -0.2309  0.1556 -0.7594
 7354SOL    HW133716   2.149   5.986   1.827 -0.2812  0.0529 -2.3671
 7354SOL    HW233717   2.303   5.939   1.856 -0.4614  0.5940 -0.4607
 7355SOL     OW33718   2.813   2.911   0.235  0.8325 -0.0911  0.1111
 7355SOL    HW133719   2.768   2.838   0.287  1.4709 -1.0046 -0.6201
 7355SOL    HW233720   2.869   2.871   0.163 -0.7907  1.1830 -1.9169
 7356SOL     OW33721   3.078   3.492   2.472 -0.5480  0.3976 -0.2420
 7356SOL    HW133722   3.051   3.492   2.568 -0.9425 -1.9232 -0.3088
 7356SOL    HW233723   2.996   3.498   2.415 -0.3630  1.0765 -0.4397
 7357SOL     OW33724   1.323   3.131   5.207 -0.0580 -0.4408 -0.4138
 7357SOL    HW133725   1.311   3.156   5.303 -0.0440 -1.2215 -0.2042
 7357SOL    HW233726   1.388   3.054   5.200  0.1041 -0.2507 -1.0606
 7358SOL     OW33727   4.311   1.963   4.983  0.7491 -0.5585  0.0853
 7358SOL    HW133728   4.264   1.945   5.070 -0.2986  0.2203 -0.3119
 7358SOL    HW233729   4.406   1.931   4.990 -0.4890 -4.5032  0.0404
 7359SOL     OW33730   4.081   6.174   0.737  0.3356  0.2061 -0.0034
 7359SOL    HW133731   4.029   6.199   0.655 -0.5753 -2.4313 -0.2664
 7359SOL    HW233732   4.090   6.254   0.797  0.8813  2.1417 -2.5766
 7360SOL     OW33733   1.571   3.908  10.013  0.6774 -0.0907  0.5097
 7360SOL    HW133734   1.527   3.856   9.939  1.1438  1.5275 -0.9429
 7360SOL    HW233735   1.664   3.874  10.027  1.0774  0.5041 -0.6239
 7361SOL     OW33736   1.517   4.462   6.720 -0.6803  0.8334 -0.6758
 7361SOL    HW133737   1.423   4.472   6.753 -0.7048  0.9958 -0.7948
 7361SOL    HW233738   1.516   4.427   6.626 -0.5948 -0.5077 -0.1954
 7362SOL     OW33739   7.729   8.926   4.022 -0.6296  0.1314 -0.0067
 7362SOL    HW133740   7.680   8.875   4.092 -0.1071  1.0359  1.0224
 7362SOL    HW233741   7.825   8.936   4.048 -0.2336 -0.2968 -1.2727
 7363SOL     OW33742   7.645   1.958   5.887  0.6471 -0.1087 -0.6479
 7363SOL    HW133743   7.673   1.862   5.876 -1.9935 -0.8128 -1.6440
 7363SOL    HW233744   7.649   2.004   5.799 -1.7114 -0.3483 -0.8900
 7364SOL     OW33745   1.460   8.358   5.031  0.2919 -0.0074  0.3617
 7364SOL    HW133746   1.547   8.339   5.077  1.0856  2.0127 -0.2646
 7364SOL    HW233747   1.388   8.304   5.074  1.7677 -1.3556  1.1935
 7365SOL     OW33748   7.366   6.352   3.289  0.1838  0.2673  0.1706
 7365SOL    HW133749   7.300   6.423   3.315  1.5567  0.4864  3.2661
 7365SOL    HW233750   7.331   6.262   3.317  1.0532  0.3581  1.5858
 7366SOL     OW33751   9.120   3.012   5.346 -0.7162  0.1045  0.6971
 7366SOL    HW133752   9.057   3.080   5.310  0.9362  1.2071 -0.1949
 7366SOL    HW233753   9.070   2.945   5.401 -2.7574  0.4773 -0.6632
 7367SOL     OW33754   8.096   5.805   6.254 -0.0424 -0.2114 -0.1763
 7367SOL    HW133755   8.189   5.774   6.275 -0.3527 -1.2633 -0.3271
 7367SOL    HW233756   8.055   5.844   6.336 -0.2447 -1.7454  0.4786
 7368SOL     OW33757   9.364   7.416   0.366 -0.0971  0.3911  0.2543
 7368SOL    HW133758   9.422   7.384   0.290 -1.9907  0.9496 -1.4753
 7368SOL    HW233759   9.284   7.357   0.374 -0.6301  1.1925  0.8870
 7369SOL     OW33760   7.618   9.632   4.500 -0.2822 -0.2866  0.3988
 7369SOL    HW133761   7.569   9.555   4.542 -1.0938 -0.4089 -0.7500
 7369SOL    HW233762   7.589   9.717   4.542  0.0534 -0.5316  1.1470
 7370SOL     OW33763   7.895   8.721   4.302 -0.5181  0.4345 -0.0133
 7370SOL    HW133764   7.957   8.679   4.236  0.0277  1.3572 -0.0884
 7370SOL    HW233765   7.830   8.652   4.335  0.5871 -0.5579  0.1297
 7371SOL     OW33766   6.526   8.014   3.822  0.0209  0.4212 -0.9193
 7371SOL    HW133767   6.451   8.056   3.874  0.4392 -0.0564  0.0914
 7371SOL    HW233768   6.568   7.942   3.877  0.5411 -0.0311 -1.8984
 7372SOL     OW33769   0.416   2.614   4.223 -0.1710 -0.1078  0.5701
 7372SOL    HW133770   0.425   2.590   4.127  0.3465  0.8237  0.3843
 7372SOL    HW233771   0.320   2.604   4.251 -0.1548 -1.3316  0.2236
 7373SOL     OW33772   8.688   5.953   2.257  0.0129 -0.7249 -0.4484
 7373SOL    HW133773   8.748   6.025   2.223 -3.3188  1.9371 -0.9436
 7373SOL    HW233774   8.698   5.946   2.357 -1.2432  2.0238 -0.0915
 7374SOL     OW33775   2.843   0.553   3.543  0.1901  0.4414 -0.1919
 7374SOL    HW133776   2.857   0.556   3.444  0.4137 -1.0715 -0.2176
 7374SOL    HW233777   2.909   0.490   3.584 -0.0719  0.8683  0.8851
 7375SOL     OW33778   4.656   3.253   4.537  0.1879 -0.0841  0.8564
 7375SOL    HW133779   4.608   3.240   4.624 -1.4544  0.3735  0.0366
 7375SOL    HW233780   4.707   3.338   4.539 -0.6732  0.4366  1.0272
 7376SOL     OW33781   8.626   4.072   2.493 -0.1143 -0.4114 -0.3628
 7376SOL    HW133782   8.636   4.088   2.591  1.7155  2.4493 -0.9703
 7376SOL    HW233783   8.530   4.088   2.467  0.0331  1.9875  0.4453
 7377SOL     OW33784   9.558   0.299   2.529 -0.5560  0.2668 -0.1855
 7377SOL    HW133785   9.638   0.290   2.589 -1.7240  0.4540  1.4254
 7377SOL    HW233786   9.551   0.218   2.470  1.3718  0.6947 -1.0461
 7378SOL     OW33787   3.580   8.898   2.777 -0.6561  0.0734 -0.0432
 7378SOL    HW133788   3.671   8.933   2.797  0.3532 -1.6726 -1.4541
 7378SOL    HW233789   3.548   8.936   2.691 -0.8395 -0.0947 -0.0498
 7379SOL     OW33790   7.847   7.117   7.512 -0.1988  0.1082  0.8505
 7379SOL    HW133791   7.890   7.049   7.453 -0.0635  1.3623 -0.5594
 7379SOL    HW233792   7.749   7.099   7.517 -0.1732 -0.1665  0.4328
 7380SOL     OW33793   9.015   0.002   2.600  0.3084  0.2152  0.1291
 7380SOL    HW133794   8.992   0.098   2.619  2.0042  0.5517  0.5580
 7380SOL    HW233795   9.053  -0.040   2.682 -1.5362 -1.1870  0.2814
 7381SOL     OW33796   9.274   5.351   5.225  0.0552  0.2126 -0.3489
 7381SOL    HW133797   9.208   5.302   5.282 -0.2599 -0.7094 -1.5063
 7381SOL    HW233798   9.257   5.450   5.233  0.7839  0.1836  2.0813
 7382SOL     OW33799   5.118   5.758   1.304 -0.4073 -0.4826 -0.1134
 7382SOL    HW133800   5.030   5.730   1.267  0.7403 -1.0569 -2.5402
 7382SOL    HW233801   5.176   5.791   1.229  0.5943  2.1735  1.7685
 7383SOL     OW33802   4.351   2.296   0.826 -0.0538  0.5066  0.2663
 7383SOL    HW133803   4.358   2.373   0.890  1.1839 -1.8082  3.0244
 7383SOL    HW233804   4.256   2.265   0.822 -0.6266  2.3998 -1.1632
 7384SOL     OW33805   5.370   7.943   4.102 -0.0716 -0.0623 -0.1361
 7384SOL    HW133806   5.386   7.883   4.179 -0.4663  1.7370  1.3829
 7384SOL    HW233807   5.360   7.889   4.018 -0.0935 -2.0432  1.1288
 7385SOL     OW33808   8.238   7.309   6.157  0.0285  0.2591  0.0950
 7385SOL    HW133809   8.306   7.294   6.085  0.2134  0.2309  0.2761
 7385SOL    HW233810   8.157   7.253   6.139  0.3036 -0.1832  0.2180
 7386SOL     OW33811   2.258   6.474   3.651 -0.5329  0.2412 -0.4345
 7386SOL    HW133812   2.207   6.523   3.721  1.4833  0.0647  1.2349
 7386SOL    HW233813   2.235   6.509   3.560 -2.6332  0.9806  0.3789
 7387SOL     OW33814   0.223   1.496   5.188  0.1954 -0.4040  0.0031
 7387SOL    HW133815   0.144   1.457   5.141 -0.5120  0.8717  0.1056
 7387SOL    HW233816   0.292   1.425   5.204 -1.9008 -2.0313  1.9780
 7388SOL     OW33817   4.421   4.074   5.492  0.2549  0.2677  0.5927
 7388SOL    HW133818   4.480   4.002   5.526 -0.3767  0.0570  1.2566
 7388SOL    HW233819   4.414   4.147   5.560 -0.6739  0.0426  0.7463
 7389SOL     OW33820   1.366   5.317   4.718 -0.1975  0.0426  0.3816
 7389SOL    HW133821   1.277   5.348   4.753 -0.1188 -0.4051  0.9920
 7389SOL    HW233822   1.378   5.348   4.624 -1.1666 -0.2029  0.1702
 7390SOL     OW33823   3.369   9.352   1.814 -0.1803 -0.0225  0.1006
 7390SOL    HW133824   3.317   9.430   1.779 -0.9180 -0.3759  0.4113
 7390SOL    HW233825   3.317   9.268   1.800 -0.5032 -0.1743  2.0851
 7391SOL     OW33826   9.542   8.844   3.131 -0.8466  0.0594  0.3491
 7391SOL    HW133827   9.470   8.912   3.135 -0.6809  0.1532  2.1496
 7391SOL    HW233828   9.524   8.780   3.056 -2.7856  0.0727  0.7858
 7392SOL     OW33829   0.813   7.288   2.487  0.2570 -0.2006  0.3619
 7392SOL    HW133830   0.870   7.330   2.557 -0.1182  1.0375 -0.0561
 7392SOL    HW233831   0.847   7.196   2.467  2.2457  0.5898 -0.0383
 7393SOL     OW33832   8.055   5.711   1.669  0.1785  0.1570  0.5940
 7393SOL    HW133833   8.144   5.677   1.637  0.3438  1.2215 -0.1033
 7393SOL    HW233834   8.067   5.755   1.758  0.2588 -0.1225  0.7228
 7394SOL     OW33835   6.017   9.733   4.839  0.3067 -0.1206 -0.1905
 7394SOL    HW133836   6.037   9.635   4.842 -0.5965 -0.3863 -2.3425
 7394SOL    HW233837   6.027   9.766   4.745  0.5011  1.8380  0.5053
 7395SOL     OW33838   4.304   4.131   2.571  0.4066  0.6215  0.8372
 7395SOL    HW133839   4.297   4.230   2.562 -1.8571  0.3914 -0.3353
 7395SOL    HW233840   4.280   4.104   2.664  4.1874  1.3915  2.1177
 7396SOL     OW33841   0.088   6.161   7.735 -0.2295 -0.0775  0.1836
 7396SOL    HW133842   0.178   6.120   7.717  1.1039  2.3930  1.0161
 7396SOL    HW233843   0.060   6.215   7.655 -0.1331  0.6220  0.6221
 7397SOL     OW33844   8.276   1.752   5.633 -0.4122 -0.2911  0.7212
 7397SOL    HW133845   8.267   1.808   5.551 -0.5095 -0.6086  0.5146
 7397SOL    HW233846   8.372   1.747   5.660 -0.1499 -1.7077 -0.4355
 7398SOL     OW33847   0.449   2.430   2.416 -0.5508 -0.2673  0.1740
 7398SOL    HW133848   0.373   2.365   2.420 -2.2803  1.5129 -2.3958
 7398SOL    HW233849   0.480   2.439   2.322  1.4816  0.6168  0.8999
 7399SOL     OW33850   4.076   8.827   6.367  0.3744  0.0770 -0.2571
 7399SOL    HW133851   4.043   8.861   6.455  0.9806  0.4196 -0.1571
 7399SOL    HW233852   4.057   8.895   6.296 -2.0309 -1.0830 -0.7943
 7400SOL     OW33853   4.314   9.796   8.159 -0.3948  0.6592 -0.1165
 7400SOL    HW133854   4.381   9.870   8.166 -0.4844  1.0143 -2.4584
 7400SOL    HW233855   4.223   9.832   8.180 -0.4562  1.2648 -1.3732
 7401SOL     OW33856   8.795   6.821   1.861 -0.2504 -0.6467  0.1161
 7401SOL    HW133857   8.868   6.851   1.922 -1.3441  0.1822  1.0253
 7401SOL    HW233858   8.772   6.725   1.881 -0.0502 -0.6267  0.4481
 7402SOL     OW33859   3.924   0.533   4.153  0.1965 -0.1038  0.3893
 7402SOL    HW133860   3.838   0.494   4.120  0.9267  1.3406 -3.4039
 7402SOL    HW233861   3.996   0.464   4.147  0.1454 -0.1040 -0.2557
 7403SOL     OW33862   1.905   7.313   2.057  0.2618 -0.2455  0.2460
 7403SOL    HW133863   1.955   7.386   2.104 -0.0834 -0.4730  0.9740
 7403SOL    HW233864   1.948   7.296   1.968  1.6452 -0.6098  0.9611
 7404SOL     OW33865   2.149   6.308   5.943 -0.3803  0.3147 -0.3005
 7404SOL    HW133866   2.235   6.266   5.914 -0.6436 -3.2166  3.5693
 7404SOL    HW233867   2.077   6.286   5.877  0.9548  0.4289 -1.8159
 7405SOL     OW33868   7.693   9.479   7.045  0.2927 -0.4977 -0.0800
 7405SOL    HW133869   7.657   9.529   6.966  0.9821 -2.2546 -1.5437
 7405SOL    HW233870   7.790   9.460   7.031  0.1938 -1.6728  0.7482
 7406SOL     OW33871   3.307   0.848   4.922 -0.0653  0.0616  0.7303
 7406SOL    HW133872   3.395   0.857   4.968  0.2166 -1.5059  0.5409
 7406SOL    HW233873   3.303   0.909   4.843 -0.6869  3.0467  2.9952
 7407SOL     OW33874   1.039   8.602   4.600 -0.0986 -0.1401  0.3963
 7407SOL    HW133875   1.004   8.649   4.518 -1.6214 -3.0112 -0.6592
 7407SOL    HW233876   1.139   8.605   4.600 -0.0913  0.2142 -1.3761
 7408SOL     OW33877   6.794   4.502   1.942 -0.2612  0.4404  0.9100
 7408SOL    HW133878   6.844   4.461   2.019 -1.9473 -0.3415  1.6215
 7408SOL    HW233879   6.735   4.575   1.976 -1.0951  0.0209  0.3830
 7409SOL     OW33880   3.095   5.028   3.983  0.0598 -0.1102  0.5430
 7409SOL    HW133881   3.107   5.053   4.079  0.0505 -0.5606  0.6602
 7409SOL    HW233882   3.172   4.973   3.953 -0.0700 -0.1944  0.3672
 7410SOL     OW33883   2.362   7.498   4.972  0.4354  0.6990  0.1958
 7410SOL    HW133884   2.306   7.564   5.024  0.9456  1.7475 -0.5816
 7410SOL    HW233885   2.446   7.542   4.941  1.4504 -0.7200  0.8718
 7411SOL     OW33886   1.879   3.266   7.459  0.1380 -0.0449 -0.3618
 7411SOL    HW133887   1.856   3.220   7.373 -1.0252  0.5290 -0.3636
 7411SOL    HW233888   1.837   3.217   7.536 -0.3083  0.4584 -0.2823
 7412SOL     OW33889   8.346   9.320   0.936 -0.2998  0.3650  0.5231
 7412SOL    HW133890   8.366   9.340   0.840 -1.2520  0.9232  0.4293
 7412SOL    HW233891   8.330   9.405   0.986 -1.1821  0.0099  0.8633
 7413SOL     OW33892   8.567   6.318   4.628 -0.0805 -0.2301 -0.3972
 7413SOL    HW133893   8.481   6.333   4.676 -0.6067 -0.0298 -1.4087
 7413SOL    HW233894   8.643   6.336   4.690 -0.7413  1.4773 -0.0733
 7414SOL     OW33895   1.685   3.180   0.113 -0.5040  0.3848 -0.2058
 7414SOL    HW133896   1.710   3.235   0.034  0.7957 -0.2861 -0.2765
 7414SOL    HW233897   1.586   3.167   0.114 -0.7296  1.9414 -0.6838
 7415SOL     OW33898   7.082   6.499   6.743 -0.1098 -0.3218  0.6134
 7415SOL    HW133899   7.109   6.450   6.660  0.3922 -0.3032  0.7614
 7415SOL    HW233900   6.994   6.464   6.776 -0.2830 -0.3671  0.1060
 7416SOL     OW33901   8.575   8.637   5.175  0.2210 -0.7226  0.0799
 7416SOL    HW133902   8.569   8.581   5.257 -1.9547 -0.5529  0.0512
 7416SOL    HW233903   8.651   8.702   5.185  0.2034 -0.9453  1.8046
 7417SOL     OW33904   1.394   7.364   3.752  0.4844 -0.2986  0.5093
 7417SOL    HW133905   1.408   7.283   3.696  1.4395 -0.6807  1.2828
 7417SOL    HW233906   1.421   7.446   3.701 -3.1811 -0.1571 -1.3262
 7418SOL     OW33907   3.987   7.286   2.454  0.3173  1.0283 -0.2616
 7418SOL    HW133908   4.049   7.312   2.381  1.1430  2.5367  0.9298
 7418SOL    HW233909   3.985   7.358   2.523 -2.0523  0.5950  0.1877
 7419SOL     OW33910   6.676   7.809   4.354  0.3234 -0.1655  0.1040
 7419SOL    HW133911   6.607   7.879   4.339 -0.7979 -1.2019  0.3287
 7419SOL    HW233912   6.680   7.747   4.275  0.5349 -0.4947  0.3677
 7420SOL     OW33913   5.832   7.731   3.645  0.1545  0.1555 -0.2963
 7420SOL    HW133914   5.747   7.722   3.697 -1.1616 -1.0389 -2.5740
 7420SOL    HW233915   5.910   7.715   3.705 -1.2535  0.5011  1.6610
 7421SOL     OW33916   0.597   6.343   6.444  0.0844 -0.3926 -0.0170
 7421SOL    HW133917   0.653   6.261   6.433 -0.5012 -0.6658 -1.0349
 7421SOL    HW233918   0.559   6.346   6.536 -0.5449 -1.6762 -0.2364
 7422SOL     OW33919   6.497   1.552   3.007  0.3636 -0.3158 -0.0383
 7422SOL    HW133920   6.552   1.498   2.944  1.1520 -1.8256  1.8654
 7422SOL    HW233921   6.477   1.641   2.968  2.1090 -0.6628 -1.7496
 7423SOL     OW33922   6.480   5.455   1.463 -0.8289 -0.7413  0.5153
 7423SOL    HW133923   6.428   5.536   1.436 -1.1883 -1.4340 -0.9193
 7423SOL    HW233924   6.433   5.410   1.539 -1.3185 -0.3127  0.4718
 7424SOL     OW33925   0.150   2.193   1.976 -0.0980  0.0304  0.0553
 7424SOL    HW133926   0.197   2.224   1.893 -0.5058  0.0622 -0.1649
 7424SOL    HW233927   0.214   2.192   2.052  0.4023 -0.4332 -0.3595
 7425SOL     OW33928   9.369   5.527   1.678  0.5185 -0.0155 -0.1798
 7425SOL    HW133929   9.417   5.602   1.633  0.3137  1.0491  1.3346
 7425SOL    HW233930   9.377   5.444   1.623  1.5971  0.8720 -1.3774
 7426SOL     OW33931   2.039   1.471   0.170  0.9762 -0.6155  0.0418
 7426SOL    HW133932   1.998   1.411   0.238 -4.6782  0.1793 -2.4099
 7426SOL    HW233933   2.089   1.417   0.102 -0.3333 -2.1192  0.2723
 7427SOL     OW33934   4.100   0.157   5.592 -0.1172  0.0318 -0.4126
 7427SOL    HW133935   4.127   0.162   5.688 -0.0588  2.0762 -0.5059
 7427SOL    HW233936   4.010   0.114   5.585 -2.2243  3.9428  1.0453
 7428SOL     OW33937   8.533   2.277   3.098 -0.0436 -0.2647 -0.1183
 7428SOL    HW133938   8.442   2.309   3.125  0.4731  1.7358 -0.6697
 7428SOL    HW233939   8.540   2.179   3.115 -2.0617 -0.3109  0.5881
 7429SOL     OW33940   5.339   0.899   3.464  0.2102  0.1924 -0.2914
 7429SOL    HW133941   5.367   0.938   3.551 -0.8874 -1.9809  1.0631
 7429SOL    HW233942   5.242   0.915   3.449  0.0954 -0.6516 -0.4670
 7430SOL     OW33943   7.747   3.727   3.147  0.2780  0.2414 -0.2847
 7430SOL    HW133944   7.710   3.747   3.056 -1.2883  1.3428  0.5570
 7430SOL    HW233945   7.837   3.770   3.156  0.1560  0.6852 -1.0971
 7431SOL     OW33946   3.787   8.809   7.654  0.6811  0.4842  0.3161
 7431SOL    HW133947   3.818   8.716   7.635 -1.4940 -0.2237  0.1551
 7431SOL    HW233948   3.753   8.850   7.570 -2.2829 -0.1051  1.1635
 7432SOL     OW33949   4.522   3.365   5.764  0.1913  0.6795 -0.2803
 7432SOL    HW133950   4.506   3.277   5.809 -4.0543  0.9753 -1.0312
 7432SOL    HW233951   4.547   3.433   5.833  0.5878 -0.4475  0.6986
 7433SOL     OW33952   6.422   0.053   6.421  0.6379  0.0649  0.7956
 7433SOL    HW133953   6.487   0.114   6.467  0.6335 -1.0573  2.2956
 7433SOL    HW233954   6.464  -0.036   6.406 -0.4114 -0.5542  1.4470
 7434SOL     OW33955   9.365   5.249   5.860  0.5536 -0.3847  0.2789
 7434SOL    HW133956   9.306   5.330   5.862 -0.8090 -1.2897 -1.7326
 7434SOL    HW233957   9.311   5.169   5.834  1.8888 -1.9681  2.2560
 7435SOL     OW33958   9.017   1.533   6.432 -0.5738  0.6876 -0.3945
 7435SOL    HW133959   9.056   1.552   6.342 -0.2247 -0.3350 -0.4634
 7435SOL    HW233960   9.077   1.571   6.503  0.5683 -0.8691 -0.4989
 7436SOL     OW33961   4.362   0.041   2.506  0.0120 -0.4605  0.3718
 7436SOL    HW133962   4.438   0.019   2.444 -1.9757 -1.4304 -1.8231
 7436SOL    HW233963   4.344  -0.038   2.565 -0.5035 -0.9726 -0.4491
 7437SOL     OW33964   5.534   0.324   7.959 -0.0744 -0.1826  0.1944
 7437SOL    HW133965   5.600   0.321   7.884 -0.5720 -0.9399 -0.2241
 7437SOL    HW233966   5.570   0.380   8.033  0.6754  0.0921 -0.3718
 7438SOL     OW33967   6.988   9.526   2.857 -0.4532 -0.3978  0.5742
 7438SOL    HW133968   7.066   9.560   2.910 -0.2980  0.2193 -0.0436
 7438SOL    HW233969   6.923   9.600   2.841 -0.1381 -0.3830 -0.7239
 7439SOL     OW33970   8.368   0.550   5.477  0.2330 -0.9542 -0.2623
 7439SOL    HW133971   8.405   0.469   5.430  0.3986 -0.0576 -1.6874
 7439SOL    HW233972   8.318   0.607   5.412 -0.1849 -0.0728  0.8121
 7440SOL     OW33973   4.575   9.931   2.326 -0.1474  0.1998 -0.7939
 7440SOL    HW133974   4.499   9.914   2.262 -1.6564  0.1953  0.9717
 7440SOL    HW233975   4.601   9.846   2.370  0.5537  0.2944 -1.0253
 7441SOL     OW33976   3.902   4.868   7.366  0.1607  0.4877  0.4374
 7441SOL    HW133977   3.995   4.891   7.396 -0.8599  2.6438  2.0694
 7441SOL    HW233978   3.836   4.924   7.416 -1.9580 -0.0119 -1.7164
 7442SOL     OW33979   8.123   2.622   2.619 -0.7232 -0.0284 -0.3057
 7442SOL    HW133980   8.088   2.532   2.644 -1.1144  0.5077  1.1370
 7442SOL    HW233981   8.159   2.668   2.700 -2.6761  2.0607 -0.5464
 7443SOL     OW33982   5.412   2.545   1.675 -0.7235 -0.3421  0.1166
 7443SOL    HW133983   5.429   2.499   1.762 -1.8318 -1.7214 -0.3690
 7443SOL    HW233984   5.496   2.586   1.641  0.1620 -1.5061  0.8755
 7444SOL     OW33985   8.912   4.783   2.654  0.0849 -0.0468 -0.2240
 7444SOL    HW133986   8.854   4.745   2.582 -2.5406  0.0182  1.8057
 7444SOL    HW233987   8.939   4.710   2.717  1.1714  0.1666 -0.4261
 7445SOL     OW33988   5.237   2.103   5.191  0.2628  0.2349 -0.3877
 7445SOL    HW133989   5.166   2.046   5.231 -0.8778 -0.4808 -3.3137
 7445SOL    HW233990   5.217   2.199   5.209  1.1375 -0.1189  2.8390
 7446SOL     OW33991   4.252   9.744   2.988  0.1244 -0.1676 -0.0081
 7446SOL    HW133992   4.312   9.665   3.001 -0.2986 -0.3453  0.8657
 7446SOL    HW233993   4.167   9.730   3.038 -0.2931  0.4735 -0.5391
 7447SOL     OW33994   8.004   5.105   1.432  0.0360  0.2638  0.1414
 7447SOL    HW133995   8.100   5.129   1.439  0.4478 -1.1797 -0.3069
 7447SOL    HW233996   7.965   5.092   1.523 -0.0093  1.8157  0.3617
 7448SOL     OW33997   7.432   0.818   7.187 -0.3184 -0.3211  0.1376
 7448SOL    HW133998   7.481   0.833   7.272  2.1411 -1.2182 -1.0716
 7448SOL    HW233999   7.466   0.735   7.143 -2.9763 -1.0132 -0.7444
 7449SOL     OW34000   4.008   0.173   6.948  0.0184  0.1794  0.2629
 7449SOL    HW134001   4.075   0.118   6.998 -0.6887  0.0211  1.0470
 7449SOL    HW234002   3.924   0.121   6.937  0.7545 -0.5231 -2.7435
 7450SOL     OW34003   1.366   6.198   1.099 -0.1867  0.0968 -0.0797
 7450SOL    HW134004   1.272   6.229   1.084 -0.3688  0.1446  1.0575
 7450SOL    HW234005   1.369   6.098   1.095  0.1260  0.1899 -2.2849
 7451SOL     OW34006   0.612   3.470   7.633 -0.0207 -0.3980 -0.4956
 7451SOL    HW134007   0.650   3.535   7.567  0.3554  0.2346  0.3401
 7451SOL    HW234008   0.571   3.520   7.709  1.0330 -1.1552  0.5745
 7452SOL     OW34009   7.560   1.194   2.669 -0.1225  0.0850 -0.4671
 7452SOL    HW134010   7.485   1.204   2.603  0.0208  0.4772 -0.5688
 7452SOL    HW234011   7.542   1.115   2.728 -0.5855  0.1414 -0.5302
 7453SOL     OW34012   6.413   8.209   5.634 -0.2595  0.2486 -0.2219
 7453SOL    HW134013   6.472   8.278   5.674  0.6513 -1.4232  1.4185
 7453SOL    HW234014   6.410   8.129   5.694 -0.1660 -1.7129 -2.7252
 7454SOL     OW34015   4.657   4.312   2.434 -0.0205 -0.6026  0.2795
 7454SOL    HW134016   4.648   4.259   2.519  0.5661 -2.8647 -1.0308
 7454SOL    HW234017   4.567   4.322   2.392  0.0384 -1.7068 -0.1283
 7455SOL     OW34018   0.272   7.622   0.768  0.4621 -0.2475 -0.2531
 7455SOL    HW134019   0.200   7.611   0.699 -1.1208  2.1246  0.9633
 7455SOL    HW234020   0.356   7.652   0.723 -0.4793  1.0350 -1.2042
 7456SOL     OW34021   1.900   3.680   3.644 -0.5479  0.0582  0.5320
 7456SOL    HW134022   1.997   3.705   3.640 -0.5544  0.0956  0.6084
 7456SOL    HW234023   1.861   3.682   3.552 -0.6121  0.5885  0.5659
 7457SOL     OW34024   0.600   2.481   2.181 -0.1364 -0.2618  0.0496
 7457SOL    HW134025   0.541   2.486   2.101 -1.2966  0.1179  0.9122
 7457SOL    HW234026   0.667   2.407   2.169 -1.6457 -1.5803 -0.3886
 7458SOL     OW34027   1.167   0.931   4.006 -0.0061 -0.2125 -0.5768
 7458SOL    HW134028   1.109   0.986   3.945 -0.7113 -1.4080 -1.0025
 7458SOL    HW234029   1.260   0.931   3.971  0.2089  1.4995 -0.0375
 7459SOL     OW34030   1.504   8.590   4.909  0.0177 -0.3699 -0.6394
 7459SOL    HW134031   1.476   8.550   4.822  0.2008  0.3776 -1.0408
 7459SOL    HW234032   1.489   8.523   4.982  1.0327 -1.4491 -1.4043
 7460SOL     OW34033   9.563   2.989   2.876  0.7620 -0.3291 -0.1248
 7460SOL    HW134034   9.547   3.077   2.833  1.0623  0.7330  1.8504
 7460SOL    HW234035   9.537   2.915   2.814  0.0871  1.1577 -1.6260
 7461SOL     OW34036   8.773   6.719   7.527 -0.1820  1.0205  0.5254
 7461SOL    HW134037   8.832   6.798   7.537  1.8177 -0.3195 -0.3246
 7461SOL    HW234038   8.764   6.696   7.430  0.6412 -0.7691  0.8415
 7462SOL     OW34039   1.571   3.928   0.190 -0.8830  0.2457 -0.0711
 7462SOL    HW134040   1.632   3.858   0.227  0.1078  1.5936  0.9005
 7462SOL    HW234041   1.575   3.927   0.090 -1.0767 -1.2369 -0.0733
 7463SOL     OW34042   0.647   0.073   6.119  0.3494  0.6560 -0.1195
 7463SOL    HW134043   0.666   0.080   6.217  0.1052 -0.1876 -0.0058
 7463SOL    HW234044   0.597  -0.012   6.101  0.6070  0.6859 -1.0075
 7464SOL     OW34045   5.798   9.917   6.796 -0.6541  0.5577 -0.0275
 7464SOL    HW134046   5.879   9.974   6.781  1.0162 -1.3964  1.3357
 7464SOL    HW234047   5.776   9.915   6.893  0.3563 -2.4309  0.1961
 7465SOL     OW34048   3.724   4.983   7.143 -0.0210  0.4026 -0.1356
 7465SOL    HW134049   3.818   4.969   7.176  0.0054  1.6734  0.3575
 7465SOL    HW234050   3.687   4.896   7.111  0.6149 -0.4998  1.5168
 7466SOL     OW34051   2.887   7.045   0.633  0.3939  0.0304 -0.2868
 7466SOL    HW134052   2.919   7.138   0.650  1.1526 -0.2658 -0.0622
 7466SOL    HW234053   2.966   6.983   0.628 -0.0775 -0.5413 -0.8089
 7467SOL     OW34054   4.151   4.405   2.188  0.0943 -0.0741  0.3989
 7467SOL    HW134055   4.170   4.453   2.274  0.1400 -0.9148  0.8610
 7467SOL    HW234056   4.086   4.331   2.205  1.6285 -1.5209  0.1087
 7468SOL     OW34057   8.204   7.864   1.358 -0.2243 -0.2578  0.2905
 7468SOL    HW134058   8.170   7.944   1.309 -0.4813 -0.4899  0.0840
 7468SOL    HW234059   8.296   7.841   1.327 -0.5266 -0.6210 -0.3424
 7469SOL     OW34060   5.598   0.533   3.667  0.2156  0.3203  0.8885
 7469SOL    HW134061   5.663   0.482   3.723  1.4796 -0.6256 -1.3941
 7469SOL    HW234062   5.635   0.624   3.648 -0.3551  0.7545  1.8361
 7470SOL     OW34063   9.763   8.234   4.732 -0.2409  0.3260  0.2396
 7470SOL    HW134064   9.793   8.210   4.640 -1.9547 -0.5195 -0.1031
 7470SOL    HW234065   9.716   8.322   4.730 -0.3598  0.2642  0.2820
 7471SOL     OW34066   8.583   3.211   1.688 -0.5731  0.4871  0.0835
 7471SOL    HW134067   8.649   3.178   1.754 -0.7840  0.0894  0.0974
 7471SOL    HW234068   8.493   3.173   1.709 -0.5833  0.1223 -0.6084
 7472SOL     OW34069   3.449   9.773   7.669 -0.2031  0.0326 -0.5578
 7472SOL    HW134070   3.379   9.739   7.606  0.2148 -3.4059  0.7626
 7472SOL    HW234071   3.527   9.711   7.670  0.8679  1.3484  1.5030
 7473SOL     OW34072   9.693   2.321   2.563  0.1110  0.4663  0.0123
 7473SOL    HW134073   9.615   2.336   2.503  0.4510 -1.1644 -0.8612
 7473SOL    HW234074   9.677   2.240   2.620  2.0048 -1.1214 -1.6332
 7474SOL     OW34075   8.257   3.219   6.946  0.2026  0.1587 -0.4241
 7474SOL    HW134076   8.282   3.270   6.863 -1.3794 -1.0592 -1.7103
 7474SOL    HW234077   8.186   3.269   6.995 -1.3930 -0.7771 -1.7169
 7475SOL     OW34078   8.196   1.112   7.316 -0.2241  0.1781 -0.1439
 7475SOL    HW134079   8.155   1.149   7.399  1.1139  0.2842  0.4839
 7475SOL    HW234080   8.170   1.168   7.237  0.9751  1.9026  0.6518
 7476SOL     OW34081   3.793   2.498   6.530 -0.5876  0.5789 -0.0709
 7476SOL    HW134082   3.766   2.587   6.567  0.6491  1.1931 -0.6393
 7476SOL    HW234083   3.884   2.504   6.489 -0.2899 -1.0647  0.2955
 7477SOL     OW34084   0.773   6.393   3.929 -0.8206 -0.3785  0.4176
 7477SOL    HW134085   0.797   6.376   4.025 -0.5972 -1.5524  0.1558
 7477SOL    HW234086   0.767   6.307   3.880  2.3834  0.3221 -1.4114
 7478SOL     OW34087   9.481   7.906   5.330  0.9363  0.3888  0.2454
 7478SOL    HW134088   9.569   7.952   5.327  1.5868 -0.9298 -1.6892
 7478SOL    HW234089   9.410   7.967   5.296  1.0929  1.4289  1.7470
 7479SOL     OW34090   0.630   0.711   2.181 -0.3731 -0.3681 -0.4876
 7479SOL    HW134091   0.577   0.748   2.257  1.5097 -0.0704  0.7016
 7479SOL    HW234092   0.727   0.707   2.206  0.1752 -0.9716 -2.5949
 7480SOL     OW34093   5.599   2.554   2.425  0.4426  0.1442 -0.2008
 7480SOL    HW134094   5.637   2.605   2.502  1.3084  0.1162 -0.6132
 7480SOL    HW234095   5.507   2.588   2.406  0.1836  0.0975  0.8992
 7481SOL     OW34096   2.724   8.075   4.474 -0.4019  0.0096 -0.1910
 7481SOL    HW134097   2.639   8.068   4.527  0.1161  1.2210  0.8315
 7481SOL    HW234098   2.706   8.052   4.379 -1.7420 -0.3876  0.1441
 7482SOL     OW34099   8.368   0.863   0.229  0.4489  0.2700  0.5356
 7482SOL    HW134100   8.463   0.857   0.200  0.4769 -0.4160  0.7483
 7482SOL    HW234101   8.357   0.937   0.295  1.1681 -0.6717  1.7488
 7483SOL     OW34102   0.357   3.128   0.724  0.4104  0.7057  0.6776
 7483SOL    HW134103   0.307   3.158   0.806  0.0453  1.7918  0.0698
 7483SOL    HW234104   0.382   3.031   0.733 -0.2888  0.6214  1.7429
 7484SOL     OW34105   0.075   1.234   0.545  0.6842 -0.6288 -0.5206
 7484SOL    HW134106   0.159   1.250   0.493  1.3704 -2.1988  0.0686
 7484SOL    HW234107   0.085   1.272   0.637  0.2972  0.2270 -0.8305
 7485SOL     OW34108   7.479   5.463   3.392 -0.3376  0.2510  0.1349
 7485SOL    HW134109   7.458   5.405   3.471 -1.1600  0.4900  0.0991
 7485SOL    HW234110   7.520   5.408   3.320  0.9121  0.1311  0.9362
 7486SOL     OW34111   3.970   9.097   5.000 -0.0329  0.5598 -0.3382
 7486SOL    HW134112   4.032   9.167   4.964  0.1007  0.4542 -0.3155
 7486SOL    HW234113   3.977   9.095   5.099  1.0340 -0.4582 -0.4152
 7487SOL     OW34114   4.659   4.771   1.523 -0.3349 -0.4286 -0.2750
 7487SOL    HW134115   4.626   4.778   1.429 -0.7269 -0.6868 -0.1627
 7487SOL    HW234116   4.669   4.674   1.547 -1.0379 -0.3895  0.2147
 7488SOL     OW34117   0.632   3.146   2.290  0.5585 -0.5218 -0.2469
 7488SOL    HW134118   0.647   3.239   2.323 -0.2043  0.2327 -1.9579
 7488SOL    HW234119   0.718   3.095   2.296  0.5940 -0.2375  2.2386
 7489SOL     OW34120   1.700   2.298   0.567  0.0293  0.3801  0.1535
 7489SOL    HW134121   1.692   2.204   0.599  3.1986  0.7255  2.1912
 7489SOL    HW234122   1.642   2.358   0.623 -0.1589 -0.0336  0.4048
 7490SOL     OW34123   7.351   8.692   5.655 -0.0018  0.0295  0.0919
 7490SOL    HW134124   7.377   8.651   5.742  1.8691  1.1597  0.0871
 7490SOL    HW234125   7.296   8.626   5.603  0.7465 -1.4895  1.1670
 7491SOL     OW34126   1.525   5.982   7.443 -0.3442  0.1275  0.2145
 7491SOL    HW134127   1.577   5.918   7.500  0.9084  1.0907  0.1529
 7491SOL    HW234128   1.483   6.052   7.502 -1.3762 -0.4909  0.2361
 7492SOL     OW34129   0.450   2.269   7.096 -0.3141 -0.2878 -0.3264
 7492SOL    HW134130   0.446   2.174   7.126 -2.2773 -0.4823 -1.1762
 7492SOL    HW234131   0.422   2.275   7.000  1.3854  0.9399 -0.7667
 7493SOL     OW34132   2.460   1.274   7.244 -0.0607  0.0423 -0.0476
 7493SOL    HW134133   2.377   1.234   7.205  0.7080 -0.2533 -1.4397
 7493SOL    HW234134   2.534   1.207   7.240  0.4958  0.6331  0.2739
 7494SOL     OW34135   8.043   5.030   4.167 -0.2837 -0.0944 -0.1934
 7494SOL    HW134136   7.997   4.958   4.219 -2.1377  1.4790  0.3796
 7494SOL    HW234137   7.987   5.112   4.166  2.4798  1.8658  0.4181
 7495SOL     OW34138   5.277   4.919   0.366  0.0697 -0.0052 -0.1616
 7495SOL    HW134139   5.317   5.002   0.406  0.1675  0.0156 -0.3023
 7495SOL    HW234140   5.336   4.886   0.293 -0.0233 -0.1410 -0.1748
 7496SOL     OW34141   7.770   8.799   6.443 -0.4658  0.3631  0.0481
 7496SOL    HW134142   7.816   8.793   6.354  0.5371  1.9873  0.4175
 7496SOL    HW234143   7.786   8.890   6.481 -0.4312 -0.5030  2.1386
 7497SOL     OW34144   6.296   5.366   1.151  0.4290 -0.1827  0.9411
 7497SOL    HW134145   6.367   5.387   1.084  1.5118  1.0557  2.4218
 7497SOL    HW234146   6.218   5.426   1.137  1.5094  1.5318  2.0681
 7498SOL     OW34147   3.831   9.071   1.978  0.2470  0.4091  0.1285
 7498SOL    HW134148   3.886   9.056   1.895 -0.9810 -0.0970 -0.6020
 7498SOL    HW234149   3.794   9.164   1.977 -0.3076  0.1815 -0.2053
 7499SOL     OW34150   0.588   6.257   5.956  0.2527 -0.1096  0.2942
 7499SOL    HW134151   0.664   6.263   6.021  1.0378 -1.5481 -0.4661
 7499SOL    HW234152   0.620   6.280   5.864 -0.4140  0.0310  0.0910
 7500SOL     OW34153   1.244   9.655   1.776  0.1933  0.1915  0.1610
 7500SOL    HW134154   1.221   9.629   1.683  1.7103 -0.6996  0.0209
 7500SOL    HW234155   1.296   9.740   1.776  0.1828  0.1986  0.2067
 7501SOL     OW34156   0.327   0.430   3.202 -0.2141 -0.2694  0.0525
 7501SOL    HW134157   0.398   0.432   3.272  0.2492  0.1395 -0.4306
 7501SOL    HW234158   0.337   0.510   3.142 -0.1293 -1.0346 -0.9550
 7502SOL     OW34159   7.521   6.982   2.329  0.1464  0.6740  0.6897
 7502SOL    HW134160   7.545   6.928   2.248 -0.2908 -0.2487  1.1604
 7502SOL    HW234161   7.527   7.079   2.308 -0.3742  0.4338 -0.5739
 7503SOL     OW34162   1.742   6.233   6.748  0.3051 -0.4184  0.1000
 7503SOL    HW134163   1.732   6.141   6.709  0.0032  0.1793 -1.2837
 7503SOL    HW234164   1.665   6.290   6.718  0.0629  0.0767  1.5979
 7504SOL     OW34165   7.122   9.280   5.203 -0.2019  0.1403  0.0978
 7504SOL    HW134166   7.149   9.273   5.299  1.9421  0.5155 -0.4576
 7504SOL    HW234167   7.025   9.304   5.198  0.3953  3.3576  2.1910
 7505SOL     OW34168   5.217   6.498   2.210 -0.3784 -0.1563  0.0360
 7505SOL    HW134169   5.140   6.487   2.273 -0.3560  0.3609  0.1604
 7505SOL    HW234170   5.295   6.537   2.259  0.0396 -0.9099 -0.0368
 7506SOL     OW34171   5.894   0.143   7.628 -0.0420  0.4303 -0.4166
 7506SOL    HW134172   5.976   0.101   7.590 -0.6856 -1.4652  0.1854
 7506SOL    HW234173   5.888   0.121   7.726 -0.4052  1.9541 -0.0837
 7507SOL     OW34174   0.484   0.318   4.632  0.0632 -0.3966 -0.2660
 7507SOL    HW134175   0.438   0.247   4.577 -0.8458  0.9488 -1.2862
 7507SOL    HW234176   0.439   0.325   4.721 -1.7234  0.8746 -1.2367
 7508SOL     OW34177   2.712   4.844   3.007  0.3446 -0.4685  0.0223
 7508SOL    HW134178   2.790   4.879   3.058  0.1677 -0.5087  0.3171
 7508SOL    HW234179   2.671   4.919   2.954  1.3262 -0.7011 -1.0932
 7509SOL     OW34180   3.966   7.538   0.570  0.3142 -0.7382  0.2819
 7509SOL    HW134181   3.894   7.497   0.515  0.6518 -0.8346 -0.0939
 7509SOL    HW234182   4.021   7.599   0.513  0.1412 -0.1779  0.7141
 7510SOL     OW34183   1.251   4.497   2.633  0.2524  0.3398  0.2840
 7510SOL    HW134184   1.238   4.425   2.701 -1.3422 -1.2007 -1.5913
 7510SOL    HW234185   1.348   4.522   2.629  0.8039 -1.5993  1.0921
 7511SOL     OW34186   3.863   9.268   6.504 -0.7024  0.2977 -0.3941
 7511SOL    HW134187   3.781   9.221   6.538 -1.0503  0.2231 -1.3383
 7511SOL    HW234188   3.944   9.216   6.533 -0.9031  1.0530  1.6367
 7512SOL     OW34189   0.522   5.367   1.932  0.2665  0.5761 -0.0184
 7512SOL    HW134190   0.581   5.342   1.856  0.1915 -0.9187  0.4021
 7512SOL    HW234191   0.578   5.395   2.010  0.4679 -1.7179  0.6839
 7513SOL     OW34192   4.286   4.000   5.272  0.0971  0.2240 -0.5675
 7513SOL    HW134193   4.220   3.929   5.296 -0.9847  1.1841 -0.6666
 7513SOL    HW234194   4.345   4.018   5.351 -0.4740  0.1357 -0.1159
 7514SOL     OW34195   5.804   5.019   1.952  0.1255  0.1171 -0.4477
 7514SOL    HW134196   5.784   5.107   1.995 -0.5305 -0.7664  1.0737
 7514SOL    HW234197   5.790   4.945   2.018 -0.5488 -1.2276 -2.0526
 7515SOL     OW34198   1.648   6.375   5.709 -0.0962 -0.0534  0.5861
 7515SOL    HW134199   1.587   6.362   5.788 -0.2109  3.0890  1.0717
 7515SOL    HW234200   1.637   6.298   5.646 -3.7255 -0.1696  1.2227
 7516SOL     OW34201   0.003   8.547   7.428  0.0323 -0.1283 -0.0562
 7516SOL    HW134202  -0.068   8.477   7.428  0.9226 -1.0648  1.8958
 7516SOL    HW234203  -0.025   8.623   7.486  0.1974 -0.0476 -0.0825
 7517SOL     OW34204   1.522   4.401   2.036 -0.0237  0.3029 -0.6319
 7517SOL    HW134205   1.526   4.464   1.959  0.2221  0.5235 -0.4362
 7517SOL    HW234206   1.441   4.421   2.092  1.5011  2.2485  0.9882
 7518SOL     OW34207   3.747   8.539   6.609  0.0712  0.4795  0.2654
 7518SOL    HW134208   3.708   8.500   6.692  1.2168 -0.6760  0.2760
 7518SOL    HW234209   3.847   8.536   6.614  0.1543  0.3787 -1.1609
 7519SOL     OW34210   1.916   0.980   6.592  0.7389  0.2530  0.0089
 7519SOL    HW134211   1.864   0.971   6.508  1.8593  0.6205 -0.7326
 7519SOL    HW234212   1.877   0.920   6.662  0.5169 -0.9288 -1.1178
 7520SOL     OW34213   7.010   2.364   5.562  0.5307  0.1736 -0.0073
 7520SOL    HW134214   7.045   2.437   5.505  1.8580 -0.5933 -0.2026
 7520SOL    HW234215   6.997   2.397   5.656  1.3124  0.6010 -0.0523
 7521SOL     OW34216   0.156   0.560   0.202 -0.1339  0.1189 -0.2430
 7521SOL    HW134217   0.087   0.571   0.130  1.1423  1.1316 -1.3396
 7521SOL    HW234218   0.119   0.594   0.288 -0.7977  1.2321 -0.9519
 7522SOL     OW34219   8.688   9.475   5.953 -0.4775 -0.0591 -0.2568
 7522SOL    HW134220   8.746   9.531   5.893  0.0649  0.3524  0.6345
 7522SOL    HW234221   8.742   9.446   6.032 -1.2839 -0.3194  0.1935
 7523SOL     OW34222   2.836   8.157   9.913 -0.7213 -0.0310  0.4285
 7523SOL    HW134223   2.774   8.081   9.894 -0.0325 -0.7267  0.9248
 7523SOL    HW234224   2.927   8.136   9.878 -1.2325  1.8910 -2.2141
 7524SOL     OW34225   5.796   3.672   0.426 -0.0382  0.6012  0.0680
 7524SOL    HW134226   5.875   3.645   0.370  0.2850  0.5013  0.5643
 7524SOL    HW234227   5.815   3.651   0.522 -0.5247  0.9154  0.2349
 7525SOL     OW34228   3.316   0.897   1.812  0.0156 -0.2191  0.1354
 7525SOL    HW134229   3.406   0.925   1.780 -0.1598 -0.1951 -0.3496
 7525SOL    HW234230   3.262   0.862   1.735 -1.6055  3.0028 -0.3030
 7526SOL     OW34231   5.100   0.483   5.881  0.3440 -0.3191 -0.1126
 7526SOL    HW134232   5.166   0.459   5.953  1.6266 -0.2895 -1.2550
 7526SOL    HW234233   5.007   0.476   5.917  0.9808 -0.0232  1.6335
 7527SOL     OW34234   4.820   4.562   2.457  0.2609  0.6076  0.2770
 7527SOL    HW134235   4.808   4.464   2.442  1.2614  0.6684 -1.0378
 7527SOL    HW234236   4.897   4.577   2.519 -0.2662  0.5455  0.9492
 7528SOL     OW34237   6.107   0.918   4.975 -0.0523 -0.0721  0.4538
 7528SOL    HW134238   6.162   0.996   4.946  1.1577 -1.0284  0.1135
 7528SOL    HW234239   6.133   0.892   5.068 -0.4132 -0.0981  0.5478
 7529SOL     OW34240   3.122   2.585   3.896 -0.0730 -0.1002 -0.1847
 7529SOL    HW134241   3.073   2.671   3.885 -2.6400 -1.6232 -1.3038
 7529SOL    HW234242   3.193   2.577   3.826 -0.4923  0.6776 -0.7060
 7530SOL     OW34243   4.292   7.037   3.804  0.0719  0.3124 -0.1549
 7530SOL    HW134244   4.313   7.045   3.706 -1.0666  0.1879 -0.4071
 7530SOL    HW234245   4.357   6.973   3.846 -0.5134 -0.9967 -1.1798
 7531SOL     OW34246   3.331   1.447   4.816 -0.0187  0.1746 -0.1970
 7531SOL    HW134247   3.268   1.502   4.761 -1.1657 -1.3175 -0.4083
 7531SOL    HW234248   3.370   1.375   4.759  1.2500  0.5872  0.1506
 7532SOL     OW34249   1.535   7.175   7.583 -0.0746 -0.2922 -0.0790
 7532SOL    HW134250   1.472   7.144   7.511 -0.1911  0.2379 -0.2151
 7532SOL    HW234251   1.560   7.271   7.565 -0.0889 -0.1657  0.5777
 7533SOL     OW34252   6.335   0.496   4.101 -0.4604  0.4517  0.7749
 7533SOL    HW134253   6.275   0.449   4.036 -0.0770  2.5048 -1.1551
 7533SOL    HW234254   6.401   0.552   4.051  0.5897  1.2180  2.9379
 7534SOL     OW34255   3.587   9.818   1.017  0.0739  0.2728  0.1382
 7534SOL    HW134256   3.591   9.772   1.106 -1.3663 -0.4319 -0.1480
 7534SOL    HW234257   3.498   9.860   1.005 -0.1214 -0.5225 -1.3993
 7535SOL     OW34258   3.347   1.758   4.523 -0.8798  0.3108 -0.0313
 7535SOL    HW134259   3.407   1.726   4.597 -0.5582  0.5576 -0.1829
 7535SOL    HW234260   3.386   1.840   4.482  0.2187 -1.1933 -2.0974
 7536SOL     OW34261   4.293   0.225   7.073 -0.9183 -0.3466 -0.0578
 7536SOL    HW134262   4.217   0.290   7.073  1.2954  2.4162 -2.0976
 7536SOL    HW234263   4.379   0.276   7.081  0.8987 -3.0575 -1.7012
 7537SOL     OW34264   2.448   6.350   1.679  0.1866 -0.5594 -0.9918
 7537SOL    HW134265   2.382   6.403   1.732  1.4505 -1.2546  1.3044
 7537SOL    HW234266   2.399   6.280   1.627 -1.1449  0.6696 -1.4419
 7538SOL     OW34267   1.345   4.050   0.567  0.0380 -0.3107  0.1310
 7538SOL    HW134268   1.382   4.061   0.659  0.1018 -2.6124  0.3931
 7538SOL    HW234269   1.372   3.961   0.530 -0.1333  0.5103 -2.0485
 7539SOL     OW34270   1.399   0.889   7.187 -0.2690  0.3440  0.0693
 7539SOL    HW134271   1.382   0.969   7.245 -1.8567  0.2302 -0.2137
 7539SOL    HW234272   1.484   0.844   7.215  1.0447  2.5348 -0.2178
 7540SOL     OW34273   0.895   1.134   5.844  0.1231 -0.2722  0.9701
 7540SOL    HW134274   0.859   1.129   5.938 -0.9909  0.1802  0.5827
 7540SOL    HW234275   0.820   1.155   5.781  0.9977  0.1846  0.0610
 7541SOL     OW34276   8.885   6.624   5.474  0.0909 -0.1613 -0.2643
 7541SOL    HW134277   8.848   6.679   5.549 -0.8774 -1.7007  0.4101
 7541SOL    HW234278   8.901   6.683   5.395 -0.7879  1.1265  0.4909
 7542SOL     OW34279   4.080   9.991   2.808  0.4599 -0.2535  0.1574
 7542SOL    HW134280   4.045   9.944   2.890 -1.0582 -1.3718 -1.1001
 7542SOL    HW234281   4.160  10.044   2.833 -0.5659  0.2467  2.6093
 7543SOL     OW34282   9.629   8.946   5.548 -0.0314 -0.4247  0.1823
 7543SOL    HW134283   9.600   8.850   5.544 -2.9083  0.2961  2.1244
 7543SOL    HW234284   9.656   8.969   5.641  2.4960  0.1706 -0.6747
 7544SOL     OW34285   7.936   8.277   2.990 -0.6282  0.5241  0.2478
 7544SOL    HW134286   7.941   8.184   3.028  0.9098  0.9792  1.2306
 7544SOL    HW234287   7.891   8.274   2.901  0.4113 -1.3231 -0.2459
 7545SOL     OW34288   2.643   5.299   5.690  0.5390  0.8860  0.4350
 7545SOL    HW134289   2.667   5.363   5.763 -1.2693  1.9402  0.1407
 7545SOL    HW234290   2.557   5.253   5.713  2.2744 -2.1645  1.0779
 7546SOL     OW34291   0.517   1.826   1.580 -0.4658  0.9276  0.0392
 7546SOL    HW134292   0.566   1.876   1.509 -0.9228 -0.8970 -1.5744
 7546SOL    HW234293   0.488   1.737   1.546 -0.4964 -0.0972  2.5713
 7547SOL     OW34294   0.030   8.391   5.961 -0.3179 -0.0917  0.5358
 7547SOL    HW134295   0.031   8.294   5.935 -2.9107  0.1108 -0.5283
 7547SOL    HW234296   0.120   8.418   5.993  1.3170 -2.0721 -2.1771
 7548SOL     OW34297   3.466   3.421   1.197 -0.0685  0.0783  0.6607
 7548SOL    HW134298   3.380   3.397   1.153  1.1941 -1.0792 -1.2629
 7548SOL    HW234299   3.457   3.510   1.242 -2.1842  0.0666  0.2849
 7549SOL     OW34300   3.355   9.300   5.806 -0.7594  0.8888 -0.4333
 7549SOL    HW134301   3.391   9.275   5.717  1.6260 -0.7633  0.9324
 7549SOL    HW234302   3.402   9.382   5.839 -0.7606  0.7855 -0.1737
 7550SOL     OW34303   8.934   0.458   7.839  0.0900  0.0812 -0.3850
 7550SOL    HW134304   8.961   0.384   7.778 -0.8905 -1.5500  1.1225
 7550SOL    HW234305   8.854   0.431   7.892  0.0751  1.9942  0.6263
 7551SOL     OW34306   9.099   6.779   0.280 -0.4823 -0.0816  0.1230
 7551SOL    HW134307   9.088   6.784   0.379 -0.4599  0.9137  0.0870
 7551SOL    HW234308   9.109   6.872   0.243  1.0078 -0.5236 -0.6367
 7552SOL     OW34309   4.372   4.784   3.375 -0.2365  0.1658  0.0009
 7552SOL    HW134310   4.394   4.779   3.277  1.2799  2.3443  0.1821
 7552SOL    HW234311   4.420   4.862   3.415 -0.0334 -1.3036  2.7090
 7553SOL     OW34312   6.770   1.753   4.873  0.5568  0.1239 -0.0974
 7553SOL    HW134313   6.756   1.849   4.846  1.4342  0.0408 -0.8671
 7553SOL    HW234314   6.684   1.703   4.865  0.8352  0.0532 -2.9489
 7554SOL     OW34315   3.071   3.717   3.783 -0.0441  0.4763  0.4730
 7554SOL    HW134316   3.169   3.698   3.784 -0.3159 -1.0070  0.6274
 7554SOL    HW234317   3.038   3.725   3.877  0.1235  2.0387  0.3987
 7555SOL     OW34318   6.940   4.808   2.395 -0.0839 -0.1251  0.2055
 7555SOL    HW134319   6.931   4.853   2.306  0.8880  1.0510  0.6918
 7555SOL    HW234320   7.002   4.861   2.453 -0.5076 -1.0198  1.4943
 7556SOL     OW34321   4.390   6.826   1.164 -0.5601  0.3858 -0.3283
 7556SOL    HW134322   4.369   6.736   1.203 -1.6000  0.2277 -1.2548
 7556SOL    HW234323   4.360   6.830   1.069  1.7585  0.8689 -1.0550
 7557SOL     OW34324   4.331   1.282   2.024 -0.1798  0.1230 -0.3823
 7557SOL    HW134325   4.421   1.308   1.987  0.0687 -0.2629 -0.0531
 7557SOL    HW234326   4.262   1.293   1.953 -0.3575  3.2469  0.2079
 7558SOL     OW34327   3.786   9.150   0.681  0.8114 -0.2284  0.1153
 7558SOL    HW134328   3.783   9.055   0.649 -1.6721  0.5674 -2.1728
 7558SOL    HW234329   3.694   9.189   0.680  1.6537  1.9179  1.9745
 7559SOL     OW34330   3.333   9.528   2.582 -0.1150  0.1124  0.3227
 7559SOL    HW134331   3.388   9.491   2.656  0.5530  1.5003  0.5339
 7559SOL    HW234332   3.370   9.496   2.494  1.9386  2.1708  0.3884
 7560SOL     OW34333   9.992   4.953   1.948 -0.2092  0.4807 -0.0334
 7560SOL    HW134334  10.067   5.019   1.958 -0.3091  0.6571 -0.4319
 7560SOL    HW234335   9.912   4.999   1.909 -0.4537  0.2436  0.1912
 7561SOL     OW34336   2.228   7.776   5.435  0.3412  0.0707 -0.2204
 7561SOL    HW134337   2.211   7.817   5.524  0.7157 -0.1530 -0.0434
 7561SOL    HW234338   2.291   7.833   5.383 -1.9071  1.5705 -1.3822
 7562SOL     OW34339   3.799   5.395   0.245  0.1579  0.1935  0.0421
 7562SOL    HW134340   3.706   5.401   0.282  1.3920  0.7202  3.2585
 7562SOL    HW234341   3.838   5.487   0.238  0.6348 -0.0651 -0.7390
 7563SOL     OW34342   3.154   8.075   4.311  0.1068 -0.1184 -0.6080
 7563SOL    HW134343   3.224   8.131   4.265 -0.1795 -0.9963 -2.1428
 7563SOL    HW234344   3.113   8.013   4.245 -2.4485  0.6762  0.1745
 7564SOL     OW34345   6.314   7.878   7.860  0.1533 -0.6257  0.2853
 7564SOL    HW134346   6.317   7.891   7.959 -1.3400 -0.4627  0.3184
 7564SOL    HW234347   6.407   7.883   7.823  0.5969  0.6219  1.5075
 7565SOL     OW34348   7.198   0.080   5.592  0.2260 -0.2708  0.8182
 7565SOL    HW134349   7.143   0.005   5.555  0.2044 -0.0175  0.3386
 7565SOL    HW234350   7.185   0.086   5.690  1.4821 -1.9741  1.1235
 7566SOL     OW34351   2.918   4.842   3.463  0.1000  0.3964 -0.5153
 7566SOL    HW134352   2.960   4.835   3.553 -1.4006  0.3259  0.1970
 7566SOL    HW234353   2.912   4.752   3.421 -1.6681  0.0211  0.4847
 7567SOL     OW34354   1.479   3.227   4.921 -0.0670  0.4380  0.0161
 7567SOL    HW134355   1.467   3.321   4.887 -0.8846 -0.1440 -1.3709
 7567SOL    HW234356   1.433   3.217   5.009  1.4125  1.7691  0.9687
 7568SOL     OW34357   5.252   9.240   1.944  0.0620 -0.0793  0.5201
 7568SOL    HW134358   5.247   9.333   1.978  2.2346  0.0923  0.4146
 7568SOL    HW234359   5.304   9.183   2.008 -0.9962 -1.1673  0.4494
 7569SOL     OW34360   3.792   4.214   1.507 -0.6632  0.4509  0.0134
 7569SOL    HW134361   3.839   4.272   1.441  0.9107 -1.2176 -0.3905
 7569SOL    HW234362   3.824   4.235   1.599 -0.0016  0.1692 -0.1452
 7570SOL     OW34363   9.628   9.403   0.977  0.3949  0.0556 -0.4840
 7570SOL    HW134364   9.692   9.479   0.985 -1.8578  2.1374 -1.6688
 7570SOL    HW234365   9.663   9.336   0.912  1.0862  1.4542 -1.5508
 7571SOL     OW34366   7.579   9.594   6.817 -0.1711 -0.8121  0.0605
 7571SOL    HW134367   7.560   9.510   6.766 -0.3916  0.0498 -1.3025
 7571SOL    HW234368   7.497   9.650   6.822 -0.1406 -0.8584  1.3459
 7572SOL     OW34369   3.554   8.067   4.456 -0.1958  0.4748 -0.4800
 7572SOL    HW134370   3.568   8.136   4.527  0.1434  0.4127 -0.4859
 7572SOL    HW234371   3.613   7.989   4.474  0.2082  0.6399 -1.0704
 7573SOL     OW34372   6.065   3.883   1.290 -0.3101  0.0380  0.5465
 7573SOL    HW134373   6.072   3.982   1.308 -0.0573  0.3530 -1.2334
 7573SOL    HW234374   6.146   3.838   1.327 -0.8250  0.3550  2.1394
 7574SOL     OW34375   3.010   0.510   0.305  0.7414  0.8207 -0.2959
 7574SOL    HW134376   2.923   0.477   0.268  1.0665 -0.7060  0.2562
 7574SOL    HW234377   3.056   0.566   0.236 -0.4735  1.2899 -0.7445
 7575SOL     OW34378   3.084   9.534   7.309 -0.0657 -0.2562  0.4791
 7575SOL    HW134379   3.183   9.543   7.301 -0.4032  4.0855 -0.3826
 7575SOL    HW234380   3.046   9.496   7.225  0.6252  1.2276 -0.5325
 7576SOL     OW34381   9.984   6.492   6.786  0.4565 -0.3225  0.0571
 7576SOL    HW134382  10.030   6.480   6.874  0.3346 -1.3999 -0.0244
 7576SOL    HW234383   9.908   6.427   6.779 -0.5387  0.8369 -0.1743
 7577SOL     OW34384   4.191   8.800   6.717  0.4442 -0.3266  0.2000
 7577SOL    HW134385   4.230   8.752   6.639  0.9722 -3.4622  2.2848
 7577SOL    HW234386   4.097   8.827   6.697  0.5461 -1.1564 -1.4666
 7578SOL     OW34387   2.015   3.131   5.964 -0.0479  0.1182  0.2270
 7578SOL    HW134388   2.035   3.042   6.003 -0.5753  0.2994  0.9167
 7578SOL    HW234389   1.979   3.192   6.035 -1.4524  0.3047 -0.6177
 7579SOL     OW34390   6.651   1.355   7.595 -0.5622  0.3820  0.2515
 7579SOL    HW134391   6.715   1.368   7.671 -0.6109 -0.6942  0.4840
 7579SOL    HW234392   6.700   1.317   7.516 -0.6809  0.6693  0.0402
 7580SOL     OW34393   2.823   2.604   1.471  0.6182 -0.0433 -0.1669
 7580SOL    HW134394   2.833   2.513   1.511 -0.5493  0.6746  1.8508
 7580SOL    HW234395   2.737   2.608   1.419  0.1503  0.1995  0.6148
 7581SOL     OW34396   9.311   9.007   7.561 -0.1761  0.3578 -0.3411
 7581SOL    HW134397   9.257   9.000   7.478 -1.2132  0.8864  0.2786
 7581SOL    HW234398   9.325   9.104   7.584 -0.7348  0.2210  0.6223
 7582SOL     OW34399   2.834   3.618   5.937  0.1981 -0.1186  0.1371
 7582SOL    HW134400   2.860   3.577   5.849  0.2660 -0.8424  0.4974
 7582SOL    HW234401   2.917   3.640   5.989  0.1226 -1.4665  0.8420
 7583SOL     OW34402   9.621   7.679   4.154  0.1283  0.2746  0.0624
 7583SOL    HW134403   9.682   7.607   4.185 -1.7676 -0.4768  2.2025
 7583SOL    HW234404   9.670   7.742   4.094  2.3449 -1.6069 -0.1450
 7584SOL     OW34405   1.618   8.076   6.575 -0.0178 -0.4673  0.1222
 7584SOL    HW134406   1.599   8.174   6.585  2.3738  0.4164 -3.0815
 7584SOL    HW234407   1.700   8.052   6.627 -0.3207 -0.6806  0.5061
 7585SOL     OW34408   5.413   2.785   2.489 -0.4040 -0.6701 -0.0281
 7585SOL    HW134409   5.416   2.750   2.395 -1.1517  0.6934 -0.5803
 7585SOL    HW234410   5.346   2.859   2.494  1.5152  1.0646  0.9632
 7586SOL     OW34411   4.330   1.731   6.262 -0.2591 -0.2082  0.2272
 7586SOL    HW134412   4.335   1.696   6.169 -3.1025 -0.6585  0.1907
 7586SOL    HW234413   4.314   1.829   6.261 -0.6330 -0.2657  0.2057
 7587SOL     OW34414   1.266   8.241   6.978 -0.5414  1.1435  0.3647
 7587SOL    HW134415   1.253   8.145   6.952 -0.7738  1.0507  0.8138
 7587SOL    HW234416   1.347   8.250   7.035 -1.7061  0.8580  2.1371
 7588SOL     OW34417   0.264   8.744   2.281 -0.6176  0.0180  0.4609
 7588SOL    HW134418   0.208   8.734   2.199 -2.5747 -1.6219  1.9700
 7588SOL    HW234419   0.354   8.703   2.265  0.3322  2.8897 -2.0585
 7589SOL     OW34420   8.847   7.535   1.392  0.5002 -0.5474 -0.1267
 7589SOL    HW134421   8.944   7.550   1.411  0.8381  0.6017 -2.5633
 7589SOL    HW234422   8.837   7.463   1.324 -0.1533  1.2762 -2.0365
 7590SOL     OW34423   6.551   5.260   1.038 -0.2385 -0.0504 -0.4630
 7590SOL    HW134424   6.508   5.170   1.047  1.2930 -0.7032  0.4184
 7590SOL    HW234425   6.619   5.273   1.110  0.8819  1.0537 -1.6738
 7591SOL     OW34426   3.351   2.945   0.125 -0.0246  0.3182 -0.5113
 7591SOL    HW134427   3.365   2.948   0.026 -0.3223  0.6271 -0.5461
 7591SOL    HW234428   3.427   2.897   0.169 -0.8369 -1.5298 -1.0783
 7592SOL     OW34429   5.673   9.188   5.451 -0.0576 -0.1844  0.1146
 7592SOL    HW134430   5.576   9.164   5.445 -0.2967  0.7484  0.0698
 7592SOL    HW234431   5.711   9.156   5.538 -1.3063  2.5144  1.7229
 7593SOL     OW34432   3.827   8.866   8.064  0.5203  0.0325  0.1579
 7593SOL    HW134433   3.759   8.876   7.991 -0.2864  3.1497  1.2345
 7593SOL    HW234434   3.781   8.837   8.148  0.9676 -0.6104  0.1803
 7594SOL     OW34435   8.883   4.705   2.059 -0.0570 -0.2239 -0.2888
 7594SOL    HW134436   8.865   4.789   2.007  2.2088  0.1223 -0.5959
 7594SOL    HW234437   8.848   4.626   2.009 -0.7960  0.3955 -0.7627
 7595SOL     OW34438   5.229   4.097   1.864  0.1261  0.3835  0.1756
 7595SOL    HW134439   5.245   4.093   1.962  0.3475  2.1891  0.2221
 7595SOL    HW234440   5.148   4.042   1.841 -0.8442  1.1851  1.5801
 7596SOL     OW34441   6.749   1.354   0.929  0.5662 -0.0755 -0.2626
 7596SOL    HW134442   6.746   1.434   0.989  0.6568  0.1377 -0.5353
 7596SOL    HW234443   6.781   1.383   0.838 -0.6671 -0.1726 -0.7431
 7597SOL     OW34444   9.355   8.741   4.450  0.0958  0.4547 -0.0594
 7597SOL    HW134445   9.435   8.733   4.391 -0.3199 -0.1198 -0.5471
 7597SOL    HW234446   9.273   8.751   4.394 -0.1825  0.9409  0.4371
 7598SOL     OW34447   8.275   3.503   5.841  0.1288 -0.2057 -0.5367
 7598SOL    HW134448   8.352   3.533   5.784  1.3390  0.0502  1.1847
 7598SOL    HW234449   8.223   3.583   5.871  0.5032 -0.2001  0.1052
 7599SOL     OW34450   7.044   0.627   0.814 -1.0240 -0.5206 -0.1842
 7599SOL    HW134451   7.082   0.553   0.758 -1.2776  0.4571 -1.6941
 7599SOL    HW234452   7.113   0.699   0.825 -1.4460 -0.0742 -0.4292
 7600SOL     OW34453   6.967   1.386   4.688  1.1918 -1.1246 -0.1410
 7600SOL    HW134454   6.914   1.339   4.758 -1.9187  0.9350 -1.0350
 7600SOL    HW234455   7.053   1.337   4.673  0.6774 -3.1469  3.0887
 7601SOL     OW34456   9.434   2.583   4.560 -0.2353  0.1548 -0.5491
 7601SOL    HW134457   9.352   2.561   4.613  0.3746  0.2779  0.4558
 7601SOL    HW234458   9.435   2.682   4.541 -0.6751  0.0423 -1.1796
 7602SOL     OW34459   3.193   5.454   4.648 -0.1078  0.0389 -0.1706
 7602SOL    HW134460   3.133   5.390   4.601  1.0402 -0.1201 -1.4250
 7602SOL    HW234461   3.203   5.427   4.744 -0.4138 -1.0828 -0.4593
 7603SOL     OW34462   3.426   0.773   1.017  0.0901  0.0205  0.1904
 7603SOL    HW134463   3.414   0.687   0.967 -1.3183  0.6404 -0.5710
 7603SOL    HW234464   3.500   0.826   0.976  2.3888 -1.7311  1.9532
 7604SOL     OW34465   8.727   9.213   6.713 -0.3296  0.4419  0.2000
 7604SOL    HW134466   8.726   9.127   6.765  0.1996  0.3958  0.1317
 7604SOL    HW234467   8.711   9.289   6.775  1.7330  0.5169  0.6783
 7605SOL     OW34468   0.570   0.251   1.936 -0.0948 -0.2002  0.8729
 7605SOL    HW134469   0.566   0.156   1.907 -0.4230 -0.2679  1.1416
 7605SOL    HW234470   0.665   0.281   1.939  0.0400 -0.6866  1.3443
 7606SOL     OW34471   9.408   0.888   0.479  0.2963  0.5700  0.0272
 7606SOL    HW134472   9.329   0.897   0.540 -2.8500  1.3888 -3.8954
 7606SOL    HW234473   9.450   0.978   0.465  1.9751  0.1374  2.0988
 7607SOL     OW34474   7.012   2.974   4.094  0.2769  0.0133 -0.3218
 7607SOL    HW134475   6.965   2.897   4.136  0.0059  0.4922  0.2670
 7607SOL    HW234476   6.981   2.986   4.000  1.0110 -1.1750 -0.7231
 7608SOL     OW34477   8.460   0.734   1.544 -0.3972  0.2600 -0.3874
 7608SOL    HW134478   8.425   0.810   1.489  0.2563  0.1794 -0.9133
 7608SOL    HW234479   8.397   0.657   1.538 -2.6603  1.7501  2.5709
 7609SOL     OW34480   4.918   4.992   1.229 -0.7756  0.0106 -0.2918
 7609SOL    HW134481   4.938   4.934   1.308 -0.8649  0.0237 -0.2605
 7609SOL    HW234482   4.890   4.935   1.152  0.2080 -0.0804 -0.5954
 7610SOL     OW34483   8.264   1.730   1.350  0.0387  0.0080  0.4601
 7610SOL    HW134484   8.191   1.710   1.285  0.2921  1.8036 -0.3989
 7610SOL    HW234485   8.246   1.818   1.394  1.0443 -0.1265  1.1521
 7611SOL     OW34486   9.385   6.631   7.826  0.7121  0.2020 -0.2094
 7611SOL    HW134487   9.381   6.685   7.910  0.6763  0.3379 -0.3002
 7611SOL    HW234488   9.369   6.689   7.747  1.0190  0.1247 -0.3297
 7612SOL     OW34489   1.511   2.788   6.466  0.2574  0.7516  0.1060
 7612SOL    HW134490   1.596   2.801   6.416  0.7419  1.6393  1.1408
 7612SOL    HW234491   1.435   2.778   6.401  1.0600  0.5862 -0.8054
 7613SOL     OW34492   3.953   8.050   0.172  0.2922 -0.4141 -0.2668
 7613SOL    HW134493   3.910   8.138   0.149 -1.0150 -0.5601  1.5078
 7613SOL    HW234494   4.043   8.045   0.129 -0.3397  1.0572 -1.8325
 7614SOL     OW34495   2.897   0.210   3.908 -0.4445  0.7638  0.1995
 7614SOL    HW134496   2.939   0.193   3.819 -1.6610 -0.6738 -0.1170
 7614SOL    HW234497   2.856   0.302   3.909 -0.9554  0.5537 -0.9300
 7615SOL     OW34498   9.523   7.196   2.215  0.3010  0.4857  0.0123
 7615SOL    HW134499   9.487   7.148   2.294 -2.6239  0.8381 -1.0513
 7615SOL    HW234500   9.511   7.295   2.227  1.5131  0.6657 -0.1070
 7616SOL     OW34501   4.363   9.850   1.816 -0.9091  0.1755 -0.0919
 7616SOL    HW134502   4.443   9.827   1.871 -1.8150  0.8536  1.5541
 7616SOL    HW234503   4.370   9.806   1.726  0.8676 -0.4897  0.3602
 7617SOL     OW34504   3.030   2.237   3.052 -0.0081  0.2392  0.3205
 7617SOL    HW134505   2.935   2.209   3.062 -0.5365  0.2338 -3.5989
 7617SOL    HW234506   3.085   2.159   3.023  1.3039  0.1531  2.9358
 7618SOL     OW34507   1.742   8.729   7.605  0.1328 -0.0104  0.8593
 7618SOL    HW134508   1.685   8.650   7.582  2.6785 -1.5848 -0.2544
 7618SOL    HW234509   1.733   8.798   7.534  0.4652 -0.7237  0.1191
 7619SOL     OW34510   0.659   7.669   2.069  0.3384 -0.2183 -0.4048
 7619SOL    HW134511   0.570   7.711   2.051  0.9001  1.7001  1.1016
 7619SOL    HW234512   0.650   7.603   2.144  0.0794 -0.4383 -0.6282
 7620SOL     OW34513   8.886   2.997   1.992 -0.2323  0.8775  0.1265
 7620SOL    HW134514   8.822   2.933   1.950 -0.1854  1.2029 -0.4433
 7620SOL    HW234515   8.843   3.087   2.000  0.2182  1.1481 -0.4416
 7621SOL     OW34516   4.506   9.992   8.188  0.1757  0.5234 -0.1691
 7621SOL    HW134517   4.468  10.036   8.106 -2.0147  0.1388  0.6052
 7621SOL    HW234518   4.605   9.984   8.178  0.1247  1.8466 -2.1262
 7622SOL     OW34519   9.356   4.754   1.594  0.7113  0.1590  0.0512
 7622SOL    HW134520   9.289   4.733   1.665  0.8909  1.4620  0.6251
 7622SOL    HW234521   9.324   4.833   1.541  0.7963 -0.5210 -1.0293
 7623SOL     OW34522   4.237   2.611   5.941  0.2459  0.2378  0.6274
 7623SOL    HW134523   4.300   2.678   5.902 -0.0664  0.2651  0.1635
 7623SOL    HW234524   4.288   2.532   5.974  0.5942  0.5957  0.9553
 7624SOL     OW34525   5.663   3.534   1.390  0.0495  0.3262 -0.2618
 7624SOL    HW134526   5.746   3.574   1.351  0.8986 -0.7558  0.4132
 7624SOL    HW234527   5.595   3.522   1.318  1.7707 -2.1000 -1.5281
 7625SOL     OW34528   7.363   5.226   0.369 -0.3209  0.1801  0.6651
 7625SOL    HW134529   7.351   5.285   0.449  0.4007  1.6430 -0.2837
 7625SOL    HW234530   7.397   5.136   0.399 -1.5851  0.1777  2.1368
 7626SOL     OW34531   5.193   3.116   2.215 -0.1782 -0.6003  0.4414
 7626SOL    HW134532   5.270   3.146   2.158 -1.5540  1.7451 -0.2445
 7626SOL    HW234533   5.117   3.089   2.157  0.1920 -3.2274  1.1169
 7627SOL     OW34534   0.866   8.111   2.774  0.3159 -0.3738 -0.0312
 7627SOL    HW134535   0.809   8.113   2.856 -0.9357  2.1453 -0.9052
 7627SOL    HW234536   0.931   8.035   2.780 -2.5125 -2.7857  1.3881
 7628SOL     OW34537   0.032   8.066   2.564 -0.6363  0.2452 -0.4847
 7628SOL    HW134538  -0.015   8.145   2.603 -0.5065  0.4989 -0.8436
 7628SOL    HW234539  -0.034   8.001   2.529 -0.7766 -0.2281  0.6279
 7629SOL     OW34540   5.232   6.962   1.522 -0.0490 -0.1737  0.2139
 7629SOL    HW134541   5.138   6.975   1.553 -0.1732  0.4982 -0.4149
 7629SOL    HW234542   5.232   6.905   1.439  0.1280 -0.4644  0.4122
 7630SOL     OW34543   2.039   1.609   2.766  0.4221  0.3809 -0.5360
 7630SOL    HW134544   2.102   1.607   2.844  0.2262 -0.9947 -0.3904
 7630SOL    HW234545   2.032   1.702   2.731  1.0621  0.8908  0.6450
 7631SOL     OW34546   4.976   8.642   4.132 -0.0663 -0.1089  0.2392
 7631SOL    HW134547   5.068   8.662   4.100 -0.2493  1.3943  0.6198
 7631SOL    HW234548   4.969   8.663   4.230 -0.6756 -0.6853  0.3279
 7632SOL     OW34549   7.936   8.716   2.539  0.2308  0.0391 -0.6823
 7632SOL    HW134550   7.961   8.697   2.634 -0.1076  0.2152 -0.5567
 7632SOL    HW234551   7.918   8.630   2.491 -2.8410  0.0476  0.2971
 7633SOL     OW34552   2.238   7.471   0.469  0.4381  0.3668 -0.2206
 7633SOL    HW134553   2.165   7.538   0.474 -0.9861 -1.0959 -0.8768
 7633SOL    HW234554   2.262   7.455   0.374  0.2453 -0.5979 -0.1117
 7634SOL     OW34555   9.767   3.692   7.718  0.1275 -0.5463 -0.5177
 7634SOL    HW134556   9.749   3.692   7.620  0.3468  0.4996 -0.5696
 7634SOL    HW234557   9.809   3.605   7.745 -0.0093 -0.8636 -1.3379
 7635SOL     OW34558   5.416   2.176   1.710 -0.5177  0.3296  0.2384
 7635SOL    HW134559   5.430   2.245   1.782  0.0409 -0.0119  0.4578
 7635SOL    HW234560   5.443   2.086   1.745 -0.4141  0.1362 -0.3455
 7636SOL     OW34561   8.941   1.958   1.301  0.4279 -0.6343 -0.2430
 7636SOL    HW134562   8.934   1.942   1.202 -0.3900 -2.0574  0.0210
 7636SOL    HW234563   8.956   2.055   1.319 -0.3721 -0.2257 -1.7271
 7637SOL     OW34564   1.171   9.451   7.428 -0.0597  0.4691  0.5225
 7637SOL    HW134565   1.269   9.465   7.442  0.2113  0.8938 -1.5963
 7637SOL    HW234566   1.120   9.523   7.476  0.8141  2.0547 -0.8646
 7638SOL     OW34567   2.344   7.980   6.328 -0.1469  0.5422 -0.0663
 7638SOL    HW134568   2.330   8.053   6.261 -0.6769  0.0483 -0.4927
 7638SOL    HW234569   2.286   7.902   6.305 -2.0360  1.2080  2.2259
 7639SOL     OW34570   4.050   7.758   6.581 -0.2254  0.5883  0.1462
 7639SOL    HW134571   3.981   7.740   6.651 -1.9991  0.4589 -1.5966
 7639SOL    HW234572   4.101   7.840   6.606 -2.4220  1.9143  0.4506
 7640SOL     OW34573   9.804   0.816   3.113 -0.4317  0.2128 -0.1353
 7640SOL    HW134574   9.842   0.778   3.029 -0.3658  0.3290 -0.1585
 7640SOL    HW234575   9.704   0.812   3.109 -0.4214 -0.0940 -0.0734
 7641SOL     OW34576   6.865   7.043   5.749 -0.3929 -0.6899 -0.1545
 7641SOL    HW134577   6.846   6.956   5.702  0.1749 -1.1010  0.3778
 7641SOL    HW234578   6.788   7.105   5.735 -1.3238 -1.6896  0.4110
 7642SOL     OW34579   2.596   8.099   5.165 -0.4076 -0.2646  0.0687
 7642SOL    HW134580   2.595   8.169   5.237 -1.4615 -0.2812  0.0792
 7642SOL    HW234581   2.690   8.070   5.149  0.3944  3.0416 -1.7794
 7643SOL     OW34582   2.493   5.020   0.776 -0.3136  0.0077  0.6603
 7643SOL    HW134583   2.459   5.034   0.869 -0.0417  1.0151  0.6254
 7643SOL    HW234584   2.495   5.108   0.728 -1.0650 -0.6047 -0.5173
 7644SOL     OW34585   5.665   2.876   2.519 -0.0195  0.2101 -0.4671
 7644SOL    HW134586   5.689   2.800   2.579  1.9396  0.1780 -1.2625
 7644SOL    HW234587   5.568   2.869   2.494  0.1260 -2.0018 -0.5163
 7645SOL     OW34588   3.016   1.282  10.034 -0.4209 -0.1374  0.3488
 7645SOL    HW134589   3.020   1.301   9.936  1.1147 -1.8384  0.0593
 7645SOL    HW234590   3.070   1.350  10.083  0.6009 -0.5596 -0.1818
 7646SOL     OW34591   3.715   3.867   2.131 -0.3748  0.3963  0.1993
 7646SOL    HW134592   3.636   3.806   2.122  0.2096 -0.3718  0.1538
 7646SOL    HW234593   3.729   3.889   2.228 -1.4282  1.6055  0.0917
 7647SOL     OW34594   7.723   9.544   4.258  0.3788  0.4862 -0.6261
 7647SOL    HW134595   7.684   9.556   4.349  1.0507 -1.8432  0.0104
 7647SOL    HW234596   7.821   9.562   4.261  0.5976 -0.6525 -0.6261
 7648SOL     OW34597   1.947   3.733   7.882 -0.7900 -0.0221 -0.2339
 7648SOL    HW134598   1.951   3.633   7.885  3.0863 -0.0392 -2.1556
 7648SOL    HW234599   1.867   3.762   7.829 -0.5708 -2.1925 -1.8097
 7649SOL     OW34600   6.489   7.286   3.772  0.3408 -0.3532  0.4102
 7649SOL    HW134601   6.396   7.265   3.741 -0.3570  0.3454  1.9491
 7649SOL    HW234602   6.537   7.339   3.702 -0.8268  0.3042  0.1064
 7650SOL     OW34603   7.095   8.475   8.390  0.5247  0.1582 -0.3612
 7650SOL    HW134604   7.124   8.415   8.464  0.2839 -0.2307 -0.5808
 7650SOL    HW234605   7.140   8.564   8.399  0.2565  0.2104  0.4262
 7651SOL     OW34606   0.294   8.271   5.331  0.2076  0.9154 -0.3089
 7651SOL    HW134607   0.230   8.224   5.270  1.8454 -0.7668 -0.7736
 7651SOL    HW234608   0.361   8.322   5.276  0.2328  1.3674  0.1395
 7652SOL     OW34609   2.436   8.793   3.277 -0.4262 -0.5304 -0.1411
 7652SOL    HW134610   2.372   8.829   3.209  1.4347  0.4531 -1.3955
 7652SOL    HW234611   2.530   8.800   3.243  0.5969  0.4028  2.7142
 7653SOL     OW34612   2.617   1.558   1.445  0.3627 -0.0090  0.1038
 7653SOL    HW134613   2.600   1.602   1.357  0.4699  0.5324  0.3502
 7653SOL    HW234614   2.687   1.487   1.434  0.8648  0.5176 -0.1165
 7654SOL     OW34615   0.518   4.227   3.263  0.0016  0.0659 -0.7155
 7654SOL    HW134616   0.484   4.300   3.323 -1.6248  0.0287 -1.5916
 7654SOL    HW234617   0.552   4.151   3.319 -0.6405  0.4252  0.1726
 7655SOL     OW34618   2.227   6.887   0.783 -0.1898 -0.2749  0.3384
 7655SOL    HW134619   2.253   6.819   0.852 -0.0262 -0.4239  0.1318
 7655SOL    HW234620   2.220   6.977   0.825 -0.6694 -0.4674  0.6679
 7656SOL     OW34621   0.559   9.496   6.403  0.4409  0.6115 -0.2513
 7656SOL    HW134622   0.636   9.561   6.403 -0.7052  2.0058 -0.3817
 7656SOL    HW234623   0.544   9.462   6.311 -0.4757  2.0243 -0.6341
 7657SOL     OW34624   2.172   0.613   5.829  0.2073 -0.2194 -0.1137
 7657SOL    HW134625   2.135   0.651   5.744  1.3858 -0.0755 -0.5727
 7657SOL    HW234626   2.141   0.668   5.906 -3.0927 -1.8806 -0.1275
 7658SOL     OW34627   3.327   1.099   6.654  0.0560  0.6519 -0.3315
 7658SOL    HW134628   3.232   1.068   6.645 -1.0817  3.5966  1.0430
 7658SOL    HW234629   3.342   1.178   6.594  1.6467  0.2647 -0.4683
 7659SOL     OW34630   9.359   2.045   0.773 -0.6599 -0.8128  0.2077
 7659SOL    HW134631   9.422   2.101   0.828  1.0717 -3.2699  0.7883
 7659SOL    HW234632   9.404   2.018   0.688 -1.1153 -2.1200  0.3721
 7660SOL     OW34633   4.656   1.959   1.053 -0.1147 -0.5664 -0.0815
 7660SOL    HW134634   4.613   1.920   0.971  0.6563  0.0640 -0.8026
 7660SOL    HW234635   4.589   1.965   1.127 -1.1440 -0.0312 -1.0425
 7661SOL     OW34636   8.985   7.665   2.481 -0.0628 -0.2042  0.2952
 7661SOL    HW134637   8.995   7.647   2.579  5.5319  1.1532  0.1387
 7661SOL    HW234638   8.956   7.759   2.467 -2.3937 -0.8563  0.6416
 7662SOL     OW34639   5.765   7.777   2.208 -0.5704 -0.3187  0.0364
 7662SOL    HW134640   5.835   7.792   2.139 -0.8257  0.4067 -0.0675
 7662SOL    HW234641   5.689   7.840   2.193  0.5216  1.6928  2.5236
 7663SOL     OW34642   4.739   4.871   3.131  0.6768  0.3126 -0.2144
 7663SOL    HW134643   4.837   4.872   3.112  0.7748  0.6380  0.2998
 7663SOL    HW234644   4.689   4.911   3.054  0.8035 -1.4238 -1.2390
 7664SOL     OW34645   2.955   1.068   0.091  0.0946 -0.2404  0.5067
 7664SOL    HW134646   2.987   1.139   0.028  2.5075 -0.7241  1.1113
 7664SOL    HW234647   2.872   1.099   0.137 -0.4925  0.9887 -1.3480
 7665SOL     OW34648   6.675   4.316   2.793 -0.1382  0.2181 -0.3148
 7665SOL    HW134649   6.688   4.354   2.701 -0.2152 -0.2190 -0.5054
 7665SOL    HW234650   6.750   4.346   2.852  1.6427 -2.1018 -1.3513
 7666SOL     OW34651   9.067   8.917   3.637 -0.0381  0.3051  0.4535
 7666SOL    HW134652   9.158   8.956   3.652 -0.4005  1.8445 -1.0699
 7666SOL    HW234653   9.069   8.861   3.554 -0.8824  1.9139 -0.7007
 7667SOL     OW34654   3.015   6.011   2.410  0.1376 -0.0540 -0.3035
 7667SOL    HW134655   3.110   5.990   2.386 -0.8406 -1.7589 -2.8543
 7667SOL    HW234656   2.989   6.098   2.368  0.4745  0.2785  0.1697
 7668SOL     OW34657   9.331   4.664   7.389 -0.0591  0.3476 -0.1974
 7668SOL    HW134658   9.398   4.609   7.437 -0.7256  0.2719  0.6584
 7668SOL    HW234659   9.239   4.634   7.414 -0.4165  0.4090 -1.4020
 7669SOL     OW34660   0.668   2.690   6.146 -0.7746  0.0677 -0.1081
 7669SOL    HW134661   0.605   2.620   6.111  2.3002 -2.5212 -0.6362
 7669SOL    HW234662   0.712   2.657   6.229  0.6155  1.4068 -0.2958
 7670SOL     OW34663   7.799   9.993   3.462 -0.2804 -0.5612  0.1151
 7670SOL    HW134664   7.761   9.940   3.386  0.7837  0.5675 -1.2252
 7670SOL    HW234665   7.892   9.962   3.481 -0.6540 -1.0395  1.1483
 7671SOL     OW34666   4.600   6.035   2.219  0.5086 -0.0851  0.5280
 7671SOL    HW134667   4.616   5.939   2.200 -2.5737 -0.5219 -0.0802
 7671SOL    HW234668   4.653   6.091   2.155  1.9706 -1.3375  0.6004
 7672SOL     OW34669   2.090   5.747   6.853  0.0473  0.1917 -0.0336
 7672SOL    HW134670   2.045   5.818   6.907  0.8831  1.2885 -0.7380
 7672SOL    HW234671   2.065   5.657   6.887 -3.8695  0.6868 -1.3242
 7673SOL     OW34672   1.524   9.416   3.167  0.1334 -0.7064  0.1025
 7673SOL    HW134673   1.599   9.447   3.108  0.7191  1.1172  1.7181
 7673SOL    HW234674   1.559   9.347   3.231  0.1351 -0.8048 -0.0069
 7674SOL     OW34675   5.276   9.431   5.054  0.5799  0.5368 -0.3468
 7674SOL    HW134676   5.211   9.374   5.003  0.6084 -0.0491  0.2672
 7674SOL    HW234677   5.343   9.470   4.990 -0.9706  1.9889 -1.1425
 7675SOL     OW34678   7.084   4.374   2.737 -0.1975  0.1554 -0.0524
 7675SOL    HW134679   7.105   4.456   2.684  0.7283  0.5785  0.9600
 7675SOL    HW234680   7.155   4.306   2.721 -0.7234 -0.2893 -0.5323
 7676SOL     OW34681   6.501   4.235   2.049 -0.3475 -0.5219  0.1935
 7676SOL    HW134682   6.595   4.206   2.033 -0.1974  0.7549 -1.3175
 7676SOL    HW234683   6.439   4.160   2.027  0.2721 -1.1780  0.6525
 7677SOL     OW34684   4.036   9.555   3.720 -0.0668 -0.7199 -0.0155
 7677SOL    HW134685   4.107   9.607   3.673 -1.5793  0.2368 -1.2881
 7677SOL    HW234686   4.042   9.572   3.818  0.1812  0.9389 -0.3075
 7678SOL     OW34687   2.531   9.130   6.110  0.6300 -0.4780  0.0265
 7678SOL    HW134688   2.552   9.032   6.116  1.2743 -0.3936 -0.6763
 7678SOL    HW234689   2.500   9.163   6.198 -0.4984 -1.5268  0.0440
 7679SOL     OW34690   3.980   1.397   3.510 -0.1632  0.8177  0.1429
 7679SOL    HW134691   3.939   1.446   3.433  0.5676  0.5562 -0.4180
 7679SOL    HW234692   4.079   1.389   3.496  0.2078  2.0922  1.8300
 7680SOL     OW34693   2.092   6.782   2.020 -0.0086 -0.0328 -0.5792
 7680SOL    HW134694   2.025   6.842   2.065  1.3418  1.1911 -0.1287
 7680SOL    HW234695   2.160   6.753   2.087 -0.1715 -1.4157 -0.9931
 7681SOL     OW34696   7.203   8.665   4.142  0.5455 -0.0639 -0.0226
 7681SOL    HW134697   7.272   8.731   4.111  1.5284 -1.0189  0.1084
 7681SOL    HW234698   7.164   8.696   4.229  2.9446 -1.0070  1.4207
 7682SOL     OW34699   9.590   6.606   0.289  0.1701  0.0189  0.2382
 7682SOL    HW134700   9.491   6.612   0.274  0.0590 -0.3441  0.8032
 7682SOL    HW234701   9.616   6.511   0.308  0.6937  0.0403 -0.3687
 7683SOL     OW34702   5.296   0.388   5.654  0.2052 -0.2124 -0.6115
 7683SOL    HW134703   5.215   0.434   5.689 -0.8149  0.5140 -3.7507
 7683SOL    HW234704   5.299   0.293   5.687 -1.1364  0.1923  0.6736
 7684SOL     OW34705   7.990   5.560   0.404 -0.1092  0.0313 -0.2729
 7684SOL    HW134706   7.992   5.475   0.352  1.5503  1.3024 -2.3689
 7684SOL    HW234707   7.944   5.631   0.351  0.4804  1.0140  0.5038
 7685SOL     OW34708   6.961   8.052   3.820 -0.0406  0.4741  0.5895
 7685SOL    HW134709   7.010   8.073   3.736 -0.5541 -0.5896  0.0196
 7685SOL    HW234710   6.994   8.112   3.893  1.5173  0.3463  0.0161
 7686SOL     OW34711   8.785   8.379   3.330  0.2531 -0.2405  0.3096
 7686SOL    HW134712   8.699   8.390   3.380 -0.3583 -0.6221 -0.6516
 7686SOL    HW234713   8.816   8.284   3.338 -0.8094 -0.7592 -1.5731
 7687SOL     OW34714   3.757   0.201   3.777 -0.4067  0.7241 -0.0311
 7687SOL    HW134715   3.701   0.198   3.694 -1.7897 -1.1616  0.9529
 7687SOL    HW234716   3.762   0.110   3.817 -0.8110  1.8640  2.6778
 7688SOL     OW34717   0.990   5.187   6.847  0.0927 -0.4574  0.0769
 7688SOL    HW134718   0.979   5.198   6.748  1.5363  0.9592  0.0581
 7688SOL    HW234719   0.997   5.277   6.890  0.6009 -1.0886  1.3416
 7689SOL     OW34720   3.956   8.471   7.995  0.1894  0.4014 -0.2414
 7689SOL    HW134721   4.053   8.451   7.990  0.1519  0.2820 -0.4572
 7689SOL    HW234722   3.916   8.422   8.072  0.3881  0.8055  0.1233
 7690SOL     OW34723   0.499   1.238   3.071  0.7842  0.1212  0.0606
 7690SOL    HW134724   0.584   1.222   3.022  0.4822  0.5363 -0.6074
 7690SOL    HW234725   0.448   1.312   3.027 -0.0110 -0.2499  0.3428
 7691SOL     OW34726   3.337   7.172   3.615 -0.1764  0.2491 -0.0913
 7691SOL    HW134727   3.406   7.211   3.555 -0.8520  1.4160 -0.1260
 7691SOL    HW234728   3.378   7.153   3.705  0.4113  0.0658 -0.3963
 7692SOL     OW34729   0.922   7.864   3.162 -0.0488 -0.5565 -0.2615
 7692SOL    HW134730   0.906   7.776   3.118  2.8278 -0.5415 -1.4432
 7692SOL    HW234731   1.009   7.862   3.210 -1.1793  0.8253  1.9480
 7693SOL     OW34732   4.555   8.147   2.680 -0.6462  0.8540 -0.2434
 7693SOL    HW134733   4.519   8.070   2.734 -0.0804  1.5111  1.0856
 7693SOL    HW234734   4.488   8.221   2.678 -0.9333  0.5797 -0.9991
 7694SOL     OW34735   3.740   1.039   6.406  0.8440 -0.7857  0.4768
 7694SOL    HW134736   3.719   0.962   6.467 -0.1086  0.5921  1.9261
 7694SOL    HW234737   3.657   1.092   6.389  1.4862 -0.0814 -0.5434
 7695SOL     OW34738   4.481   9.943   6.245 -0.3456  0.1779  0.2797
 7695SOL    HW134739   4.443  10.035   6.235  0.1237  0.6076  2.2773
 7695SOL    HW234740   4.479   9.916   6.341  0.9713 -1.2786 -0.0723
 7696SOL     OW34741   2.033   8.342   7.588 -0.1886 -0.3787  0.0294
 7696SOL    HW134742   2.119   8.339   7.639  0.3126  0.8964 -0.7342
 7696SOL    HW234743   1.990   8.431   7.600 -0.2203 -0.1720 -1.5232
 7697SOL     OW34744   0.057   9.827   1.747 -0.2277 -0.1107 -0.0546
 7697SOL    HW134745   0.006   9.830   1.833  0.2748  2.0729  0.1955
 7697SOL    HW234746   0.047   9.737   1.705 -1.6301 -0.7374  1.5905
 7698SOL     OW34747   5.845   7.976   5.268  0.1087  0.3415 -0.3292
 7698SOL    HW134748   5.869   7.982   5.365 -3.5847  2.6643  0.5419
 7698SOL    HW234749   5.927   7.956   5.214  2.2695 -0.7397  3.2253
 7699SOL     OW34750   0.187   9.570   1.557  0.2175 -0.2090 -0.1128
 7699SOL    HW134751   0.239   9.555   1.642 -0.3773 -3.0626 -0.1965
 7699SOL    HW234752   0.228   9.645   1.506  1.6956  0.3619  1.8263
 7700SOL     OW34753   0.944   5.154   7.601  0.0986 -0.0964 -0.8416
 7700SOL    HW134754   0.977   5.222   7.667 -1.7685  0.2161 -0.1945
 7700SOL    HW234755   1.006   5.076   7.599  0.0535 -0.2275  1.5056
 7701SOL     OW34756   0.414   2.377   5.783  0.2391  0.3695  0.4803
 7701SOL    HW134757   0.325   2.334   5.801  0.7060 -0.0776  1.8061
 7701SOL    HW234758   0.462   2.326   5.712 -0.4413  0.4268 -0.0185
 7702SOL     OW34759   0.441   2.242   7.653 -0.3741  0.0521  1.1097
 7702SOL    HW134760   0.440   2.339   7.678 -1.4181  0.1723  0.6070
 7702SOL    HW234761   0.384   2.228   7.572  1.0172 -0.7315  0.2509
 7703SOL     OW34762   4.612   1.415   5.846  0.3484  0.3385 -0.1670
 7703SOL    HW134763   4.638   1.509   5.871  1.7850 -0.2199  0.4445
 7703SOL    HW234764   4.594   1.411   5.748 -3.0756  2.0283  0.3043
 7704SOL     OW34765   0.942   9.264   3.752 -0.3480 -0.2139 -0.1318
 7704SOL    HW134766   0.988   9.182   3.718 -0.1116 -0.0185 -0.2857
 7704SOL    HW234767   0.956   9.271   3.851  0.9940  0.4940 -0.3548
 7705SOL     OW34768   5.771   9.046   2.028 -0.3287  0.1651  0.1554
 7705SOL    HW134769   5.790   9.112   2.100 -0.0783  0.9854 -0.6525
 7705SOL    HW234770   5.847   8.981   2.021 -0.6731 -0.3530  1.0916
 7706SOL     OW34771   2.538   7.767   3.435  0.4395 -0.3814 -0.3085
 7706SOL    HW134772   2.574   7.743   3.525  0.6569 -0.4209 -0.4052
 7706SOL    HW234773   2.595   7.839   3.395 -0.2348  0.3290 -0.0007
 7707SOL     OW34774   4.723   1.319   6.142 -0.1140 -0.6128  0.1834
 7707SOL    HW134775   4.636   1.273   6.125  0.1468 -1.3207  0.7337
 7707SOL    HW234776   4.714   1.416   6.119 -0.9241 -0.7597 -0.1571
 7708SOL     OW34777   1.557   3.550   3.858 -0.2241 -0.3837 -0.1727
 7708SOL    HW134778   1.535   3.478   3.792 -0.1420 -0.3572 -0.2298
 7708SOL    HW234779   1.477   3.572   3.913  0.3889 -2.2859  1.5417
 7709SOL     OW34780   4.349   2.927   4.402 -0.0229  0.4009  0.8258
 7709SOL    HW134781   4.257   2.958   4.376 -0.4027 -0.6427  0.8879
 7709SOL    HW234782   4.342   2.869   4.483  0.6816  0.1858  0.7328
 7710SOL     OW34783   8.253   7.621   5.890 -0.0619  0.0888  0.5368
 7710SOL    HW134784   8.271   7.627   5.989 -1.5056  0.7931  0.7721
 7710SOL    HW234785   8.233   7.527   5.865  1.1393 -0.2351  0.7580
 7711SOL     OW34786   2.169   1.912   0.261 -0.2306  0.1489  0.5152
 7711SOL    HW134787   2.213   1.917   0.171  1.1912  0.7625  1.2315
 7711SOL    HW234788   2.137   1.818   0.276  0.0368 -0.1012 -0.3903
 7712SOL     OW34789   9.926   3.422   5.060 -0.2504  0.6119 -0.4827
 7712SOL    HW134790   9.989   3.498   5.050  0.0234  0.6170  1.2359
 7712SOL    HW234791   9.900   3.412   5.156 -0.9212 -0.9467 -0.8092
 7713SOL     OW34792   0.138   7.274   5.356  0.0643 -0.3980  0.3987
 7713SOL    HW134793   0.040   7.284   5.343 -0.1683 -3.4295 -0.5059
 7713SOL    HW234794   0.177   7.220   5.281  2.4199  0.7055  0.7687
 7714SOL     OW34795   9.768   4.732   3.359  0.5276 -0.1982  0.0869
 7714SOL    HW134796   9.710   4.681   3.295  0.1252 -1.6308  1.5663
 7714SOL    HW234797   9.767   4.686   3.448  1.7227  1.3289  0.8942
 7715SOL     OW34798   1.621   1.124   1.727 -0.0408  0.2054 -0.1168
 7715SOL    HW134799   1.661   1.082   1.645 -0.0906 -0.9258  0.4350
 7715SOL    HW234800   1.521   1.130   1.715 -0.0166  0.3191 -0.2656
 7716SOL     OW34801   9.187   7.849   7.399 -0.3591  0.2632 -0.0324
 7716SOL    HW134802   9.111   7.794   7.366  0.2994 -0.2364 -0.7475
 7716SOL    HW234803   9.200   7.833   7.496 -1.0211  0.1764  0.0431
 7717SOL     OW34804   2.361   4.996   3.678 -0.6356 -0.7582  0.2653
 7717SOL    HW134805   2.346   5.094   3.659 -1.0079 -1.2202 -1.9242
 7717SOL    HW234806   2.416   4.987   3.761 -1.6916  1.2834  1.2422
 7718SOL     OW34807   3.323   0.151   6.039 -0.0598 -0.1724  0.0698
 7718SOL    HW134808   3.233   0.109   6.031  0.4890 -1.1740 -1.0176
 7718SOL    HW234809   3.322   0.240   5.994 -0.3543 -0.4335 -0.4471
 7719SOL     OW34810   8.993   5.601   0.522  0.4811 -0.0186 -0.6404
 7719SOL    HW134811   9.023   5.695   0.502  0.2567  0.2519  0.2750
 7719SOL    HW234812   9.064   5.537   0.493  0.6561  0.4370 -1.2313
 7720SOL     OW34813   7.786   7.310   8.352  0.6509  0.0931 -0.4055
 7720SOL    HW134814   7.860   7.337   8.290 -0.8092  4.5136 -0.4429
 7720SOL    HW234815   7.822   7.297   8.444  1.9361 -0.8671 -1.0336
 7721SOL     OW34816   0.146   3.679   3.226  0.4903 -0.2243 -0.2398
 7721SOL    HW134817   0.201   3.680   3.310 -1.2069  0.4736  0.9095
 7721SOL    HW234818   0.070   3.615   3.238  0.6388 -0.6458 -1.5297
 7722SOL     OW34819   8.796   6.336   1.199  0.0958  0.4673 -0.1662
 7722SOL    HW134820   8.883   6.365   1.240  0.5607 -0.8510 -0.1931
 7722SOL    HW234821   8.800   6.352   1.100  1.4041 -2.1343 -0.5830
 7723SOL     OW34822   7.814   8.922   5.856 -0.1257  0.5111  0.2650
 7723SOL    HW134823   7.860   8.913   5.768  0.0101 -0.0446  0.3908
 7723SOL    HW234824   7.717   8.937   5.842 -0.0083  1.0179  0.0079
 7724SOL     OW34825   9.855   1.856   0.831 -0.3548  0.3452 -0.0193
 7724SOL    HW134826   9.794   1.930   0.859 -0.5800  0.7811 -1.5836
 7724SOL    HW234827   9.814   1.768   0.856 -1.5133  0.6419 -0.8327
 7725SOL     OW34828   2.272   8.788   0.250 -0.6139 -0.0548  0.2630
 7725SOL    HW134829   2.194   8.735   0.285 -0.3599 -0.1349  0.7195
 7725SOL    HW234830   2.355   8.733   0.258 -0.3757  0.3510  0.5817
 7726SOL     OW34831   9.526   1.443   7.237 -0.1197  0.3062 -0.1485
 7726SOL    HW134832   9.438   1.437   7.284 -0.3215  0.8768 -0.4502
 7726SOL    HW234833   9.533   1.369   7.170 -1.0499  1.2013 -1.2545
 7727SOL     OW34834   0.640   1.673   2.331 -0.5308 -0.1306  0.8456
 7727SOL    HW134835   0.567   1.604   2.331  0.1073 -0.8053  0.7124
 7727SOL    HW234836   0.649   1.710   2.239  0.5540 -1.3915  0.4292
 7728SOL     OW34837   2.969   9.740   4.469 -0.0991 -0.3813 -0.0781
 7728SOL    HW134838   3.026   9.742   4.387 -0.4767  0.1511 -0.3261
 7728SOL    HW234839   2.872   9.740   4.443 -0.2344 -2.2927  0.3091
 7729SOL     OW34840   5.530   1.639   4.604 -0.0147  0.0618 -0.1278
 7729SOL    HW134841   5.527   1.561   4.541  1.1404 -0.1990  0.1366
 7729SOL    HW234842   5.436   1.663   4.631 -0.4481 -0.5479 -1.0462
 7730SOL     OW34843   0.864   3.770   2.902  0.3314  0.4948  0.1554
 7730SOL    HW134844   0.951   3.729   2.928  0.5400  1.0869  0.4021
 7730SOL    HW234845   0.827   3.721   2.823 -0.3194 -1.3214  1.5538
 7731SOL     OW34846   0.939   6.878   1.076  0.3169 -0.0422  0.2367
 7731SOL    HW134847   0.849   6.835   1.082  0.0576  0.6137  1.2133
 7731SOL    HW234848   0.929   6.976   1.061  0.7892  0.4432  2.8045
 7732SOL     OW34849   1.286   1.488   5.896 -0.0729  0.2416 -0.4629
 7732SOL    HW134850   1.263   1.469   5.991 -2.2088 -1.5113 -1.2831
 7732SOL    HW234851   1.258   1.582   5.874 -2.6508 -0.4123 -0.2211
 7733SOL     OW34852   4.212   4.213   0.299 -0.3672 -0.6205  0.0115
 7733SOL    HW134853   4.277   4.275   0.255  0.1984 -0.6025  0.8522
 7733SOL    HW234854   4.260   4.131   0.330 -0.9013 -0.9640 -0.0795
 7734SOL     OW34855   2.583   1.871   0.494  0.1071 -0.4273  0.1839
 7734SOL    HW134856   2.640   1.859   0.412  0.5457 -0.0548  0.4344
 7734SOL    HW234857   2.638   1.909   0.568 -0.5109  0.1235  0.3682
 7735SOL     OW34858   7.158   6.290   1.523  0.5729  0.0898 -0.0565
 7735SOL    HW134859   7.219   6.356   1.480  1.7854 -1.4711 -0.8026
 7735SOL    HW234860   7.172   6.200   1.482  0.6614 -1.1346  2.5446
 7736SOL     OW34861   2.339   6.936   1.732 -0.3285  0.7518  0.2003
 7736SOL    HW134862   2.345   6.878   1.812 -1.9572  1.3343  0.7614
 7736SOL    HW234863   2.402   7.013   1.742  0.6327 -0.0275  0.1910
 7737SOL     OW34864   1.114   4.950   7.583  0.3417  0.0191  0.3507
 7737SOL    HW134865   1.150   4.932   7.491  2.0048 -0.1557  1.0343
 7737SOL    HW234866   1.138   4.875   7.644  0.4513  0.7996  1.2694
 7738SOL     OW34867   1.308   1.311   3.004 -0.4408  0.6327  0.0659
 7738SOL    HW134868   1.358   1.390   2.968  0.3929  0.0380 -0.1045
 7738SOL    HW234869   1.359   1.272   3.081 -1.8725  1.4897  1.4740
 7739SOL     OW34870   1.159   7.153   4.151  0.1609 -0.4336 -0.3815
 7739SOL    HW134871   1.240   7.107   4.114  1.4204  1.6945 -0.3724
 7739SOL    HW234872   1.111   7.201   4.077 -0.4134 -0.6875 -0.1773
 7740SOL     OW34873   0.892   3.819   4.158  0.1940 -0.2746 -0.3842
 7740SOL    HW134874   0.965   3.751   4.158  0.8630  0.4477 -0.1729
 7740SOL    HW234875   0.816   3.785   4.102 -0.5014 -2.2937  1.6600
 7741SOL     OW34876   1.493   8.780   5.866  0.3807  0.1586  0.3002
 7741SOL    HW134877   1.486   8.752   5.961  0.1327  0.0579  0.2507
 7741SOL    HW234878   1.463   8.875   5.856  0.0347  0.0477  0.2601
 7742SOL     OW34879   3.573   8.752   6.510  0.0350  0.2618  0.2977
 7742SOL    HW134880   3.631   8.674   6.533 -0.2770 -0.2315 -0.5490
 7742SOL    HW234881   3.526   8.784   6.592  0.1153 -0.4941  0.6436
 7743SOL     OW34882   7.289   7.809   3.383  0.4783 -0.3865  0.2515
 7743SOL    HW134883   7.250   7.798   3.292  0.7167 -0.5780  0.1724
 7743SOL    HW234884   7.350   7.888   3.384  1.9959 -1.5120 -0.2777
 7744SOL     OW34885   4.851   6.880   2.593  0.0674  0.4806 -0.2090
 7744SOL    HW134886   4.788   6.812   2.555  1.8268 -0.6335 -1.2405
 7744SOL    HW234887   4.829   6.896   2.689 -1.7689  0.1187 -0.5467
 7745SOL     OW34888   8.857   7.667   7.785  0.1482 -1.1036  0.0814
 7745SOL    HW134889   8.876   7.569   7.778  1.0797 -0.8986 -0.4182
 7745SOL    HW234890   8.940   7.718   7.763 -0.3113 -0.2040  0.4267
 7746SOL     OW34891   4.330   1.192   1.096  0.1972 -0.1570  0.0835
 7746SOL    HW134892   4.425   1.177   1.068  0.5206  0.0390  1.0481
 7746SOL    HW234893   4.278   1.107   1.088  0.3018 -0.1243 -1.0175
 7747SOL     OW34894   5.354   5.955   2.302 -0.2126 -0.2875 -0.3855
 7747SOL    HW134895   5.268   5.955   2.252 -0.0242 -0.7496 -0.7054
 7747SOL    HW234896   5.431   5.942   2.239 -0.0509 -2.1032  0.1369
 7748SOL     OW34897   1.654   9.645   0.946  0.1986  0.1990 -0.0297
 7748SOL    HW134898   1.700   9.710   0.885  4.0727 -2.5948 -0.2352
 7748SOL    HW234899   1.584   9.596   0.894  1.2115  0.1670 -1.3963
 7749SOL     OW34900   1.520   8.856   4.093  0.1990 -0.1140 -0.0075
 7749SOL    HW134901   1.528   8.910   4.176 -0.8150 -1.5769  1.0539
 7749SOL    HW234902   1.609   8.816   4.070  0.5912  0.7036  0.0729
 7750SOL     OW34903   3.170   3.683   6.370 -0.5528  0.0027 -0.3710
 7750SOL    HW134904   3.105   3.753   6.399 -1.0363 -0.2086 -0.9346
 7750SOL    HW234905   3.236   3.667   6.443 -1.3509 -0.0310  0.3557
 7751SOL     OW34906   2.382   3.760   5.007 -0.5495  0.0168 -0.0964
 7751SOL    HW134907   2.433   3.795   4.928 -1.3379  0.6444 -0.3306
 7751SOL    HW234908   2.431   3.784   5.091 -1.6247  2.6801 -0.1810
 7752SOL     OW34909   8.769   1.011   0.426  0.5935 -0.5306 -0.0992
 7752SOL    HW134910   8.869   1.009   0.428  0.6510 -0.1231 -1.8354
 7752SOL    HW234911   8.736   1.086   0.482  1.1984 -1.4969  1.5979
 7753SOL     OW34912   1.593   9.482   1.465 -0.3050  0.2303 -0.7494
 7753SOL    HW134913   1.690   9.460   1.451 -0.0636  0.0240  1.0359
 7753SOL    HW234914   1.582   9.581   1.472 -0.1294  0.2275 -0.3960
 7754SOL     OW34915   2.989   1.832   3.837  0.6690 -0.0044  0.6364
 7754SOL    HW134916   2.946   1.743   3.825  0.2184  0.2966 -0.0268
 7754SOL    HW234917   3.083   1.828   3.801  0.7786 -0.3171  0.9568
 7755SOL     OW34918   1.937   2.935   7.578 -0.7134 -0.5611  0.2944
 7755SOL    HW134919   1.937   2.984   7.491 -1.5163  0.4335  0.8506
 7755SOL    HW234920   1.934   2.837   7.561  2.2541 -0.4870 -0.8471
 7756SOL     OW34921   6.811   3.853   1.777  0.4456  0.4699  0.1725
 7756SOL    HW134922   6.730   3.890   1.821  0.7628  0.8050  0.4818
 7756SOL    HW234923   6.871   3.812   1.846  0.1003 -0.6375 -0.1615
 7757SOL     OW34924   4.202   9.185   0.248  0.4530  0.0771 -0.2435
 7757SOL    HW134925   4.118   9.237   0.234  2.3404  2.4619 -3.1143
 7757SOL    HW234926   4.279   9.248   0.261  2.2715 -2.0308 -0.5368
 7758SOL     OW34927   9.053   6.878   2.044  0.0855 -0.0988  0.0039
 7758SOL    HW134928   9.040   6.977   2.033 -0.2392 -0.1032  0.3356
 7758SOL    HW234929   9.126   6.847   1.983  0.4285  0.4090  0.1470
 7759SOL     OW34930   0.416   8.219   2.050  0.5602  0.0038 -0.1647
 7759SOL    HW134931   0.476   8.142   2.029  0.9732  0.9775 -2.7993
 7759SOL    HW234932   0.438   8.296   1.989 -1.7653  1.2018  0.4376
 7760SOL     OW34933   9.199   5.270   6.211 -0.5319 -0.1545  0.0658
 7760SOL    HW134934   9.269   5.208   6.174  0.1592 -0.3388  1.6471
 7760SOL    HW234935   9.117   5.265   6.154  0.5721 -0.2790 -1.5532
 7761SOL     OW34936   8.992   9.120   2.998  0.0943 -0.1524 -0.2270
 7761SOL    HW134937   8.957   9.064   3.073 -0.1840 -0.2125 -0.4013
 7761SOL    HW234938   8.948   9.210   3.000 -0.4757 -0.4092 -0.7638
 7762SOL     OW34939   1.522   8.171   5.496  0.1623 -0.0598 -0.3911
 7762SOL    HW134940   1.539   8.073   5.501  0.6615  0.0440  0.0440
 7762SOL    HW234941   1.431   8.191   5.531 -0.0198 -0.3904 -0.6730
 7763SOL     OW34942   9.226   7.332   7.981  0.0062 -0.3283 -0.0381
 7763SOL    HW134943   9.175   7.249   8.000  1.4645 -1.0388  0.8025
 7763SOL    HW234944   9.172   7.390   7.920 -0.6993 -2.1985 -1.2287
 7764SOL     OW34945   9.614   0.712   3.776  0.0477  0.2041 -0.0767
 7764SOL    HW134946   9.600   0.752   3.867  1.5956 -0.4171  0.4559
 7764SOL    HW234947   9.618   0.612   3.784 -0.4367  0.1086 -0.9285
 7765SOL     OW34948   3.398   9.377   6.747  0.2112  0.0045  0.1056
 7765SOL    HW134949   3.371   9.359   6.652  0.5677 -0.5025  0.0936
 7765SOL    HW234950   3.497   9.386   6.752  0.1635  0.3711  0.3767
 7766SOL     OW34951   8.575   9.923   7.461  0.4462  0.1909 -0.3764
 7766SOL    HW134952   8.538   9.861   7.391  0.6981  0.1599 -0.4829
 7766SOL    HW234953   8.657   9.968   7.425 -0.3055  1.3511 -0.6706
 7767SOL     OW34954   3.463   9.486   4.760 -0.4580 -0.7809  0.3777
 7767SOL    HW134955   3.367   9.473   4.784 -0.5354  1.2506  1.3319
 7767SOL    HW234956   3.521   9.448   4.832 -0.5838 -0.7325  0.5047
 7768SOL     OW34957   3.154   3.661   4.287 -0.1856  0.0992 -0.1600
 7768SOL    HW134958   3.174   3.674   4.384  0.0116 -0.4413 -0.1251
 7768SOL    HW234959   3.186   3.740   4.235 -2.0957  1.3074  0.4486
 7769SOL     OW34960   0.077   7.707   1.240  0.3994 -0.6281 -0.4358
 7769SOL    HW134961  -0.007   7.724   1.292  0.7076  0.1667 -0.1882
 7769SOL    HW234962   0.053   7.672   1.149 -0.1676 -1.2352 -0.0565
 7770SOL     OW34963   6.882   5.361   6.748 -0.1088 -0.2180  0.2557
 7770SOL    HW134964   6.894   5.265   6.723  0.7666 -0.3243  1.0417
 7770SOL    HW234965   6.785   5.380   6.763 -0.4156 -0.6576 -1.1432
 7771SOL     OW34966   2.105   8.077   3.378 -0.4126 -0.3453 -0.0643
 7771SOL    HW134967   2.023   8.114   3.422 -0.3622 -1.5445  1.0718
 7771SOL    HW234968   2.078   8.004   3.315 -0.4817  1.3379 -2.0599
 7772SOL     OW34969   8.546   5.232   3.128 -0.5536 -0.3265 -0.3655
 7772SOL    HW134970   8.528   5.153   3.187 -0.8779 -0.2466 -0.3589
 7772SOL    HW234971   8.516   5.316   3.175 -1.8810 -0.3716 -1.1180
 7773SOL     OW34972   8.933   1.898   4.893  0.1875  0.1458 -0.1441
 7773SOL    HW134973   8.908   1.814   4.941  0.6644  1.4541  2.4971
 7773SOL    HW234974   8.955   1.969   4.960  1.8515  1.7676 -2.3436
 7774SOL     OW34975   8.412   1.294   1.057 -0.0146 -0.2703  0.3878
 7774SOL    HW134976   8.365   1.337   1.134 -3.2272 -2.4636 -0.2426
 7774SOL    HW234977   8.439   1.201   1.083 -0.6953 -0.8535 -0.9341
 7775SOL     OW34978   5.569   0.448   4.578 -0.5750 -0.1778  0.0316
 7775SOL    HW134979   5.609   0.367   4.536 -0.7683 -0.3511  0.1832
 7775SOL    HW234980   5.469   0.440   4.579 -0.7333  1.1767 -2.2043
 7776SOL     OW34981   9.913   9.739   6.652 -0.3431  0.0583 -0.1531
 7776SOL    HW134982   9.842   9.670   6.666 -0.8867  0.7556  0.5625
 7776SOL    HW234983   9.999   9.706   6.689 -1.1725  0.8012  2.5512
 7777SOL     OW34984   8.615   7.053   5.586 -0.2430 -0.1105 -0.0049
 7777SOL    HW134985   8.551   7.124   5.556  1.0110  1.0953  0.1355
 7777SOL    HW234986   8.564   6.977   5.626 -1.6098  0.6606 -0.2584
 7778SOL     OW34987   0.270   5.573   6.357 -0.0542  0.0580 -0.1763
 7778SOL    HW134988   0.222   5.539   6.276 -1.6019 -0.7989  1.0769
 7778SOL    HW234989   0.340   5.638   6.329 -0.7185 -0.0628 -2.1959
 7779SOL     OW34990   9.194   8.234   3.765  0.0752 -0.2209  0.4419
 7779SOL    HW134991   9.243   8.154   3.801 -2.8855 -2.4291 -0.2254
 7779SOL    HW234992   9.235   8.261   3.678 -0.1810 -2.4068 -0.4054
 7780SOL     OW34993   3.216   1.984   1.448 -0.0669 -0.1630 -0.6580
 7780SOL    HW134994   3.194   1.995   1.351  0.8430 -1.3684 -1.0177
 7780SOL    HW234995   3.132   1.965   1.499 -0.4087 -0.5903 -1.3754
 7781SOL     OW34996   8.005   5.794   5.851  0.8310  0.2735 -0.6256
 7781SOL    HW134997   8.047   5.715   5.806 -0.1029 -0.1676 -0.7390
 7781SOL    HW234998   7.993   5.868   5.784 -0.9763 -0.5408 -1.2601
 7782SOL     OW34999   9.587   0.275   7.804 -0.5745  0.5766  0.8342
 7782SOL    HW135000   9.584   0.362   7.755 -2.8232  0.3154  0.4899
 7782SOL    HW235001   9.541   0.204   7.751 -0.8423 -0.2835  2.1772
 7783SOL     OW35002   3.771   1.138   4.698  0.3124 -0.5588  0.5336
 7783SOL    HW135003   3.840   1.163   4.766 -1.1128  1.1595  1.3937
 7783SOL    HW235004   3.725   1.054   4.727 -1.4899  1.0748  2.7031
 7784SOL     OW35005   6.087   7.572   6.337  0.4292  0.2002  0.1468
 7784SOL    HW135006   5.995   7.601   6.309  1.0478  1.1692 -0.8971
 7784SOL    HW235007   6.104   7.604   6.431  0.6150  2.1665 -0.5295
 7785SOL     OW35008   8.329   7.450   3.519  0.5191 -0.0149  0.1973
 7785SOL    HW135009   8.329   7.370   3.579  2.6144 -0.1513  0.0821
 7785SOL    HW235010   8.373   7.426   3.432  0.2769  0.9948 -0.2112
 7786SOL     OW35011   1.720   8.701   3.930  0.0853  0.7351  0.1731
 7786SOL    HW135012   1.810   8.739   3.913  0.2352 -0.1777 -1.1144
 7786SOL    HW235013   1.684   8.658   3.847 -1.1706  0.3381  0.8892
 7787SOL     OW35014   5.215   9.576   2.364 -0.1164 -0.1317  0.0315
 7787SOL    HW135015   5.166   9.560   2.279 -0.4576  1.3070 -0.0555
 7787SOL    HW235016   5.173   9.523   2.438 -1.9233  1.1956 -0.0026
 7788SOL     OW35017   4.114   4.748   3.489 -0.0009 -0.1166 -0.2055
 7788SOL    HW135018   4.090   4.801   3.571  0.8573 -0.6914  0.4208
 7788SOL    HW235019   4.197   4.787   3.448 -0.0965 -0.1922 -0.4668
 7789SOL     OW35020   0.601   2.765   3.217 -0.3687 -0.1452  0.2072
 7789SOL    HW135021   0.636   2.841   3.271 -0.5409 -0.6892  1.0889
 7789SOL    HW235022   0.516   2.792   3.171  0.0555  0.4835 -0.2236
 7790SOL     OW35023   8.604   7.919   6.041  0.0648 -0.3492 -0.4668
 7790SOL    HW135024   8.611   7.982   5.964  0.9566  1.3910  1.0033
 7790SOL    HW235025   8.694   7.906   6.082 -0.7206  0.3440  1.5185
 7791SOL     OW35026   2.680   5.560   4.755  0.0466  0.0753  0.4581
 7791SOL    HW135027   2.628   5.570   4.670 -1.5929  0.7298  1.5142
 7791SOL    HW235028   2.721   5.469   4.759  0.2769  0.1008 -1.1038
 7792SOL     OW35029   4.402   7.910   4.806  0.6117  0.4366 -0.1119
 7792SOL    HW135030   4.487   7.927   4.854 -0.8174  2.1843  1.8967
 7792SOL    HW235031   4.402   7.960   4.719  1.9236 -0.1510 -0.4470
 7793SOL     OW35032   3.875   4.878   1.340 -0.9320 -0.8011  0.0005
 7793SOL    HW135033   3.893   4.792   1.387  0.9955 -0.4796 -0.1007
 7793SOL    HW235034   3.867   4.952   1.408  0.7754 -0.5196 -0.0723
 7794SOL     OW35035   1.826   8.786   2.702 -0.3891 -0.2864 -0.2735
 7794SOL    HW135036   1.778   8.786   2.789 -0.2073  1.6014 -0.1509
 7794SOL    HW235037   1.888   8.708   2.698  0.6126  0.3507  1.8749
 7795SOL     OW35038   1.898   2.677   6.191 -0.2211  0.6684  0.3173
 7795SOL    HW135039   1.914   2.726   6.105 -0.6194  2.0514  1.0164
 7795SOL    HW235040   1.880   2.581   6.171 -3.0069  1.4802 -1.3636
 7796SOL     OW35041   0.009   4.117   5.272  0.3968  0.2223 -0.3546
 7796SOL    HW135042  -0.009   4.054   5.348  0.5433 -0.2268 -0.6840
 7796SOL    HW235043  -0.070   4.176   5.257 -0.9080 -1.7959 -1.8549
 7797SOL     OW35044   8.615   5.526   4.745 -0.0506  0.1350  0.4036
 7797SOL    HW135045   8.579   5.443   4.789  0.5049  0.9675  2.5008
 7797SOL    HW235046   8.539   5.589   4.726 -0.4900 -0.8925 -1.3069
 7798SOL     OW35047   4.515   8.576   7.352  0.1961  0.1694  0.2249
 7798SOL    HW135048   4.535   8.624   7.267  1.3762 -0.8277 -0.0738
 7798SOL    HW235049   4.495   8.480   7.332  3.4176 -0.7954  1.2987
 7799SOL     OW35050   1.111   3.471   2.662 -0.0597 -0.0792 -0.1451
 7799SOL    HW135051   1.081   3.396   2.603  0.7400 -0.3728 -0.1792
 7799SOL    HW235052   1.051   3.550   2.649 -0.6925 -0.5894 -0.3686
 7800SOL     OW35053   9.929   4.775   0.616 -0.0166 -0.1619 -0.3711
 7800SOL    HW135054   9.872   4.733   0.546 -0.8422 -0.5103  0.4903
 7800SOL    HW235055  10.014   4.723   0.625  0.4826  0.4189 -1.7298
 7801SOL     OW35056   0.446   8.478   1.178 -0.4117  0.2708 -0.2661
 7801SOL    HW135057   0.391   8.399   1.203  0.5069 -0.4735 -0.5726
 7801SOL    HW235058   0.471   8.473   1.081 -0.1780  0.8357 -0.2399
 7802SOL     OW35059   8.249   3.597   1.782 -0.1155  0.4254  0.0563
 7802SOL    HW135060   8.331   3.556   1.742 -0.6537  0.2158 -0.8656
 7802SOL    HW235061   8.269   3.690   1.812  0.4776  0.3543 -0.1130
 7803SOL     OW35062   9.603   6.566   4.575 -0.3101 -0.4250 -0.1531
 7803SOL    HW135063   9.648   6.655   4.585 -1.3380  0.1824 -0.8312
 7803SOL    HW235064   9.539   6.553   4.651 -0.7746 -0.2166 -0.5090
 7804SOL     OW35065   1.542   3.168   3.182  0.1250 -0.0115 -0.0175
 7804SOL    HW135066   1.562   3.101   3.253  1.2443  0.9832  0.6107
 7804SOL    HW235067   1.447   3.158   3.153  0.4581 -2.3461 -0.4426
 7805SOL     OW35068   9.243   2.637   5.553 -0.0200 -0.6481  0.5814
 7805SOL    HW135069   9.312   2.594   5.612  1.4755  0.0242 -0.6352
 7805SOL    HW235070   9.161   2.580   5.550  1.0618 -2.2507  0.8418
 7806SOL     OW35071   5.576   0.151   3.068  0.7373  0.0669 -0.0695
 7806SOL    HW135072   5.584   0.237   3.118  1.0957 -0.1537  0.2505
 7806SOL    HW235073   5.663   0.131   3.022  0.9232 -0.5634  0.5599
 7807SOL     OW35074   8.773   2.776   7.573  0.5211  0.7617  0.5687
 7807SOL    HW135075   8.686   2.743   7.611  0.4150 -0.4701 -0.6582
 7807SOL    HW235076   8.755   2.823   7.487  1.3283 -2.5550 -1.5065
 7808SOL     OW35077   4.326   0.911   5.754  0.8352  0.3974 -0.1452
 7808SOL    HW135078   4.258   0.977   5.785  2.1391  2.3314 -1.3214
 7808SOL    HW235079   4.362   0.860   5.832 -1.0375  0.2225  0.6257
 7809SOL     OW35080   8.877   0.669   3.037 -0.1263 -0.3993  0.0814
 7809SOL    HW135081   8.934   0.632   3.111  1.9248  0.2736 -1.1104
 7809SOL    HW235082   8.893   0.767   3.028  0.1031 -0.5660 -1.6136
 7810SOL     OW35083   9.625   3.140   4.290  0.1679 -0.1173 -0.4724
 7810SOL    HW135084   9.577   3.128   4.377  3.4366  2.5624  1.8223
 7810SOL    HW235085   9.722   3.120   4.302  0.7287  0.5558 -3.4636
 7811SOL     OW35086   2.580   2.505   5.772 -0.3973 -0.1864  0.2469
 7811SOL    HW135087   2.654   2.444   5.800 -0.4146 -1.0423 -1.5421
 7811SOL    HW235088   2.567   2.499   5.673 -0.5099  2.5984  0.0598
 7812SOL     OW35089   7.039   0.639   5.223 -0.1821 -0.4505  0.1551
 7812SOL    HW135090   6.945   0.626   5.254 -0.0605 -1.2523  0.2020
 7812SOL    HW235091   7.077   0.550   5.195  0.2555  0.0025 -0.7117
 7813SOL     OW35092   4.360   2.396   1.357 -0.4985  0.0627  0.0097
 7813SOL    HW135093   4.319   2.435   1.440  0.3497 -0.1716  0.5396
 7813SOL    HW235094   4.426   2.326   1.382 -0.1290  0.0968 -0.8628
 7814SOL     OW35095   1.344   8.727   6.170 -0.3755 -0.8344 -0.0446
 7814SOL    HW135096   1.247   8.750   6.176 -0.3021 -0.8239  1.1003
 7814SOL    HW235097   1.354   8.630   6.148 -0.6497 -0.5380 -1.5561
 7815SOL     OW35098   7.318   6.380   7.254 -0.2697  0.4164 -0.4662
 7815SOL    HW135099   7.312   6.476   7.225 -0.1938  0.2589 -1.0070
 7815SOL    HW235100   7.409   6.345   7.233  0.1525  0.6360  0.9998
 7816SOL     OW35101   1.957   6.850   7.360  0.5202  0.1993  0.3413
 7816SOL    HW135102   1.933   6.773   7.419 -1.8312 -0.2617 -1.1676
 7816SOL    HW235103   1.896   6.927   7.379 -0.6803 -0.1752 -1.9222
 7817SOL     OW35104   3.389   7.793   3.288 -0.0424 -0.0548  0.3836
 7817SOL    HW135105   3.353   7.726   3.353 -4.2209  1.4336 -0.1977
 7817SOL    HW235106   3.370   7.763   3.195  3.2290 -0.7318 -0.1162
 7818SOL     OW35107   0.769   9.502   1.041 -0.6159  0.1052 -0.0732
 7818SOL    HW135108   0.787   9.412   1.080 -2.4371 -0.6387 -0.9095
 7818SOL    HW235109   0.736   9.493   0.947  0.3306  1.7026 -0.5823
 7819SOL     OW35110   8.728   3.053   6.626 -0.4301  0.3883  0.3741
 7819SOL    HW135111   8.712   2.956   6.644 -0.7678  0.5461  0.9376
 7819SOL    HW235112   8.659   3.087   6.563  0.4620 -0.0475 -0.8481
 7820SOL     OW35113   6.557   2.719   3.025  0.4277 -0.0040 -0.2253
 7820SOL    HW135114   6.528   2.623   3.015  2.6054 -0.5826 -1.4577
 7820SOL    HW235115   6.566   2.742   3.122 -1.3117 -0.6588  0.1051
 7821SOL     OW35116   9.828   9.941   3.367  0.4139 -0.7180  0.2063
 7821SOL    HW135117   9.883  10.023   3.386 -0.0488 -0.2389 -0.4939
 7821SOL    HW235118   9.737   9.953   3.405  0.5569 -1.1986  0.7035
 7822SOL     OW35119   1.074   2.608   1.563 -0.3922  0.4141 -0.3926
 7822SOL    HW135120   1.111   2.632   1.473 -1.3385  0.6732 -0.7161
 7822SOL    HW235121   1.087   2.685   1.626 -0.6586  0.6189 -0.5882
 7823SOL     OW35122   7.231   9.817   2.282  0.1288  0.7450  0.2771
 7823SOL    HW135123   7.315   9.870   2.275 -0.8641  2.2417 -0.4811
 7823SOL    HW235124   7.164   9.865   2.339 -0.7087  0.2456 -0.2560
 7824SOL     OW35125   3.430   6.684   1.469  0.2987  0.2255  0.4021
 7824SOL    HW135126   3.408   6.629   1.550  1.4023 -0.9469 -0.0669
 7824SOL    HW235127   3.479   6.766   1.497 -2.6478  1.7685  1.2467
 7825SOL     OW35128   4.076   8.663   2.073 -0.3308 -0.0469 -0.1610
 7825SOL    HW135129   4.168   8.695   2.053 -0.0917 -0.5174  0.1934
 7825SOL    HW235130   4.031   8.726   2.136 -0.7596  0.9499 -1.4371
 7826SOL     OW35131   1.436   9.110   2.544  0.3211 -0.0153  0.2970
 7826SOL    HW135132   1.341   9.093   2.517  0.3964  0.6889 -0.4170
 7826SOL    HW235133   1.498   9.077   2.473  0.5286  1.5165 -0.2533
 7827SOL     OW35134   4.194   2.619   5.023 -0.5507 -0.0791 -0.0246
 7827SOL    HW135135   4.193   2.628   4.924  3.7635 -0.9142 -0.2141
 7827SOL    HW235136   4.181   2.709   5.065 -2.0074  0.3357 -1.3073
 7828SOL     OW35137   9.015   9.397   4.908  0.4165  1.0333 -0.1694
 7828SOL    HW135138   8.979   9.466   4.846 -0.5917 -0.1441 -0.9366
 7828SOL    HW235139   8.955   9.316   4.906  1.4347  0.2309  0.8723
 7829SOL     OW35140   6.220   8.893   7.599  0.5443  0.0103 -0.7537
 7829SOL    HW135141   6.295   8.943   7.642 -0.6146 -0.2904  1.7166
 7829SOL    HW235142   6.198   8.935   7.511  1.3508  2.2383  0.0719
 7830SOL     OW35143   9.762   0.333   1.028  0.2027 -0.3763 -0.1979
 7830SOL    HW135144   9.741   0.296   0.937  0.7251 -0.5935 -0.2290
 7830SOL    HW235145   9.827   0.273   1.074 -1.4450 -1.2441  1.0367
 7831SOL     OW35146   4.596   3.846   5.549 -0.0789  0.8003 -0.1167
 7831SOL    HW135147   4.531   3.793   5.495 -0.1352  0.9143 -0.1607
 7831SOL    HW235148   4.667   3.883   5.489  0.7569 -0.3938  0.1004
 7832SOL     OW35149   0.128   5.791   2.975  0.2637  0.0669 -0.3987
 7832SOL    HW135150   0.059   5.854   2.939  0.0401 -0.4056 -0.8123
 7832SOL    HW235151   0.134   5.801   3.075 -2.1328 -1.5545 -0.0368
 7833SOL     OW35152   8.093   5.515   4.135  0.1048 -0.2467 -0.0788
 7833SOL    HW135153   8.128   5.429   4.174 -1.2757 -0.1704  1.3988
 7833SOL    HW235154   8.137   5.592   4.181 -2.2294 -0.1465  2.0709
 7834SOL     OW35155   3.267   7.087   3.149  0.4697  0.0624 -0.1424
 7834SOL    HW135156   3.209   7.109   3.228  1.2737  1.0345  0.1786
 7834SOL    HW235157   3.218   7.024   3.089 -1.1034  1.2112 -0.0903
 7835SOL     OW35158   4.907   7.798   4.452  0.1179 -0.3640  0.6450
 7835SOL    HW135159   4.998   7.833   4.478  0.6612 -0.4413 -1.1058
 7835SOL    HW235160   4.848   7.875   4.429  0.1086 -0.3777  0.6245
 7836SOL     OW35161   8.863   3.293   5.918 -0.0697 -0.1232 -0.1705
 7836SOL    HW135162   8.959   3.301   5.943 -0.1960  0.0190  0.2801
 7836SOL    HW235163   8.831   3.200   5.939 -1.0452  0.9331  3.3777
 7837SOL     OW35164   9.630   3.453   6.109 -0.3978 -0.2069  0.3114
 7837SOL    HW135165   9.710   3.513   6.117 -1.4805  1.6138 -2.0198
 7837SOL    HW235166   9.610   3.413   6.198  0.4077  2.8755  1.9638
 7838SOL     OW35167   8.099   9.990   3.741 -0.3087  0.0246  0.0636
 7838SOL    HW135168   8.059   9.907   3.700  0.0957 -1.1733  2.0245
 7838SOL    HW235169   8.196   9.975   3.758 -0.1220  1.1003 -0.0137
 7839SOL     OW35170   2.984   2.153   2.254  0.2779 -0.0703 -0.1380
 7839SOL    HW135171   2.962   2.250   2.263 -2.2199 -0.6301  0.2846
 7839SOL    HW235172   3.077   2.136   2.286 -0.3311  1.7130  2.7104
 7840SOL     OW35173   9.009   9.765   6.919 -0.1498 -0.7336  0.0018
 7840SOL    HW135174   9.057   9.682   6.948 -1.4664 -2.1742 -1.8179
 7840SOL    HW235175   8.945   9.743   6.845 -2.0202  1.5338  0.8599
 7841SOL     OW35176   3.974   7.395   9.901 -0.1103 -0.3245 -0.3188
 7841SOL    HW135177   3.978   7.409  10.000  0.9806 -0.0152 -0.3987
 7841SOL    HW235178   3.881   7.410   9.869 -0.4113 -0.1484  0.6205
 7842SOL     OW35179   3.444   6.522   3.893 -0.2881 -0.2250 -0.3868
 7842SOL    HW135180   3.361   6.548   3.843  0.6523 -0.3461 -2.0535
 7842SOL    HW235181   3.479   6.601   3.943 -0.7909  0.1153 -0.5663
 7843SOL     OW35182   3.308   9.509   0.638 -0.0725 -0.0502  0.6001
 7843SOL    HW135183   3.214   9.540   0.625  0.4691  0.7035 -1.8747
 7843SOL    HW235184   3.371   9.581   0.609  1.2887 -0.2840  2.8812
 7844SOL     OW35185   3.333   7.725   1.183 -0.2171  0.0376 -0.3910
 7844SOL    HW135186   3.388   7.792   1.134  0.1277  0.7502  0.9463
 7844SOL    HW235187   3.236   7.745   1.170 -0.1151  0.7120 -0.1180
 7845SOL     OW35188   4.120   0.873   7.587 -0.4893 -0.2997  0.3562
 7845SOL    HW135189   4.023   0.891   7.603 -0.5959 -1.6842  1.3184
 7845SOL    HW235190   4.130   0.788   7.536  0.2971 -1.3645  2.2371
 7846SOL     OW35191   5.778   0.649   5.233 -0.1622  0.1050 -0.2229
 7846SOL    HW135192   5.745   0.738   5.263 -2.9950 -0.6912 -0.8064
 7846SOL    HW235193   5.806   0.655   5.137  0.9107  0.6465  0.1103
 7847SOL     OW35194   1.776   0.401   5.955 -0.5678 -0.0630 -0.4285
 7847SOL    HW135195   1.801   0.394   6.052  0.1041  1.0721 -0.5064
 7847SOL    HW235196   1.721   0.322   5.929  1.7547 -1.9458  0.1110
 7848SOL     OW35197   9.429   9.540   0.483 -0.3552  0.3835 -0.0189
 7848SOL    HW135198   9.388   9.508   0.398 -0.9954  0.6348  0.1915
 7848SOL    HW235199   9.462   9.634   0.471  0.2275  0.1517 -0.2127
 7849SOL     OW35200   8.764   9.892   0.626  0.1997 -0.3092 -0.4217
 7849SOL    HW135201   8.679   9.934   0.595  0.9924  0.9839 -0.8928
 7849SOL    HW235202   8.793   9.822   0.560  0.9800  1.2316 -1.7362
 7850SOL     OW35203   9.351   5.276   7.650  0.3436  0.1062 -0.2432
 7850SOL    HW135204   9.276   5.300   7.588  1.5852  0.7515 -1.5289
 7850SOL    HW235205   9.435   5.264   7.597  1.4585  0.8096  1.3362
 7851SOL     OW35206   0.113   2.739   0.414 -0.0514 -0.6893 -0.4472
 7851SOL    HW135207   0.142   2.785   0.498  1.9629 -3.0532  0.2327
 7851SOL    HW235208   0.188   2.742   0.348  0.1344 -2.8522 -0.3938
 7852SOL     OW35209   6.228   0.428   0.902 -0.4132  0.1372 -0.2367
 7852SOL    HW135210   6.157   0.487   0.940 -0.2298  0.9944 -1.1990
 7852SOL    HW235211   6.310   0.435   0.958 -0.2133  1.2297 -0.6560
 7853SOL     OW35212   6.652   6.840   6.547  0.3081 -0.0620  0.3371
 7853SOL    HW135213   6.606   6.833   6.459  0.6057  1.1741  0.0675
 7853SOL    HW235214   6.711   6.761   6.561  0.5213 -0.0934 -0.7288
 7854SOL     OW35215   5.680   4.455   2.690  0.3545 -0.7591  0.0653
 7854SOL    HW135216   5.654   4.380   2.628 -0.7543 -0.9525  0.7454
 7854SOL    HW235217   5.597   4.498   2.727  0.9510  1.5876 -1.2204
 7855SOL     OW35218   7.129   9.156   1.619  0.4310 -0.2533  0.2054
 7855SOL    HW135219   7.201   9.218   1.650 -0.1374 -0.1426  1.3397
 7855SOL    HW235220   7.086   9.192   1.536  0.5825  0.5073  0.4600
 7856SOL     OW35221   0.329   6.837   0.262  0.2039 -0.6622  0.0514
 7856SOL    HW135222   0.366   6.869   0.174  1.0672  0.5774  0.8473
 7856SOL    HW235223   0.404   6.812   0.323 -0.3580 -0.7377  0.7172
 7857SOL     OW35224   0.167   9.591   5.368 -0.3186 -0.2077 -0.3075
 7857SOL    HW135225   0.119   9.615   5.453  0.2911 -0.2254  0.0423
 7857SOL    HW235226   0.103   9.544   5.307 -0.4283 -1.4073  0.6873
 7858SOL     OW35227   5.973   3.991   2.163  0.6415  0.1455  0.1700
 7858SOL    HW135228   5.918   4.074   2.165  3.4210  2.0773  0.0564
 7858SOL    HW235229   5.981   3.959   2.069 -0.2139 -0.0951  0.1779
 7859SOL     OW35230   5.781   0.081   5.951  0.7271 -0.8163 -0.2265
 7859SOL    HW135231   5.691   0.048   5.923 -0.1565  0.5717  0.8721
 7859SOL    HW235232   5.775   0.118   6.043  2.4136 -0.6008 -0.1888
 7860SOL     OW35233   1.135   8.459   2.198 -0.2965 -0.2797 -0.3419
 7860SOL    HW135234   1.141   8.559   2.204  0.5188 -0.3738  0.4352
 7860SOL    HW235235   1.191   8.426   2.123 -1.0740 -0.1038 -1.0054
 7861SOL     OW35236   5.573   9.653   7.914  0.3504  0.6535 -0.5905
 7861SOL    HW135237   5.510   9.727   7.893 -1.0128 -0.4914 -0.6031
 7861SOL    HW235238   5.523   9.577   7.956  1.8386  0.0207  0.0733
 7862SOL     OW35239   1.696   8.640   4.614  0.8768 -0.3731  0.2493
 7862SOL    HW135240   1.730   8.728   4.647 -1.8152  0.4397  0.9673
 7862SOL    HW235241   1.645   8.594   4.688 -0.6344 -0.9811 -1.1431
 7863SOL     OW35242   0.409   2.903   6.999  0.7252  0.0525  0.0831
 7863SOL    HW135243   0.373   2.819   7.038 -1.9900  0.7578 -0.8345
 7863SOL    HW235244   0.499   2.884   6.958  0.3575 -2.2774  0.2837
 7864SOL     OW35245   4.672   8.434   2.437 -0.0672 -0.0955  0.5778
 7864SOL    HW135246   4.652   8.343   2.399  1.4137 -0.7725  1.3446
 7864SOL    HW235247   4.720   8.489   2.368 -0.0160 -0.2828  0.4637
 7865SOL     OW35248   8.692   8.044   7.265 -0.8105 -0.1448 -0.1451
 7865SOL    HW135249   8.663   8.138   7.247 -0.6477 -0.3112 -1.3398
 7865SOL    HW235250   8.785   8.045   7.301  0.1403  0.0306 -2.5288
 7866SOL     OW35251   4.814   4.638   3.572  0.2907 -0.4858  0.3059
 7866SOL    HW135252   4.848   4.593   3.490  1.6195 -1.2938  1.2875
 7866SOL    HW235253   4.810   4.737   3.557 -1.5295 -0.8045 -1.4524
 7867SOL     OW35254   3.786   6.221   0.925 -0.6589 -0.5793  0.4220
 7867SOL    HW135255   3.808   6.206   0.829  0.9225  2.3607  0.2424
 7867SOL    HW235256   3.696   6.265   0.932  0.9112  2.9686 -0.1143
 7868SOL     OW35257   8.077   2.478   0.390 -0.4203  0.2862 -0.0225
 7868SOL    HW135258   8.133   2.521   0.319 -1.4213 -0.9424 -1.5929
 7868SOL    HW235259   7.980   2.493   0.370 -0.7151  0.0899  1.2032
 7869SOL     OW35260   6.172   7.144   6.213 -0.4188 -0.7031 -0.2834
 7869SOL    HW135261   6.181   7.168   6.117  1.1859 -0.3222 -0.0440
 7869SOL    HW235262   6.098   7.197   6.254 -0.0269  0.3426 -0.9116
 7870SOL     OW35263   0.007   8.980   6.816  0.0224 -0.0176 -0.0335
 7870SOL    HW135264  -0.046   8.900   6.790 -1.2539  0.6944  0.3430
 7870SOL    HW235265  -0.003   8.996   6.915  0.0463  0.7632 -0.1581
 7871SOL     OW35266   0.417   4.252   5.548 -0.7815 -0.2462  0.0090
 7871SOL    HW135267   0.427   4.299   5.460 -1.2680 -0.2017 -0.0247
 7871SOL    HW235268   0.432   4.316   5.623  0.4801 -0.4745 -0.0409
 7872SOL     OW35269   6.553   9.186   2.965 -0.1011 -0.2374  0.2647
 7872SOL    HW135270   6.620   9.259   2.981 -0.2562 -0.3380  1.3953
 7872SOL    HW235271   6.601   9.099   2.953  0.1099  0.1020 -1.4989
 7873SOL     OW35272   9.277   8.666   6.686  0.0855 -0.2740  0.1174
 7873SOL    HW135273   9.247   8.724   6.611 -1.0452  0.6779  1.2911
 7873SOL    HW235274   9.272   8.570   6.658  0.7350  0.1245 -1.3868
 7874SOL     OW35275   0.832   9.182   6.538  0.5037  0.0058 -0.3316
 7874SOL    HW135276   0.740   9.212   6.563  0.7912 -0.2743  1.1051
 7874SOL    HW235277   0.850   9.093   6.578  1.3943  0.0520 -0.6190
 7875SOL     OW35278   1.088   3.365   1.478 -0.1564  0.4499 -0.2125
 7875SOL    HW135279   0.996   3.330   1.498 -0.1795  0.4580 -0.3037
 7875SOL    HW235280   1.109   3.349   1.382  0.2841 -0.3456  0.0071
 7876SOL     OW35281   2.862   2.297   3.335  0.3807  0.0131 -0.6241
 7876SOL    HW135282   2.861   2.232   3.259 -0.2832  0.5432 -1.0757
 7876SOL    HW235283   2.780   2.354   3.331  1.0735  1.0453 -0.3747
 7877SOL     OW35284   4.122   9.755   4.163  0.1087  0.2982  0.0135
 7877SOL    HW135285   4.222   9.758   4.171 -0.0393  4.5698  2.1606
 7877SOL    HW235286   4.088   9.848   4.146 -3.5097 -1.1358 -0.9587
 7878SOL     OW35287   1.275   8.937   5.556 -0.1157  0.0353  0.1027
 7878SOL    HW135288   1.262   8.875   5.479  0.6226 -0.9102  0.7311
 7878SOL    HW235289   1.373   8.958   5.565 -0.2383  0.3864  0.5871
 7879SOL     OW35290   0.585   4.779   6.486 -0.0020 -0.3501 -0.1192
 7879SOL    HW135291   0.616   4.720   6.561 -1.2275 -1.0509 -0.1517
 7879SOL    HW235292   0.493   4.751   6.458 -0.1891  0.9466 -0.8081
 7880SOL     OW35293   7.554   9.728   3.392 -0.6257  0.3049  0.6828
 7880SOL    HW135294   7.523   9.635   3.376 -2.4044  0.6769  1.8560
 7880SOL    HW235295   7.563   9.745   3.490 -0.1750  1.3254  0.4776
 7881SOL     OW35296   0.114   7.200   6.745  0.0347 -0.4551  0.3111
 7881SOL    HW135297   0.103   7.101   6.746 -1.3942 -0.3567 -1.6676
 7881SOL    HW235298   0.040   7.242   6.798 -0.7643 -0.3859 -0.8218
 7882SOL     OW35299   0.433   0.901   0.744  0.5635  0.0026  0.6187
 7882SOL    HW135300   0.379   0.883   0.826  0.0634 -0.7186  0.1445
 7882SOL    HW235301   0.412   0.993   0.710 -1.4610 -0.7620 -0.3403
 7883SOL     OW35302   9.007   4.545   1.255  0.4462  0.4568  0.1725
 7883SOL    HW135303   9.065   4.625   1.240  0.5202  0.6567  1.4239
 7883SOL    HW235304   8.918   4.561   1.212  1.0738  0.4321 -1.1595
 7884SOL     OW35305   4.313   8.279   9.967  0.6380 -0.3462  0.2880
 7884SOL    HW135306   4.263   8.289   9.881  0.6180  0.5195  0.3990
 7884SOL    HW235307   4.321   8.368  10.012  2.3393 -0.4409  0.2249
 7885SOL     OW35308   4.920   0.797   2.192 -0.7063  0.0065 -0.4984
 7885SOL    HW135309   4.863   0.715   2.189  0.1026 -0.5859  0.1279
 7885SOL    HW235310   4.863   0.876   2.213 -1.2104 -0.6675  0.7447
 7886SOL     OW35311   6.644   3.087   2.706 -0.6136 -0.1036  0.2211
 7886SOL    HW135312   6.570   3.027   2.677  0.0215 -1.5150  1.4427
 7886SOL    HW235313   6.663   3.071   2.803  0.9941  0.5525  0.0232
 7887SOL     OW35314   1.189   8.538   1.615 -0.9087 -0.0327  0.2426
 7887SOL    HW135315   1.189   8.580   1.523 -1.3751 -0.5699 -0.0060
 7887SOL    HW235316   1.104   8.487   1.627 -0.1504 -1.2688  0.3829
 7888SOL     OW35317   7.774   1.976   3.349  1.0888  1.0766 -0.2675
 7888SOL    HW135318   7.706   2.023   3.405  0.5817  0.8474 -0.6893
 7888SOL    HW235319   7.800   1.890   3.393  2.2977  1.9088  0.6967
 7889SOL     OW35320   2.799   4.135   5.595 -0.0367  0.2864  0.1843
 7889SOL    HW135321   2.853   4.054   5.574 -3.4334 -1.9850 -0.1356
 7889SOL    HW235322   2.781   4.187   5.511  0.3446  0.2296  0.0660
 7890SOL     OW35323   0.694   9.087   6.300 -0.0783 -0.2065  0.4493
 7890SOL    HW135324   0.734   9.144   6.371  1.4894  0.2012 -0.7112
 7890SOL    HW235325   0.618   9.034   6.337 -0.2428  1.1231  2.0304
 7891SOL     OW35326   3.049   4.377   5.762  0.1672  0.5223 -0.0539
 7891SOL    HW135327   3.094   4.459   5.799 -0.9483  0.8832  0.5044
 7891SOL    HW235328   3.095   4.351   5.677  2.0436  0.3334  0.9804
 7892SOL     OW35329   2.107   0.306   5.012 -0.4161 -0.2151  0.2409
 7892SOL    HW135330   2.121   0.350   5.100 -2.4826 -1.2654  1.1196
 7892SOL    HW235331   2.104   0.206   5.024 -0.0090 -0.4087 -1.1179
 7893SOL     OW35332   3.557   1.079   4.003 -0.6312  0.3089 -0.2813
 7893SOL    HW135333   3.640   1.049   3.956 -0.1212  1.0044  0.1834
 7893SOL    HW235334   3.546   1.028   4.088 -0.4065  0.5880 -0.0862
 7894SOL     OW35335   3.163   7.439   7.341  0.2537 -0.2540 -0.1727
 7894SOL    HW135336   3.149   7.465   7.246 -0.5569  0.3606  0.1061
 7894SOL    HW235337   3.216   7.510   7.388  0.8922 -0.6881 -0.2319
 7895SOL     OW35338   7.078   1.521   6.703  0.1855  0.2169  0.1371
 7895SOL    HW135339   6.993   1.568   6.679  0.2508  1.4263  2.1687
 7895SOL    HW235340   7.144   1.531   6.628 -0.5477  1.5796 -0.3422
 7896SOL     OW35341   3.756   5.864   0.370 -0.3194 -0.2507 -0.3835
 7896SOL    HW135342   3.763   5.951   0.321  0.2843 -1.7008 -2.9143
 7896SOL    HW235343   3.663   5.856   0.408 -0.2420  1.6903  0.2935
 7897SOL     OW35344   0.538   7.777   3.061  0.1624  0.5182  0.1524
 7897SOL    HW135345   0.615   7.757   3.121  0.4580  0.4940 -0.2313
 7897SOL    HW235346   0.546   7.723   2.977 -1.1879 -0.7759  0.8358
 7898SOL     OW35347   0.668   6.383   5.012 -0.3648 -0.4766  0.0480
 7898SOL    HW135348   0.724   6.338   4.942 -2.7376  1.2750 -3.1116
 7898SOL    HW235349   0.719   6.458   5.052  0.6874 -0.9051 -0.4649
 7899SOL     OW35350   1.305   6.141   3.857  0.1689 -0.1270  0.0462
 7899SOL    HW135351   1.245   6.061   3.854  0.4550 -0.2971 -2.3946
 7899SOL    HW235352   1.274   6.204   3.929 -2.2208 -0.7586 -0.3886
 7900SOL     OW35353   1.437   8.621   5.630  0.2622 -0.4148  0.2611
 7900SOL    HW135354   1.454   8.655   5.538  0.3562  0.2453  0.5189
 7900SOL    HW235355   1.492   8.673   5.695 -1.0472  0.2437  0.8658
 7901SOL     OW35356   1.101   1.294   2.810 -0.4721  0.0877 -0.1158
 7901SOL    HW135357   1.180   1.325   2.864 -1.4043  1.2356  0.6299
 7901SOL    HW235358   1.115   1.318   2.714  1.4003 -2.3579 -0.4918
 7902SOL     OW35359   8.709   1.911   1.448 -0.3310 -0.5200  0.3061
 7902SOL    HW135360   8.795   1.926   1.400  0.2863  2.2665  2.1328
 7902SOL    HW235361   8.634   1.904   1.382  0.7817  0.9530 -1.1382
 7903SOL     OW35362   3.046   9.451   2.648 -0.1229  0.4811  0.3624
 7903SOL    HW135363   3.075   9.355   2.652  1.3387  0.9820  2.5429
 7903SOL    HW235364   3.081   9.492   2.564 -0.4268 -0.7692 -0.3976
 7904SOL     OW35365   1.281   8.260   1.073 -0.4049 -0.1628  0.3533
 7904SOL    HW135366   1.346   8.326   1.110 -0.1319 -0.4851  0.4518
 7904SOL    HW235367   1.330   8.192   1.018 -0.5109 -1.0239  1.2950
 7905SOL     OW35368   3.949   5.029   0.055 -0.3185  0.5260  0.3374
 7905SOL    HW135369   4.007   4.964   0.008 -0.1882  0.8104  0.1073
 7905SOL    HW235370   3.941   5.003   0.152 -0.6669 -0.1109  0.1436
 7906SOL     OW35371   5.938   9.802   6.468 -0.0805 -0.2047 -0.2303
 7906SOL    HW135372   6.019   9.851   6.436 -1.0014  0.6165 -1.3558
 7906SOL    HW235373   5.937   9.800   6.568 -0.7802  3.3888 -0.1187
 7907SOL     OW35374   9.755   8.160   1.017 -0.2599  0.2049 -0.3953
 7907SOL    HW135375   9.673   8.164   1.074 -0.6073 -0.1213 -0.8645
 7907SOL    HW235376   9.803   8.074   1.034  0.5185  0.8342  0.6036
 7908SOL     OW35377   4.008   9.739   1.735  0.3246  0.0103 -0.4698
 7908SOL    HW135378   3.945   9.712   1.808  1.6647  2.2487  1.5866
 7908SOL    HW235379   3.990   9.835   1.710  2.0053  0.2308 -0.8505
 7909SOL     OW35380   1.830   8.016   0.846 -0.2410  0.0184  0.3732
 7909SOL    HW135381   1.901   7.974   0.790 -1.3412  2.0119 -2.5910
 7909SOL    HW235382   1.871   8.083   0.907  0.5543  0.4200 -0.5948
 7910SOL     OW35383   9.448   7.335   4.393 -0.0927  0.0331  0.0494
 7910SOL    HW135384   9.428   7.359   4.298  1.3229  0.0162 -0.2529
 7910SOL    HW235385   9.475   7.417   4.443 -0.9602  0.0635  0.4799
 7911SOL     OW35386   7.966   6.573   6.511  0.3150 -0.9105 -0.1285
 7911SOL    HW135387   8.028   6.642   6.473 -0.5282  1.1505  2.1298
 7911SOL    HW235388   7.901   6.544   6.440  1.4204 -0.2594 -1.4359
 7912SOL     OW35389   2.616   5.178   4.698  0.2736 -0.3991  0.1658
 7912SOL    HW135390   2.634   5.095   4.646  1.7319  0.1081 -0.1624
 7912SOL    HW235391   2.531   5.168   4.750 -0.3010 -1.5435 -0.9924
 7913SOL     OW35392   1.587   6.696   5.942  0.4883 -0.4075  0.5167
 7913SOL    HW135393   1.583   6.732   5.849  0.9056  1.1821  1.0801
 7913SOL    HW235394   1.678   6.660   5.961  0.7508  0.3145  0.6618
 7914SOL     OW35395   3.921   3.331   3.887 -0.0064  0.3359 -0.5058
 7914SOL    HW135396   3.942   3.234   3.899  1.6408  0.6394 -0.8976
 7914SOL    HW235397   3.994   3.375   3.836 -0.5003  1.8990  0.1185
 7915SOL     OW35398   3.167   4.569   3.913 -0.3980 -0.0289 -0.0135
 7915SOL    HW135399   3.178   4.483   3.862 -1.4809  0.0159 -0.3376
 7915SOL    HW235400   3.113   4.552   3.995 -0.5867  0.3406 -0.0628
 7916SOL     OW35401   7.092   8.922   3.023 -0.4950  0.0663 -0.8561
 7916SOL    HW135402   7.093   8.847   2.957  1.4916 -1.2053  0.5524
 7916SOL    HW235403   7.090   8.885   3.116  3.2266  1.6126 -0.0442
 7917SOL     OW35404   0.616   9.161   5.562 -0.2955  0.4072 -0.3560
 7917SOL    HW135405   0.677   9.089   5.595 -0.0471  1.1290  0.8036
 7917SOL    HW235406   0.561   9.196   5.638 -1.0733  0.8029 -1.0894
 7918SOL     OW35407   9.914   8.101   4.489 -0.1815  0.5082  0.4754
 7918SOL    HW135408   9.865   8.097   4.402  0.3837  0.0745  0.1764
 7918SOL    HW235409   9.975   8.180   4.489  0.1347  0.2645  0.3092
 7919SOL     OW35410   3.844   7.107   5.466 -0.1136  0.4771 -0.4538
 7919SOL    HW135411   3.840   7.057   5.379  1.5502  1.5152 -1.1484
 7919SOL    HW235412   3.871   7.201   5.448  2.9074  0.0215  1.4474
 7920SOL     OW35413   4.389   8.324   5.896  0.0086  0.3207  0.0260
 7920SOL    HW135414   4.407   8.270   5.978  0.8756 -0.5867 -0.7433
 7920SOL    HW235415   4.476   8.356   5.858 -0.3355  0.0161 -1.0164
 7921SOL     OW35416   5.930   8.700   6.013  0.3355 -0.0742  0.0518
 7921SOL    HW135417   5.897   8.683   5.920 -1.3388 -0.5612  0.7140
 7921SOL    HW235418   6.023   8.736   6.010  1.0205 -1.8934 -1.7423
 7922SOL     OW35419   3.547   0.718   2.299  0.2406  0.1397 -0.3634
 7922SOL    HW135420   3.607   0.642   2.272 -0.5398 -0.1634 -1.2702
 7922SOL    HW235421   3.600   0.784   2.354  0.4694 -1.9542  2.0282
 7923SOL     OW35422   9.125   1.936   0.708 -0.1140 -0.0750 -0.3421
 7923SOL    HW135423   9.108   1.839   0.725  0.3248  0.0286  0.8010
 7923SOL    HW235424   9.223   1.955   0.718 -0.2852  0.6091  0.1491
 7924SOL     OW35425   9.566   1.566   5.125 -0.0494  0.0457  0.0320
 7924SOL    HW135426   9.586   1.609   5.213  0.1365  0.4826 -0.2189
 7924SOL    HW235427   9.526   1.476   5.140  0.4988 -0.1146  0.5574
 7925SOL     OW35428   4.464   2.386   4.892  0.1011  0.2958  0.1314
 7925SOL    HW135429   4.520   2.343   4.963  2.3187  0.7875 -1.2715
 7925SOL    HW235430   4.461   2.326   4.812  0.6868  1.4001 -0.7211
 7926SOL     OW35431   2.760   6.812   0.108 -0.0222 -0.1284  0.2793
 7926SOL    HW135432   2.673   6.841   0.147 -1.0499  0.1436 -2.1137
 7926SOL    HW235433   2.804   6.889   0.062  0.3280 -0.8276 -0.5750
 7927SOL     OW35434   3.193   7.982   3.533  0.3210 -0.2528 -0.4927
 7927SOL    HW135435   3.284   8.022   3.545  0.2970  0.4723 -2.5257
 7927SOL    HW235436   3.202   7.882   3.525  1.0314 -0.1234 -1.4153
 7928SOL     OW35437   7.482   6.297   3.585 -0.2173  0.1913  0.4696
 7928SOL    HW135438   7.473   6.341   3.495 -1.3234 -1.5755 -0.2985
 7928SOL    HW235439   7.504   6.200   3.573 -1.4946 -0.3274  2.0752
 7929SOL     OW35440   8.596   7.236   6.989 -0.1263 -0.0385  0.3378
 7929SOL    HW135441   8.678   7.292   7.001 -1.2099  1.4387  0.9817
 7929SOL    HW235442   8.572   7.194   7.076 -0.2705 -0.1652  0.2358
 7930SOL     OW35443   3.002   6.018   0.839  0.0492 -0.3175  0.2314
 7930SOL    HW135444   2.966   5.925   0.840 -0.8124  0.0125  1.1232
 7930SOL    HW235445   2.998   6.055   0.746 -1.4276 -0.4832  0.2177
 7931SOL     OW35446   4.386   2.881   7.043  0.2812  0.3716 -0.0753
 7931SOL    HW135447   4.444   2.815   7.091 -2.3496 -1.5527  0.5534
 7931SOL    HW235448   4.417   2.889   6.948  0.8198 -1.5746 -0.0829
 7932SOL     OW35449   2.880   4.112   4.777 -0.0681  0.4856  0.2745
 7932SOL    HW135450   2.813   4.164   4.725 -0.6869  0.8218  1.3992
 7932SOL    HW235451   2.949   4.173   4.814 -0.1170  0.3541  0.5832
 7933SOL     OW35452   8.623   7.327   2.398  0.2887  0.2717  0.0127
 7933SOL    HW135453   8.584   7.403   2.347 -0.0149  1.1631  1.5436
 7933SOL    HW235454   8.575   7.316   2.485  1.5218 -0.4766  0.6288
 7934SOL     OW35455   9.500   5.950   7.404 -0.2605 -0.3603  0.1012
 7934SOL    HW135456   9.545   5.902   7.479  0.4561  0.9107  0.5170
 7934SOL    HW235457   9.409   5.912   7.388  0.2192 -1.7038  0.5352
 7935SOL     OW35458   4.079   5.855   3.939  0.1828  0.3726  0.1123
 7935SOL    HW135459   4.093   5.774   3.996 -0.1768  0.6654  0.6256
 7935SOL    HW235460   4.127   5.843   3.852  0.9684  0.0440  0.5862
 7936SOL     OW35461   5.206   4.231   1.457 -0.7060 -0.0470 -0.3860
 7936SOL    HW135462   5.166   4.262   1.543  3.1656  0.8462  1.1948
 7936SOL    HW235463   5.245   4.140   1.469  0.5180  0.3853 -0.9738
 7937SOL     OW35464   7.604   8.317   4.200 -0.0614 -0.1602  0.0584
 7937SOL    HW135465   7.538   8.248   4.232  0.4351 -0.2513  0.8962
 7937SOL    HW235466   7.568   8.408   4.218 -0.0133 -0.2083  0.4085
 7938SOL     OW35467   3.201   3.840   5.497  0.8998  0.1204  0.3196
 7938SOL    HW135468   3.174   3.834   5.401  0.8913  0.7663  0.2816
 7938SOL    HW235469   3.119   3.853   5.554  0.9966  0.6751  0.3304
 7939SOL     OW35470   6.114   1.293   3.997  0.0196 -0.4180 -0.4514
 7939SOL    HW135471   6.204   1.336   3.998 -0.4945  0.6616  0.2845
 7939SOL    HW235472   6.122   1.199   3.963  1.3890 -0.2736 -0.5469
 7940SOL     OW35473   9.233   7.438   1.903  0.1061 -0.5370  0.3474
 7940SOL    HW135474   9.330   7.427   1.921  0.8166  0.4459 -2.7039
 7940SOL    HW235475   9.201   7.523   1.944  1.2813  0.7331 -1.2906
 7941SOL     OW35476   7.357   6.994   2.775  0.1600 -0.0243  0.1723
 7941SOL    HW135477   7.325   6.978   2.681 -0.1203  0.0029  0.2625
 7941SOL    HW235478   7.456   7.002   2.775  0.3037 -1.5430  0.0794
 7942SOL     OW35479   9.391   3.383   2.003  0.4857  0.6990  0.1318
 7942SOL    HW135480   9.436   3.294   2.016 -0.2327  0.1752 -0.8977
 7942SOL    HW235481   9.299   3.368   1.968 -0.0009  1.8238  0.9475
 7943SOL     OW35482   7.322   2.678   6.164 -0.2948 -0.8035  0.4108
 7943SOL    HW135483   7.324   2.737   6.083 -2.4955 -1.5206 -0.1857
 7943SOL    HW235484   7.394   2.609   6.157 -0.1262 -0.5223 -0.6745
 7944SOL     OW35485   4.544   5.955   2.811 -0.1497 -0.1932  0.0826
 7944SOL    HW135486   4.471   5.923   2.751  0.2557 -0.6389 -0.1785
 7944SOL    HW235487   4.506   5.980   2.900 -0.7174  0.2350 -0.2732
 7945SOL     OW35488   9.936   9.709   5.085  0.1420  0.0503  0.1775
 7945SOL    HW135489   9.866   9.768   5.124  0.1683 -0.0647  0.3987
 7945SOL    HW235490   9.937   9.622   5.133 -0.5728 -0.5116 -0.8040
 7946SOL     OW35491   7.141   0.394   2.049  0.2545 -0.1152  0.1848
 7946SOL    HW135492   7.053   0.363   2.087  0.5025 -1.3845 -0.2534
 7946SOL    HW235493   7.200   0.315   2.034  1.7410  0.7962  1.1002
 7947SOL     OW35494   3.179   5.191   5.194  0.0813  0.2651  0.3239
 7947SOL    HW135495   3.222   5.276   5.224  0.0132 -0.0026  1.2026
 7947SOL    HW235496   3.248   5.118   5.190 -0.2421 -0.1179  1.5473
 7948SOL     OW35497   0.501   8.702   5.331 -0.4709  0.6338  0.0346
 7948SOL    HW135498   0.519   8.765   5.255  1.2582  1.8838  1.4331
 7948SOL    HW235499   0.499   8.609   5.296  0.4739  1.1700 -1.5332
 7949SOL     OW35500   3.848   7.076   4.115 -0.5189 -0.2527  0.3448
 7949SOL    HW135501   3.795   7.009   4.064 -0.9670 -1.2500  2.0951
 7949SOL    HW235502   3.943   7.074   4.083 -0.6738 -1.2406 -0.0808
 7950SOL     OW35503   3.808   1.914   2.324 -0.1379 -0.5523 -0.2458
 7950SOL    HW135504   3.765   1.837   2.372  0.5182 -0.5963  0.2661
 7950SOL    HW235505   3.840   1.981   2.390  1.4710 -0.9790 -0.5731
 7951SOL     OW35506   0.405   5.813   2.850  0.3830  0.4622  0.0731
 7951SOL    HW135507   0.391   5.887   2.784  0.4945  1.9750  1.7151
 7951SOL    HW235508   0.318   5.793   2.896  0.7056  0.6555  0.7608
 7952SOL     OW35509   4.833   5.908   1.016  0.0372 -0.2407  0.8095
 7952SOL    HW135510   4.764   5.874   0.952 -1.0582 -1.1655  2.4671
 7952SOL    HW235511   4.788   5.948   1.095  1.3869  1.6191  0.6597
 7953SOL     OW35512   3.517   3.422   4.183 -0.1034  0.1517  0.0911
 7953SOL    HW135513   3.527   3.440   4.085  0.1942  0.6292  0.2038
 7953SOL    HW235514   3.484   3.506   4.228  1.6781  0.5331  0.6987
 7954SOL     OW35515   7.940   4.451   4.602 -0.2582  0.2541  0.3211
 7954SOL    HW135516   7.852   4.458   4.650 -0.2096  1.1082  0.3077
 7954SOL    HW235517   7.987   4.368   4.630 -1.4175 -0.6120 -0.2590
 7955SOL     OW35518   2.892   3.863   9.742 -0.0829  0.3106  0.2238
 7955SOL    HW135519   2.911   3.771   9.709  0.8475 -0.0697  1.7612
 7955SOL    HW235520   2.958   3.927   9.701 -1.7254  0.5810 -2.0895
 7956SOL     OW35521   8.773   5.116   6.826 -0.0300  0.0958  0.0465
 7956SOL    HW135522   8.712   5.038   6.819  0.9925 -0.7189  0.1390
 7956SOL    HW235523   8.722   5.195   6.861 -1.4011 -0.1142 -1.4219
 7957SOL     OW35524   0.477   1.625   6.156  0.4485  0.0514  0.1198
 7957SOL    HW135525   0.415   1.605   6.232  0.7069 -3.4764 -0.5143
 7957SOL    HW235526   0.554   1.678   6.189 -0.5848  0.5035  1.8592
 7958SOL     OW35527   2.992   2.799   1.327  0.6920  0.0171 -0.3956
 7958SOL    HW135528   2.944   2.731   1.382  2.4295  0.4257  1.6765
 7958SOL    HW235529   2.926   2.865   1.290 -0.3643  0.6918  2.5672
 7959SOL     OW35530   8.212   5.224   4.922 -0.0207  0.5361  0.0310
 7959SOL    HW135531   8.160   5.284   4.984 -0.7655  0.9925 -1.0153
 7959SOL    HW235532   8.255   5.151   4.975 -2.5918 -0.4785  0.8418
 7960SOL     OW35533   7.353   3.926   2.254  0.4472 -0.1574 -0.3150
 7960SOL    HW135534   7.297   3.896   2.176  1.5696  0.7325 -1.4619
 7960SOL    HW235535   7.386   4.018   2.238  0.1540  0.2819  1.5285
 7961SOL     OW35536   4.483   5.859   1.439 -0.2371  0.4221  0.1809
 7961SOL    HW135537   4.540   5.796   1.492 -0.4234  0.2942  0.2298
 7961SOL    HW235538   4.434   5.921   1.502  1.5986  2.0602  0.0628
 7962SOL     OW35539   0.804   0.261   5.343  0.3711 -0.2810 -0.5499
 7962SOL    HW135540   0.742   0.189   5.375  1.0105 -0.7680 -0.3868
 7962SOL    HW235541   0.881   0.219   5.295  0.8962  0.2824 -0.2015
 7963SOL     OW35542   2.457   8.102   4.903 -0.1689 -0.4152 -0.1804
 7963SOL    HW135543   2.500   8.104   4.993  0.2612 -0.3805 -0.3818
 7963SOL    HW235544   2.409   8.189   4.887  3.9590  1.6874 -1.9749
 7964SOL     OW35545   4.412   0.914   2.339  0.0657  0.1290  0.7926
 7964SOL    HW135546   4.334   0.963   2.301 -1.8269 -4.2030 -1.2271
 7964SOL    HW235547   4.385   0.871   2.426  0.8933  0.4788  1.2252
 7965SOL     OW35548   5.886   8.261   5.130  0.2987 -0.1962 -0.2625
 7965SOL    HW135549   5.973   8.296   5.164 -0.3303  1.2005 -0.0608
 7965SOL    HW235550   5.830   8.229   5.206 -0.7578  2.1332  0.0061
 7966SOL     OW35551   7.565   6.690   3.047 -0.3675 -0.0320  0.0613
 7966SOL    HW135552   7.546   6.615   2.983  1.0234 -0.2076 -0.1641
 7966SOL    HW235553   7.653   6.732   3.023 -0.5889  0.9227  0.9015
 7967SOL     OW35554   1.498   0.044   9.866  0.1844 -0.0367 -0.1706
 7967SOL    HW135555   1.537   0.069   9.777  0.7930 -0.4136 -0.0191
 7967SOL    HW235556   1.517  -0.053   9.884 -1.4208 -0.4127 -0.3961
 7968SOL     OW35557   2.869   2.670   0.375  0.0203 -0.3584  0.0951
 7968SOL    HW135558   2.964   2.695   0.389 -0.0722 -0.5330  1.0218
 7968SOL    HW235559   2.864   2.589   0.316  0.4255 -0.1673 -0.2026
 7969SOL     OW35560   3.712   3.413   4.658 -0.0070 -0.5724  0.4637
 7969SOL    HW135561   3.754   3.388   4.571  0.9641 -0.8173  0.9961
 7969SOL    HW235562   3.612   3.413   4.648  0.1205  1.2270 -1.1370
 7970SOL     OW35563   5.173   8.204   6.042  0.4194 -0.1165  0.1618
 7970SOL    HW135564   5.182   8.292   5.995  0.3925 -1.2317 -1.9568
 7970SOL    HW235565   5.264   8.166   6.059  0.3789 -1.0304 -1.5481
 7971SOL     OW35566   0.177   4.201   3.205 -0.1240 -0.0489 -0.0169
 7971SOL    HW135567   0.099   4.140   3.219 -0.0236  0.0659  1.1088
 7971SOL    HW235568   0.250   4.176   3.269 -0.4638  1.8778  1.1586
 7972SOL     OW35569   9.011   6.284   6.513  0.6824 -0.0135 -0.3522
 7972SOL    HW135570   9.058   6.338   6.443 -0.6591  1.6120 -0.0313
 7972SOL    HW235571   9.076   6.260   6.586  1.7264 -0.4547 -1.4012
 7973SOL     OW35572   3.349   7.650   4.390  0.4298  0.6389 -0.4437
 7973SOL    HW135573   3.367   7.671   4.487 -0.5767  1.1393 -0.3595
 7973SOL    HW235574   3.258   7.608   4.381  0.8372 -0.1193 -1.0864
 7974SOL     OW35575   5.581   9.935   3.768 -0.5851  0.5106  0.0357
 7974SOL    HW135576   5.541  10.026   3.761 -0.0547  0.8430  1.3498
 7974SOL    HW235577   5.648   9.922   3.695 -1.2047  0.8925 -0.6049
 7975SOL     OW35578   0.141   1.141   2.508  0.8491 -0.0821  0.1401
 7975SOL    HW135579   0.220   1.156   2.568  0.6878 -0.4091  0.4345
 7975SOL    HW235580   0.061   1.116   2.564  0.4709  0.5084 -0.1307
 7976SOL     OW35581   0.817   9.435   1.479  0.5375 -0.0309 -0.3557
 7976SOL    HW135582   0.862   9.351   1.510 -0.9038 -0.1999  1.4121
 7976SOL    HW235583   0.730   9.446   1.529  0.4844  2.2536 -0.9049
 7977SOL     OW35584   8.000   5.624   0.852 -0.0294  0.2753  0.4584
 7977SOL    HW135585   8.031   5.575   0.934  1.1611  0.6488  0.2504
 7977SOL    HW235586   8.007   5.722   0.868 -0.0636  0.3494  0.0113
 7978SOL     OW35587   6.480   8.884   2.428  0.2896 -0.6320  0.1029
 7978SOL    HW135588   6.487   8.965   2.487 -2.0938 -0.0463 -0.3675
 7978SOL    HW235589   6.495   8.911   2.333  1.6015 -1.1289  0.1646
 7979SOL     OW35590   3.272   3.442   7.553 -0.5320  0.1016  0.4339
 7979SOL    HW135591   3.188   3.482   7.591 -0.2614  0.8838  0.2272
 7979SOL    HW235592   3.273   3.456   7.454 -1.1588 -1.7902  0.1500
 7980SOL     OW35593   6.535   1.941   4.322  0.2311  0.7893  0.1546
 7980SOL    HW135594   6.509   1.886   4.401 -0.2374  0.4166 -0.2547
 7980SOL    HW235595   6.573   1.882   4.251 -0.7311  0.9167 -0.4822
 7981SOL     OW35596   6.233   8.102   5.006  0.3679 -0.4572 -0.5013
 7981SOL    HW135597   6.289   8.058   4.936  0.2668 -0.1490 -0.7730
 7981SOL    HW235598   6.255   8.199   5.011 -0.9747 -0.0934 -1.4264
 7982SOL     OW35599   7.431   4.045   4.301  0.1911 -0.0656 -0.5201
 7982SOL    HW135600   7.372   4.114   4.344 -1.0033 -0.6748 -1.1719
 7982SOL    HW235601   7.429   4.057   4.202  0.2155 -0.8537 -0.6154
 7983SOL     OW35602   2.441   5.510   6.902  0.1107  0.2690 -0.2658
 7983SOL    HW135603   2.353   5.502   6.854 -1.1575  0.0881  1.9911
 7983SOL    HW235604   2.465   5.421   6.941  1.0322  0.4436 -0.4390
 7984SOL     OW35605   3.538   1.679   4.703  0.1630  0.0519  0.3154
 7984SOL    HW135606   3.591   1.760   4.679 -0.1972 -0.2026 -1.4024
 7984SOL    HW235607   3.599   1.609   4.740  0.7979  0.3232 -0.2049
 7985SOL     OW35608   3.217   2.998   2.187  0.2375  0.0244  0.5728
 7985SOL    HW135609   3.194   3.083   2.233  2.1858  0.9689 -0.1467
 7985SOL    HW235610   3.191   3.004   2.091  0.6217 -0.0923  0.4606
 7986SOL     OW35611   9.325   9.753   6.105  0.1845  0.4583 -0.1693
 7986SOL    HW135612   9.344   9.665   6.062  0.2708  0.2755  0.2425
 7986SOL    HW235613   9.338   9.745   6.203  3.2006  1.7370 -0.4191
 7987SOL     OW35614   0.758   0.232   2.905  0.2616 -0.1215  0.1377
 7987SOL    HW135615   0.730   0.322   2.937  1.1384  0.2891 -0.2422
 7987SOL    HW235616   0.747   0.165   2.979 -1.9239 -0.0221 -0.0662
 7988SOL     OW35617   2.502   8.678   7.289  0.0704  0.8606  0.0431
 7988SOL    HW135618   2.451   8.725   7.361  1.7732  1.2881  0.9989
 7988SOL    HW235619   2.599   8.677   7.312  0.5398  0.2765 -1.8614
 7989SOL     OW35620   4.145   2.029   0.198 -0.3065 -0.6140  0.0854
 7989SOL    HW135621   4.216   2.044   0.129 -0.5178 -1.2454 -0.2737
 7989SOL    HW235622   4.181   2.052   0.289 -0.3258  1.1568 -0.3219
 7990SOL     OW35623   4.417   1.648   2.124 -0.4620  0.4240  0.7756
 7990SOL    HW135624   4.348   1.674   2.191 -2.0389  0.9351 -1.0375
 7990SOL    HW235625   4.382   1.575   2.066  0.8395  0.0926  0.3750
 7991SOL     OW35626   5.148   8.161   5.756  0.6266 -0.1535  0.1793
 7991SOL    HW135627   5.235   8.210   5.756  0.5397  0.0362  2.8803
 7991SOL    HW235628   5.160   8.071   5.799 -0.8238  0.4788  1.9677
 7992SOL     OW35629   9.739   4.211   6.508 -0.3752  0.0611  0.6807
 7992SOL    HW135630   9.770   4.196   6.602  0.9068 -0.6525  0.1606
 7992SOL    HW235631   9.817   4.239   6.452 -1.1594  0.6249 -0.1430
 7993SOL     OW35632   9.840   1.110   5.528 -0.5885  0.9402 -0.2490
 7993SOL    HW135633   9.940   1.106   5.530 -0.6427 -0.9993 -0.8613
 7993SOL    HW235634   9.806   1.143   5.617  0.5251  0.1172  0.4885
 7994SOL     OW35635   2.474   8.186   7.922 -0.0271 -0.0318  0.0375
 7994SOL    HW135636   2.429   8.207   8.009  0.8245 -0.4541  0.5880
 7994SOL    HW235637   2.549   8.250   7.908  1.4011 -1.5072  0.8227
 7995SOL     OW35638   2.847   1.809   6.948  0.3173  0.3642  0.4538
 7995SOL    HW135639   2.870   1.893   6.999  3.1890 -1.3848  2.2109
 7995SOL    HW235640   2.889   1.731   6.994 -0.6721 -1.8108 -2.2666
 7996SOL     OW35641   0.024   9.974   7.258 -0.1881 -0.3756  0.0897
 7996SOL    HW135642   0.045  10.069   7.234 -0.4691 -0.6908 -1.4755
 7996SOL    HW235643   0.103   9.917   7.239  0.2001 -0.3592  1.6504
 7997SOL     OW35644   2.489   2.467   2.810 -0.1565  0.4496 -0.2681
 7997SOL    HW135645   2.463   2.560   2.786  0.1048 -0.0540 -2.5757
 7997SOL    HW235646   2.555   2.432   2.744  2.8117 -0.0245  2.7717
 7998SOL     OW35647   3.290   3.714   5.025  0.1198 -0.0945 -0.2823
 7998SOL    HW135648   3.217   3.770   5.065 -0.2905 -0.4415 -0.5403
 7998SOL    HW235649   3.346   3.770   4.965 -1.1571 -0.2756 -1.6659
 7999SOL     OW35650   0.570   7.309   7.602  0.3132 -0.0451 -0.4020
 7999SOL    HW135651   0.546   7.285   7.696  2.0304  0.7397  0.2576
 7999SOL    HW235652   0.515   7.254   7.539 -0.4645 -0.9789  1.0524
 8000SOL     OW35653   9.175   3.407   3.832  0.6471 -0.3986  0.7473
 8000SOL    HW135654   9.128   3.490   3.804  0.3868 -0.7361  0.1694
 8000SOL    HW235655   9.147   3.382   3.925 -0.8994 -1.0175  0.1353
 8001SOL     OW35656   3.193   3.656   4.554 -0.2858  0.0194 -0.0747
 8001SOL    HW135657   3.266   3.670   4.621  0.3554  4.0714 -1.4261
 8001SOL    HW235658   3.111   3.706   4.583 -0.6049  0.2719 -1.3518
 8002SOL     OW35659   1.917   2.384   1.641 -0.5389  0.4918  0.6053
 8002SOL    HW135660   1.950   2.321   1.712 -1.9014 -1.6410 -0.5974
 8002SOL    HW235661   1.856   2.452   1.681 -2.1409 -1.3457  1.3189
 8003SOL     OW35662   7.443   6.299   6.397 -0.1058 -0.0006  0.2288
 8003SOL    HW135663   7.368   6.305   6.464 -0.9409 -0.9128 -0.6014
 8003SOL    HW235664   7.530   6.293   6.446 -0.6488  0.0956  1.2348
 8004SOL     OW35665   9.154   4.709   1.763  0.1193 -0.7349 -0.1603
 8004SOL    HW135666   9.133   4.619   1.724  0.6403 -1.4464  1.1301
 8004SOL    HW235667   9.208   4.696   1.847  1.1583  0.8392 -0.5815
 8005SOL     OW35668   3.969   5.397   4.389 -0.3055  0.0651 -0.5234
 8005SOL    HW135669   4.061   5.374   4.358 -0.3842  0.0327 -0.7285
 8005SOL    HW235670   3.967   5.492   4.420 -0.2148  0.0800 -0.5642
 8006SOL     OW35671   6.411   4.812   0.548  0.3669 -0.4095 -0.7781
 8006SOL    HW135672   6.393   4.778   0.455  0.0833  0.1725 -0.9402
 8006SOL    HW235673   6.335   4.871   0.577  1.5030  1.2289 -1.0595
 8007SOL     OW35674   4.449   2.639   5.103  0.4363  0.4140  0.0032
 8007SOL    HW135675   4.480   2.577   5.176 -0.1237  1.5950  1.2710
 8007SOL    HW235676   4.356   2.613   5.076  0.0137  0.9958  0.8797
 8008SOL     OW35677   0.147   4.798   0.869  0.0341  0.6167  0.2229
 8008SOL    HW135678   0.073   4.738   0.898 -1.2977  1.8344 -0.6035
 8008SOL    HW235679   0.157   4.873   0.934  0.4294  0.5490  0.2426
 8009SOL     OW35680   8.630   5.755   1.674  0.7087  0.4499  0.3800
 8009SOL    HW135681   8.695   5.683   1.698  0.5876  0.0992 -0.3230
 8009SOL    HW235682   8.589   5.735   1.585 -0.4400  0.6071  0.8604
 8010SOL     OW35683   1.813   5.877   7.090 -0.3660  0.4644 -0.2827
 8010SOL    HW135684   1.757   5.948   7.133  1.2943  1.0971  0.8767
 8010SOL    HW235685   1.891   5.919   7.044  0.6211 -0.6083  0.3870
 8011SOL     OW35686   4.831   6.421   2.195  0.4344 -0.4220 -0.3714
 8011SOL    HW135687   4.912   6.401   2.249  0.0490 -2.4216 -0.4945
 8011SOL    HW235688   4.806   6.341   2.141 -2.1391 -0.1344  0.3290
 8012SOL     OW35689   1.750   1.316   3.408 -0.4049  0.4190 -0.0901
 8012SOL    HW135690   1.825   1.371   3.370 -0.1994 -0.0125 -0.3221
 8012SOL    HW235691   1.736   1.235   3.350 -0.3210 -0.0707  0.5674
 8013SOL     OW35692   2.999   9.419   0.961  0.1646  0.0457 -0.4337
 8013SOL    HW135693   3.029   9.513   0.974 -0.5308  0.1779  0.2726
 8013SOL    HW235694   3.078   9.361   0.941  0.9873  0.2499  2.1296
 8014SOL     OW35695   0.158   4.740   2.041 -0.0372 -0.3419 -0.0596
 8014SOL    HW135696   0.096   4.812   2.008 -0.6596  0.2804  2.3506
 8014SOL    HW235697   0.107   4.655   2.053 -0.5087  0.2130  2.0816
 8015SOL     OW35698   2.225   5.958   3.647 -0.3888 -0.1400  0.0270
 8015SOL    HW135699   2.272   6.033   3.694  0.2488 -0.4963 -0.0388
 8015SOL    HW235700   2.287   5.915   3.582 -0.9965 -0.2250 -0.5022
 8016SOL     OW35701   6.756   9.998   1.934  0.2316 -0.2767  0.3877
 8016SOL    HW135702   6.761  10.031   1.839  0.8251 -2.0265 -0.2124
 8016SOL    HW235703   6.697   9.918   1.939 -1.1448  0.8004  1.8145
 8017SOL     OW35704   0.821   0.809   4.069  0.5257 -0.0213  0.2314
 8017SOL    HW135705   0.887   0.820   4.144  1.2986  0.0492 -0.4563
 8017SOL    HW235706   0.797   0.712   4.061  0.9880 -0.1278  0.1089
 8018SOL     OW35707   7.060   2.606   3.219  0.6801  0.5629 -0.7010
 8018SOL    HW135708   6.998   2.528   3.225 -1.3974  2.1989 -0.2405
 8018SOL    HW235709   7.077   2.642   3.311  1.5296  0.7363 -0.9205
 8019SOL     OW35710   4.401   3.218   7.729 -0.9995 -0.2343 -0.0174
 8019SOL    HW135711   4.322   3.234   7.671 -1.1147 -1.5111 -0.2146
 8019SOL    HW235712   4.482   3.262   7.689 -0.8587 -1.9676 -1.6946
 8020SOL     OW35713   7.763   2.257   6.984 -0.2434  0.0791  0.4282
 8020SOL    HW135714   7.754   2.231   7.080  2.4528 -1.1044  0.3836
 8020SOL    HW235715   7.857   2.284   6.964 -0.0612 -2.4261 -2.5030
 8021SOL     OW35716   5.131   6.269   1.242 -0.3638 -0.2105  0.1150
 8021SOL    HW135717   5.207   6.211   1.212 -0.0049  0.7856 -0.9494
 8021SOL    HW235718   5.117   6.256   1.340  1.8124  0.3000  0.5297
 8022SOL     OW35719   9.877   5.150   5.656 -0.4177 -0.0461  0.4959
 8022SOL    HW135720   9.802   5.198   5.610 -0.0180 -0.1513 -0.2655
 8022SOL    HW235721   9.839   5.094   5.730 -1.1783 -0.6351 -0.3212
 8023SOL     OW35722   3.713   5.735   1.094 -0.0655 -0.0256  0.6689
 8023SOL    HW135723   3.791   5.704   1.149  0.1546  0.0173  0.3829
 8023SOL    HW235724   3.744   5.806   1.031 -0.4590  0.4126  0.9612
 8024SOL     OW35725   8.993   0.640   3.413  0.0293 -0.5027  0.1148
 8024SOL    HW135726   8.943   0.725   3.400  0.3201 -0.3749 -0.1567
 8024SOL    HW235727   9.066   0.633   3.346  1.0069 -0.2294  1.1439
 8025SOL     OW35728   6.836   7.486   8.299 -0.0894  0.4005 -0.4648
 8025SOL    HW135729   6.933   7.492   8.325 -0.1132 -1.0601  0.0365
 8025SOL    HW235730   6.827   7.426   8.219 -0.5734  0.5438 -0.5166
 8026SOL     OW35731   7.558   7.909   2.524  0.3217 -0.1747  0.0349
 8026SOL    HW135732   7.488   7.879   2.460  1.2169  0.9595 -1.5093
 8026SOL    HW235733   7.521   7.979   2.584  0.2315  0.7236 -1.0562
 8027SOL     OW35734   2.573   8.450   7.873 -0.0737  0.2616 -0.4792
 8027SOL    HW135735   2.550   8.452   7.776 -0.7920 -0.3909 -0.3339
 8027SOL    HW235736   2.559   8.540   7.913  1.7703  0.9290 -1.3200
 8028SOL     OW35737   6.426   1.759   2.064 -0.2322 -0.2530 -0.0133
 8028SOL    HW135738   6.395   1.665   2.050  0.2794 -0.5907  1.0066
 8028SOL    HW235739   6.526   1.760   2.066 -0.2288  0.4165 -0.6991
 8029SOL     OW35740   1.652   1.562   5.543  0.8858 -0.0353 -0.2978
 8029SOL    HW135741   1.662   1.576   5.642  1.5570  2.1384 -0.6360
 8029SOL    HW235742   1.727   1.607   5.496 -1.3146  2.0035 -1.9954
 8030SOL     OW35743   0.464   1.523   5.606 -0.3486 -0.1705  0.0434
 8030SOL    HW135744   0.410   1.581   5.667  0.2520 -1.7602  2.1523
 8030SOL    HW235745   0.557   1.515   5.640 -0.1291 -1.4902 -0.8000
 8031SOL     OW35746   6.477   3.998   2.610 -0.5578 -0.2858 -0.1020
 8031SOL    HW135747   6.567   3.958   2.628 -0.5609 -0.3595 -0.2481
 8031SOL    HW235748   6.407   3.942   2.654 -0.6007 -0.7294 -0.7317
 8032SOL     OW35749   3.698   1.294   1.842 -0.6704 -0.0674  0.4690
 8032SOL    HW135750   3.718   1.357   1.767 -1.7535 -0.0534  0.1901
 8032SOL    HW235751   3.776   1.292   1.905 -0.1216  0.6013 -0.1795
 8033SOL     OW35752   1.047   6.139   2.864  0.2396 -0.0934  0.3694
 8033SOL    HW135753   1.011   6.052   2.831 -1.4824  1.0608 -0.9171
 8033SOL    HW235754   1.133   6.160   2.817 -1.5100  0.9011 -2.5621
 8034SOL     OW35755   7.728   9.264   7.818  0.1811  0.2772  0.0995
 8034SOL    HW135756   7.714   9.183   7.875 -1.1630  0.3150 -0.1599
 8034SOL    HW235757   7.642   9.288   7.773  1.1630  0.3934 -1.7529
 8035SOL     OW35758   2.508   9.931   7.486 -0.2706 -0.3281 -0.5862
 8035SOL    HW135759   2.481  10.022   7.518  0.3648  0.0516 -1.1370
 8035SOL    HW235760   2.426   9.876   7.470 -0.6443  0.0070  0.1393
 8036SOL     OW35761   9.278   0.883   5.679  0.1657  0.0677 -0.2245
 8036SOL    HW135762   9.256   0.786   5.675  0.9952 -0.0886 -1.1974
 8036SOL    HW235763   9.373   0.895   5.709  0.8491  0.4703 -2.4779
 8037SOL     OW35764   0.981   8.755   7.521  0.4666  0.1332 -0.1207
 8037SOL    HW135765   0.931   8.674   7.552  1.4748 -1.1907 -1.8205
 8037SOL    HW235766   0.972   8.764   7.422  1.2792  1.4752 -0.0854
 8038SOL     OW35767   8.637   3.704   1.714  0.3372 -0.2362  0.3274
 8038SOL    HW135768   8.626   3.692   1.615 -1.2759  1.6338  0.2438
 8038SOL    HW235769   8.733   3.691   1.738  0.7238 -0.8768 -1.4630
 8039SOL     OW35770   5.503   3.083   1.374 -0.2718  0.6052 -0.6788
 8039SOL    HW135771   5.493   3.089   1.275 -0.3089  1.2623 -0.6346
 8039SOL    HW235772   5.600   3.084   1.398 -0.0967 -3.1858 -0.9370
 8040SOL     OW35773   3.501   2.519   1.414 -0.1758 -0.9654  0.1559
 8040SOL    HW135774   3.537   2.428   1.400 -2.5430 -1.7102 -1.4612
 8040SOL    HW235775   3.557   2.586   1.365  0.4505 -1.7843 -0.2486
 8041SOL     OW35776   5.225   0.995   3.776  0.4475  0.2765 -0.1567
 8041SOL    HW135777   5.274   0.984   3.862  0.1790  1.0342  0.1043
 8041SOL    HW235778   5.151   1.062   3.789 -0.3786 -0.5297 -0.6492
 8042SOL     OW35779   8.981   3.390   6.907 -0.1968  0.4082 -0.1240
 8042SOL    HW135780   8.897   3.440   6.928 -0.5770  0.4025 -1.5619
 8042SOL    HW235781   9.060   3.450   6.921 -0.4848  0.6273  0.5690
 8043SOL     OW35782   8.511   1.747   1.854  0.0397 -0.3987  0.1939
 8043SOL    HW135783   8.580   1.768   1.922 -0.0415  2.6131 -0.5945
 8043SOL    HW235784   8.556   1.723   1.768  0.1317  0.7959 -0.1002
 8044SOL     OW35785   4.401   2.139   6.022  0.8685 -0.8698 -0.0329
 8044SOL    HW135786   4.483   2.121   6.077  1.5956  0.6292 -0.6025
 8044SOL    HW235787   4.428   2.160   5.928 -0.0682  0.6407  0.0111
 8045SOL     OW35788   0.373   0.578   2.941  0.6596 -0.0497 -0.7261
 8045SOL    HW135789   0.398   0.630   3.023  0.9585 -0.2279 -0.7039
 8045SOL    HW235790   0.417   0.620   2.861  2.0898 -1.1291 -0.5216
 8046SOL     OW35791   4.257   6.650   3.799 -0.3977  0.3539  0.0943
 8046SOL    HW135792   4.317   6.572   3.819 -0.7407  0.2996  0.9264
 8046SOL    HW235793   4.161   6.621   3.806 -0.5308  0.3118 -1.7277
 8047SOL     OW35794   2.631   8.301   6.088  0.0025 -0.5564 -0.6997
 8047SOL    HW135795   2.688   8.239   6.034  1.5351 -0.7909  1.1276
 8047SOL    HW235796   2.600   8.376   6.030 -0.1875 -1.9227 -2.4352
 8048SOL     OW35797   3.079   6.563   0.468  0.7280  0.2487  0.0737
 8048SOL    HW135798   3.050   6.472   0.441 -1.4412  0.9007  0.1008
 8048SOL    HW235799   3.132   6.557   0.553  0.0119 -0.9246  0.4555
 8049SOL     OW35800   0.808   2.198   1.138  0.5689 -0.6494  0.2075
 8049SOL    HW135801   0.899   2.159   1.135  0.9913  0.2573  0.9093
 8049SOL    HW235802   0.808   2.277   1.199 -0.7465 -0.8058  0.4205
 8050SOL     OW35803   2.475   6.447   1.146  0.0499  0.0730  0.4455
 8050SOL    HW135804   2.574   6.457   1.142 -0.0408  0.4527 -0.9276
 8050SOL    HW235805   2.435   6.530   1.186  0.2249  0.2651  0.2219
 8051SOL     OW35806   9.790   6.417   4.453 -0.2532 -0.2368  0.7926
 8051SOL    HW135807   9.859   6.459   4.512  0.8157  0.3653 -0.8486
 8051SOL    HW235808   9.699   6.441   4.485  0.3378  2.3192  0.6044
 8052SOL     OW35809   1.001   8.890   2.214  0.0731 -0.0705  0.6349
 8052SOL    HW135810   0.915   8.838   2.220  0.1417  0.0233  3.0455
 8052SOL    HW235811   0.981   8.982   2.180 -0.9181  0.2049  1.9008
 8053SOL     OW35812   8.270   4.248   4.953  0.3037  0.0199 -0.3227
 8053SOL    HW135813   8.174   4.267   4.933 -0.1246 -1.2343  0.4800
 8053SOL    HW235814   8.303   4.313   5.022 -0.3346 -0.3752  0.3517
 8054SOL     OW35815   2.225   6.235   7.104  0.1322  0.4360 -0.6299
 8054SOL    HW135816   2.262   6.289   7.029 -1.7976  0.2626 -1.7258
 8054SOL    HW235817   2.237   6.138   7.085 -0.5444  0.3873 -0.8151
 8055SOL     OW35818   8.270   6.882   1.270  0.4594 -0.2277 -0.0736
 8055SOL    HW135819   8.187   6.925   1.236  0.7595 -0.1167 -0.6663
 8055SOL    HW235820   8.261   6.783   1.264 -0.2253 -0.2699  1.2815
 8056SOL     OW35821   8.710   5.142   0.950 -0.0948 -0.3359 -0.0748
 8056SOL    HW135822   8.753   5.232   0.961 -0.0445 -0.3202 -0.3927
 8056SOL    HW235823   8.778   5.076   0.917 -0.4021 -0.2133 -0.9779
 8057SOL     OW35824   4.324   0.207   6.721  0.7207 -0.0981 -0.7332
 8057SOL    HW135825   4.328   0.307   6.723 -0.6192 -0.0561  0.0855
 8057SOL    HW235826   4.230   0.177   6.706  1.1572 -1.2374 -1.2642
 8058SOL     OW35827   7.339   1.813   5.241 -0.0092  0.3190  0.1064
 8058SOL    HW135828   7.407   1.812   5.167  0.1720  0.4063  0.2736
 8058SOL    HW235829   7.340   1.902   5.286  0.5420 -0.0515  0.8298
 8059SOL     OW35830   8.336   6.215   4.232  0.3539  0.3365 -0.6535
 8059SOL    HW135831   8.299   6.131   4.272  2.0166 -0.2128 -0.2472
 8059SOL    HW235832   8.436   6.214   4.237  0.3652  2.8929  0.5231
 8060SOL     OW35833   8.712   8.861   6.501  0.2434  0.1371 -0.1638
 8060SOL    HW135834   8.783   8.820   6.559  0.9095  0.9620 -0.3943
 8060SOL    HW235835   8.637   8.796   6.491  1.2959 -1.0431 -0.5473
 8061SOL     OW35836   1.458   7.443   2.009 -0.5328 -0.3045 -0.0480
 8061SOL    HW135837   1.375   7.498   1.998  0.0050  0.6822  0.8353
 8061SOL    HW235838   1.464   7.378   1.933 -0.9147  1.1733 -1.3651
 8062SOL     OW35839   2.207   6.459   5.510 -0.3499  0.0877 -0.2494
 8062SOL    HW135840   2.270   6.458   5.432 -0.2276  0.2228 -0.1532
 8062SOL    HW235841   2.149   6.541   5.504 -0.3335  0.1036 -0.1932
 8063SOL     OW35842   4.355   1.880   3.924 -0.3310 -0.4965  0.4034
 8063SOL    HW135843   4.351   1.975   3.893  1.3638 -0.3450  0.6116
 8063SOL    HW235844   4.289   1.867   3.998 -4.6874 -0.9629 -3.3480
 8064SOL     OW35845   2.214   5.954   5.823  0.1047 -0.3320  0.3372
 8064SOL    HW135846   2.241   6.050   5.815 -0.2681 -0.2974 -0.5175
 8064SOL    HW235847   2.119   5.949   5.855  1.0951 -0.4533  3.4576
 8065SOL     OW35848   8.922   3.269   0.858 -0.2668  0.2894  0.3679
 8065SOL    HW135849   8.989   3.239   0.790 -1.2116  1.4097 -1.0971
 8065SOL    HW235850   8.902   3.366   0.843 -3.2719 -0.3669 -0.1229
 8066SOL     OW35851   9.882   1.330   5.309 -0.9037 -0.4333  0.1521
 8066SOL    HW135852   9.785   1.309   5.297 -1.3327  2.0332 -0.9224
 8066SOL    HW235853   9.891   1.407   5.372  0.3140  0.1167 -0.7024
 8067SOL     OW35854   3.414   0.789   1.274 -0.2604 -0.1012  0.9193
 8067SOL    HW135855   3.371   0.869   1.316  1.0561  1.2629 -0.2765
 8067SOL    HW235856   3.408   0.796   1.174  0.6570 -1.0628  0.7834
 8068SOL     OW35857   5.986   8.008   4.399 -0.0737 -0.1208 -0.1037
 8068SOL    HW135858   5.998   8.056   4.486 -0.3096 -1.0237  0.4355
 8068SOL    HW235859   5.946   7.917   4.416  0.6253 -0.6215 -1.0798
 8069SOL     OW35860   3.675   8.412   1.657  0.7501 -0.0054 -0.4616
 8069SOL    HW135861   3.769   8.447   1.659  0.6364  0.2344  1.4186
 8069SOL    HW235862   3.631   8.428   1.745 -0.9364 -0.4934 -1.1820
 8070SOL     OW35863   0.145   3.685   7.250 -0.7727  0.2442  0.4129
 8070SOL    HW135864   0.237   3.682   7.212 -0.4870  1.6359  0.9709
 8070SOL    HW235865   0.117   3.593   7.277 -0.0088 -0.3655 -0.8489
 8071SOL     OW35866   2.818   9.778   5.848 -0.0153 -0.5274 -0.3749
 8071SOL    HW135867   2.761   9.801   5.927  1.3140 -0.9892  0.7347
 8071SOL    HW235868   2.867   9.692   5.866 -2.0310 -2.2996 -2.9244
 8072SOL     OW35869   3.336   7.697   1.792 -0.1589 -0.5899  0.4058
 8072SOL    HW135870   3.297   7.639   1.864 -0.3691  0.8931  1.5189
 8072SOL    HW235871   3.435   7.702   1.803 -0.2572  0.1910  1.0463
 8073SOL     OW35872   3.622   5.054   4.374  0.1719  0.3237 -0.7782
 8073SOL    HW135873   3.538   5.060   4.322  0.5795  1.0742 -1.3654
 8073SOL    HW235874   3.668   5.144   4.374 -0.2289  0.5727  1.5359
 8074SOL     OW35875   8.516   6.989   4.303 -0.2930  0.0164 -0.2373
 8074SOL    HW135876   8.565   7.023   4.222 -2.5593  1.6912 -0.9642
 8074SOL    HW235877   8.526   6.889   4.308  0.2699 -0.0677 -2.3506
 8075SOL     OW35878   2.321   5.467   0.652 -0.6918 -0.3177  0.2393
 8075SOL    HW135879   2.273   5.429   0.731 -0.4718 -0.7434  0.1699
 8075SOL    HW235880   2.274   5.440   0.568 -0.8587  0.0366  0.2182
 8076SOL     OW35881   4.558   5.130   1.842  0.1874 -0.4499  0.2374
 8076SOL    HW135882   4.605   5.098   1.925  1.2443 -0.0594 -0.1999
 8076SOL    HW235883   4.613   5.107   1.762  1.5088  3.2513 -0.0548
 8077SOL     OW35884   5.760   2.194   0.620 -0.2909 -0.1469  0.1618
 8077SOL    HW135885   5.700   2.162   0.547  0.7858 -0.8868 -0.3979
 8077SOL    HW235886   5.754   2.294   0.626 -1.2143 -0.1725 -0.1958
 8078SOL     OW35887   2.710   6.513   0.881 -0.3662 -0.4379  0.0383
 8078SOL    HW135888   2.694   6.568   0.963  1.2800  0.0658  0.0395
 8078SOL    HW235889   2.647   6.543   0.809  1.2508  2.2458 -0.3111
 8079SOL     OW35890   0.360   0.200   1.164  0.1307  0.6636 -0.3384
 8079SOL    HW135891   0.402   0.129   1.107  0.6059 -0.3528  1.2377
 8079SOL    HW235892   0.377   0.179   1.261 -1.0929  2.0807  0.1983
 8080SOL     OW35893   1.965   6.266   5.511 -0.0299  1.0620 -0.5196
 8080SOL    HW135894   1.887   6.320   5.480 -0.3213  1.8670  1.4992
 8080SOL    HW235895   2.050   6.314   5.490 -0.2173  1.5232 -0.2290
 8081SOL     OW35896   7.095   8.300   3.745 -0.6357  0.0523  0.1414
 8081SOL    HW135897   7.151   8.383   3.746 -1.6910  0.7786  1.7808
 8081SOL    HW235898   6.998   8.325   3.748 -0.9721 -1.2358  0.3444
 8082SOL     OW35899   2.251   9.409   4.085 -0.5518  0.3224  0.0878
 8082SOL    HW135900   2.159   9.395   4.121 -0.2960 -1.0495  0.2524
 8082SOL    HW235901   2.273   9.335   4.020  0.6738  0.2713  0.5466
 8083SOL     OW35902   7.524   9.461   6.235 -0.7270 -0.0850  0.1931
 8083SOL    HW135903   7.440   9.424   6.276 -1.0041  0.8785  0.4944
 8083SOL    HW235904   7.552   9.543   6.284  0.7546 -0.7513  0.4995
 8084SOL     OW35905   3.156   9.534   0.379 -0.0143 -0.6151 -0.6088
 8084SOL    HW135906   3.149   9.442   0.418 -0.4645 -0.4725 -0.3559
 8084SOL    HW235907   3.169   9.527   0.280  0.1811 -0.9536 -0.5603
 8085SOL     OW35908   3.777   8.704   3.434  0.0171 -0.1116  0.1575
 8085SOL    HW135909   3.683   8.689   3.404  0.5995 -2.7582 -0.4303
 8085SOL    HW235910   3.840   8.672   3.363  1.3858  0.6441  1.0064
 8086SOL     OW35911   2.602   5.565   7.257 -0.3999 -0.3125 -0.5209
 8086SOL    HW135912   2.587   5.645   7.315  0.8287 -0.7681  0.4540
 8086SOL    HW235913   2.585   5.590   7.162 -0.0841  1.1057 -0.2230
 8087SOL     OW35914   7.307   9.189   4.086  0.2743  0.4242  0.0075
 8087SOL    HW135915   7.307   9.133   4.003 -2.1327 -0.4716  0.5685
 8087SOL    HW235916   7.374   9.153   4.150  0.6483 -0.1615 -0.7027
 8088SOL     OW35917   7.381   8.889   3.018 -0.7589  0.1823  0.5696
 8088SOL    HW135918   7.301   8.939   2.986 -0.3762 -0.3968 -1.3958
 8088SOL    HW235919   7.373   8.793   2.990  1.0277  0.3106 -0.4546
 8089SOL     OW35920   8.140   3.065   3.188  0.3981 -0.1655 -0.2777
 8089SOL    HW135921   8.049   3.023   3.182 -0.3884  0.8853  3.1023
 8089SOL    HW235922   8.205   2.997   3.220 -0.0233  0.0755  1.1198
 8090SOL     OW35923   5.874   5.466   1.558  0.0356  0.0975  0.1485
 8090SOL    HW135924   5.898   5.396   1.625 -0.8618  1.6413  2.1414
 8090SOL    HW235925   5.774   5.473   1.552  0.1168  0.5410 -0.7228
 8091SOL     OW35926   9.752   7.631   3.411  0.4963 -0.5348  0.4144
 8091SOL    HW135927   9.772   7.727   3.428  0.3385 -0.4099 -0.1094
 8091SOL    HW235928   9.813   7.596   3.341  0.8442 -0.9361  0.9095
 8092SOL     OW35929   6.468   1.845   5.292  0.2042  0.0956 -0.0649
 8092SOL    HW135930   6.455   1.879   5.385  0.5000 -1.7120  0.6500
 8092SOL    HW235931   6.554   1.795   5.286  0.7453  1.1721 -1.6157
 8093SOL     OW35932   8.687   3.491   5.997  0.2417 -0.1438  0.2719
 8093SOL    HW135933   8.729   3.442   5.920 -0.8670 -0.6293 -0.0290
 8093SOL    HW235934   8.707   3.588   5.989 -1.1492  0.0252 -1.4912
 8094SOL     OW35935   6.529   0.735   1.455 -0.5522 -0.0332 -0.0937
 8094SOL    HW135936   6.510   0.795   1.378 -0.0812  1.1945  0.7410
 8094SOL    HW235937   6.512   0.783   1.541 -0.2132 -1.0938  0.5873
 8095SOL     OW35938   5.983   2.529   5.500  0.3545 -0.4638  0.4527
 8095SOL    HW135939   6.077   2.563   5.490  0.4851 -0.9028  0.1637
 8095SOL    HW235940   5.977   2.473   5.583 -0.1710  1.3055  1.6265
 8096SOL     OW35941   8.888   4.503   6.555  0.8953  0.5277  1.0520
 8096SOL    HW135942   8.958   4.558   6.511  2.0005 -1.7028 -0.0625
 8096SOL    HW235943   8.881   4.414   6.509 -2.5686  0.6344  1.2367
 8097SOL     OW35944   2.766   1.050   1.126 -0.1527 -0.1114  0.2147
 8097SOL    HW135945   2.756   1.009   1.035 -2.8700 -0.4692  0.6216
 8097SOL    HW235946   2.828   0.994   1.181 -0.8239 -1.5809 -0.4833
 8098SOL     OW35947   8.403   3.419   1.431  0.1757  0.3378 -0.8701
 8098SOL    HW135948   8.383   3.513   1.404 -0.8980  0.1896 -0.6267
 8098SOL    HW235949   8.446   3.419   1.521 -0.7347  0.5517 -0.4247
 8099SOL     OW35950   4.237   0.107   1.891  0.2311  0.8341  0.1594
 8099SOL    HW135951   4.251   0.009   1.889 -1.4944  0.5732 -1.7149
 8099SOL    HW235952   4.265   0.144   1.980 -1.4914 -1.7252  1.8342
 8100SOL     OW35953   4.145   8.620   6.194 -0.5821  0.1804 -0.1843
 8100SOL    HW135954   4.098   8.536   6.221  1.4398 -0.4918  1.2988
 8100SOL    HW235955   4.118   8.695   6.255  0.2001 -0.1760  0.5914
 8101SOL     OW35956   7.911   1.449   3.886  0.2550  0.0589  0.1538
 8101SOL    HW135957   7.888   1.352   3.875 -2.2536  0.7036 -0.5394
 8101SOL    HW235958   7.981   1.458   3.957 -0.5721 -2.1383  1.3062
 8102SOL     OW35959   9.460   4.168   0.874  0.6768  0.4669  0.0661
 8102SOL    HW135960   9.493   4.079   0.906  0.7992  0.7139  0.6362
 8102SOL    HW235961   9.383   4.197   0.931  1.7492  1.5298  0.9782
 8103SOL     OW35962   4.226   8.453   8.039 -0.2421 -0.1541 -0.1644
 8103SOL    HW135963   4.299   8.403   8.086  0.0580  0.3591 -0.0903
 8103SOL    HW235964   4.266   8.529   7.987 -0.7618  0.3133  0.1252
 8104SOL     OW35965   3.559   8.981   8.202 -0.6864 -0.0645 -0.1706
 8104SOL    HW135966   3.534   9.048   8.132  0.5168 -0.3981 -0.9419
 8104SOL    HW235967   3.607   9.027   8.277 -2.9903  0.4755  1.0051
 8105SOL     OW35968   0.017   3.714   2.568 -0.3863 -0.2840 -0.9125
 8105SOL    HW135969   0.037   3.641   2.503  0.4787 -0.1275 -0.8273
 8105SOL    HW235970  -0.082   3.729   2.573 -0.6410 -2.1497 -0.1603
 8106SOL     OW35971   7.106   8.725   7.623  0.4658  0.0316 -0.1836
 8106SOL    HW135972   7.082   8.639   7.579  0.4905 -0.1182  0.0941
 8106SOL    HW235973   7.131   8.793   7.553 -0.0306 -0.0380 -0.4266
 8107SOL     OW35974   9.555   5.762   3.959  0.0897  0.5329 -0.5512
 8107SOL    HW135975   9.500   5.709   4.023 -0.2502  1.0855 -0.3914
 8107SOL    HW235976   9.501   5.783   3.878  1.2194 -2.2084 -2.1203
 8108SOL     OW35977   3.316   0.768   3.692 -0.4469 -0.3880  0.4517
 8108SOL    HW135978   3.334   0.824   3.772 -0.6380  1.0414 -0.4752
 8108SOL    HW235979   3.403   0.741   3.649 -0.3820  0.9519 -0.2742
 8109SOL     OW35980   1.468   6.711   3.939 -0.0212  0.1040  0.4221
 8109SOL    HW135981   1.424   6.800   3.926  0.4337  0.3637  0.6498
 8109SOL    HW235982   1.426   6.644   3.877 -0.8061  0.3200  0.7197
 8110SOL     OW35983   8.165   4.982   2.222  0.3235  0.2944 -0.1406
 8110SOL    HW135984   8.073   4.946   2.237  0.7039 -0.2087  1.0260
 8110SOL    HW235985   8.210   4.930   2.149  1.3336 -2.4919  2.3665
 8111SOL     OW35986   3.064   7.545   4.039 -0.6454 -0.2218 -0.1656
 8111SOL    HW135987   3.127   7.508   4.107 -1.5963 -0.0453  0.8306
 8111SOL    HW235988   3.009   7.618   4.080 -1.1060  0.0176 -1.1731
 8112SOL     OW35989   0.285   7.937   7.002  0.1882 -0.1108 -0.1610
 8112SOL    HW135990   0.275   8.024   6.955 -0.7769 -0.2426 -0.2164
 8112SOL    HW235991   0.248   7.863   6.945 -1.6765 -0.1841  1.0751
 8113SOL     OW35992   0.626   1.457   7.132  0.1255 -0.4466 -0.5386
 8113SOL    HW135993   0.562   1.493   7.200 -0.8972 -1.6003 -0.8641
 8113SOL    HW235994   0.719   1.467   7.165 -0.3004 -0.0394  0.5713
 8114SOL     OW35995   3.179   7.736   5.345  0.4867  0.0378  0.1285
 8114SOL    HW135996   3.142   7.687   5.424  0.1113  0.8282  0.4505
 8114SOL    HW235997   3.228   7.817   5.376  0.4967  0.2555 -0.4431
 8115SOL     OW35998   8.502   4.743   7.121  0.1071  0.3047 -0.1003
 8115SOL    HW135999   8.535   4.756   7.214  1.5817  0.2225 -0.5946
 8115SOL    HW236000   8.415   4.695   7.122  0.6178 -0.6032  1.1875
 8116SOL     OW36001   0.385   8.008   6.433  0.1242 -1.1054  0.4514
 8116SOL    HW136002   0.302   8.030   6.485  1.0328  1.9547  0.6987
 8116SOL    HW236003   0.369   8.028   6.336 -0.1267 -2.5895  0.1823
 8117SOL     OW36004   0.062   9.165   4.100 -0.3584  0.2774  0.6179
 8117SOL    HW136005  -0.015   9.217   4.138 -0.9891  0.5893 -1.0349
 8117SOL    HW236006   0.066   9.180   4.001 -0.3162 -2.5353  0.1708
 8118SOL     OW36007   0.928   3.477   5.789 -0.0015 -0.8270 -0.0438
 8118SOL    HW136008   0.848   3.428   5.824  0.3974 -0.5354  1.3057
 8118SOL    HW236009   0.904   3.522   5.703 -1.2435 -0.8891  0.2575
 8119SOL     OW36010   8.281   7.076   1.763  0.3504 -0.2097 -0.7766
 8119SOL    HW136011   8.228   7.016   1.703 -0.1278  0.1286 -0.6950
 8119SOL    HW236012   8.274   7.170   1.730  0.9190 -0.1711 -0.7771
 8120SOL     OW36013   8.084   4.600   0.061  0.1973  0.0699  0.1843
 8120SOL    HW136014   8.142   4.677   0.088 -1.1797  1.5836 -1.0416
 8120SOL    HW236015   8.137   4.515   0.063  1.9512  1.1638  0.8032
 8121SOL     OW36016   2.972   7.884   5.875  0.5249 -0.6085  0.4330
 8121SOL    HW136017   2.952   7.943   5.953 -0.1008  0.6299 -0.6433
 8121SOL    HW236018   2.990   7.791   5.907  0.2326 -0.1281  2.0367
 8122SOL     OW36019   7.272   0.526   5.761 -0.2590 -0.0438  0.4562
 8122SOL    HW136020   7.222   0.581   5.694 -2.2650 -1.2440  0.9391
 8122SOL    HW236021   7.344   0.582   5.802 -1.0362  1.6466 -0.4084
 8123SOL     OW36022   6.309   9.932   2.701 -0.9702  0.4163  0.3041
 8123SOL    HW136023   6.359   9.960   2.783  0.2001 -0.4207 -0.1249
 8123SOL    HW236024   6.249  10.007   2.672 -0.6103  1.1062  1.3110
 8124SOL     OW36025   5.222   1.636   6.578  0.4305  0.2614 -0.9118
 8124SOL    HW136026   5.283   1.608   6.652  1.3771  1.5522 -1.1863
 8124SOL    HW236027   5.128   1.640   6.613  0.7398 -0.0445 -0.0248
 8125SOL     OW36028   5.196   3.826   7.162  0.0894  0.2225  0.3771
 8125SOL    HW136029   5.127   3.853   7.228  0.0534  1.5313 -0.1807
 8125SOL    HW236030   5.287   3.847   7.198  0.0786  0.7547  0.0925
 8126SOL     OW36031   6.189   4.754   0.021  0.3845  0.3662  0.8048
 8126SOL    HW136032   6.183   4.854   0.025  0.5958  0.4531 -0.6942
 8126SOL    HW236033   6.226   4.727  -0.068 -1.0730 -1.0994  0.6191
 8127SOL     OW36034   2.095   3.306   5.408  0.2746  0.0106  0.4321
 8127SOL    HW136035   2.018   3.248   5.382  0.5153 -0.0459 -0.1642
 8127SOL    HW236036   2.136   3.270   5.492  0.3344 -0.5990  0.1457
 8128SOL     OW36037   1.213   3.910   2.871 -0.9731 -0.0993 -0.7221
 8128SOL    HW136038   1.173   3.980   2.811  1.6399  2.3408  0.2374
 8128SOL    HW236039   1.145   3.880   2.938 -2.5908  0.4032 -2.1185
 8129SOL     OW36040   2.973   5.345   3.184 -0.0951  0.0775 -0.1074
 8129SOL    HW136041   2.882   5.304   3.179  0.3799 -1.1382  0.9748
 8129SOL    HW236042   3.040   5.274   3.208  0.8480  1.3310  1.0264
 8130SOL     OW36043   0.451   7.047   4.720 -0.0916  0.1494 -0.3194
 8130SOL    HW136044   0.497   6.961   4.700  0.3609  0.8791 -2.5763
 8130SOL    HW236045   0.364   7.029   4.766  1.0107 -1.3766  1.2175
 8131SOL     OW36046   3.323   8.433   0.400  0.0938  0.2259  0.0504
 8131SOL    HW136047   3.260   8.414   0.324  0.3333  0.6209 -0.2504
 8131SOL    HW236048   3.375   8.516   0.380  0.1557  0.3345  0.6532
 8132SOL     OW36049   8.330   4.561   1.212 -0.1950 -0.4922 -0.1690
 8132SOL    HW136050   8.398   4.625   1.177 -0.7286 -0.3579 -1.0023
 8132SOL    HW236051   8.283   4.518   1.134  0.5637 -2.3408  0.3749
 8133SOL     OW36052   1.122   2.610   4.228  0.3153  0.0719  0.0917
 8133SOL    HW136053   1.032   2.638   4.258  0.6945  1.7577 -0.3092
 8133SOL    HW236054   1.113   2.547   4.150 -0.5258 -0.7159  0.8135
 8134SOL     OW36055   0.933   5.830   3.207 -0.2502 -0.6046  0.2415
 8134SOL    HW136056   0.850   5.883   3.193 -0.3496 -0.7326  0.3304
 8134SOL    HW236057   0.908   5.737   3.237 -0.0821 -0.7263  0.0018
 8135SOL     OW36058   0.340   3.630   5.371  0.0576  0.4821  0.5355
 8135SOL    HW136059   0.432   3.592   5.373 -0.6304 -1.2546  0.3143
 8135SOL    HW236060   0.298   3.621   5.461  0.6178  2.6449  1.0452
 8136SOL     OW36061   1.604   6.633   4.774  0.3123 -0.5206  0.5140
 8136SOL    HW136062   1.636   6.539   4.789 -0.3072 -0.9318 -0.6592
 8136SOL    HW236063   1.601   6.652   4.676 -0.5631  0.3805  0.7057
 8137SOL     OW36064   0.673   6.137   0.821  0.4112  0.0735  0.5915
 8137SOL    HW136065   0.643   6.232   0.822  1.0147  0.2541  1.3524
 8137SOL    HW236066   0.687   6.105   0.915 -2.5178 -1.6164  0.5205
 8138SOL     OW36067   5.463   1.384   6.287 -0.0559  0.3280 -0.1809
 8138SOL    HW136068   5.420   1.380   6.377  0.1245  1.7402 -0.0275
 8138SOL    HW236069   5.397   1.357   6.217 -0.2383 -0.6378  0.3497
 8139SOL     OW36070   1.130   8.242   3.624  0.1490  0.4814  0.2066
 8139SOL    HW136071   1.125   8.341   3.640  3.1757  0.5687  0.8959
 8139SOL    HW236072   1.213   8.206   3.667 -0.0686 -2.0840 -1.4607
 8140SOL     OW36073   5.615   1.414   6.987  0.5471 -0.1471  0.0330
 8140SOL    HW136074   5.570   1.393   6.900 -0.2417  1.1344  0.1258
 8140SOL    HW236075   5.559   1.381   7.063  0.0285  0.9250  0.1278
 8141SOL     OW36076   3.587   3.590   5.883 -0.0102 -0.0884  0.0873
 8141SOL    HW136077   3.634   3.587   5.795 -0.4582 -3.3277 -0.1184
 8141SOL    HW236078   3.547   3.680   5.897  1.5248  0.9910 -2.2380
 8142SOL     OW36079   6.550   1.875   1.719  0.0213 -0.5842 -0.2591
 8142SOL    HW136080   6.461   1.889   1.674 -0.0551  0.0771  0.0948
 8142SOL    HW236081   6.569   1.777   1.724 -0.8251 -0.7476 -0.0863
 8143SOL     OW36082   8.064   5.293   7.319  0.2922 -0.2928  0.1644
 8143SOL    HW136083   8.110   5.321   7.403 -0.1438  1.0903 -0.0487
 8143SOL    HW236084   7.990   5.230   7.341 -0.2781  0.6251  0.8777
 8144SOL     OW36085   9.986   1.921   1.226 -0.0928  0.8817  0.2339
 8144SOL    HW136086  10.014   1.851   1.161  0.9147  0.3874  1.1710
 8144SOL    HW236087   9.939   1.878   1.303  0.6419  1.1980  0.8726
 8145SOL     OW36088   9.932   3.797   1.487  0.0301  0.1867 -0.0190
 8145SOL    HW136089   9.842   3.787   1.529  0.9484  0.3432  2.0357
 8145SOL    HW236090   9.924   3.788   1.387 -2.1349 -0.5462  0.2041
 8146SOL     OW36091   3.253   3.148   5.927 -0.2749 -0.1469 -0.4326
 8146SOL    HW136092   3.325   3.183   5.868 -0.8221  0.5414 -0.6903
 8146SOL    HW236093   3.288   3.138   6.020  0.5249 -1.0332 -0.8164
 8147SOL     OW36094   1.937   3.446   5.764 -0.5502  0.2476  0.0595
 8147SOL    HW136095   1.972   3.525   5.712 -0.4366  0.6473  0.7384
 8147SOL    HW236096   1.988   3.437   5.849 -1.0506 -0.1285  0.3199
 8148SOL     OW36097   4.009   9.897   2.559 -0.1549  0.6329  0.1216
 8148SOL    HW136098   4.047   9.925   2.647  1.0283  0.9688 -0.4836
 8148SOL    HW236099   4.083   9.883   2.494 -0.8737 -1.7719 -0.2236
 8149SOL     OW36100   1.265   2.905   1.546  0.3662 -0.1807  0.0170
 8149SOL    HW136101   1.221   2.958   1.474 -0.9669 -2.2326 -0.7320
 8149SOL    HW236102   1.214   2.915   1.632  1.0128  0.9670  0.2698
 8150SOL     OW36103   1.767   4.926   6.299 -0.0294 -0.1812  0.4437
 8150SOL    HW136104   1.866   4.934   6.298  0.0597 -1.2682  0.2389
 8150SOL    HW236105   1.737   4.870   6.222 -0.7586 -0.4154  0.8882
 8151SOL     OW36106   4.053   4.005   5.513 -0.2121  0.3585  0.0858
 8151SOL    HW136107   4.091   3.919   5.479  0.4855  0.1685  1.3359
 8151SOL    HW236108   3.998   4.048   5.441  0.4437 -0.5234 -0.9513
 8152SOL     OW36109   0.227   2.656   7.833  0.2608  0.1505 -0.0208
 8152SOL    HW136110   0.324   2.636   7.823  0.1680 -0.2484 -0.1888
 8152SOL    HW236111   0.211   2.711   7.914  0.7351  1.0245 -0.5171
 8153SOL     OW36112   2.272   8.249   0.593  0.3675  0.6141  0.0794
 8153SOL    HW136113   2.231   8.254   0.683 -1.3458  3.7363 -0.7798
 8153SOL    HW236114   2.353   8.309   0.590 -0.2893  1.4766 -0.7677
 8154SOL     OW36115   5.763   3.784   2.279 -0.0849 -0.1013 -0.2789
 8154SOL    HW136116   5.780   3.691   2.247 -0.1941 -0.6023  1.0806
 8154SOL    HW236117   5.835   3.845   2.245  1.1190 -1.0703  0.4992
 8155SOL     OW36118   3.896   1.256   2.013  0.3607  0.2554 -0.1283
 8155SOL    HW136119   3.969   1.324   2.012 -1.0136  1.8447  1.7006
 8155SOL    HW236120   3.934   1.166   2.033  1.8243  1.0510  0.7819
 8156SOL     OW36121   4.845   1.402   5.531  0.5534 -0.3271 -0.0307
 8156SOL    HW136122   4.887   1.405   5.440 -2.5560  1.3628 -1.5136
 8156SOL    HW236123   4.916   1.400   5.601  3.0334  1.2897 -2.4184
 8157SOL     OW36124   9.426   6.273   3.323 -0.4471  0.3226 -0.1740
 8157SOL    HW136125   9.476   6.244   3.242 -0.3717 -0.1819  0.0486
 8157SOL    HW236126   9.370   6.197   3.356  0.6913  0.0249  1.1336
 8158SOL     OW36127   7.346   1.960   6.827 -0.2476  0.0713 -0.1262
 8158SOL    HW136128   7.390   1.984   6.741 -1.3556  0.8644 -0.4708
 8158SOL    HW236129   7.250   1.987   6.825 -1.1874 -2.9816  0.0375
 8159SOL     OW36130   0.573   9.308   6.599 -0.6619  0.3144 -0.0293
 8159SOL    HW136131   0.592   9.395   6.554 -0.7342  1.4128  1.9741
 8159SOL    HW236132   0.484   9.273   6.568 -1.0720  1.4446 -0.1353
 8160SOL     OW36133   1.471   2.542   5.234 -0.5990  0.8434 -0.0936
 8160SOL    HW136134   1.423   2.600   5.299  0.5072  1.6675  0.0111
 8160SOL    HW236135   1.541   2.489   5.282 -0.5280  0.6270 -0.4354
 8161SOL     OW36136   3.061   8.710   2.941  0.5559 -0.6669 -0.0867
 8161SOL    HW136137   3.137   8.774   2.950  0.3080 -0.4436  0.4168
 8161SOL    HW236138   3.022   8.718   2.849  1.0834 -0.7228 -0.3196
 8162SOL     OW36139   1.172   7.896   7.162 -0.1501 -0.3375  0.0344
 8162SOL    HW136140   1.228   7.954   7.221  0.3671  1.4609 -2.1146
 8162SOL    HW236141   1.201   7.800   7.172  1.7261  0.2684  0.7222
 8163SOL     OW36142   9.714   5.318   1.188 -0.1509 -0.2899  0.2543
 8163SOL    HW136143   9.742   5.369   1.270 -1.4472 -1.1031  1.2275
 8163SOL    HW236144   9.791   5.310   1.125  0.3692  1.8788  0.6018
 8164SOL     OW36145   2.209   5.562   1.506 -0.4470  0.5237  0.1432
 8164SOL    HW136146   2.252   5.478   1.541  0.6407  1.1275  0.2791
 8164SOL    HW236147   2.141   5.538   1.437 -1.2125 -0.5596  1.2500
 8165SOL     OW36148   2.618   4.969   6.575  0.2536  0.2511  0.3341
 8165SOL    HW136149   2.640   4.919   6.659  1.8603  1.0425  0.4146
 8165SOL    HW236150   2.571   5.054   6.598  1.3496  0.8225  0.4987
 8166SOL     OW36151   1.469   0.368   1.820 -0.1418 -0.3829 -0.0256
 8166SOL    HW136152   1.457   0.270   1.806  0.7352 -0.3097 -1.4724
 8166SOL    HW236153   1.424   0.418   1.746  2.5176  0.1384 -1.3718
 8167SOL     OW36154   4.991   9.972   1.865  0.1901  0.7100  0.0165
 8167SOL    HW136155   5.041   9.938   1.945 -0.1376 -1.1532 -0.5334
 8167SOL    HW236156   4.967  10.068   1.879  2.4737  1.1860  0.9972
 8168SOL     OW36157   2.320   8.282   6.233 -0.2144 -0.2270  0.8098
 8168SOL    HW136158   2.340   8.377   6.207 -0.9757 -0.1833  0.3678
 8168SOL    HW236159   2.307   8.277   6.332  0.7344 -0.0373  0.9470
 8169SOL     OW36160   3.648   1.040   1.909  0.1550  0.2916  1.0324
 8169SOL    HW136161   3.669   1.137   1.893  0.0452  0.1736  0.1256
 8169SOL    HW236162   3.672   1.016   2.003  4.5468  0.0068 -0.0809
 8170SOL     OW36163   1.030   7.341   0.814  0.3997  0.0199  0.2849
 8170SOL    HW136164   1.122   7.329   0.775  0.1509  0.1626 -0.3570
 8170SOL    HW236165   1.005   7.437   0.811 -0.1139 -0.1282 -0.3322
 8171SOL     OW36166   0.063   6.573   7.396 -0.1299  0.2263 -0.7818
 8171SOL    HW136167  -0.017   6.613   7.350 -0.5442 -0.5801 -0.7748
 8171SOL    HW236168   0.134   6.556   7.328 -0.7097 -0.8830 -1.1233
 8172SOL     OW36169   0.305   5.124   0.302 -0.2096  0.2063 -0.1707
 8172SOL    HW136170   0.360   5.131   0.219 -0.3782  1.4566 -0.1747
 8172SOL    HW236171   0.314   5.031   0.340 -1.5402 -0.9319 -2.5545
 8173SOL     OW36172   1.851   5.294   1.190 -0.4276 -0.0365  0.0473
 8173SOL    HW136173   1.765   5.247   1.209 -0.6141  0.4248  0.3489
 8173SOL    HW236174   1.923   5.226   1.175 -0.9895 -0.4409 -0.9267
 8174SOL     OW36175   3.918   7.918   1.560  0.3178  0.1110  0.0272
 8174SOL    HW136176   3.944   8.015   1.554  0.5060  0.1236  0.9574
 8174SOL    HW236177   3.983   7.863   1.508 -0.8203  0.6453 -2.0538
 8175SOL     OW36178   6.809   1.987   7.263  0.0204  0.6692 -0.0136
 8175SOL    HW136179   6.881   2.031   7.318  0.4305 -1.7899  1.4842
 8175SOL    HW236180   6.846   1.905   7.220 -1.3102  0.6005 -1.0467
 8176SOL     OW36181   9.705   1.784   4.971 -0.8464 -0.0671  0.3479
 8176SOL    HW136182   9.657   1.719   5.030 -0.3395 -0.5172  0.2687
 8176SOL    HW236183   9.676   1.877   4.994  0.6886 -0.0882  2.5521
 8177SOL     OW36184   2.962   0.885   3.503 -0.0179 -0.9202 -0.0981
 8177SOL    HW136185   2.993   0.980   3.504 -0.1482 -0.8701 -0.6438
 8177SOL    HW236186   2.863   0.882   3.512 -0.2504 -0.8888 -2.3649
 8178SOL     OW36187   1.992   3.833   6.579  0.4834 -0.2688  0.8149
 8178SOL    HW136188   1.992   3.933   6.570 -0.8743 -0.1721  1.7970
 8178SOL    HW236189   2.085   3.799   6.570  0.9603  1.0896  0.4917
 8179SOL     OW36190   2.869   5.190   7.052  0.1290 -0.4056 -0.0553
 8179SOL    HW136191   2.830   5.267   7.002 -0.5720 -0.2776  0.6795
 8179SOL    HW236192   2.968   5.188   7.038  0.0010 -0.0633 -1.0130
 8180SOL     OW36193   5.728   7.273   3.706  0.0355  0.2282  0.2803
 8180SOL    HW136194   5.658   7.201   3.711  3.7399 -3.5854 -0.0391
 8180SOL    HW236195   5.744   7.297   3.611 -1.3198  1.7336  0.3939
 8181SOL     OW36196   3.458   0.375   2.237  0.6666  0.2974  0.3838
 8181SOL    HW136197   3.546   0.419   2.221  0.2440  1.4489  1.1613
 8181SOL    HW236198   3.417   0.411   2.321 -0.6314 -0.0889 -0.0661
 8182SOL     OW36199   3.850   9.375   7.247 -1.0069 -0.0823 -0.4732
 8182SOL    HW136200   3.837   9.277   7.265 -0.9082  0.0406  0.2809
 8182SOL    HW236201   3.885   9.420   7.329 -0.9469  0.5686 -0.8518
 8183SOL     OW36202   1.012   7.849   5.876 -0.0084  0.0941 -0.6629
 8183SOL    HW136203   1.084   7.783   5.856 -1.8880 -2.1733 -0.1473
 8183SOL    HW236204   0.973   7.882   5.790 -1.5790 -2.3329 -0.9182
 8184SOL     OW36205   9.831   4.917   0.213  0.2757 -0.0290  0.5570
 8184SOL    HW136206   9.855   4.987   0.146 -0.4088  2.1321  2.4985
 8184SOL    HW236207   9.801   4.834   0.165 -1.2019  1.8013 -1.8338
 8185SOL     OW36208   2.565   7.892   1.434 -0.6661  0.1083  0.1970
 8185SOL    HW136209   2.526   7.973   1.390 -1.0552  0.3996  1.0709
 8185SOL    HW236210   2.619   7.920   1.513 -0.8454 -0.4918  0.5318
 8186SOL     OW36211   7.622   1.012   4.628  0.2010  0.1005 -0.4708
 8186SOL    HW136212   7.662   1.008   4.537  3.9905  0.2468  1.1220
 8186SOL    HW236213   7.689   1.047   4.693 -2.3076 -0.3008  2.4626
 8187SOL     OW36214   7.427   1.780   4.388 -0.1620 -0.2637 -0.3573
 8187SOL    HW136215   7.441   1.755   4.292  0.5530 -2.0307  0.1782
 8187SOL    HW236216   7.430   1.879   4.398  1.5032 -0.1332 -1.8937
 8188SOL     OW36217   0.744   1.839   3.088 -0.0545  0.1295  0.1036
 8188SOL    HW136218   0.659   1.832   3.035  0.2562 -3.2964 -0.0436
 8188SOL    HW236219   0.736   1.783   3.171  1.1122  1.9158  1.4631
 8189SOL     OW36220   1.465   9.082   2.948  0.3149  0.4899  0.1449
 8189SOL    HW136221   1.538   9.042   3.003  0.5018 -0.8300 -1.0315
 8189SOL    HW236222   1.377   9.043   2.976  0.5891 -1.5382 -1.6156
 8190SOL     OW36223   4.224   4.139   6.312 -0.1369  0.5548 -0.7437
 8190SOL    HW136224   4.280   4.221   6.302  1.1356 -0.0182  1.3863
 8190SOL    HW236225   4.130   4.165   6.334  0.5712  1.4313  1.3391
 8191SOL     OW36226   7.950   3.857   5.728  0.0067  0.3865 -0.6894
 8191SOL    HW136227   7.993   3.936   5.771 -0.6923  0.2039  0.3744
 8191SOL    HW236228   7.907   3.884   5.642 -0.7748  1.3019 -0.0203
 8192SOL     OW36229   3.907   4.299   4.402 -0.0182  0.0538  0.2833
 8192SOL    HW136230   3.891   4.386   4.356  0.0832  0.6062  1.2726
 8192SOL    HW236231   3.867   4.225   4.349 -0.9758  0.8150 -0.0655
 8193SOL     OW36232   3.758   1.170   4.412  0.0232  0.4458  0.1990
 8193SOL    HW136233   3.668   1.214   4.412 -0.4687 -0.5497  0.2015
 8193SOL    HW236234   3.782   1.145   4.506  0.5002  1.1037  0.2540
 8194SOL     OW36235   1.857   7.511   3.283 -0.3882 -0.6938 -0.2692
 8194SOL    HW136236   1.829   7.498   3.187  2.9502 -1.3483 -1.2280
 8194SOL    HW236237   1.838   7.428   3.335 -0.7452 -0.9135 -0.7472
 8195SOL     OW36238   5.443   9.076   4.063 -0.0991 -0.1359 -0.0841
 8195SOL    HW136239   5.454   9.090   3.965  0.9772  1.4853  0.2486
 8195SOL    HW236240   5.515   9.015   4.096  0.1010  0.0617 -0.1495
 8196SOL     OW36241   8.450   6.840   8.000 -0.6425  0.4176 -0.5141
 8196SOL    HW136242   8.548   6.827   7.981 -0.4470 -0.3039  0.9052
 8196SOL    HW236243   8.400   6.758   7.972 -0.4413 -0.3858  1.3892
 8197SOL     OW36244   9.623   5.753   7.546 -0.2269 -0.4621 -0.5807
 8197SOL    HW136245   9.594   5.696   7.623 -1.3504 -0.4516 -0.9739
 8197SOL    HW236246   9.717   5.784   7.560  0.2062 -1.9479 -0.0907
 8198SOL     OW36247   0.333   1.819   5.619  0.1300  0.1297 -0.1767
 8198SOL    HW136248   0.359   1.893   5.682 -3.1574 -0.1524  1.6171
 8198SOL    HW236249   0.265   1.760   5.663  0.7116 -2.4307 -2.5767
 8199SOL     OW36250   4.078   5.056   7.566  0.3283  0.3909  0.1731
 8199SOL    HW136251   4.113   5.099   7.483  0.2801  0.0403 -0.0290
 8199SOL    HW236252   3.978   5.062   7.568  0.3404  0.5385  0.2801
 8200SOL     OW36253   0.525   8.454   5.209  0.2115 -0.4049  0.1400
 8200SOL    HW136254   0.582   8.397   5.268  0.9612 -0.7011 -0.8625
 8200SOL    HW236255   0.578   8.482   5.129 -0.4357  0.9674  0.1932
 8201SOL     OW36256   1.739   5.458   2.930 -0.5093  0.0328 -0.1569
 8201SOL    HW136257   1.682   5.513   2.991 -2.7642 -0.7097 -1.5429
 8201SOL    HW236258   1.770   5.377   2.979  0.9870  1.3964  1.2057
 8202SOL     OW36259   1.259   1.804   2.281 -0.3157 -0.2309 -0.5083
 8202SOL    HW136260   1.230   1.856   2.201 -0.0998 -1.8811 -1.7066
 8202SOL    HW236261   1.341   1.844   2.320 -1.1287  1.3097 -0.3642
 8203SOL     OW36262   1.562   3.973   6.834 -0.6635  0.1461  0.0612
 8203SOL    HW136263   1.603   3.925   6.757  0.7361 -0.3923  1.1108
 8203SOL    HW236264   1.630   4.033   6.877 -0.9449 -0.7561  1.8363
 8204SOL     OW36265   1.957   4.724   1.731 -0.7770  0.6128  0.0728
 8204SOL    HW136266   1.862   4.751   1.722 -0.5878  1.0713 -0.6084
 8204SOL    HW236267   1.971   4.677   1.818 -1.6255  0.5296  0.1608
 8205SOL     OW36268   9.645   7.857   2.777  0.6127  0.1574 -0.1251
 8205SOL    HW136269   9.741   7.840   2.800 -0.5703 -3.0966  3.0445
 8205SOL    HW236270   9.594   7.878   2.861 -1.2618  3.1609 -1.9319
 8206SOL     OW36271   9.583   1.822   4.308 -0.0983  0.4384  0.7000
 8206SOL    HW136272   9.573   1.813   4.209  0.6506  0.2551  0.6388
 8206SOL    HW236273   9.635   1.745   4.344  0.9504  1.2815  1.0265
 8207SOL     OW36274   3.467   7.009   0.996 -0.3240 -1.0104 -0.1371
 8207SOL    HW136275   3.474   6.985   0.899 -1.2490 -2.1587  0.0619
 8207SOL    HW236276   3.456   7.108   1.006  1.2617 -0.7261 -1.1142
 8208SOL     OW36277   2.309   1.764   6.631  0.0850  1.0179  0.3844
 8208SOL    HW136278   2.392   1.818   6.651 -0.1343  1.7073 -0.5160
 8208SOL    HW236279   2.229   1.821   6.646 -0.2165  0.4761  0.8429
 8209SOL     OW36280   0.457   7.357   0.776  0.3141 -0.3249  0.4222
 8209SOL    HW136281   0.413   7.444   0.752  0.5153  0.0806  1.4915
 8209SOL    HW236282   0.545   7.350   0.730  1.2839  1.0269  1.9919
 8210SOL     OW36283   2.172   1.645  10.034  0.7440 -0.7366 -0.4773
 8210SOL    HW136284   2.134   1.728   9.992  1.2265 -0.7929 -1.0437
 8210SOL    HW236285   2.132   1.632  10.124  0.8039  0.2221 -0.3019
 8211SOL     OW36286   1.639   2.318   5.279  0.0274 -0.5240 -0.5823
 8211SOL    HW136287   1.709   2.250   5.256  0.2669 -0.4401 -0.1087
 8211SOL    HW236288   1.551   2.273   5.288  0.3203 -0.8997  0.4905
 8212SOL     OW36289   3.353   3.653   1.809  0.0116 -0.2252 -0.3159
 8212SOL    HW136290   3.368   3.561   1.773 -0.0833  1.1448 -4.0544
 8212SOL    HW236291   3.387   3.721   1.744 -2.5131  2.4776  1.0646
 8213SOL     OW36292   9.853   7.564   5.382  0.5111 -0.2811  0.7533
 8213SOL    HW136293   9.804   7.512   5.313 -1.2742  1.4699  0.6700
 8213SOL    HW236294   9.801   7.565   5.468  1.4694 -0.2963  1.3500
 8214SOL     OW36295   3.509   8.996   4.332 -0.2509  0.2364 -0.1858
 8214SOL    HW136296   3.512   8.937   4.413  0.4813  1.6478  0.8219
 8214SOL    HW236297   3.571   8.959   4.263 -0.0805 -0.3794  0.2855
 8215SOL     OW36298   2.563   4.584   4.756  0.3558  0.2900 -0.2286
 8215SOL    HW136299   2.565   4.660   4.820 -1.1930 -0.1615  0.3766
 8215SOL    HW236300   2.544   4.617   4.664 -2.4501  0.4440  0.3729
 8216SOL     OW36301   9.549   8.091   7.516 -0.1484 -0.6408 -0.5098
 8216SOL    HW136302   9.500   8.079   7.603  0.6853 -2.1240 -0.2211
 8216SOL    HW236303   9.601   8.176   7.519  1.3485 -1.5664  1.2055
 8217SOL     OW36304   0.370   1.474   2.921  0.1348 -0.0028 -0.5936
 8217SOL    HW136305   0.409   1.521   2.842  0.1108  2.1359  0.6097
 8217SOL    HW236306   0.344   1.542   2.990 -1.2255 -1.7250  0.6298
 8218SOL     OW36307   0.239   8.438   4.711 -0.3371 -0.1419  0.7359
 8218SOL    HW136308   0.155   8.445   4.766 -0.4851 -0.1506  0.5092
 8218SOL    HW236309   0.297   8.517   4.730 -0.9663  0.5220 -0.0627
 8219SOL     OW36310   9.736   4.416   1.365  0.0979  0.7707  0.8664
 8219SOL    HW136311   9.653   4.449   1.319  0.6132  0.6345 -0.1767
 8219SOL    HW236312   9.711   4.344   1.430 -0.2780 -1.4193 -1.6216
 8220SOL     OW36313   0.111   0.211   0.521 -0.4336 -0.0186 -0.2602
 8220SOL    HW136314   0.075   0.264   0.445 -1.4192 -1.0742 -0.5480
 8220SOL    HW236315   0.071   0.244   0.607 -3.9354 -2.5890 -0.7617
 8221SOL     OW36316   2.471   8.525   2.706 -0.0247 -0.4165  0.7018
 8221SOL    HW136317   2.510   8.558   2.792 -0.5321  0.1993  0.7019
 8221SOL    HW236318   2.372   8.522   2.714 -0.0291 -1.0821  0.3897
 8222SOL     OW36319   0.342   5.468   4.453  0.3835 -0.0208 -0.2160
 8222SOL    HW136320   0.342   5.513   4.364 -0.2099  1.4948  0.5290
 8222SOL    HW236321   0.256   5.419   4.466  1.3977 -2.1948 -1.4076
 8223SOL     OW36322   8.913   8.588   4.810  0.4113  0.1133  0.0205
 8223SOL    HW136323   8.819   8.608   4.786  0.2444 -0.8052 -0.0913
 8223SOL    HW236324   8.915   8.517   4.881  1.0363 -0.4616 -0.5617
 8224SOL     OW36325   8.961   3.415   4.021 -0.3872  0.0465  0.1535
 8224SOL    HW136326   8.919   3.493   3.974 -0.0689 -0.7045 -1.4153
 8224SOL    HW236327   8.976   3.438   4.117 -0.5930  1.7968 -0.2178
 8225SOL     OW36328   3.245   2.357   4.121 -0.2005  0.0311 -0.6363
 8225SOL    HW136329   3.176   2.384   4.187  0.8666 -2.2442  1.4605
 8225SOL    HW236330   3.291   2.439   4.085 -1.1471  1.3087  1.0311
 8226SOL     OW36331   1.440   7.958   4.984 -0.4183  0.2290  0.0148
 8226SOL    HW136332   1.479   7.986   4.896 -0.1936 -3.2407 -1.0808
 8226SOL    HW236333   1.417   8.039   5.038  1.8476  2.4048 -2.1568
 8227SOL     OW36334   9.216   2.388   2.547 -0.2656  0.8130 -0.3734
 8227SOL    HW136335   9.206   2.303   2.600 -0.7269  1.6268  0.8689
 8227SOL    HW236336   9.305   2.387   2.501  0.1592  0.0716  0.4260
 8228SOL     OW36337   4.864   8.918   4.268 -0.2969  0.4358  0.3292
 8228SOL    HW136338   4.768   8.912   4.297 -0.0976 -2.2148  0.5113
 8228SOL    HW236339   4.870   8.910   4.169 -0.2881  0.9175  0.2904
 8229SOL     OW36340   1.274   1.742   2.767  0.2502 -0.1820  0.5894
 8229SOL    HW136341   1.348   1.787   2.718  0.0704  0.1054  0.5802
 8229SOL    HW236342   1.213   1.697   2.701  1.3683 -1.8996  0.6923
 8230SOL     OW36343   8.595   9.926   8.269 -0.0092  0.5649 -0.0966
 8230SOL    HW136344   8.577   9.869   8.350  0.3874 -0.4263 -0.6885
 8230SOL    HW236345   8.639   9.870   8.199 -1.1390  1.1887 -1.3241
 8231SOL     OW36346   5.202   2.237   0.863 -0.5586 -0.9374 -0.2060
 8231SOL    HW136347   5.292   2.237   0.907 -0.2896  0.9140 -0.7011
 8231SOL    HW236348   5.161   2.146   0.871  0.8863 -1.5147  0.9717
 8232SOL     OW36349   2.515   8.859   0.610 -0.1089 -0.1932  0.0146
 8232SOL    HW136350   2.454   8.917   0.555  0.8106  0.1440 -0.6722
 8232SOL    HW236351   2.463   8.813   0.681 -1.2541 -0.3025 -0.8845
 8233SOL     OW36352   2.134   2.892   0.341 -0.0166  0.5278 -0.0485
 8233SOL    HW136353   2.075   2.899   0.422 -1.2396  0.5435 -0.9215
 8233SOL    HW236354   2.218   2.944   0.356  0.0291  0.0558  1.4332
 8234SOL     OW36355   0.158   8.910   4.750  0.2386  0.5642 -0.2143
 8234SOL    HW136356   0.240   8.853   4.750  0.2269  0.5421 -0.9907
 8234SOL    HW236357   0.117   8.909   4.841 -0.4565 -1.6760 -0.5134
 8235SOL     OW36358   3.170   5.909   4.407  0.2027 -0.2802  0.0336
 8235SOL    HW136359   3.224   5.970   4.466 -1.4295  0.8070  0.4506
 8235SOL    HW236360   3.181   5.937   4.312 -0.8553  0.9328  0.2603
 8236SOL     OW36361   3.777   2.419   1.212 -0.2649 -0.1347  0.0261
 8236SOL    HW136362   3.877   2.430   1.210 -0.2510 -0.0385  0.7473
 8236SOL    HW236363   3.754   2.334   1.259 -0.5513  0.6586  1.3588
 8237SOL     OW36364   8.089   9.548   2.521 -0.1579  0.1941  0.0520
 8237SOL    HW136365   8.162   9.556   2.588  0.0768 -0.5136 -0.1033
 8237SOL    HW236366   8.000   9.563   2.565 -0.0651 -1.0346  0.6920
 8238SOL     OW36367   4.981   0.507   7.886  0.0970  0.0219 -0.3006
 8238SOL    HW136368   4.988   0.455   7.971  0.1688  2.4683  1.2100
 8238SOL    HW236369   4.897   0.562   7.887  0.3255  0.4171 -1.6303
 8239SOL     OW36370   6.362   2.855   1.946 -0.7558  0.0600  0.1098
 8239SOL    HW136371   6.383   2.821   1.855 -0.5901  1.1860 -0.2900
 8239SOL    HW236372   6.304   2.937   1.938 -1.3779 -0.2860  1.0389
 8240SOL     OW36373   8.310   8.558   6.151  0.0145 -0.6949  0.0246
 8240SOL    HW136374   8.317   8.558   6.250 -0.4110  1.2561  0.0725
 8240SOL    HW236375   8.377   8.621   6.112 -1.5612  0.5680 -0.7452
 8241SOL     OW36376   9.520   1.809   0.204  0.1047  0.4828  0.3133
 8241SOL    HW136377   9.608   1.854   0.214  0.4496 -0.0028 -0.4796
 8241SOL    HW236378   9.469   1.815   0.290 -0.2591  3.1991 -0.0431
 8242SOL     OW36379   6.198   1.880   4.104  0.5868 -0.2195  0.3976
 8242SOL    HW136380   6.136   1.873   4.026 -0.1140 -0.2254  0.9431
 8242SOL    HW236381   6.214   1.789   4.143 -0.0070 -0.0873  0.9704
 8243SOL     OW36382   3.466   1.926   1.695 -0.5523  0.0845 -0.1054
 8243SOL    HW136383   3.547   1.926   1.754  0.2009  1.0914 -1.1151
 8243SOL    HW236384   3.452   2.018   1.658 -0.9561 -0.5593 -1.5824
 8244SOL     OW36385   8.557   9.651   3.314  0.2525  0.3080  0.0483
 8244SOL    HW136386   8.530   9.607   3.229  1.5563 -0.1009 -0.1643
 8244SOL    HW236387   8.629   9.598   3.359 -0.4546  0.4927  1.4342
 8245SOL     OW36388   0.187   7.752   0.391 -0.3690 -0.0212  0.0630
 8245SOL    HW136389   0.278   7.794   0.389 -0.2825 -0.2215 -0.2773
 8245SOL    HW236390   0.187   7.671   0.332 -0.3603 -0.8615  1.1971
 8246SOL     OW36391   3.286   5.638   0.154  0.1448 -0.2422 -0.1643
 8246SOL    HW136392   3.257   5.559   0.101  0.3609 -0.5281  0.1416
 8246SOL    HW236393   3.386   5.642   0.156  0.1604 -0.9880  1.3226
 8247SOL     OW36394   9.316   4.124   7.118 -0.0614 -0.6434 -0.0049
 8247SOL    HW136395   9.232   4.075   7.137  0.2288 -0.9356  0.5408
 8247SOL    HW236396   9.391   4.085   7.172  0.0638  0.7418  0.8753
 8248SOL     OW36397   2.927   2.595   3.040  0.2491 -0.1473 -0.0529
 8248SOL    HW136398   2.839   2.549   3.030 -0.3694  1.5960 -3.7148
 8248SOL    HW236399   2.941   2.622   3.135 -2.7977 -1.1716  0.7200
 8249SOL     OW36400   9.593   8.228   4.262  0.0030  0.1440  0.0524
 8249SOL    HW136401   9.637   8.318   4.273  2.5299 -0.8656 -1.4179
 8249SOL    HW236402   9.604   8.176   4.347 -0.0616  0.6309  0.3642
 8250SOL     OW36403   5.193   5.478   1.246 -0.1827 -0.3784 -0.4186
 8250SOL    HW136404   5.177   5.379   1.243  0.0008 -0.3651 -1.7796
 8250SOL    HW236405   5.205   5.506   1.341 -2.0345 -1.3804  0.1337
 8251SOL     OW36406   3.885   8.339   3.276 -0.2288  0.7350  0.2986
 8251SOL    HW136407   3.825   8.348   3.355 -0.7728  0.4888 -0.0786
 8251SOL    HW236408   3.913   8.430   3.244 -0.4613  0.8523  0.4295
 8252SOL     OW36409   4.561   0.771   3.693 -0.3487  0.2361 -0.2140
 8252SOL    HW136410   4.646   0.810   3.729 -1.0867  1.3344  0.3755
 8252SOL    HW236411   4.493   0.767   3.767 -1.1127  0.2430 -0.9150
 8253SOL     OW36412   0.151   7.395   3.711 -0.2896  0.1487  0.4540
 8253SOL    HW136413   0.077   7.345   3.756  0.4121  0.1936  1.6773
 8253SOL    HW236414   0.142   7.493   3.729 -1.0263  0.3738 -1.0179
 8254SOL     OW36415   2.518   9.217   3.204  0.5361 -0.0192 -0.2333
 8254SOL    HW136416   2.469   9.226   3.291  0.7241  0.4619 -0.1762
 8254SOL    HW236417   2.455   9.231   3.128  0.6196  0.7892 -0.1584
 8255SOL     OW36418   2.920   6.444   4.610  0.2276 -0.1911 -0.0660
 8255SOL    HW136419   3.016   6.458   4.634  0.6958 -2.8500 -0.2723
 8255SOL    HW236420   2.876   6.388   4.680 -1.1704  0.9097 -0.0336
 8256SOL     OW36421   8.766   1.612   1.289 -0.1526  0.1748  0.5831
 8256SOL    HW136422   8.720   1.531   1.325  1.1137 -0.6868  0.2881
 8256SOL    HW236423   8.725   1.638   1.202  0.9470 -1.5408 -0.4711
 8257SOL     OW36424   3.831   0.875   9.911  0.6152  0.2157  0.1378
 8257SOL    HW136425   3.783   0.789   9.898 -1.0217  1.2887 -1.0346
 8257SOL    HW236426   3.893   0.891   9.833  2.4537 -0.8496  1.3303
 8258SOL     OW36427   8.089   9.318   5.417 -0.5726 -0.7610  0.0938
 8258SOL    HW136428   8.124   9.237   5.465  1.7260  0.6799  0.9521
 8258SOL    HW236429   8.158   9.351   5.353 -1.1204  1.0344  0.3968
 8259SOL     OW36430   3.641   0.449   5.851  0.6860 -0.6814  0.1735
 8259SOL    HW136431   3.644   0.539   5.807 -0.5427  0.0334  1.4850
 8259SOL    HW236432   3.632   0.378   5.782  3.3284  0.0603 -1.0019
 8260SOL     OW36433   9.237   1.263   3.086 -0.5444  0.5783 -0.6794
 8260SOL    HW136434   9.333   1.263   3.116 -0.4191  0.7749 -1.0767
 8260SOL    HW236435   9.203   1.357   3.081 -0.8567  0.4894 -0.2291
 8261SOL     OW36436   8.900   3.091   2.996  0.0011  0.7642 -0.5412
 8261SOL    HW136437   8.964   3.061   2.925  3.8492 -1.4682  3.6650
 8261SOL    HW236438   8.849   3.012   3.030 -0.0900  1.4071  0.8135
 8262SOL     OW36439   7.977   6.975   0.615 -0.3027  0.1628 -0.5535
 8262SOL    HW136440   8.055   7.023   0.576  0.1850 -0.6602 -0.6038
 8262SOL    HW236441   7.999   6.945   0.708 -0.7295  0.3408 -0.3911
 8263SOL     OW36442   0.043   4.322   2.647  0.9377  0.1674  0.2501
 8263SOL    HW136443   0.139   4.311   2.674  1.1516  1.5760  0.1216
 8263SOL    HW236444   0.028   4.416   2.616  0.0125 -0.5917 -1.7227
 8264SOL     OW36445   8.798   2.209   5.454 -0.3471 -0.2396  0.4220
 8264SOL    HW136446   8.892   2.188   5.485  0.3537  0.5133 -1.1646
 8264SOL    HW236447   8.790   2.307   5.436 -1.6174 -0.2147  1.0622
 8265SOL     OW36448   8.462   9.306   1.378 -0.5172  0.2057  0.5989
 8265SOL    HW136449   8.465   9.243   1.301 -1.6555  0.4001  0.3853
 8265SOL    HW236450   8.377   9.358   1.376 -0.2897  0.6458  1.6497
 8266SOL     OW36451   2.259   5.098   2.194 -0.2038  0.0609  0.0125
 8266SOL    HW136452   2.320   5.039   2.246  1.5008  1.5728 -0.2351
 8266SOL    HW236453   2.172   5.107   2.243  0.8012  0.1844  1.8077
 8267SOL     OW36454   0.278   6.546   7.256 -0.2259 -0.0376  0.8988
 8267SOL    HW136455   0.347   6.484   7.220  0.1634  1.5482 -1.2411
 8267SOL    HW236456   0.307   6.581   7.345  2.5981  1.8603 -0.6797
 8268SOL     OW36457   5.744   1.581   7.430  0.4727  0.4133  0.1985
 8268SOL    HW136458   5.673   1.565   7.361 -1.0988  2.9257  1.1332
 8268SOL    HW236459   5.719   1.534   7.515  1.3074 -0.8968 -0.2691
 8269SOL     OW36460   0.607   3.592   2.544  0.3072  0.3509  0.3695
 8269SOL    HW136461   0.568   3.678   2.578  2.6799  0.6762  2.4498
 8269SOL    HW236462   0.569   3.515   2.596 -1.7985  0.1122 -1.4767
 8270SOL     OW36463   8.750   9.584   7.205  0.7288 -0.5012 -0.3325
 8270SOL    HW136464   8.750   9.486   7.226 -0.8620 -0.7020 -1.1673
 8270SOL    HW236465   8.814   9.632   7.266  0.4510 -1.8537  1.0439
 8271SOL     OW36466   9.902   4.110   4.843 -0.1653  0.3888  0.5465
 8271SOL    HW136467   9.884   4.204   4.873  0.5735  0.2552  1.4122
 8271SOL    HW236468   9.987   4.107   4.790  0.1706  0.0925  1.1023
 8272SOL     OW36469   7.172   1.308   3.341 -0.0280  0.4105  0.2426
 8272SOL    HW136470   7.219   1.395   3.328  0.2058  0.5230  1.7980
 8272SOL    HW236471   7.114   1.313   3.422 -1.0300 -0.4546 -0.4173
 8273SOL     OW36472   8.280   6.185   3.457 -0.6600 -0.3447  0.0480
 8273SOL    HW136473   8.367   6.135   3.450  0.2784  1.2717 -0.1836
 8273SOL    HW236474   8.240   6.195   3.366 -0.1582  0.4903 -0.0881
 8274SOL     OW36475   8.445   6.949   2.342 -0.1798 -0.3452 -0.3621
 8274SOL    HW136476   8.419   6.898   2.425 -2.8264 -0.3522 -1.1569
 8274SOL    HW236477   8.480   7.039   2.368 -0.8393 -0.4048  0.7808
 8275SOL     OW36478   9.084   0.238   4.292 -0.1298  0.9733  0.2407
 8275SOL    HW136479   9.064   0.334   4.272 -0.6474  1.2103  1.8066
 8275SOL    HW236480   9.168   0.233   4.346  0.5938  0.4418 -0.9192
 8276SOL     OW36481   3.006   1.680   0.727  0.3209 -0.0381 -0.2340
 8276SOL    HW136482   2.961   1.620   0.660  0.5888 -1.7217  1.0569
 8276SOL    HW236483   3.105   1.674   0.715  0.3741 -0.4505  0.4079
 8277SOL     OW36484   4.436   0.913   5.199  0.1888 -0.2541 -0.0697
 8277SOL    HW136485   4.431   0.998   5.145  2.3771 -0.0900 -0.0258
 8277SOL    HW236486   4.388   0.927   5.286  0.4801  0.9352 -0.0869
 8278SOL     OW36487   9.654   3.054   6.583  0.0963 -0.2649  0.5376
 8278SOL    HW136488   9.743   3.081   6.620  0.4939 -1.8602  0.7725
 8278SOL    HW236489   9.593   3.133   6.583  1.0240  0.4760  1.8075
 8279SOL     OW36490   9.067   8.783   4.628 -0.1204  0.2710 -0.3002
 8279SOL    HW136491   9.136   8.749   4.565  2.1466  2.4135  0.9294
 8279SOL    HW236492   9.071   8.732   4.714 -0.8263 -0.3263 -0.6159
 8280SOL     OW36493   3.334   3.888   2.497 -0.2809  0.2274  0.4004
 8280SOL    HW136494   3.393   3.923   2.570  1.1566 -1.3092  0.0022
 8280SOL    HW236495   3.323   3.789   2.509  0.1079 -0.0594 -1.5756
 8281SOL     OW36496   5.370   2.669   0.912 -0.4804  0.0597  0.2377
 8281SOL    HW136497   5.287   2.710   0.950 -1.3471 -0.4344 -1.1173
 8281SOL    HW236498   5.410   2.731   0.844  0.6099  0.5664  1.3124
 8282SOL     OW36499   1.739   0.560   7.032 -0.5305 -0.3194  0.7755
 8282SOL    HW136500   1.761   0.468   6.998 -0.4386  0.9852 -2.7932
 8282SOL    HW236501   1.652   0.590   6.995 -1.3429  0.4603  3.2074
 8283SOL     OW36502   1.782   7.001   5.386  0.1465 -0.2167  0.0000
 8283SOL    HW136503   1.798   6.984   5.288 -0.5730  0.4891 -0.2501
 8283SOL    HW236504   1.706   7.066   5.396 -0.9568 -1.6402  1.0841
 8284SOL     OW36505   2.343   9.948   9.607  0.2753  0.1960  0.3934
 8284SOL    HW136506   2.355  10.047   9.598  0.7148 -0.0076 -1.3779
 8284SOL    HW236507   2.388   9.916   9.690 -1.2587  1.7074  1.8578
 8285SOL     OW36508   1.784   9.959   1.066 -0.4798 -0.0033  0.1766
 8285SOL    HW136509   1.825   9.981   0.978  0.6333  1.3119  1.0093
 8285SOL    HW236510   1.774   9.860   1.074  0.0141 -0.1706 -1.1529
 8286SOL     OW36511   6.755   2.169   5.858  0.3303 -0.0647  0.2042
 8286SOL    HW136512   6.691   2.097   5.884  0.6885 -0.6904 -0.6174
 8286SOL    HW236513   6.729   2.254   5.902 -0.8390 -0.4031  0.1900
 8287SOL     OW36514   4.231   3.166   4.026  0.1974 -0.1138 -0.4604
 8287SOL    HW136515   4.150   3.155   4.085  0.9299 -1.2168  0.3647
 8287SOL    HW236516   4.292   3.087   4.038  0.1126 -0.6312 -3.1252
 8288SOL     OW36517   0.788   0.530   4.005 -0.1597 -0.1996  0.1341
 8288SOL    HW136518   0.807   0.507   3.910 -0.5424 -0.9575  0.2377
 8288SOL    HW236519   0.725   0.463   4.044 -1.2071  0.9500  0.4816
 8289SOL     OW36520   4.939   0.992   4.654 -0.9268 -0.4089 -0.3506
 8289SOL    HW136521   4.881   1.036   4.722 -1.2289 -1.5563  0.1499
 8289SOL    HW236522   4.937   0.893   4.668  0.0010 -0.5612 -1.2432
 8290SOL     OW36523   7.749   6.647   4.520 -0.6009 -0.4575 -0.0811
 8290SOL    HW136524   7.696   6.642   4.605 -0.8071  1.7816 -0.0450
 8290SOL    HW236525   7.842   6.676   4.540  0.2267 -2.8608 -0.3185
 8291SOL     OW36526   9.457   0.210   0.063 -0.3217 -0.3026  0.0911
 8291SOL    HW136527   9.491   0.129   0.014 -0.8861  0.6711 -1.9422
 8291SOL    HW236528   9.529   0.279   0.068 -1.1103  0.6641 -1.7608
 8292SOL     OW36529   7.671   8.784   1.620  0.1452 -0.1375  0.1645
 8292SOL    HW136530   7.658   8.713   1.551  2.5224  0.8039 -1.3240
 8292SOL    HW236531   7.748   8.760   1.678 -1.7439 -0.8413  2.4461
 8293SOL     OW36532   3.472   9.317   7.294  0.4362  0.9570  0.2951
 8293SOL    HW136533   3.462   9.355   7.202  0.4550  0.4693  0.0882
 8293SOL    HW236534   3.445   9.385   7.362  0.5492  1.3636 -0.0673
 8294SOL     OW36535   1.341   9.706   5.695 -0.8213  0.2668  0.5886
 8294SOL    HW136536   1.365   9.803   5.701  1.4043 -0.2320  0.2003
 8294SOL    HW236537   1.358   9.661   5.783 -0.6093 -0.0380  0.3945
 8295SOL     OW36538   2.679   9.654   4.692 -0.1034 -0.1180  0.5946
 8295SOL    HW136539   2.589   9.683   4.726 -0.6117 -1.3583  0.3690
 8295SOL    HW236540   2.686   9.674   4.594 -0.5236 -0.8930  0.3991
 8296SOL     OW36541   1.266   9.365   7.826 -0.7715 -0.0893 -0.0525
 8296SOL    HW136542   1.176   9.344   7.865 -1.0698  2.2711  0.6149
 8296SOL    HW236543   1.334   9.301   7.861 -1.4973  0.5100  2.5569
 8297SOL     OW36544   0.442   7.374   2.110 -0.2313  0.2744  0.4576
 8297SOL    HW136545   0.453   7.283   2.150  1.4666  1.4190  2.6724
 8297SOL    HW236546   0.501   7.383   2.029 -0.7920 -0.7364 -0.0722
 8298SOL     OW36547   1.370   5.836   3.579 -0.0756 -0.0663  0.2171
 8298SOL    HW136548   1.390   5.739   3.589  3.5589  0.7051  1.4006
 8298SOL    HW236549   1.411   5.886   3.656 -2.6290  2.3170  0.0935
 8299SOL     OW36550   4.995   8.727   6.641 -0.3243  0.1226  0.0882
 8299SOL    HW136551   5.027   8.707   6.549 -0.1285 -0.7246  0.3350
 8299SOL    HW236552   5.066   8.778   6.690 -0.3149  0.3291 -0.1405
 8300SOL     OW36553   6.025   3.864   1.915  0.5297  0.6278  0.3783
 8300SOL    HW136554   6.110   3.812   1.914  1.2438  1.7738 -0.1375
 8300SOL    HW236555   6.031   3.938   1.848 -1.5478 -0.3187 -0.9209
 8301SOL     OW36556   0.987   0.864   5.878 -0.0133 -0.6389 -0.2051
 8301SOL    HW136557   0.966   0.957   5.910  1.6814 -0.7831  1.4049
 8301SOL    HW236558   0.941   0.798   5.937  0.2855 -0.8524 -0.2096
 8302SOL     OW36559   3.969   1.509   5.721  0.4032 -0.2083 -0.1220
 8302SOL    HW136560   3.891   1.547   5.772 -1.9306 -1.2100 -2.8204
 8302SOL    HW236561   3.978   1.412   5.742  0.1945 -0.3502 -0.6869
 8303SOL     OW36562   7.844   2.918   3.141 -0.3004  0.1201 -0.2806
 8303SOL    HW136563   7.808   3.009   3.120 -1.0586  0.1357  1.0339
 8303SOL    HW236564   7.859   2.910   3.240 -1.7689 -1.7269 -0.1793
 8304SOL     OW36565   1.954   6.476   3.447 -0.4822 -0.9049  0.4371
 8304SOL    HW136566   1.940   6.377   3.440 -0.8990 -0.8379  0.3368
 8304SOL    HW236567   1.948   6.517   3.356 -0.2177 -0.7985  0.4670
 8305SOL     OW36568   4.412   4.523   3.572 -0.2091  0.1616  0.2906
 8305SOL    HW136569   4.324   4.495   3.611 -0.4946  0.4912 -0.1162
 8305SOL    HW236570   4.400   4.608   3.520  0.2454 -0.0797 -0.2081
 8306SOL     OW36571   0.934   6.971   0.108  0.1023 -0.1445 -0.0959
 8306SOL    HW136572   1.007   6.941   0.170 -0.4890 -1.8164 -0.1688
 8306SOL    HW236573   0.936   7.070   0.100  2.9495 -0.2259 -0.8262
 8307SOL     OW36574   3.951   1.157   7.364  0.0252 -0.7709  0.2523
 8307SOL    HW136575   3.961   1.192   7.270  0.0547 -1.2512  0.0731
 8307SOL    HW236576   4.039   1.122   7.395  0.2510  0.2739  0.8266
 8308SOL     OW36577   7.787   1.134   7.442 -0.1958  0.5244 -0.1403
 8308SOL    HW136578   7.747   1.151   7.532  0.6283  0.1753  0.2974
 8308SOL    HW236579   7.741   1.190   7.373  0.2930  2.0421  0.7584
 8309SOL     OW36580   0.807   2.829   1.690 -0.0127 -0.1293 -0.4122
 8309SOL    HW136581   0.777   2.925   1.687  0.1169 -0.0288  1.2571
 8309SOL    HW236582   0.741   2.773   1.640 -1.1568  0.5638  0.2867
 8310SOL     OW36583   8.049   3.608   2.064  0.1814  0.3313  0.2365
 8310SOL    HW136584   8.134   3.558   2.046 -0.1718 -0.6639  1.2980
 8310SOL    HW236585   8.037   3.678   1.994  1.0010 -0.6501 -0.9178
 8311SOL     OW36586   7.464   8.456   5.406 -0.3064  0.2668 -0.0368
 8311SOL    HW136587   7.500   8.387   5.344 -1.5255  0.5710 -1.1093
 8311SOL    HW236588   7.505   8.444   5.496  1.0592 -0.5398 -0.7436
 8312SOL     OW36589   3.213   8.379   4.249  0.2460 -0.2333 -0.0702
 8312SOL    HW136590   3.155   8.370   4.168 -0.3823 -1.8477  0.5528
 8312SOL    HW236591   3.303   8.414   4.222 -0.1953 -0.0855 -1.3620
 8313SOL     OW36592   5.027   6.049   0.623 -0.2343  0.1361 -0.4296
 8313SOL    HW136593   4.989   6.080   0.710 -2.3519 -1.3816 -0.7890
 8313SOL    HW236594   5.049   5.952   0.628 -1.9649 -0.3673 -2.0949
 8314SOL     OW36595   1.371   5.073   5.967 -0.2624  0.5265 -0.0244
 8314SOL    HW136596   1.305   5.148   5.960  0.0213  0.9676  1.8374
 8314SOL    HW236597   1.322   4.987   5.978 -0.5611  1.0113  2.8242
 8315SOL     OW36598   5.496   9.855   4.492  1.3314 -0.0972  0.1664
 8315SOL    HW136599   5.450   9.786   4.436 -0.1020  1.1118 -0.1778
 8315SOL    HW236600   5.576   9.889   4.444  1.1761 -0.4363 -0.3336
 8316SOL     OW36601   2.467   3.444   2.359  0.4933 -0.0182  0.1027
 8316SOL    HW136602   2.469   3.408   2.452 -1.2633  0.5548  0.3797
 8316SOL    HW236603   2.550   3.415   2.311  0.4592 -2.0261  1.1875
 8317SOL     OW36604   2.248   2.208   2.126 -0.5691  0.3613 -0.2562
 8317SOL    HW136605   2.281   2.220   2.032 -1.0949 -0.2330 -0.5206
 8317SOL    HW236606   2.203   2.292   2.156  0.3170  0.8410 -0.2365
 8318SOL     OW36607   7.634   2.427   5.296  0.2942 -0.0667  0.2154
 8318SOL    HW136608   7.672   2.474   5.375 -0.0677  1.5259 -0.5340
 8318SOL    HW236609   7.683   2.456   5.213  1.8871 -3.0822  0.0363
 8319SOL     OW36610   8.282   4.184   1.730 -0.3904 -0.3449 -0.3369
 8319SOL    HW136611   8.345   4.214   1.658  0.3459  0.3215  0.5672
 8319SOL    HW236612   8.291   4.085   1.743  1.2544 -0.1144  0.4942
 8320SOL     OW36613   8.506   8.228   4.487 -0.3060 -0.4192  0.1241
 8320SOL    HW136614   8.579   8.173   4.527 -0.1677 -0.5093 -0.2502
 8320SOL    HW236615   8.424   8.170   4.475 -0.2527 -0.4677  0.0007
 8321SOL     OW36616   1.811   1.878   5.149  0.6815  0.0582  0.1296
 8321SOL    HW136617   1.792   1.894   5.246  0.5916 -0.8351  0.2678
 8321SOL    HW236618   1.858   1.790   5.139 -2.2352 -1.4374 -0.9117
 8322SOL     OW36619   3.422   5.537   2.847 -0.4296  0.0786  0.7965
 8322SOL    HW136620   3.374   5.485   2.918  1.0516 -2.7180 -0.1448
 8322SOL    HW236621   3.497   5.588   2.889 -0.9328  0.2075  1.5505
 8323SOL     OW36622   7.100   4.302   1.753 -0.7295  0.3215  0.7294
 8323SOL    HW136623   7.024   4.367   1.741 -1.2369 -0.4957 -0.5731
 8323SOL    HW236624   7.092   4.228   1.686  0.6388 -0.3410  1.2729
 8324SOL     OW36625   2.125   9.921   0.791 -0.4174 -0.2376  0.1113
 8324SOL    HW136626   2.103  10.018   0.800  3.3091  0.5827  1.1661
 8324SOL    HW236627   2.086   9.871   0.869  0.4538  0.9497  1.3185
 8325SOL     OW36628   4.306   7.913   3.749  0.2947  0.1315  0.2962
 8325SOL    HW136629   4.363   7.844   3.705  1.5499  1.2714  0.1217
 8325SOL    HW236630   4.335   8.004   3.720 -0.7453  0.7781  1.2485
 8326SOL     OW36631   4.851   7.317   1.876 -0.0861 -0.2987 -0.2227
 8326SOL    HW136632   4.867   7.222   1.905  1.3108 -0.3680 -1.1737
 8326SOL    HW236633   4.867   7.325   1.778 -1.5842  0.6384 -0.4109
 8327SOL     OW36634   0.747   9.892   4.125 -0.0434 -0.7282  0.6114
 8327SOL    HW136635   0.713   9.815   4.071  0.3126 -0.1030 -0.5097
 8327SOL    HW236636   0.843   9.877   4.148 -0.2495 -1.0920  1.2717
 8328SOL     OW36637   3.587   8.319   4.916  0.0662 -0.3436  0.1628
 8328SOL    HW136638   3.491   8.322   4.890 -0.1806 -3.0981  0.6152
 8328SOL    HW236639   3.636   8.257   4.855  1.1230 -0.5815  1.2376
 8329SOL     OW36640   5.327   0.845   7.652  0.0759 -0.1115  0.2215
 8329SOL    HW136641   5.263   0.782   7.696  1.8843 -1.9761  0.2854
 8329SOL    HW236642   5.329   0.827   7.553  2.0434 -1.5509  0.4928
 8330SOL     OW36643   7.400   0.279   2.857  0.2418  0.0775  0.0369
 8330SOL    HW136644   7.363   0.278   2.950  1.1306  0.0755  0.3926
 8330SOL    HW236645   7.325   0.270   2.792 -0.5565  1.7069  0.7060
 8331SOL     OW36646   7.380   7.581   7.909  0.2683  0.2430  0.0335
 8331SOL    HW136647   7.377   7.562   7.811  1.7081 -1.2649  0.2607
 8331SOL    HW236648   7.340   7.671   7.927 -2.7528 -0.6879 -1.5889
 8332SOL     OW36649   7.153   1.603   5.201 -0.5445  0.4168  0.3752
 8332SOL    HW136650   7.193   1.694   5.188 -0.3287  0.6025  2.1370
 8332SOL    HW236651   7.058   1.605   5.171 -1.3423  2.0025  2.7866
 8333SOL     OW36652   1.723   7.649   1.356 -0.1975  0.4051 -0.4730
 8333SOL    HW136653   1.672   7.640   1.442 -0.8091  0.0158 -0.8780
 8333SOL    HW236654   1.715   7.565   1.303 -0.0268  0.7395 -1.0296
 8334SOL     OW36655   1.716   0.974   6.430 -0.0652  0.2899 -0.1225
 8334SOL    HW136656   1.683   1.066   6.449 -1.1549 -0.1404  0.0948
 8334SOL    HW236657   1.679   0.942   6.343 -2.0820 -1.0458  1.1785
 8335SOL     OW36658   2.722   1.851   0.252  0.2568 -0.0335 -0.3661
 8335SOL    HW136659   2.777   1.783   0.204  0.4935 -0.2799  0.2443
 8335SOL    HW236660   2.749   1.943   0.222  1.0780 -0.1482  0.0031
 8336SOL     OW36661   1.200   2.659   6.707  0.2781 -0.7129 -0.2027
 8336SOL    HW136662   1.291   2.693   6.730  0.1638  0.9309 -2.0372
 8336SOL    HW236663   1.200   2.559   6.708  2.6138 -0.7635 -2.0996
 8337SOL     OW36664   9.903   5.082  10.075  1.0284  0.2945  0.3191
 8337SOL    HW136665   9.840   5.151  10.038  1.1004 -0.9523 -2.2492
 8337SOL    HW236666   9.998   5.112  10.061  1.0457  0.5705  1.0078
 8338SOL     OW36667   6.354   8.346   3.092  0.1220 -0.2607  0.4311
 8338SOL    HW136668   6.417   8.423   3.090 -0.0117 -0.1709 -0.3936
 8338SOL    HW236669   6.265   8.375   3.056 -0.3755 -0.4079  1.4990
 8339SOL     OW36670   1.729   4.857   1.639 -0.3920 -0.2580  0.2172
 8339SOL    HW136671   1.731   4.949   1.602  1.1723 -1.1903 -2.1351
 8339SOL    HW236672   1.715   4.791   1.566  2.3281 -2.1196  1.2641
 8340SOL     OW36673   1.159   5.835   1.104 -0.5358 -0.2381 -0.4801
 8340SOL    HW136674   1.091   5.877   1.043 -0.5328  0.4682  0.0027
 8340SOL    HW236675   1.233   5.797   1.049  0.4490  2.1288 -0.8406
 8341SOL     OW36676   1.125   8.492   6.429 -0.4707  0.2486 -0.1391
 8341SOL    HW136677   1.099   8.404   6.466  0.0647 -0.4262 -1.3369
 8341SOL    HW236678   1.102   8.496   6.332 -0.4875  1.4169 -0.0980
 8342SOL     OW36679   9.506   7.698   2.612  0.1600 -0.1478 -0.0438
 8342SOL    HW136680   9.555   7.749   2.682  2.4460 -0.6614 -1.1951
 8342SOL    HW236681   9.465   7.616   2.652 -0.9144  0.9906  1.2046
 8343SOL     OW36682   1.643   1.687   6.569 -0.1444  0.4422 -0.3386
 8343SOL    HW136683   1.707   1.666   6.496 -0.3744  1.4342 -0.8264
 8343SOL    HW236684   1.616   1.602   6.614  0.8074 -0.0699 -0.7134
 8344SOL     OW36685   5.149   0.935   0.726  0.5167 -0.4920 -0.5822
 8344SOL    HW136686   5.234   0.981   0.704  1.1127 -0.7533  1.0842
 8344SOL    HW236687   5.165   0.869   0.800 -1.4535  0.7157  0.9852
 8345SOL     OW36688   1.286   4.240   7.689  0.0475 -0.1965  0.3801
 8345SOL    HW136689   1.354   4.243   7.616 -0.3376 -1.1654 -0.0245
 8345SOL    HW236690   1.330   4.209   7.774  0.0686 -1.0832  0.0546
 8346SOL     OW36691   0.838   3.388   0.223 -0.4595  0.2643  0.3451
 8346SOL    HW136692   0.828   3.351   0.316 -0.1295  0.6095  0.5176
 8346SOL    HW236693   0.840   3.488   0.227  0.6646  0.2545  0.0773
 8347SOL     OW36694   0.546   6.371   0.600  0.1607 -0.0876 -0.1514
 8347SOL    HW136695   0.527   6.410   0.690 -0.1222 -1.0293  0.1918
 8347SOL    HW236696   0.645   6.370   0.584  0.1589  1.0628 -0.2927
 8348SOL     OW36697   1.879   5.448   5.467  0.1101  0.3651  0.6286
 8348SOL    HW136698   1.905   5.502   5.547 -0.9254 -0.7888  1.7705
 8348SOL    HW236699   1.916   5.355   5.476  0.0434  0.2454 -0.2766
 8349SOL     OW36700   7.808   8.012   2.764  0.1861 -0.3084  0.6054
 8349SOL    HW136701   7.751   7.968   2.833  1.0129  1.0676  2.2182
 8349SOL    HW236702   7.869   7.945   2.723 -0.5402 -1.2010  0.9759
 8350SOL     OW36703   0.016   0.483   6.827 -0.3544 -0.1761  0.2142
 8350SOL    HW136704   0.115   0.471   6.834 -0.4133 -1.1005 -0.5513
 8350SOL    HW236705  -0.015   0.458   6.736 -1.2554  0.4066  0.3519
 8351SOL     OW36706   7.868   6.023   0.824  0.5601 -0.1008  0.3460
 8351SOL    HW136707   7.950   5.978   0.860 -0.1359  0.5706  2.8465
 8351SOL    HW236708   7.882   6.122   0.823  0.1462 -0.0440 -0.1933
 8352SOL     OW36709   7.802   3.902   4.846 -0.1897  0.1538  0.1598
 8352SOL    HW136710   7.829   3.994   4.874  2.7716  0.2162 -2.6612
 8352SOL    HW236711   7.861   3.835   4.889 -1.3641 -0.3419  1.0151
 8353SOL     OW36712   6.294   0.865   4.507 -0.1249  0.2728 -0.1883
 8353SOL    HW136713   6.264   0.822   4.592  0.5850 -0.9291 -0.5265
 8353SOL    HW236714   6.215   0.881   4.448 -0.5182  0.3784  0.3541
 8354SOL     OW36715   0.096   1.376   0.822  0.3661 -0.7633  0.0526
 8354SOL    HW136716   0.063   1.348   0.912 -0.4165 -0.0296 -0.0057
 8354SOL    HW236717   0.049   1.460   0.793  1.9883  0.0935 -0.1913
 8355SOL     OW36718   9.953   4.344   3.271  0.1568 -0.0899  0.6333
 8355SOL    HW136719   9.920   4.408   3.202  2.0015 -0.6795 -0.8888
 8355SOL    HW236720  10.051   4.327   3.255 -0.5534 -4.2595  0.1077
 8356SOL     OW36721   0.001   0.890   5.716 -0.1607 -0.0774  0.0106
 8356SOL    HW136722   0.070   0.951   5.678 -0.9249  0.7015 -0.1567
 8356SOL    HW236723  -0.025   0.822   5.647  2.0662 -1.8124  0.8270
 8357SOL     OW36724   4.227   5.528   3.348 -0.3305 -0.0561 -0.0532
 8357SOL    HW136725   4.194   5.433   3.350 -1.3108  0.2903  1.5976
 8357SOL    HW236726   4.159   5.587   3.391  0.1145  1.4642 -1.4071
 8358SOL     OW36727   5.820   8.673   4.367  0.1428  0.3581 -0.0544
 8358SOL    HW136728   5.771   8.748   4.413  2.0980  1.1166  0.8463
 8358SOL    HW236729   5.885   8.633   4.431  1.3590 -0.0175 -1.5121
 8359SOL     OW36730   8.815   1.063   1.917 -0.6690 -0.5118  0.4467
 8359SOL    HW136731   8.784   1.157   1.928  0.6626 -0.1027  0.7775
 8359SOL    HW236732   8.883   1.042   1.987 -0.8008 -1.6498  0.2350
 8360SOL     OW36733   0.077   3.068   2.533  0.4917 -0.2737 -0.5443
 8360SOL    HW136734   0.012   3.063   2.610  1.5643  0.5524  0.4282
 8360SOL    HW236735   0.054   2.998   2.466  0.7225 -2.3122  1.4517
 8361SOL     OW36736   7.794   1.605   6.014 -0.6463  0.1473  0.2013
 8361SOL    HW136737   7.841   1.516   6.012 -0.5148  0.2166  0.2026
 8361SOL    HW236738   7.812   1.650   6.102 -1.3108 -0.1450  0.4960
 8362SOL     OW36739   8.094   1.974   4.945  0.3666 -0.0203  0.1057
 8362SOL    HW136740   8.102   1.995   4.847 -0.5078  1.0397  0.2504
 8362SOL    HW236741   8.176   1.925   4.975 -0.4361 -2.5650 -1.7013
 8363SOL     OW36742   4.485   3.334   6.596  0.4890  0.3119 -0.7842
 8363SOL    HW136743   4.478   3.422   6.645  1.9612  0.4978 -0.8838
 8363SOL    HW236744   4.394   3.304   6.569 -0.5093 -0.2349  2.8544
 8364SOL     OW36745   0.621   1.243   4.002 -0.8214 -0.2246 -0.1552
 8364SOL    HW136746   0.617   1.205   4.094 -0.1997 -0.6997 -0.3195
 8364SOL    HW236747   0.621   1.343   4.007  2.6860 -0.2155  0.5557
 8365SOL     OW36748   1.613   5.184   6.031  0.2529 -0.8149 -0.6178
 8365SOL    HW136749   1.637   5.259   5.970  0.6352 -0.4882 -0.0794
 8365SOL    HW236750   1.523   5.149   6.008 -1.7866  2.5699  1.7002
 8366SOL     OW36751   1.611   2.299   2.863  0.0038  0.0099  0.5823
 8366SOL    HW136752   1.697   2.347   2.846 -0.4664  0.0564 -1.7966
 8366SOL    HW236753   1.572   2.268   2.776 -1.3492 -1.8345  1.7958
 8367SOL     OW36754   4.112   4.328   1.902  0.3494  0.3007  0.0116
 8367SOL    HW136755   4.155   4.245   1.939 -0.2526  0.4559  1.0878
 8367SOL    HW236756   4.112   4.399   1.972  1.7985  1.5727 -1.2378
 8368SOL     OW36757   5.179   8.163   2.186 -0.1153 -0.6415 -0.3786
 8368SOL    HW136758   5.085   8.135   2.200  0.3285 -2.2868 -0.5287
 8368SOL    HW236759   5.220   8.107   2.113  0.1855  1.8462 -2.1925
 8369SOL     OW36760   8.700   2.083   4.282 -0.0044 -0.0234  0.1601
 8369SOL    HW136761   8.792   2.106   4.252 -0.2292 -0.0466 -0.5471
 8369SOL    HW236762   8.647   2.047   4.205 -0.9034  0.8860  0.3307
 8370SOL     OW36763   4.891   2.986   6.859 -0.4040  0.5862  0.5732
 8370SOL    HW136764   4.912   3.051   6.932  1.2491  0.4260  0.2509
 8370SOL    HW236765   4.965   2.919   6.852 -2.1556 -1.4384  1.0126
 8371SOL     OW36766   5.597   8.069   4.168 -0.1655 -0.2663 -0.6094
 8371SOL    HW136767   5.523   8.018   4.124  0.7997 -1.8846 -0.4172
 8371SOL    HW236768   5.568   8.163   4.184 -2.9068 -1.3727  1.3135
 8372SOL     OW36769   7.952   9.474   5.153 -0.0084  0.6463  0.3464
 8372SOL    HW136770   7.962   9.565   5.114  2.6088  0.2739  0.0690
 8372SOL    HW236771   7.969   9.478   5.252  0.1254  0.4713  0.3325
 8373SOL     OW36772   9.132   8.689   6.905 -0.5366  0.1923  0.5342
 8373SOL    HW136773   9.133   8.787   6.927  0.1601  0.6621 -1.4510
 8373SOL    HW236774   9.192   8.673   6.827  0.9244 -2.1447  2.0950
 8374SOL     OW36775   8.207   3.749   4.162 -0.1614 -0.1618  0.3133
 8374SOL    HW136776   8.132   3.711   4.215  0.1894 -0.1477  0.8334
 8374SOL    HW236777   8.255   3.676   4.114 -1.4742  0.0246 -1.2819
 8375SOL     OW36778   2.828   2.341   1.580 -1.0061  0.0074  0.4434
 8375SOL    HW136779   2.768   2.271   1.617 -0.7805 -0.6684 -0.4395
 8375SOL    HW236780   2.888   2.300   1.510  0.7082  0.5844  1.5404
 8376SOL     OW36781   3.976   2.468   6.972 -0.2556 -0.5429 -0.1265
 8376SOL    HW136782   4.006   2.458   7.067  1.4463 -0.7793 -0.6583
 8376SOL    HW236783   3.982   2.564   6.945 -0.2928 -0.5405 -0.1260
 8377SOL     OW36784   6.859   9.607   1.907  0.0619  0.1717 -0.0327
 8377SOL    HW136785   6.928   9.542   1.876 -0.7067 -0.0025 -1.4371
 8377SOL    HW236786   6.875   9.630   2.003  2.9847  1.3171 -0.7376
 8378SOL     OW36787   6.828   7.741   7.390  0.0704 -0.3409  0.0552
 8378SOL    HW136788   6.758   7.809   7.414 -0.3017  0.0283 -1.9844
 8378SOL    HW236789   6.785   7.652   7.375  0.1993 -0.3886 -0.0303
 8379SOL     OW36790   1.589   8.604   3.503  0.7374  0.2177  0.3157
 8379SOL    HW136791   1.503   8.647   3.476  1.2527  1.0510 -0.0340
 8379SOL    HW236792   1.588   8.583   3.600 -0.5970 -1.5106 -0.0419
 8380SOL     OW36793   5.048   3.789   0.847  0.5279  0.0719 -0.3845
 8380SOL    HW136794   4.994   3.837   0.916  0.4359  1.2131 -1.2322
 8380SOL    HW236795   4.994   3.716   0.806  0.2971 -0.0586  0.1530
 8381SOL     OW36796   7.576   6.084   3.862 -0.4938 -0.5394 -0.3702
 8381SOL    HW136797   7.557   6.182   3.853  0.2603 -0.4258 -0.7469
 8381SOL    HW236798   7.501   6.031   3.821 -0.0907 -0.1004 -1.6842
 8382SOL     OW36799   5.787   8.344   7.486  0.0073 -0.2724 -0.6040
 8382SOL    HW136800   5.763   8.441   7.494 -4.2419 -1.0085 -3.0345
 8382SOL    HW236801   5.765   8.297   7.572 -1.0955  0.3279 -0.5504
 8383SOL     OW36802   9.181   0.892   3.727  0.1393  0.2400  0.0302
 8383SOL    HW136803   9.202   0.931   3.817  2.2260 -0.2460 -0.2170
 8383SOL    HW236804   9.150   0.798   3.738 -2.5596  1.1453  0.4481
 8384SOL     OW36805   2.066   5.891   6.367 -0.4094 -0.3969  0.1851
 8384SOL    HW136806   2.067   5.879   6.466 -2.9431  0.2938  0.3235
 8384SOL    HW236807   2.154   5.927   6.336 -0.3001  1.3495  2.4477
 8385SOL     OW36808   5.323   2.718   5.506 -0.5173 -0.3433 -0.1486
 8385SOL    HW136809   5.324   2.720   5.606  1.1264 -1.2114 -0.1297
 8385SOL    HW236810   5.348   2.627   5.475 -2.0863 -0.3896 -1.3677
 8386SOL     OW36811   5.314   0.655   2.644 -0.5090  0.3990 -0.3240
 8386SOL    HW136812   5.327   0.657   2.743 -1.3797 -0.0904 -0.1970
 8386SOL    HW236813   5.217   0.664   2.623 -0.3137  0.6782 -1.1435
 8387SOL     OW36814   4.830   7.965   1.282  0.3104  0.4515  0.2147
 8387SOL    HW136815   4.835   8.039   1.214 -0.1387  0.0703 -0.2356
 8387SOL    HW236816   4.893   7.892   1.256 -0.5791 -0.1261 -0.3185
 8388SOL     OW36817   1.901   3.969   7.117  0.0324 -0.0635 -0.9050
 8388SOL    HW136818   1.987   3.921   7.135  0.6704  0.6968 -1.8852
 8388SOL    HW236819   1.918   4.048   7.059 -1.4090 -0.2070 -1.5522
 8389SOL     OW36820   3.372   8.886   5.988 -0.4030 -0.2283 -0.3732
 8389SOL    HW136821   3.446   8.896   5.921 -0.5638 -0.4517 -0.5834
 8389SOL    HW236822   3.324   8.973   5.998  0.5338  0.1884  0.5150
 8390SOL     OW36823   2.394   9.823   1.579 -0.3447  0.2464  0.0320
 8390SOL    HW136824   2.430   9.874   1.502 -1.2274  0.6477 -0.1226
 8390SOL    HW236825   2.303   9.789   1.557 -0.1701 -0.5485  0.5012
 8391SOL     OW36826   2.248   6.412   6.890  0.5909 -0.3516 -0.5745
 8391SOL    HW136827   2.331   6.428   6.837 -0.2467  2.0710 -1.2668
 8391SOL    HW236828   2.223   6.496   6.939 -1.4383 -1.0246 -0.4113
 8392SOL     OW36829   2.225   9.946   6.515 -0.5359  0.3453 -0.1557
 8392SOL    HW136830   2.244  10.018   6.447 -1.1947  1.2048  0.5598
 8392SOL    HW236831   2.301   9.881   6.517  0.5528  1.6011 -0.0777
 8393SOL     OW36832   8.839   1.472   3.149  0.1399 -0.4619  0.0203
 8393SOL    HW136833   8.866   1.402   3.083  0.5038 -0.7523  0.4702
 8393SOL    HW236834   8.765   1.436   3.205  2.1072 -1.5241  2.0381
 8394SOL     OW36835   9.638   8.188   3.239  0.4737  0.1371  0.1020
 8394SOL    HW136836   9.573   8.163   3.311  0.7149 -1.1383 -0.1086
 8394SOL    HW236837   9.645   8.288   3.233  0.5025  0.2537  1.8945
 8395SOL     OW36838   4.433   9.362   4.545  0.2612 -0.5743 -0.7019
 8395SOL    HW136839   4.436   9.286   4.480  0.3091 -0.6815 -0.5756
 8395SOL    HW236840   4.448   9.448   4.497  0.8799 -0.7043 -0.7448
 8396SOL     OW36841   1.633   2.930   5.340  0.1199 -0.3528  0.0039
 8396SOL    HW136842   1.618   2.876   5.423 -3.8507 -0.2114 -0.5027
 8396SOL    HW236843   1.562   2.907   5.273  1.5694  1.6180 -2.2756
 8397SOL     OW36844   7.883   2.159   3.149  0.0908 -0.2122  0.5665
 8397SOL    HW136845   7.836   2.157   3.237  3.0516 -0.3246  2.2031
 8397SOL    HW236846   7.969   2.110   3.156 -0.5294 -2.0256 -2.9902
 8398SOL     OW36847   9.309   3.953   1.948  0.5156  0.4582  0.5624
 8398SOL    HW136848   9.284   3.905   2.032 -2.6314  1.7343  0.4051
 8398SOL    HW236849   9.384   4.016   1.967  0.9567 -0.4821  2.0037
 8399SOL     OW36850   7.291   5.235   2.855  0.7223  0.4751  0.8293
 8399SOL    HW136851   7.245   5.153   2.889  0.5876 -0.4362 -1.4826
 8399SOL    HW236852   7.281   5.240   2.755  3.0675  1.8550  0.6340
 8400SOL     OW36853   4.574   2.902   0.385 -0.1490  0.1312 -0.0099
 8400SOL    HW136854   4.658   2.934   0.428  0.4361  0.5330 -1.4204
 8400SOL    HW236855   4.567   2.803   0.394 -0.2700  0.2637  1.4044
 8401SOL     OW36856   9.759   1.727   2.669  0.2613  0.1285 -0.1783
 8401SOL    HW136857   9.776   1.658   2.738 -0.6469  1.3470  1.2816
 8401SOL    HW236858   9.662   1.728   2.644  0.6944 -0.7665 -1.9847
 8402SOL     OW36859   6.323   7.492   6.835 -0.7227 -0.0548 -0.1148
 8402SOL    HW136860   6.305   7.582   6.875 -2.3928  0.3501 -1.7376
 8402SOL    HW236861   6.402   7.498   6.774 -0.3279  0.1048  0.4007
 8403SOL     OW36862   1.180   8.348   1.929  0.2803 -0.0473  0.0150
 8403SOL    HW136863   1.162   8.442   1.900 -1.0870  0.0402  1.1298
 8403SOL    HW236864   1.103   8.290   1.903  1.7781 -1.1847 -2.0474
 8404SOL     OW36865   2.981   9.297   4.883 -0.2244  0.2980 -0.4765
 8404SOL    HW136866   2.961   9.201   4.865 -1.5775  0.6036 -0.6920
 8404SOL    HW236867   2.902   9.353   4.855 -1.4027  1.0242  3.9567
 8405SOL     OW36868   3.658   2.433   7.293 -0.2920 -0.1307 -0.2513
 8405SOL    HW136869   3.681   2.527   7.269  1.7873  0.0218  2.1182
 8405SOL    HW236870   3.680   2.417   7.389 -1.3913 -2.8122 -0.4049
 8406SOL     OW36871   1.860   1.602   6.384 -0.1650  0.4012  0.1074
 8406SOL    HW136872   1.833   1.642   6.297 -1.0678  0.2668  0.3185
 8406SOL    HW236873   1.958   1.581   6.382 -0.6899 -2.1160 -1.8823
 8407SOL     OW36874   9.202   9.576   3.460 -0.2008 -0.2662 -0.1065
 8407SOL    HW136875   9.137   9.564   3.534  0.8518  0.7165  1.0008
 8407SOL    HW236876   9.267   9.649   3.483  0.3197 -0.1305 -1.8618
 8408SOL     OW36877   3.407   1.774   1.449  0.3958  0.7166 -0.1141
 8408SOL    HW136878   3.336   1.844   1.446 -1.1736 -0.8104  0.7654
 8408SOL    HW236879   3.465   1.789   1.528 -0.6954  0.3104  0.7716
 8409SOL     OW36880   9.923   3.544   3.754  0.1849  0.0007 -0.2605
 8409SOL    HW136881   9.827   3.572   3.746  1.0215  2.7834 -0.7529
 8409SOL    HW236882   9.950   3.546   3.850 -0.1577 -0.5217 -0.1495
 8410SOL     OW36883   5.142   0.484   4.979 -0.0600 -0.7427 -0.1584
 8410SOL    HW136884   5.189   0.397   4.993  1.1904 -0.4751 -2.4332
 8410SOL    HW236885   5.169   0.523   4.891 -0.2844  2.1665  1.0017
 8411SOL     OW36886   7.356   7.898   7.901 -0.2090  0.1154 -0.0208
 8411SOL    HW136887   7.272   7.951   7.890 -0.6957 -0.3384  1.4741
 8411SOL    HW236888   7.410   7.937   7.975  0.5132 -0.1132 -0.4219
 8412SOL     OW36889   3.883   7.798   5.355 -0.2384 -0.4394  0.2263
 8412SOL    HW136890   3.826   7.869   5.398  0.9686  0.2164  0.7952
 8412SOL    HW236891   3.916   7.831   5.267 -0.7802 -0.8457 -0.1327
 8413SOL     OW36892   5.056   5.256   3.997 -0.1634 -0.4158 -0.3557
 8413SOL    HW136893   4.972   5.252   4.051  0.5545 -0.5150  0.7688
 8413SOL    HW236894   5.057   5.181   3.931 -0.2363 -1.3535  0.6947
 8414SOL     OW36895   4.085   7.862   2.294 -0.3297 -0.0151  0.0630
 8414SOL    HW136896   4.180   7.882   2.317 -0.3108 -0.5667  0.4620
 8414SOL    HW236897   4.035   7.836   2.377 -0.9501  0.7399 -0.0596
 8415SOL     OW36898   9.077   9.227   2.243 -0.2221 -0.1344  0.5444
 8415SOL    HW136899   9.038   9.146   2.200  1.0148  0.0557 -0.9919
 8415SOL    HW236900   9.129   9.199   2.324  3.1676 -1.3572 -1.9490
 8416SOL     OW36901   0.348   5.867   5.126 -0.1150  0.1263 -0.0318
 8416SOL    HW136902   0.308   5.854   5.035 -0.5978 -0.1031  0.2087
 8416SOL    HW236903   0.275   5.872   5.194  0.2562 -0.0917  0.3917
 8417SOL     OW36904   4.908   7.923   5.751  0.5151  0.3542  0.0816
 8417SOL    HW136905   4.898   7.982   5.831 -1.3302  1.2281 -0.7617
 8417SOL    HW236906   4.823   7.872   5.736  1.0951 -0.3494 -0.9027
 8418SOL     OW36907   6.359   8.779   2.664 -0.0307  0.0171  0.5238
 8418SOL    HW136908   6.377   8.870   2.701  0.0554  0.4789 -0.6228
 8418SOL    HW236909   6.390   8.775   2.569 -0.1703 -1.1684  0.5143
 8419SOL     OW36910   3.135   1.732   5.712 -0.5371  0.4329 -0.4759
 8419SOL    HW136911   3.132   1.801   5.785  0.0733  1.6006 -1.5480
 8419SOL    HW236912   3.189   1.653   5.743 -0.6471  0.7280  0.4910
 8420SOL     OW36913   2.484   3.962   6.349  0.0995  0.4416 -0.2960
 8420SOL    HW136914   2.393   3.959   6.310  0.7900 -1.3738 -1.8488
 8420SOL    HW236915   2.551   3.984   6.278  1.0290  0.2252  0.4957
 8421SOL     OW36916   5.091   9.327   7.792 -0.3557  0.1213 -0.2151
 8421SOL    HW136917   5.134   9.241   7.764 -0.1844 -0.3351  1.4175
 8421SOL    HW236918   5.043   9.314   7.879 -1.5214  1.3211 -0.6616
 8422SOL     OW36919   6.760   8.480   5.118 -0.3197 -0.0180 -0.1491
 8422SOL    HW136920   6.755   8.572   5.155  1.7261  0.7548 -1.7304
 8422SOL    HW236921   6.852   8.443   5.132 -0.9346 -1.5892 -0.0964
 8423SOL     OW36922   9.732   1.181   1.625 -0.0264 -0.6574  0.0522
 8423SOL    HW136923   9.693   1.091   1.609  0.3704 -0.9959  0.9357
 8423SOL    HW236924   9.818   1.190   1.575 -0.5349 -0.4267 -0.7775
 8424SOL     OW36925   0.721   1.075   1.565 -0.3105  0.4714 -0.6286
 8424SOL    HW136926   0.735   0.977   1.575 -3.7911  0.1141  1.8415
 8424SOL    HW236927   0.791   1.124   1.616  0.1056 -0.8108  0.0632
 8425SOL     OW36928   6.272   0.873   1.156  0.4118  0.0657  0.1046
 8425SOL    HW136929   6.258   0.862   1.058 -1.8971  1.2707  0.2500
 8425SOL    HW236930   6.365   0.905   1.174  0.4925  0.9375 -1.7943
 8426SOL     OW36931   2.562   5.952   4.919  0.5601  0.0437 -0.3409
 8426SOL    HW136932   2.657   5.932   4.945  0.2611 -0.9826 -0.0006
 8426SOL    HW236933   2.553   5.945   4.820  0.9522  0.6330 -0.4183
 8427SOL     OW36934   6.001   4.858   0.409 -0.1541  0.0953  0.3654
 8427SOL    HW136935   6.011   4.819   0.501 -0.4551  1.7313  1.1128
 8427SOL    HW236936   6.011   4.786   0.341  2.0922 -0.8053  1.6054
 8428SOL     OW36937   7.576   6.839   8.178 -0.4425  0.0003  0.3588
 8428SOL    HW136938   7.525   6.882   8.103  2.3111  0.2377 -1.4284
 8428SOL    HW236939   7.668   6.876   8.181  0.3062 -1.9370  2.2040
 8429SOL     OW36940   6.785   8.408   5.596  0.4718 -0.7256 -0.4729
 8429SOL    HW136941   6.874   8.425   5.638  0.4017  0.2574 -0.7216
 8429SOL    HW236942   6.798   8.355   5.512  1.0265  1.1406 -1.5979
 8430SOL     OW36943   8.645   2.796   6.281 -0.0069  0.0362  0.1349
 8430SOL    HW136944   8.634   2.894   6.270  1.1004 -0.0277 -1.7224
 8430SOL    HW236945   8.605   2.767   6.368  0.2552  2.2259  0.9997
 8431SOL     OW36946   0.866   8.452   5.118 -0.5887  0.5397  0.6499
 8431SOL    HW136947   0.941   8.484   5.061  1.0401 -1.2456  1.7520
 8431SOL    HW236948   0.889   8.463   5.214 -2.9076  2.5952  1.0103
 8432SOL     OW36949   6.154   0.320   2.659 -0.3136 -0.0070  0.0930
 8432SOL    HW136950   6.122   0.235   2.617 -0.5667 -1.2182  2.6862
 8432SOL    HW236951   6.178   0.304   2.754  1.2500  2.4794  0.1720
 8433SOL     OW36952   0.177   5.260   4.957  0.3027 -0.1276  0.3734
 8433SOL    HW136953   0.258   5.227   5.005  0.4032 -1.1430 -0.4721
 8433SOL    HW236954   0.124   5.319   5.017  1.7519  0.6665  0.8792
 8434SOL     OW36955   1.766   2.308   6.651 -0.2757 -0.1982 -0.7759
 8434SOL    HW136956   1.758   2.407   6.659 -2.8567 -0.3813 -0.6115
 8434SOL    HW236957   1.829   2.274   6.720 -1.3020  1.0979  0.8337
 8435SOL     OW36958   7.875   3.405   1.577  0.3806  0.0357 -0.3335
 8435SOL    HW136959   7.796   3.400   1.638  1.0608  0.4891  0.5909
 8435SOL    HW236960   7.929   3.486   1.598  1.6751 -0.8271 -0.2398
 8436SOL     OW36961   7.284   6.678   4.868  0.4023  0.1526 -0.2074
 8436SOL    HW136962   7.351   6.634   4.809  0.0496  0.5301 -0.9009
 8436SOL    HW236963   7.196   6.633   4.858 -0.2705  1.7451 -1.8545
 8437SOL     OW36964   0.855   4.303   5.415  0.3634 -0.3335  0.4130
 8437SOL    HW136965   0.857   4.382   5.353  1.4394  0.6217  1.6433
 8437SOL    HW236966   0.860   4.219   5.361 -1.2386  0.3931 -0.9450
 8438SOL     OW36967   8.877   9.048   1.558 -0.0546  0.4152 -0.5729
 8438SOL    HW136968   8.874   9.010   1.651  0.8277 -0.5052 -0.9148
 8438SOL    HW236969   8.933   8.989   1.499 -1.4039  0.4768 -1.9384
 8439SOL     OW36970   2.748   9.932   1.141  0.0771  0.5296  0.3514
 8439SOL    HW136971   2.707   9.850   1.102 -2.2905  2.5787 -1.6361
 8439SOL    HW236972   2.722   9.939   1.238 -0.4169 -0.5969  0.3082
 8440SOL     OW36973   5.095   6.200   9.934 -0.0761  0.2557  0.4192
 8440SOL    HW136974   5.083   6.229  10.029  1.2573  0.9899  0.3761
 8440SOL    HW236975   5.123   6.278   9.879 -0.8375 -0.1672 -0.5938
 8441SOL     OW36976   1.282   6.649   0.945  0.1432  0.3012 -0.7179
 8441SOL    HW136977   1.291   6.584   1.020 -1.1206  1.3132  0.3306
 8441SOL    HW236978   1.310   6.605   0.859 -0.1952 -1.4605  0.0486
 8442SOL     OW36979   7.838   6.922   2.308  0.3777 -0.1751  0.6784
 8442SOL    HW136980   7.786   6.975   2.375 -0.4364  0.4619 -0.4387
 8442SOL    HW236981   7.863   6.980   2.231  2.7973 -0.4696  1.2031
 8443SOL     OW36982   8.114   9.944   3.161 -0.0144  0.0568  0.3397
 8443SOL    HW136983   8.156   9.968   3.249  2.5089 -1.3971 -0.4105
 8443SOL    HW236984   8.024   9.986   3.154  1.4212  3.5893  1.9171
 8444SOL     OW36985   2.341   0.103   3.870  0.3589 -0.1169  0.6255
 8444SOL    HW136986   2.430   0.097   3.914  0.1266  1.2062  1.2958
 8444SOL    HW236987   2.298   0.012   3.869  2.2437 -1.0403 -0.8920
 8445SOL     OW36988   1.059   8.695   5.073  0.3562  0.8455  0.0613
 8445SOL    HW136989   1.048   8.731   5.166  2.1851  0.4849  0.4348
 8445SOL    HW236990   1.055   8.770   5.008  0.5076  1.2715  0.5400
 8446SOL     OW36991   2.535   4.906   1.813  0.5342  0.2234 -0.3619
 8446SOL    HW136992   2.580   4.980   1.864 -1.0307  0.6333  0.4515
 8446SOL    HW236993   2.597   4.873   1.742  1.8229  1.3099  0.2171
 8447SOL     OW36994   8.646   4.354   2.539  0.0402 -0.0555 -0.0541
 8447SOL    HW136995   8.609   4.327   2.628 -1.8185 -2.1405 -1.4280
 8447SOL    HW236996   8.667   4.273   2.485  2.3664  1.1769 -1.0608
 8448SOL     OW36997   9.579   3.304   6.320  0.4796 -0.1162  0.3404
 8448SOL    HW136998   9.513   3.321   6.393 -1.7414  1.1816 -1.8907
 8448SOL    HW236999   9.592   3.205   6.309  0.6569 -0.3228  2.3027
 8449SOL     OW37000   8.421   1.182   5.764 -0.0933 -0.1395  0.5428
 8449SOL    HW137001   8.474   1.256   5.807  1.0204  0.5589 -1.9630
 8449SOL    HW237002   8.458   1.094   5.793  1.9003  0.3367 -0.4468
 8450SOL     OW37003   1.342   2.090   1.920 -0.3172 -0.2826 -0.3567
 8450SOL    HW137004   1.294   2.053   1.999  1.1529  0.5718  0.9678
 8450SOL    HW237005   1.377   2.014   1.865 -1.2396 -0.8882 -0.1142
 8451SOL     OW37006   8.567   1.440   2.525  0.2674 -0.1590  0.8706
 8451SOL    HW137007   8.591   1.460   2.430 -1.2074 -1.5009  0.1976
 8451SOL    HW237008   8.469   1.423   2.532  0.1496  1.1716  2.8651
 8452SOL     OW37009   1.360   1.048   5.538 -0.0160  0.1797 -0.1372
 8452SOL    HW137010   1.265   1.016   5.532  0.5413 -1.5071 -0.2079
 8452SOL    HW237011   1.385   1.095   5.453 -0.2643 -0.8844 -0.8101
 8453SOL     OW37012   3.446   1.692   6.759 -0.1433 -0.1666  0.2272
 8453SOL    HW137013   3.367   1.753   6.758  0.1129  0.1462 -0.7550
 8453SOL    HW237014   3.415   1.598   6.778 -0.7933 -0.1117 -0.5639
 8454SOL     OW37015   3.069   4.044   9.667  0.0064 -0.2491 -0.1121
 8454SOL    HW137016   3.141   4.043   9.736 -0.6215 -0.5573  0.5489
 8454SOL    HW237017   3.063   4.135   9.626 -0.8496  0.4717  1.5671
 8455SOL     OW37018   2.468   5.030   3.202 -0.6401 -0.0723 -0.0047
 8455SOL    HW137019   2.482   4.931   3.211  0.5517  0.0678 -0.3134
 8455SOL    HW237020   2.524   5.065   3.128 -1.0102  0.8534  0.1519
 8456SOL     OW37021   1.514   8.222   2.928 -0.6004 -0.4126 -0.2134
 8456SOL    HW137022   1.533   8.125   2.941  0.7529 -0.1114  0.1423
 8456SOL    HW237023   1.416   8.235   2.916 -0.8750 -1.7409  0.4312
 8457SOL     OW37024   0.858   6.643  10.057 -0.6821 -0.3660 -0.1448
 8457SOL    HW137025   0.910   6.725  10.082  0.3282 -0.8809 -0.5240
 8457SOL    HW237026   0.771   6.670  10.016 -0.2730  0.5222 -0.4398
 8458SOL     OW37027   1.500   5.332   0.938 -0.2905 -0.2989 -0.2607
 8458SOL    HW137028   1.548   5.247   0.963  0.3432  0.3219  0.6479
 8458SOL    HW237029   1.408   5.309   0.904 -0.8541 -1.2394  1.8297
 8459SOL     OW37030   8.866   9.545   7.588 -0.6142  0.2097  0.7066
 8459SOL    HW137031   8.917   9.463   7.612 -0.1774  0.2909  0.0523
 8459SOL    HW237032   8.922   9.604   7.529 -2.4940 -1.1058 -2.5243
 8460SOL     OW37033   2.078   3.871   9.686 -0.7666 -0.0120  0.3190
 8460SOL    HW137034   2.015   3.839   9.615 -1.6966 -0.9165  1.5371
 8460SOL    HW237035   2.065   3.969   9.700 -2.2286 -0.2695  0.8596
 8461SOL     OW37036   2.335   1.181   2.138  0.0374 -0.0115  0.1341
 8461SOL    HW137037   2.256   1.128   2.107  0.0695 -0.6318  1.0751
 8461SOL    HW237038   2.305   1.246   2.209  0.1873  0.4794 -0.2549
 8462SOL     OW37039   5.291   0.047   7.440 -0.4676 -0.0051  0.1204
 8462SOL    HW137040   5.313  -0.048   7.460  0.6629  0.3207  0.4472
 8462SOL    HW237041   5.362   0.106   7.477  0.8497  0.7277 -3.3764
 8463SOL     OW37042   7.029   6.818   5.952  0.1023 -0.5790 -0.2089
 8463SOL    HW137043   6.938   6.860   5.957  0.1608 -0.3398 -1.0894
 8463SOL    HW237044   7.099   6.887   5.972  0.1234 -0.6085 -0.1807
 8464SOL     OW37045   1.029   3.631   9.747  0.1748 -0.5597  0.2754
 8464SOL    HW137046   1.050   3.549   9.801 -1.1689 -1.0866  0.0248
 8464SOL    HW237047   0.953   3.680   9.790  0.6579  0.3041  0.1554
 8465SOL     OW37048   0.980   3.041   7.382  0.0062  0.0232  0.4254
 8465SOL    HW137049   1.022   2.969   7.328 -0.4431  0.5773 -0.6938
 8465SOL    HW237050   0.935   3.002   7.462 -0.7883 -1.0018 -0.5193
 8466SOL     OW37051   3.325   2.878   6.660 -0.2345 -0.1723  0.5244
 8466SOL    HW137052   3.303   2.863   6.563  1.1313  0.5273  0.0871
 8466SOL    HW237053   3.345   2.975   6.674  2.4396 -0.7423  0.8881
 8467SOL     OW37054   1.322   5.821   0.501 -0.0945 -0.0430  0.4016
 8467SOL    HW137055   1.249   5.767   0.542 -0.3933 -0.3563 -0.5267
 8467SOL    HW237056   1.409   5.772   0.508 -0.7825 -1.8374 -2.6732
 8468SOL     OW37057   1.623   0.797   7.310  0.4143  0.5899  0.0911
 8468SOL    HW137058   1.625   0.783   7.409  0.5408  0.3606  0.0573
 8468SOL    HW237059   1.716   0.813   7.277  0.5416 -0.6368 -0.1736
 8469SOL     OW37060   9.897   3.513   1.077 -0.3808 -0.1748  0.1507
 8469SOL    HW137061   9.883   3.415   1.093 -0.4371  0.0126  1.2854
 8469SOL    HW237062   9.870   3.565   1.158  3.8660  0.4304  1.3144
 8470SOL     OW37063   3.447   0.422   3.467  0.0355 -0.0361  0.4325
 8470SOL    HW137064   3.420   0.327   3.478  1.4143 -0.7098 -1.8494
 8470SOL    HW237065   3.368   0.476   3.439 -0.3390 -0.8316 -0.0445
 8471SOL     OW37066   5.532   6.790   0.970 -0.1506  0.0607  0.5808
 8471SOL    HW137067   5.458   6.724   0.978 -0.4971  0.7103  3.0298
 8471SOL    HW237068   5.618   6.742   0.952 -0.8386 -0.8159 -0.4701
 8472SOL     OW37069   3.098   0.008   3.388 -0.1812  0.1550 -0.0569
 8472SOL    HW137070   3.163  -0.060   3.423 -0.7026 -1.0237 -1.3219
 8472SOL    HW237071   3.073   0.072   3.461  0.4916 -0.8845  1.0962
 8473SOL     OW37072   0.949   1.940   0.347  0.4464  0.1583  0.4039
 8473SOL    HW137073   0.861   1.986   0.360  0.8166  0.9601  0.1128
 8473SOL    HW237074   1.023   2.008   0.350  1.2749 -0.8147  2.9902
 8474SOL     OW37075   1.442   7.605   7.651  0.2954  0.9487  0.8180
 8474SOL    HW137076   1.390   7.539   7.705 -0.8853  1.1373 -0.0574
 8474SOL    HW237077   1.500   7.557   7.586  0.5206  0.7526  1.1627
 8475SOL     OW37078   3.560   5.080   3.011  0.6466 -0.2813 -0.1411
 8475SOL    HW137079   3.474   5.028   3.005  0.7680 -0.5370  0.3035
 8475SOL    HW237080   3.619   5.038   3.079  1.5147 -0.6653 -1.1218
 8476SOL     OW37081   3.037   4.083   1.923  0.3259 -0.1668 -0.8795
 8476SOL    HW137082   2.988   3.997   1.914 -0.3877 -0.1835  2.3341
 8476SOL    HW237083   3.134   4.070   1.901  0.3496 -1.9770  0.2003
 8477SOL     OW37084   8.103   4.860   1.787 -0.2539 -0.6857 -0.1302
 8477SOL    HW137085   8.108   4.768   1.750  2.5884  0.1005 -1.8073
 8477SOL    HW237086   8.133   4.859   1.883 -1.4950 -1.6992  0.2536
 8478SOL     OW37087   6.976   7.809   4.501 -0.0036 -0.2365 -0.0723
 8478SOL    HW137088   6.898   7.822   4.440 -3.3525  0.4761  4.1398
 8478SOL    HW237089   7.025   7.896   4.512 -0.9014  0.2273  0.2520
 8479SOL     OW37090   8.013   3.111   6.273  0.2156 -0.5141  0.4291
 8479SOL    HW137091   8.006   3.033   6.334  0.7106 -0.2697  0.8102
 8479SOL    HW237092   7.930   3.119   6.217 -0.3809 -0.5317  1.3164
 8480SOL     OW37093   9.986   0.854   7.857 -0.2072  0.1525 -0.0390
 8480SOL    HW137094   9.899   0.901   7.872 -0.3343  0.1640 -0.7747
 8480SOL    HW237095   9.982   0.762   7.896  0.0203  0.7167  1.3554
 8481SOL     OW37096   9.370   7.439   4.147 -0.5707 -0.5129  0.8609
 8481SOL    HW137097   9.369   7.538   4.167  0.4622 -0.1832 -0.6582
 8481SOL    HW237098   9.289   7.415   4.094  0.5483  0.0599 -1.1661
 8482SOL     OW37099   9.527   0.196   4.273  0.0168  0.1345 -0.2653
 8482SOL    HW137100   9.603   0.244   4.229  0.9097 -1.1376 -0.1714
 8482SOL    HW237101   9.546   0.097   4.272 -1.4577 -0.1649  0.1126
 8483SOL     OW37102   0.536   1.593   1.174  0.4637 -0.2185  0.0136
 8483SOL    HW137103   0.538   1.542   1.261 -1.3704 -1.2074 -0.4949
 8483SOL    HW237104   0.446   1.583   1.132  1.2217  0.5700 -1.8363
 8484SOL     OW37105   2.425   1.157   3.890  0.1454 -0.3591  0.3794
 8484SOL    HW137106   2.420   1.228   3.819  1.5631 -0.7506 -0.1429
 8484SOL    HW237107   2.499   1.180   3.954  1.8018 -2.2343 -0.7993
 8485SOL     OW37108   6.276   8.579   6.961 -0.2785 -0.2818 -0.1522
 8485SOL    HW137109   6.375   8.566   6.953 -0.0876  0.7265  0.3442
 8485SOL    HW237110   6.230   8.539   6.882  0.6264  0.2517 -0.9646
 8486SOL     OW37111   6.163   9.962   1.107 -0.0572 -0.3716  0.0706
 8486SOL    HW137112   6.097   9.944   1.034  0.4587 -1.0146 -0.2499
 8486SOL    HW237113   6.253   9.929   1.078  0.7412  1.8639 -0.1352
 8487SOL     OW37114   8.197   9.717   2.306  0.0924  0.4036 -0.3113
 8487SOL    HW137115   8.164   9.638   2.358  1.5419 -0.3675 -0.5293
 8487SOL    HW237116   8.182   9.702   2.209  1.0317  0.0497 -0.4128
 8488SOL     OW37117   7.700   7.594   3.400  0.0519  0.1464  0.1785
 8488SOL    HW137118   7.672   7.549   3.315 -1.3811  0.7260  0.3285
 8488SOL    HW237119   7.620   7.604   3.460  0.6879  1.3998  0.8325
 8489SOL     OW37120   9.313   6.468   3.136 -0.2219 -0.6555 -0.3581
 8489SOL    HW137121   9.253   6.413   3.077 -2.2297  2.5150 -1.3831
 8489SOL    HW237122   9.311   6.431   3.229 -3.7273 -0.7010 -0.3836
 8490SOL     OW37123   4.685   5.576   0.811  0.9685  0.1914 -0.4310
 8490SOL    HW137124   4.771   5.594   0.859  1.9053 -1.3952 -1.4746
 8490SOL    HW237125   4.677   5.478   0.792 -0.4146  0.5058 -1.5718
 8491SOL     OW37126   2.050   3.763   6.865  0.1520  0.3285 -0.1470
 8491SOL    HW137127   1.964   3.794   6.824  0.6517  0.1718 -1.3221
 8491SOL    HW237128   2.095   3.840   6.910 -1.1286  0.1841  1.4495
 8492SOL     OW37129   8.599   1.973   0.105  0.4376 -0.0211  0.2784
 8492SOL    HW137130   8.537   1.992   0.028  1.2517 -1.1912 -0.7009
 8492SOL    HW237131   8.545   1.939   0.182 -0.0485 -2.3984 -1.0424
 8493SOL     OW37132   9.341   8.058   0.709 -0.3082 -0.1833 -0.2898
 8493SOL    HW137133   9.327   7.974   0.763  0.0761 -1.5089 -2.1993
 8493SOL    HW237134   9.293   8.049   0.622  0.4646  1.2356 -0.8693
 8494SOL     OW37135   6.380   9.408   5.865  0.0022 -0.1143 -0.6802
 8494SOL    HW137136   6.432   9.396   5.949  0.7104 -2.1183 -1.3676
 8494SOL    HW237137   6.433   9.371   5.788 -1.9543 -1.2076 -1.5430
 8495SOL     OW37138   3.119   2.284   1.002 -0.2929 -0.1297  0.7246
 8495SOL    HW137139   3.189   2.256   1.067 -0.0853  0.1587  0.6223
 8495SOL    HW237140   3.062   2.205   0.979  1.0464 -0.7648 -0.5050
 8496SOL     OW37141   6.089   1.296   0.898  0.3671 -0.5525 -0.2841
 8496SOL    HW137142   6.038   1.350   0.831  1.9043  0.6847 -0.4608
 8496SOL    HW237143   6.043   1.301   0.987 -1.3984 -1.7929 -1.0943
 8497SOL     OW37144   7.494   6.736   3.301 -0.3887  0.0324 -0.9843
 8497SOL    HW137145   7.407   6.780   3.277  0.3645  0.2190 -3.5579
 8497SOL    HW237146   7.534   6.693   3.220  0.4661 -2.7142  0.8042
 8498SOL     OW37147   7.018   1.609   2.606  0.3225 -0.3211  0.1468
 8498SOL    HW137148   7.023   1.677   2.679  0.1880 -0.7118  0.5241
 8498SOL    HW237149   6.945   1.544   2.627  1.2253 -1.2670  0.3898
 8499SOL     OW37150   1.051   8.812   2.486 -0.0211  0.3246  0.5332
 8499SOL    HW137151   0.982   8.765   2.540 -0.1542 -0.1687 -0.0633
 8499SOL    HW237152   1.031   8.801   2.388  0.1405  1.3203  0.3786
 8500SOL     OW37153   1.248   8.806   3.908 -0.3711  0.2194  0.4489
 8500SOL    HW137154   1.279   8.897   3.936 -0.0004  0.1218  0.3544
 8500SOL    HW237155   1.259   8.796   3.809  0.2683 -0.1952  0.5636
 8501SOL     OW37156   4.876   1.418   1.099 -0.1841  0.4516  0.1480
 8501SOL    HW137157   4.959   1.435   1.152 -0.0917  1.0777 -0.1950
 8501SOL    HW237158   4.868   1.486   1.026 -1.0229  0.4152  0.1987
 8502SOL     OW37159   0.616   7.098   1.754 -0.3852 -0.1172  0.1741
 8502SOL    HW137160   0.670   7.143   1.825  0.5830  0.0766 -0.6615
 8502SOL    HW237161   0.673   7.030   1.707 -1.4410 -1.2556  0.5328
 8503SOL     OW37162   6.291   9.487   1.755 -0.0046  0.3470  0.4637
 8503SOL    HW137163   6.353   9.541   1.813 -0.2886  2.4013 -1.1047
 8503SOL    HW237164   6.236   9.427   1.813  0.0020  2.0623  2.3218
 8504SOL     OW37165   3.902   4.044   7.113 -0.1475  0.2795 -0.2694
 8504SOL    HW137166   3.842   3.972   7.076  0.8815 -0.2102 -1.0009
 8504SOL    HW237167   3.947   4.091   7.038  1.4845 -0.3106  0.3309
 8505SOL     OW37168   9.306   6.603   0.253 -0.5492  0.3272 -0.2567
 8505SOL    HW137169   9.280   6.508   0.236 -0.6396  0.3684 -0.3491
 8505SOL    HW237170   9.228   6.663   0.233 -1.2973  0.2197  2.2041
 8506SOL     OW37171   1.496   6.353   4.087 -0.2394  0.0273 -0.4177
 8506SOL    HW137172   1.550   6.273   4.110  1.1767  1.8078  2.8329
 8506SOL    HW237173   1.543   6.406   4.016 -0.3446 -1.1154 -1.3508
 8507SOL     OW37174   9.493   9.582   2.129  0.6738 -0.3230 -0.5925
 8507SOL    HW137175   9.528   9.570   2.222  1.5069 -0.8439 -0.9664
 8507SOL    HW237176   9.525   9.670   2.093 -0.9829  0.6244  0.1895
 8508SOL     OW37177   4.349   8.473   5.531  0.2025 -0.3280 -0.1889
 8508SOL    HW137178   4.279   8.403   5.520  0.4790 -0.3114 -2.1900
 8508SOL    HW237179   4.307   8.558   5.564 -0.3868 -0.9020  0.5603
 8509SOL     OW37180   7.085   7.410   4.476  0.7439 -0.0620  0.0637
 8509SOL    HW137181   7.110   7.332   4.419  2.6206 -0.1708  0.9856
 8509SOL    HW237182   7.001   7.452   4.441  0.0242 -2.1309 -0.7776
 8510SOL     OW37183   3.820   2.711   2.689 -0.0030 -0.3009 -0.2911
 8510SOL    HW137184   3.818   2.676   2.596 -1.3848 -0.1694 -0.3231
 8510SOL    HW237185   3.879   2.654   2.746 -2.9273 -3.2522 -0.1113
 8511SOL     OW37186   2.400   0.472   5.357 -0.3184  0.1425  0.6965
 8511SOL    HW137187   2.324   0.415   5.324  0.0199 -0.3948  0.8453
 8511SOL    HW237188   2.485   0.442   5.315 -0.1597  0.6556  0.6426
 8512SOL     OW37189   0.977   5.830   9.985  0.0636  0.0610  0.0524
 8512SOL    HW137190   0.918   5.881   9.922  0.7338  0.5236 -0.2062
 8512SOL    HW237191   1.048   5.891  10.020 -0.4794 -0.1223  1.4849
 8513SOL     OW37192   4.172   2.757   0.253 -0.6349 -0.1310 -0.1535
 8513SOL    HW137193   4.177   2.669   0.206 -1.4092  0.2791 -1.0157
 8513SOL    HW237194   4.141   2.828   0.189  2.7164  1.3648 -0.2639
 8514SOL     OW37195   1.800   7.981   5.937  0.5354  0.1614  0.0784
 8514SOL    HW137196   1.849   7.964   5.852 -0.6997 -1.4662 -0.3224
 8514SOL    HW237197   1.797   7.898   5.992  0.5230  0.9560  1.3114
 8515SOL     OW37198   3.571   9.024   0.277  0.1988 -0.5839 -0.1020
 8515SOL    HW137199   3.584   9.123   0.266  0.6178 -0.4959  1.1217
 8515SOL    HW237200   3.483   8.998   0.238  0.9870 -0.0680 -2.2858
 8516SOL     OW37201   3.214   9.552   1.251 -0.3761 -0.0029  0.1104
 8516SOL    HW137202   3.244   9.471   1.301 -0.9897 -0.2172  0.1375
 8516SOL    HW237203   3.121   9.577   1.280 -0.2251  0.6534  0.0348
 8517SOL     OW37204   9.916   3.127   0.559  0.2422 -0.0265 -0.8235
 8517SOL    HW137205   9.865   3.190   0.500  1.3663  1.0723 -0.6333
 8517SOL    HW237206   9.997   3.095   0.511 -0.5108 -1.6358 -1.0566
 8518SOL     OW37207   8.200   0.942   5.480 -0.0666 -0.4539  0.4715
 8518SOL    HW137208   8.161   0.917   5.392  0.0023 -0.2669  0.3864
 8518SOL    HW237209   8.296   0.915   5.484 -0.5123 -1.9847  1.1353
 8519SOL     OW37210   1.441   8.717   2.382  0.2831 -0.7743 -0.0257
 8519SOL    HW137211   1.420   8.756   2.292  0.3350 -0.3956  0.1268
 8519SOL    HW237212   1.358   8.714   2.437  0.7724  1.4606  0.8613
 8520SOL     OW37213   3.495   2.232   0.634 -0.1673  0.0598 -0.3540
 8520SOL    HW137214   3.480   2.330   0.626  2.0641  0.3410 -1.8409
 8520SOL    HW237215   3.463   2.186   0.551  0.1780 -0.2566 -0.3184
 8521SOL     OW37216   1.365   8.247   3.447 -0.2755 -0.5421 -0.8162
 8521SOL    HW137217   1.355   8.230   3.349 -2.8824 -1.4393 -0.4274
 8521SOL    HW237218   1.277   8.273   3.485  0.9110  0.7456  1.1429
 8522SOL     OW37219   4.359   5.676   3.539  0.0235  0.1586  0.0996
 8522SOL    HW137220   4.337   5.601   3.477 -0.0821 -0.2416  0.6287
 8522SOL    HW237221   4.376   5.759   3.485  2.3927 -0.7620 -0.6393
 8523SOL     OW37222   7.743   7.378   0.918  0.7860 -0.4329  0.7423
 8523SOL    HW137223   7.684   7.375   0.998 -0.2069  0.1441  0.0394
 8523SOL    HW237224   7.766   7.285   0.890  0.9621 -0.6380  1.5664
 8524SOL     OW37225   2.211   7.657   4.363  0.0790  0.1162  0.0597
 8524SOL    HW137226   2.281   7.694   4.424  1.4458 -1.5540 -0.4483
 8524SOL    HW237227   2.121   7.690   4.391  0.7263 -0.2767  2.7334
 8525SOL     OW37228   0.042   4.002   3.355 -0.3622  0.1394 -0.2640
 8525SOL    HW137229   0.018   3.928   3.417  0.6313  0.3673  0.4206
 8525SOL    HW237230   0.137   4.029   3.371 -1.0996  2.4679  0.4572
 8526SOL     OW37231   7.707   9.286   2.519 -0.0382  0.6973 -0.0208
 8526SOL    HW137232   7.619   9.291   2.471 -0.1234 -0.3231  0.0181
 8526SOL    HW237233   7.718   9.196   2.560  0.4650  1.2516  1.0876
 8527SOL     OW37234   5.454   8.356   3.106  0.3086 -0.1631 -0.0638
 8527SOL    HW137235   5.498   8.269   3.127  2.2961  1.0411  0.8804
 8527SOL    HW237236   5.502   8.400   3.030 -0.1233  0.5013  0.0450
 8528SOL     OW37237   0.085   0.171   1.431 -0.5543  0.0625  0.0701
 8528SOL    HW137238   0.178   0.137   1.417 -1.2877 -1.3969 -1.2750
 8528SOL    HW237239   0.042   0.121   1.506 -0.7086 -0.1614 -0.1673
 8529SOL     OW37240   6.724   1.770   5.313  0.1690 -0.1301 -0.2350
 8529SOL    HW137241   6.748   1.855   5.358 -2.2957  0.1869  0.5864
 8529SOL    HW237242   6.798   1.742   5.251  0.6144  3.0778 -1.2339
 8530SOL     OW37243   8.830   4.001   1.680 -0.0451 -0.1617 -0.4435
 8530SOL    HW137244   8.919   3.968   1.712  0.5387  0.7790 -1.0472
 8530SOL    HW237245   8.800   4.077   1.739 -0.4598 -0.4950 -0.2260
 8531SOL     OW37246   1.670   8.598   4.327 -0.0492  0.0883  0.3068
 8531SOL    HW137247   1.641   8.613   4.422 -0.4426 -0.1980  0.2355
 8531SOL    HW237248   1.694   8.685   4.285  0.3232  0.1918  0.7348
 8532SOL     OW37249   0.473   6.969   7.120 -0.0117 -0.0775  0.2527
 8532SOL    HW137250   0.394   6.973   7.059 -1.5996  1.0518  2.3091
 8532SOL    HW237251   0.522   7.055   7.117 -0.8422  0.4636  1.4747
 8533SOL     OW37252   4.432   9.337   6.917  0.0768  0.5802  0.6726
 8533SOL    HW137253   4.359   9.302   6.975 -0.6609 -0.1287 -0.6665
 8533SOL    HW237254   4.394   9.373   6.832  1.2973 -0.0424 -0.1622
 8534SOL     OW37255   9.829   4.603   0.439  0.3651 -0.2685 -0.0765
 8534SOL    HW137256   9.897   4.566   0.376 -0.6384 -0.4773 -1.0672
 8534SOL    HW237257   9.745   4.625   0.388 -0.2027  0.2615  1.0649
 8535SOL     OW37258   9.006   2.723   6.838  0.1697  0.3566  0.4285
 8535SOL    HW137259   9.011   2.822   6.840  0.3682  0.3317  1.3075
 8535SOL    HW237260   8.986   2.688   6.929 -0.1509 -0.3976  0.0755
 8536SOL     OW37261   7.683   4.505   3.848  0.1767 -0.5392 -0.4204
 8536SOL    HW137262   7.728   4.417   3.863 -1.5688 -1.6342 -1.4259
 8536SOL    HW237263   7.626   4.499   3.767 -2.1943  0.6489  1.1258
 8537SOL     OW37264   7.882   6.442   5.957 -0.0814 -0.0766 -0.4086
 8537SOL    HW137265   7.940   6.361   5.965 -0.2807  0.0564  3.4833
 8537SOL    HW237266   7.938   6.520   5.928  0.5509 -1.0987 -1.9934
 8538SOL     OW37267   8.106   0.227   7.812 -0.2922  0.0980  0.8438
 8538SOL    HW137268   8.181   0.163   7.795  0.4255  1.4211 -1.2124
 8538SOL    HW237269   8.072   0.215   7.905  2.1088 -0.9358  1.6254
 8539SOL     OW37270   0.618   0.002   3.376 -0.2702 -0.6633 -0.0163
 8539SOL    HW137271   0.544  -0.050   3.332  0.7715 -0.6099 -1.8777
 8539SOL    HW237272   0.683  -0.062   3.417 -0.9148 -0.7293  0.9195
 8540SOL     OW37273   8.414   6.906   3.473 -0.0548  0.2876  0.2324
 8540SOL    HW137274   8.511   6.909   3.494 -0.3247  2.4137  1.3147
 8540SOL    HW237275   8.389   6.985   3.416 -1.1136 -0.3453 -0.2151
 8541SOL     OW37276   9.938   5.201   1.059 -0.4672 -0.6375 -0.0787
 8541SOL    HW137277  10.027   5.242   1.077 -1.0936  0.6302  0.1736
 8541SOL    HW237278   9.924   5.192   0.961 -0.1897 -0.5366 -0.1262
 8542SOL     OW37279   4.440   5.492   2.399  0.5717  0.3108 -0.0006
 8542SOL    HW137280   4.383   5.410   2.389  2.1839 -0.7412 -0.8147
 8542SOL    HW237281   4.381   5.572   2.410 -1.0627 -0.6982 -1.1658
 8543SOL     OW37282   0.911   6.581   1.398  0.7932  0.0330 -0.2355
 8543SOL    HW137283   0.818   6.614   1.412  1.5240  2.8953 -1.7931
 8543SOL    HW237284   0.932   6.510   1.466 -1.7680  0.8498  1.4810
 8544SOL     OW37285   1.078   8.959   2.717  0.0526 -0.6641  0.5100
 8544SOL    HW137286   1.031   9.044   2.693  0.5474  0.1198  2.2487
 8544SOL    HW237287   1.090   8.903   2.635  1.9040  2.0279 -1.1491
 8545SOL     OW37288   8.582   1.506   6.250 -0.3554 -0.1721 -0.3505
 8545SOL    HW137289   8.662   1.504   6.191 -0.0794 -1.6788  0.0511
 8545SOL    HW237290   8.611   1.515   6.345 -0.6117 -1.5761 -0.1334
 8546SOL     OW37291   7.473   7.386   1.540 -0.5196 -1.2940 -0.3820
 8546SOL    HW137292   7.454   7.468   1.486 -0.6341 -1.1339 -0.1041
 8546SOL    HW237293   7.540   7.329   1.493  1.3933  0.1347  0.5543
 8547SOL     OW37294   0.787   7.808   3.601 -0.2168  0.4686 -0.2294
 8547SOL    HW137295   0.716   7.860   3.647 -0.2721 -0.7752  1.1396
 8547SOL    HW237296   0.869   7.804   3.659  0.2772  0.2268 -0.9275
 8548SOL     OW37297   9.473   4.241   3.282 -1.1870 -0.6702  0.0600
 8548SOL    HW137298   9.486   4.188   3.199 -1.6600 -1.5373  0.5264
 8548SOL    HW237299   9.395   4.204   3.333 -1.2049  0.1546  0.6473
 8549SOL     OW37300   7.720   2.122   4.155 -0.0547 -0.5632 -0.3674
 8549SOL    HW137301   7.631   2.132   4.111  0.1233 -1.1267 -0.8651
 8549SOL    HW237302   7.793   2.139   4.089  0.2853  5.1926  1.2190
 8550SOL     OW37303   5.645   1.534   5.916 -0.1054  0.2036  0.2943
 8550SOL    HW137304   5.550   1.550   5.890 -0.4465 -0.5050  1.0602
 8550SOL    HW237305   5.658   1.437   5.936  0.8637  0.2412 -0.1292
 8551SOL     OW37306   2.860   6.343   1.520  0.4095 -0.4848 -0.8952
 8551SOL    HW137307   2.862   6.310   1.425  2.0384 -1.9830 -0.3539
 8551SOL    HW237308   2.927   6.416   1.531 -2.2593  2.1785 -1.7541
 8552SOL     OW37309   9.060   0.875   2.336  0.5702  0.2473 -0.7024
 8552SOL    HW137310   9.006   0.835   2.261  2.8975 -2.3774 -1.0735
 8552SOL    HW237311   9.016   0.855   2.423  0.6849 -1.5133 -1.0319
 8553SOL     OW37312   4.005   7.693   6.062  0.1208 -0.1727 -0.0232
 8553SOL    HW137313   4.015   7.787   6.029  1.5476 -0.7263 -1.2283
 8553SOL    HW237314   4.035   7.687   6.157  0.8825  0.4132 -0.2217
 8554SOL     OW37315   2.553   5.258   1.681  0.4204 -0.4039  0.4410
 8554SOL    HW137316   2.611   5.306   1.615 -0.0708  2.5693  2.0838
 8554SOL    HW237317   2.568   5.296   1.773 -2.7575 -0.7983  1.1887
 8555SOL     OW37318   6.861   8.148   4.758 -0.1741  0.5406 -0.2105
 8555SOL    HW137319   6.797   8.212   4.718  0.0435 -0.7605 -2.7545
 8555SOL    HW237320   6.951   8.191   4.767 -0.3510  1.0046 -0.6746
 8556SOL     OW37321   9.862   3.241   0.834  0.4387 -0.0200 -0.0427
 8556SOL    HW137322   9.775   3.290   0.827 -1.0437 -2.3725  1.3567
 8556SOL    HW237323   9.873   3.180   0.756  1.4826  1.2105 -0.8907
 8557SOL     OW37324   8.767   9.479   7.946  0.1373 -0.1705 -0.3097
 8557SOL    HW137325   8.738   9.386   7.927 -2.6076  0.7629 -0.9627
 8557SOL    HW237326   8.860   9.493   7.910 -0.3624 -1.9354 -2.4091
 8558SOL     OW37327   7.093   9.927   8.384  0.1888  0.3073 -0.3509
 8558SOL    HW137328   7.093   9.876   8.298  1.9264  0.2666 -0.3309
 8558SOL    HW237329   7.006   9.976   8.393 -0.1183  0.0844 -1.9896
 8559SOL     OW37330   6.196   0.410   5.306 -0.0069 -0.3083 -0.2926
 8559SOL    HW137331   6.134   0.488   5.314  1.3686  0.7646  0.2279
 8559SOL    HW237332   6.284   0.442   5.271  0.4468 -1.7065 -0.4537
 8560SOL     OW37333   2.593   0.866   4.801  0.0244 -0.1772 -0.1678
 8560SOL    HW137334   2.548   0.954   4.785  1.1146  0.4362  0.0852
 8560SOL    HW237335   2.658   0.875   4.876  0.3660 -1.1296 -0.3448
 8561SOL     OW37336   6.768   0.154   6.137 -0.0099 -0.1702 -0.1713
 8561SOL    HW137337   6.727   0.214   6.206 -0.3262 -0.2954 -0.2519
 8561SOL    HW237338   6.706   0.143   6.060 -0.2282 -1.1139  0.1283
 8562SOL     OW37339   0.775   0.441   6.566  0.5640 -0.4641 -0.4053
 8562SOL    HW137340   0.849   0.373   6.567 -0.7711 -1.9573  0.9570
 8562SOL    HW237341   0.701   0.408   6.508  0.3069  0.3246 -0.5327
 8563SOL     OW37342   3.210   9.550   6.833 -0.9653  0.1776 -1.1198
 8563SOL    HW137343   3.216   9.551   6.933 -1.0116  0.6980 -1.1240
 8563SOL    HW237344   3.279   9.487   6.796 -0.1000  0.9397 -0.8238
 8564SOL     OW37345   1.341   0.382   2.965 -0.1478 -0.0552 -0.1383
 8564SOL    HW137346   1.357   0.438   2.883 -2.9770  0.2194 -0.5567
 8564SOL    HW237347   1.314   0.441   3.041 -0.0205 -0.5569  0.2972
 8565SOL     OW37348   1.197   9.054   0.155  0.8003  0.6239  0.6511
 8565SOL    HW137349   1.228   9.081   0.246 -0.0018 -2.6672  1.9797
 8565SOL    HW237350   1.126   9.117   0.123  2.4338  2.9368  1.4326
 8566SOL     OW37351   2.259   8.157   5.220  0.0592  0.0456  0.1446
 8566SOL    HW137352   2.168   8.178   5.186  0.3444 -0.0759 -0.7058
 8566SOL    HW237353   2.314   8.240   5.223 -0.8708  0.6352  3.1865
 8567SOL     OW37354   3.547   0.261   1.252  0.6840  0.5531 -0.6937
 8567SOL    HW137355   3.565   0.312   1.168  0.5916  1.2906 -0.2697
 8567SOL    HW237356   3.623   0.274   1.316 -0.3296  1.9630  0.2765
 8568SOL     OW37357   1.787   5.309   6.975 -0.1638 -0.3147  0.4901
 8568SOL    HW137358   1.701   5.340   6.936  0.7830  2.8091  0.6882
 8568SOL    HW237359   1.808   5.217   6.942 -3.3758 -0.9777  0.1874
 8569SOL     OW37360   4.851   9.654   4.685  0.1650 -0.2150  0.3947
 8569SOL    HW137361   4.848   9.567   4.635 -0.8450  1.1339 -1.9335
 8569SOL    HW237362   4.918   9.715   4.643 -2.2251  1.7367 -0.6921
 8570SOL     OW37363   2.568   5.297   6.549  0.5592 -0.7949  0.1819
 8570SOL    HW137364   2.602   5.286   6.642  0.0143 -1.4691  0.3073
 8570SOL    HW237365   2.480   5.250   6.540  0.3544 -0.2838 -0.5282
 8571SOL     OW37366   0.636   7.816   3.842 -0.4393  0.2580  0.7624
 8571SOL    HW137367   0.706   7.773   3.899  0.2845 -0.1153 -0.3782
 8571SOL    HW237368   0.617   7.908   3.876  0.3348  0.2203  1.3097
 8572SOL     OW37369   9.145   2.177   6.899  0.5846 -0.4362  0.4308
 8572SOL    HW137370   9.075   2.245   6.924  0.9590 -0.2899  1.0926
 8572SOL    HW237371   9.146   2.166   6.799  0.9349  0.9952  0.2548
 8573SOL     OW37372   7.197   1.011   1.159 -0.7744 -0.1368 -0.3488
 8573SOL    HW137373   7.214   1.049   1.069 -0.8800 -0.1756 -0.3850
 8573SOL    HW237374   7.106   1.039   1.191 -0.3955  0.6008  0.1142
 8574SOL     OW37375   2.783   4.252   4.141 -0.2539 -0.0335  0.0822
 8574SOL    HW137376   2.684   4.252   4.157 -0.2785 -2.1427  0.1663
 8574SOL    HW237377   2.805   4.315   4.067 -1.6185  0.7376  0.3123
 8575SOL     OW37378   2.771   6.780   5.872 -0.4472 -0.1044 -0.6394
 8575SOL    HW137379   2.783   6.686   5.839  1.2694 -0.1096 -0.0132
 8575SOL    HW237380   2.692   6.784   5.933  1.3293 -1.7979  1.8336
 8576SOL     OW37381   1.590   1.410   6.642  0.2281  0.0525 -0.0805
 8576SOL    HW137382   1.592   1.325   6.694  0.3500 -0.2413 -0.5634
 8576SOL    HW237383   1.632   1.395   6.552 -0.5346  0.4006 -0.4946
 8577SOL     OW37384   5.727   9.066   3.134  0.0929 -0.6119  0.2914
 8577SOL    HW137385   5.707   9.086   3.038  2.3056 -0.2110 -0.1325
 8577SOL    HW237386   5.788   9.137   3.170 -1.5408 -0.2046  2.3012
 8578SOL     OW37387   3.841   3.048   5.648  0.1905 -0.2234 -0.2192
 8578SOL    HW137388   3.824   3.045   5.746  0.2588  0.0267 -0.2005
 8578SOL    HW237389   3.915   2.984   5.625 -2.3507 -3.1325 -0.6229
 8579SOL     OW37390   0.673   6.071   3.463  0.3994  0.2341 -0.4360
 8579SOL    HW137391   0.651   6.067   3.366 -0.2478  0.9840 -0.3324
 8579SOL    HW237392   0.771   6.085   3.476  0.8156 -2.0609 -0.9418
 8580SOL     OW37393   2.857   0.594   1.252 -0.2673  0.1215 -0.3097
 8580SOL    HW137394   2.798   0.525   1.293 -0.7860  0.9739  0.3909
 8580SOL    HW237395   2.863   0.579   1.153 -3.4149  1.3255 -0.7346
 8581SOL     OW37396   9.892   5.994   7.408  0.0377  0.3197 -0.4964
 8581SOL    HW137397   9.831   6.069   7.432 -1.8505 -1.2835 -0.1310
 8581SOL    HW237398   9.981   6.008   7.452 -0.8657  1.4332  1.0151
 8582SOL     OW37399   2.554   0.060   4.982 -0.4395 -0.0051  0.0832
 8582SOL    HW137400   2.603   0.143   4.955  0.6670 -1.0642 -1.2206
 8582SOL    HW237401   2.608   0.009   5.048 -1.7233  0.9595  1.9340
 8583SOL     OW37402   4.261   5.643   1.467  0.2552 -0.0639  0.1316
 8583SOL    HW137403   4.313   5.633   1.382  0.7234  1.3384  0.2475
 8583SOL    HW237404   4.200   5.564   1.477  2.1841 -1.6553 -0.1054
 8584SOL     OW37405   1.201   8.520   3.587 -0.5945  0.9376 -0.0997
 8584SOL    HW137406   1.225   8.513   3.490  3.5078 -1.2875  0.9748
 8584SOL    HW237407   1.237   8.605   3.625  0.6672  0.2969  0.1748
 8585SOL     OW37408   6.031   8.993   5.544 -0.1198  0.1965 -0.1657
 8585SOL    HW137409   6.001   8.912   5.494 -1.0255  1.1924 -1.2633
 8585SOL    HW237410   5.965   9.013   5.617 -1.2558  1.3948 -1.4968
 8586SOL     OW37411   5.438   4.270   1.875 -0.2567 -0.4253 -0.1357
 8586SOL    HW137412   5.369   4.203   1.850  0.4278 -1.5782  0.9867
 8586SOL    HW237413   5.421   4.303   1.967 -1.5107  2.1695 -1.2473
 8587SOL     OW37414   8.701   4.303   4.867 -0.2108 -0.2708  0.2575
 8587SOL    HW137415   8.730   4.295   4.772  1.0294 -0.3094  0.6314
 8587SOL    HW237416   8.609   4.343   4.870 -1.1664 -2.2740 -1.0344
 8588SOL     OW37417   6.401   8.425   7.212  0.0430 -0.2314 -0.2134
 8588SOL    HW137418   6.412   8.516   7.250  0.3144 -0.1131 -0.5790
 8588SOL    HW237419   6.487   8.374   7.221  0.0045 -0.3217 -0.3587
 8589SOL     OW37420   0.805   6.888   0.368 -0.5115 -0.1678 -0.3779
 8589SOL    HW137421   0.869   6.884   0.291  0.4448  0.6846  0.3554
 8589SOL    HW237422   0.829   6.965   0.427 -0.9590 -1.0742  1.0074
 8590SOL     OW37423   4.486   9.556   2.932  0.7232  0.5820 -0.0790
 8590SOL    HW137424   4.438   9.584   2.849 -0.0645  0.1310  0.2234
 8590SOL    HW237425   4.506   9.636   2.988  0.7896  0.8280 -0.4511
 8591SOL     OW37426   1.077   2.367   6.643 -0.5507  0.0660 -0.3174
 8591SOL    HW137427   1.069   2.383   6.742  2.8218 -0.2587  0.0641
 8591SOL    HW237428   1.063   2.270   6.624  0.1620 -0.1085  0.0275
 8592SOL     OW37429   2.964   2.814   3.861 -0.0653 -0.1672  0.5023
 8592SOL    HW137430   2.950   2.912   3.878 -2.0471 -0.3315 -0.0864
 8592SOL    HW237431   2.990   2.801   3.765  1.4431 -0.1327  0.8831
 8593SOL     OW37432   2.965   2.756   0.057  1.0302  0.3790 -0.7573
 8593SOL    HW137433   3.044   2.791   0.007  1.3140  2.2540  0.9330
 8593SOL    HW237434   2.994   2.722   0.147  0.1440 -0.4110 -0.7613
 8594SOL     OW37435   4.088   7.719   6.331 -0.1256 -0.2889  0.3328
 8594SOL    HW137436   4.167   7.779   6.319  1.3826 -2.0073  1.3691
 8594SOL    HW237437   4.048   7.735   6.420  0.4661 -0.9998  0.7363
 8595SOL     OW37438   4.071   4.416   4.594 -0.2013 -0.0849  0.0762
 8595SOL    HW137439   4.033   4.349   4.529 -1.4374  0.6096  0.0673
 8595SOL    HW237440   4.155   4.379   4.634  0.6830 -0.4406 -2.0467
 8596SOL     OW37441   7.121   7.739   5.284 -0.1202  0.3793  0.0586
 8596SOL    HW137442   7.133   7.818   5.224 -0.2166  1.3984  1.3491
 8596SOL    HW237443   7.035   7.749   5.334 -0.9981 -1.4288 -1.0606
 8597SOL     OW37444   2.384   9.945   7.042  0.1002  0.3706 -0.3950
 8597SOL    HW137445   2.393  10.024   6.982  0.5507  0.3075 -0.4105
 8597SOL    HW237446   2.465   9.886   7.033  0.6127  0.8381  0.9656
 8598SOL     OW37447   0.641   9.112   3.938 -0.1817  0.1640  0.0208
 8598SOL    HW137448   0.673   9.051   3.865  1.5129  0.5243  0.4247
 8598SOL    HW237449   0.656   9.069   4.027 -0.3079  0.5702  0.2385
 8599SOL     OW37450   3.696   5.014   0.492  0.6765 -0.3163 -0.5924
 8599SOL    HW137451   3.764   5.020   0.565  0.0244  0.5195 -0.0521
 8599SOL    HW237452   3.630   5.089   0.501 -0.5953 -1.3873 -0.8372
 8600SOL     OW37453   4.101   9.400   5.332  0.6074 -0.0614 -0.3777
 8600SOL    HW137454   4.095   9.332   5.258 -0.2567 -0.1732 -0.2108
 8600SOL    HW237455   4.133   9.487   5.294  0.8376 -0.3055 -0.7580
 8601SOL     OW37456   6.549   4.688   0.107  0.6484  0.6834  0.1116
 8601SOL    HW137457   6.536   4.741   0.023  2.2038  1.0396  0.0682
 8601SOL    HW237458   6.478   4.712   0.173  0.0607  1.2212 -0.7053
 8602SOL     OW37459   4.010   4.945   1.724 -0.1456  0.1325  0.5441
 8602SOL    HW137460   4.099   4.899   1.726 -1.6567 -3.0259 -1.6848
 8602SOL    HW237461   3.964   4.931   1.811 -0.3482 -2.1700  0.0951
 8603SOL     OW37462   2.677   6.172   1.914 -0.1573  0.0627  0.0224
 8603SOL    HW137463   2.590   6.153   1.868  0.0539  0.4013 -0.5336
 8603SOL    HW237464   2.661   6.232   1.992 -0.2865  1.0704 -0.7646
 8604SOL     OW37465   9.126   1.117   1.628 -0.1992  0.7870  0.1394
 8604SOL    HW137466   9.078   1.173   1.696 -1.5869  0.7250 -0.7551
 8604SOL    HW237467   9.078   1.030   1.616  2.4452 -1.0347  2.1704
 8605SOL     OW37468   0.627   1.965   4.180  0.0708 -0.1927  0.4636
 8605SOL    HW137469   0.547   1.950   4.239  0.3847 -1.3574  0.6053
 8605SOL    HW237470   0.621   2.056   4.139 -0.9108  0.0531  1.1183
 8606SOL     OW37471   3.038   1.980   6.644 -0.0262  0.2082 -0.6820
 8606SOL    HW137472   3.033   2.046   6.569  0.7591 -1.8300 -2.5567
 8606SOL    HW237473   2.975   1.904   6.626  0.4513 -0.4900  0.5337
 8607SOL     OW37474   1.328   3.905   6.533 -0.6070 -0.2555  0.0443
 8607SOL    HW137475   1.317   3.809   6.506  1.6265 -0.3477 -0.6166
 8607SOL    HW237476   1.327   3.912   6.633 -1.5655 -0.8633  0.0771
 8608SOL     OW37477   7.661   2.947   5.805  0.0119  0.3209 -0.0658
 8608SOL    HW137478   7.609   2.900   5.734  0.0055  0.3461 -0.0777
 8608SOL    HW237479   7.759   2.942   5.784 -0.1623  3.2003 -1.8562
 8609SOL     OW37480   7.594   3.600   2.038  0.0586  0.4153  0.1784
 8609SOL    HW137481   7.544   3.539   2.099 -0.6516 -0.7659 -1.5479
 8609SOL    HW237482   7.540   3.617   1.956  1.4716  1.0640 -0.6372
 8610SOL     OW37483   6.376   7.564   5.339 -0.3869  0.4093  0.3294
 8610SOL    HW137484   6.314   7.549   5.262 -0.1807  1.8379 -0.1333
 8610SOL    HW237485   6.336   7.526   5.422 -1.6748  0.8928 -0.0591
 8611SOL     OW37486   1.508   6.651   5.675 -0.2355 -0.1482  0.1874
 8611SOL    HW137487   1.533   6.558   5.652  0.7721 -0.0217  0.7306
 8611SOL    HW237488   1.534   6.713   5.600 -1.8091 -0.4246 -0.6013
 8612SOL     OW37489   5.624   7.846   4.623 -1.0745  0.0630  0.0819
 8612SOL    HW137490   5.610   7.826   4.720 -0.4181  1.7799  0.5429
 8612SOL    HW237491   5.703   7.795   4.589 -2.9432 -2.6971 -0.2747
 8613SOL     OW37492   1.711   4.694   1.155  0.3752 -0.7429 -0.4590
 8613SOL    HW137493   1.715   4.669   1.252 -0.0964  0.3635 -0.1422
 8613SOL    HW237494   1.673   4.619   1.102  0.5929 -1.3354  0.2226
 8614SOL     OW37495   1.622   6.710   4.513 -0.4355 -0.5620 -0.4818
 8614SOL    HW137496   1.593   6.725   4.418  0.0400  0.6276 -0.4527
 8614SOL    HW237497   1.706   6.656   4.514 -0.2938 -0.3502 -0.7617
 8615SOL     OW37498   1.482   0.577   6.886 -0.2116 -0.0281  0.0276
 8615SOL    HW137499   1.451   0.538   6.972 -0.0067 -0.2456  0.0021
 8615SOL    HW237500   1.472   0.509   6.813  2.4880 -0.9105  0.4250
 8616SOL     OW37501   7.930   4.729   5.874  0.3396 -0.0056 -0.5163
 8616SOL    HW137502   8.004   4.663   5.887 -0.3022 -0.8502 -1.0573
 8616SOL    HW237503   7.878   4.738   5.959  1.6917  1.3949  0.1879
 8617SOL     OW37504   7.428   5.931   5.069 -0.0788 -0.6748  0.0402
 8617SOL    HW137505   7.339   5.938   5.114  0.3804 -0.2735  0.8886
 8617SOL    HW237506   7.501   5.951   5.134  0.6640 -1.4715 -0.5318
 8618SOL     OW37507   1.911   9.690   0.274  0.2402  0.1263  0.0800
 8618SOL    HW137508   1.852   9.619   0.314  1.2705 -0.8323 -0.0645
 8618SOL    HW237509   1.885   9.705   0.179  0.3593 -0.4557 -0.0489
 8619SOL     OW37510   2.181   3.405   7.991  0.6363  0.2227 -0.2944
 8619SOL    HW137511   2.254   3.470   7.970  0.3420  0.4486 -0.6250
 8619SOL    HW237512   2.093   3.452   7.985  0.6017  0.5872  2.5322
 8620SOL     OW37513   8.466   1.604   5.050 -0.2796  0.6651  0.2278
 8620SOL    HW137514   8.529   1.618   4.973 -0.9775 -0.5337 -0.5754
 8620SOL    HW237515   8.404   1.528   5.029  0.6650 -0.8505  2.7197
 8621SOL     OW37516   2.862   0.919   0.667 -0.3512 -0.0323 -0.4928
 8621SOL    HW137517   2.860   0.864   0.584  0.0117  3.0547 -2.6214
 8621SOL    HW237518   2.957   0.929   0.698 -0.3155  0.1953 -0.6729
 8622SOL     OW37519   2.302   8.454   3.624  0.9283 -0.4182 -0.4105
 8622SOL    HW137520   2.273   8.430   3.717 -1.7691 -0.0080 -1.0996
 8622SOL    HW237521   2.305   8.553   3.615  0.8389 -0.4559 -0.8480
 8623SOL     OW37522   7.524   9.849   1.643  0.4040  0.5246 -0.7022
 8623SOL    HW137523   7.482   9.759   1.654  1.0906 -0.0811 -2.7030
 8623SOL    HW237524   7.474   9.917   1.696 -1.1535 -0.7436 -0.5178
 8624SOL     OW37525   3.155   1.962   4.048 -0.0398  0.4082  0.3691
 8624SOL    HW137526   3.103   1.906   3.983  0.3331  0.6055 -0.1054
 8624SOL    HW237527   3.139   1.929   4.141  2.2989 -2.2577 -0.0967
 8625SOL     OW37528   4.719   8.070   7.215 -0.0731 -0.0384  0.4430
 8625SOL    HW137529   4.737   8.163   7.247 -0.4788  0.2477 -0.1523
 8625SOL    HW237530   4.766   8.004   7.275  0.6723  0.5714  0.5323
 8626SOL     OW37531   9.473   7.682   6.245 -0.1517 -0.0259 -0.1932
 8626SOL    HW137532   9.542   7.755   6.250 -0.7230  0.4898  0.2769
 8626SOL    HW237533   9.486   7.619   6.321 -1.8397  1.5475  1.4239
 8627SOL     OW37534   2.425   2.620   0.378  0.2308 -0.0232  0.2904
 8627SOL    HW137535   2.327   2.619   0.400  0.2193 -0.4476  0.2155
 8627SOL    HW237536   2.468   2.699   0.424  0.3186 -1.2372  2.3637
 8628SOL     OW37537   9.589   2.704   3.803  0.0884  0.5704  0.3329
 8628SOL    HW137538   9.644   2.729   3.882 -0.8103 -2.0387  1.8614
 8628SOL    HW237539   9.521   2.635   3.830 -2.6817  2.3145 -1.9105
 8629SOL     OW37540   1.015   5.327   6.580  0.6090 -0.2153  0.2104
 8629SOL    HW137541   0.990   5.406   6.524  2.5457  0.5181  0.3255
 8629SOL    HW237542   1.055   5.256   6.523 -1.4167 -1.2820  0.0620
 8630SOL     OW37543   2.367   0.514   1.218  0.0716 -0.2458 -0.6838
 8630SOL    HW137544   2.357   0.589   1.153 -1.2735 -1.6199 -2.0855
 8630SOL    HW237545   2.278   0.489   1.254  0.4584 -1.5119 -0.5978
 8631SOL     OW37546   1.532   3.216   1.638  0.7225 -0.1163  0.0757
 8631SOL    HW137547   1.496   3.143   1.581  1.4471 -0.8713  0.5732
 8631SOL    HW237548   1.571   3.288   1.579  0.3331 -0.2937 -0.4027
 8632SOL     OW37549   0.930   8.278   5.561  0.2239  0.0225  0.0540
 8632SOL    HW137550   0.956   8.252   5.653 -0.9996 -0.7259  0.2028
 8632SOL    HW237551   0.896   8.197   5.512 -2.5659  1.0779  0.1514
 8633SOL     OW37552   1.060   7.608   7.786 -0.2375 -0.2714  0.6197
 8633SOL    HW137553   1.001   7.637   7.711 -0.7872 -2.1377  0.2925
 8633SOL    HW237554   1.107   7.687   7.824 -1.7989  1.0418 -0.1034
 8634SOL     OW37555   0.208   6.008   1.773  0.7972 -0.2995 -0.3146
 8634SOL    HW137556   0.290   6.035   1.824  1.0709  1.3195 -1.5504
 8634SOL    HW237557   0.217   5.913   1.744  1.7180 -0.4944  0.5871
 8635SOL     OW37558   9.314   0.776   2.317  0.8246 -0.2369 -0.3426
 8635SOL    HW137559   9.305   0.696   2.257  1.9490 -0.3574 -0.3613
 8635SOL    HW237560   9.225   0.822   2.325  0.5521 -0.5141 -1.6899
 8636SOL     OW37561   8.943   6.272   4.141  0.3686  0.4993  0.8106
 8636SOL    HW137562   8.896   6.360   4.148 -0.9239 -0.2380  1.7976
 8636SOL    HW237563   8.979   6.246   4.231 -0.1440 -0.4421  0.7528
 8637SOL     OW37564   0.498   6.522   3.961  0.3436 -0.1336  0.1184
 8637SOL    HW137565   0.577   6.577   3.931  0.3229  0.5314  1.2706
 8637SOL    HW237566   0.529   6.429   3.982  0.8216  0.1136  0.5313
 8638SOL     OW37567   3.138   8.556   2.088  0.3894  0.2333 -0.2405
 8638SOL    HW137568   3.204   8.519   2.023  0.2878 -1.0391  0.3753
 8638SOL    HW237569   3.093   8.636   2.047  1.6030  0.5258 -1.0343
 8639SOL     OW37570   6.448   8.060   7.423 -0.6304  0.0659 -0.5897
 8639SOL    HW137571   6.357   8.101   7.430 -1.1639 -1.3555  1.0633
 8639SOL    HW237572   6.517   8.128   7.449 -1.2829  0.8156 -0.7898
 8640SOL     OW37573   7.123   9.534   7.640 -0.0638 -0.3231  0.1505
 8640SOL    HW137574   7.031   9.513   7.606 -0.1069  0.6516 -0.3588
 8640SOL    HW237575   7.135   9.634   7.643  1.0780 -0.4502 -0.0613
 8641SOL     OW37576   7.577   4.720   1.911  0.3886 -0.2001 -0.4789
 8641SOL    HW137577   7.514   4.678   1.845 -0.0646 -0.5472  0.1693
 8641SOL    HW237578   7.570   4.672   1.998 -0.7178  1.7242  0.5154
 8642SOL     OW37579   2.846   6.573   6.335 -0.1752 -0.3785 -0.8083
 8642SOL    HW137580   2.870   6.659   6.290 -1.0225  0.1476 -0.2587
 8642SOL    HW237581   2.881   6.497   6.280  3.1403  0.3322  0.1734
 8643SOL     OW37582   4.868   1.383   0.599  0.9268 -1.0679  0.1583
 8643SOL    HW137583   4.823   1.437   0.528  1.6276  0.9114  1.2030
 8643SOL    HW237584   4.801   1.358   0.669  1.0594  0.3266  0.7890
 8644SOL     OW37585   9.665   0.005   4.847 -0.3549  0.1258  0.2349
 8644SOL    HW137586   9.759   0.032   4.870 -0.3742 -0.5301  1.1425
 8644SOL    HW237587   9.602   0.078   4.873 -0.2231  0.0067  0.9070
 8645SOL     OW37588   4.663   8.430   3.767  0.0378  0.6776 -0.3644
 8645SOL    HW137589   4.636   8.525   3.751 -1.1399  0.5115  0.5311
 8645SOL    HW237590   4.690   8.419   3.863  0.1539  0.1022 -0.4619
 8646SOL     OW37591   7.103   1.773   4.505  0.1270  0.2018  0.2904
 8646SOL    HW137592   7.051   1.745   4.586  2.1345 -2.0532  0.8666
 8646SOL    HW237593   7.098   1.702   4.436  1.8601  0.2255  0.1019
 8647SOL     OW37594   3.330   4.385   1.562  0.6907  0.1385 -0.2706
 8647SOL    HW137595   3.247   4.348   1.605  0.2078  0.2641 -1.0911
 8647SOL    HW237596   3.324   4.374   1.463  2.5790 -1.7452 -0.2122
 8648SOL     OW37597   7.573   7.561   4.674  0.5063  0.1581  0.0217
 8648SOL    HW137598   7.499   7.534   4.613  0.0113  0.0113  0.6872
 8648SOL    HW237599   7.608   7.481   4.722 -0.5496  0.5943  1.5367
 8649SOL     OW37600   5.599   4.961   1.543 -0.5863 -0.7820 -0.2954
 8649SOL    HW137601   5.535   4.901   1.495  0.3948 -2.9388  1.0103
 8649SOL    HW237602   5.610   4.930   1.637  0.4854  1.0499  0.2153
 8650SOL     OW37603   4.557   8.149   3.136 -0.5008 -0.1533  0.2221
 8650SOL    HW137604   4.465   8.132   3.101  0.0290 -2.6670 -0.0402
 8650SOL    HW237605   4.567   8.105   3.225 -0.5732  2.8647  1.7571
 8651SOL     OW37606   2.842   5.387   4.397 -0.1036  0.2423  0.1165
 8651SOL    HW137607   2.886   5.382   4.308  0.6598 -0.0953  0.5089
 8651SOL    HW237608   2.905   5.354   4.468 -0.3027  1.5669  0.9245
 8652SOL     OW37609   8.212   1.978   3.426 -0.7479  0.1927 -0.1294
 8652SOL    HW137610   8.157   1.996   3.507 -0.9190  0.2199 -0.2507
 8652SOL    HW237611   8.182   2.038   3.352 -2.1563 -1.4344 -0.9128
 8653SOL     OW37612   9.682   5.215   2.692  0.1496 -0.1148  0.2152
 8653SOL    HW137613   9.632   5.165   2.622  0.7631  0.2810 -0.5261
 8653SOL    HW237614   9.677   5.167   2.779  0.1833 -1.1122 -0.3342
 8654SOL     OW37615   8.889   6.429   2.474  0.2181  0.2695 -0.0765
 8654SOL    HW137616   8.829   6.417   2.553 -1.8609  3.9929 -0.9613
 8654SOL    HW237617   8.837   6.409   2.390  0.9621  1.1193 -0.7416
 8655SOL     OW37618   3.054   2.175   6.867 -0.3911 -0.0512  0.1834
 8655SOL    HW137619   3.056   2.109   6.792  0.6284 -0.0220  0.1741
 8655SOL    HW237620   2.996   2.140   6.940 -1.3735 -0.0913 -0.6085
 8656SOL     OW37621   9.582   2.772   6.691  0.5920  0.2717  0.2150
 8656SOL    HW137622   9.575   2.738   6.784  1.7743  0.0169  0.2220
 8656SOL    HW237623   9.580   2.872   6.691  1.0625  0.2814  0.5566
 8657SOL     OW37624   3.290   4.106   5.413  0.2208 -0.0007  0.6495
 8657SOL    HW137625   3.364   4.133   5.352 -0.9232 -0.2805 -0.9019
 8657SOL    HW237626   3.314   4.021   5.460  0.6910 -0.3646 -0.2300
 8658SOL     OW37627   6.097   3.733   0.976  0.4021  0.5743  0.1083
 8658SOL    HW137628   6.067   3.815   1.024 -1.0284 -0.0733  0.3634
 8658SOL    HW237629   6.125   3.664   1.043 -0.1467  0.2103 -0.0330
 8659SOL     OW37630   3.593   0.241   5.678 -0.4068 -0.0743 -0.1791
 8659SOL    HW137631   3.628   0.149   5.697  0.0146  0.2025  0.3891
 8659SOL    HW237632   3.602   0.260   5.580 -1.6064 -1.0953 -0.4994
 8660SOL     OW37633   8.475   2.961   4.640  0.5002 -0.1735  0.4499
 8660SOL    HW137634   8.425   2.932   4.558 -1.1770  0.1746  1.3173
 8660SOL    HW237635   8.551   2.898   4.656  1.6109  0.4612 -2.0513
 8661SOL     OW37636   9.294   4.086   5.614 -0.0766 -0.8090  0.3861
 8661SOL    HW137637   9.346   4.037   5.543  0.3217  0.8986 -0.5103
 8661SOL    HW237638   9.333   4.064   5.704  1.6173 -0.2911 -0.2031
 8662SOL     OW37639   9.997   3.077   6.408 -0.4606  0.0907  0.0031
 8662SOL    HW137640  10.060   3.000   6.416 -0.5381 -0.3264 -3.0527
 8662SOL    HW237641   9.971   3.107   6.500  2.9813 -0.6778  1.3277
 8663SOL     OW37642   4.565   6.848   1.909 -0.5144  0.1593  0.5183
 8663SOL    HW137643   4.498   6.817   1.977 -1.3239 -2.7934 -1.5316
 8663SOL    HW237644   4.595   6.771   1.854  2.9046  1.8648 -0.1234
 8664SOL     OW37645   2.947   2.424   2.762 -0.0604  0.8303 -0.7137
 8664SOL    HW137646   3.000   2.509   2.770 -0.0526  0.8019 -0.4417
 8664SOL    HW237647   2.959   2.370   2.845 -0.6047  0.8749 -0.6037
 8665SOL     OW37648   9.898   8.420   4.075 -0.7648 -0.3038 -0.4799
 8665SOL    HW137649   9.959   8.499   4.083  1.1184 -1.3545 -3.6182
 8665SOL    HW237650   9.947   8.337   4.100 -1.0433 -1.0865 -2.4120
 8666SOL     OW37651   3.309   7.286   2.503  0.3914 -0.7066  0.3453
 8666SOL    HW137652   3.257   7.371   2.498  0.1139 -0.9078 -0.2018
 8666SOL    HW237653   3.406   7.307   2.513  0.2863 -0.3278  0.5852
 8667SOL     OW37654   6.682   1.545   2.008  0.3912  0.4231 -1.2336
 8667SOL    HW137655   6.709   1.629   1.961 -2.2349  1.5280 -0.8469
 8667SOL    HW237656   6.677   1.562   2.107 -2.3043  0.4824 -1.3397
 8668SOL     OW37657   1.858   1.588   5.381  0.3633  0.0684 -0.1058
 8668SOL    HW137658   1.882   1.496   5.413  0.0311  0.1698  0.4224
 8668SOL    HW237659   1.909   1.607   5.296  0.9433 -0.3390  0.1425
 8669SOL     OW37660   5.657   1.092   4.292  0.1407 -0.1100  0.0996
 8669SOL    HW137661   5.633   1.116   4.198 -2.7619 -0.6842  0.6451
 8669SOL    HW237662   5.729   1.153   4.325  0.8134  0.4397 -2.2954
 8670SOL     OW37663   1.864   8.349   2.448 -0.6202  0.3730  0.3934
 8670SOL    HW137664   1.846   8.438   2.406 -0.5711 -0.1883 -0.8344
 8670SOL    HW237665   1.823   8.277   2.392 -0.3633 -0.4099  1.2008
 8671SOL     OW37666   8.043   7.602   2.583 -0.1564 -0.1552 -0.9453
 8671SOL    HW137667   8.119   7.544   2.614  0.9638  2.1383  0.6905
 8671SOL    HW237668   8.042   7.604   2.483  1.0747 -1.3409 -1.0008
 8672SOL     OW37669   4.305   4.962   2.251 -0.4734 -0.1479 -0.1619
 8672SOL    HW137670   4.209   4.942   2.233 -0.6589  1.1116 -0.6794
 8672SOL    HW237671   4.360   4.937   2.172 -0.0819 -2.7575  0.9029
 8673SOL     OW37672   0.681   7.519   7.139  0.3800 -0.0862 -0.4472
 8673SOL    HW137673   0.766   7.568   7.161  0.0604 -0.1686  0.9891
 8673SOL    HW237674   0.640   7.559   7.057  0.4951  1.5952  0.2949
 8674SOL     OW37675   5.881   7.284   2.563  0.0076  0.2765 -0.1368
 8674SOL    HW137676   5.858   7.287   2.466 -0.4543  0.3129 -0.0272
 8674SOL    HW237677   5.967   7.333   2.579 -0.4309  1.1295 -0.3759
 8675SOL     OW37678   1.139   9.442   4.435  0.2048 -0.1178  0.0287
 8675SOL    HW137679   1.071   9.459   4.363  0.6647 -1.7546 -0.8366
 8675SOL    HW237680   1.094   9.402   4.514 -0.1158  0.5404  0.1834
 8676SOL     OW37681   6.981   6.537   1.718 -0.1047 -0.1008 -0.0097
 8676SOL    HW137682   6.915   6.592   1.769 -0.7799  0.2597 -1.2483
 8676SOL    HW237683   6.943   6.445   1.705  0.0002 -0.1461  0.0095
 8677SOL     OW37684   4.227   5.285   2.913  0.5940  0.3965  0.0331
 8677SOL    HW137685   4.171   5.248   2.988 -0.2167 -1.0334 -1.2599
 8677SOL    HW237686   4.221   5.385   2.914 -1.2701  0.3038  0.4564
 8678SOL     OW37687   9.904   5.299   2.554 -0.3409 -0.1986  0.1271
 8678SOL    HW137688   9.976   5.318   2.621 -0.4087  0.7681 -0.0751
 8678SOL    HW237689   9.827   5.254   2.600 -0.3231  0.3217  0.6677
 8679SOL     OW37690   9.336   5.388   0.651 -0.2116 -0.3819  0.0249
 8679SOL    HW137691   9.313   5.337   0.734  0.8069 -0.7892  0.0680
 8679SOL    HW237692   9.435   5.400   0.647 -0.4120  1.4637 -0.0541
 8680SOL     OW37693   3.176   2.435   5.405 -0.5341 -0.3483 -0.1301
 8680SOL    HW137694   3.106   2.365   5.415 -0.9860 -0.1413 -1.6328
 8680SOL    HW237695   3.183   2.488   5.490 -0.7240 -1.7060  0.7414
 8681SOL     OW37696   2.361   2.265   3.734 -0.1270 -0.5633 -0.5074
 8681SOL    HW137697   2.402   2.243   3.645  1.1104  1.0403 -0.3664
 8681SOL    HW237698   2.397   2.203   3.803 -1.3319 -2.0234 -1.1605
 8682SOL     OW37699   4.794   1.601   6.386  0.1390  0.9427 -0.8253
 8682SOL    HW137700   4.725   1.599   6.459  0.8225  1.6528 -0.1525
 8682SOL    HW237701   4.774   1.529   6.320  0.3343 -0.6747  0.8346
 8683SOL     OW37702   7.703   6.633   5.829 -0.4485  0.2752 -0.0886
 8683SOL    HW137703   7.727   6.537   5.824 -2.6124 -0.2915  0.0682
 8683SOL    HW237704   7.716   6.666   5.923  1.2099  0.4184 -0.3449
 8684SOL     OW37705   2.444   2.663   3.526 -0.3425  0.4285 -0.1040
 8684SOL    HW137706   2.354   2.688   3.561 -0.4873 -0.3101  0.0568
 8684SOL    HW237707   2.435   2.614   3.439 -0.2951 -2.1998  1.3027
 8685SOL     OW37708   7.436   0.904   0.446  0.1618 -0.7021  0.5699
 8685SOL    HW137709   7.480   0.961   0.377  0.1461 -1.7657 -0.3273
 8685SOL    HW237710   7.368   0.958   0.496  1.2378  0.4758  0.7869
 8686SOL     OW37711   6.919   2.387   4.634  0.0077  0.4917 -0.4711
 8686SOL    HW137712   6.860   2.465   4.654 -0.4123  0.0062  0.1983
 8686SOL    HW237713   7.009   2.402   4.673 -0.4524  0.0836  0.7722
 8687SOL     OW37714   5.966   4.213   0.583 -0.1596 -0.7533  0.3394
 8687SOL    HW137715   5.916   4.135   0.545 -4.0871  2.2510 -1.0291
 8687SOL    HW237716   5.925   4.239   0.670  0.3006  0.5402  0.1785
 8688SOL     OW37717   6.101   9.650   2.936 -0.4863 -0.6153 -0.4380
 8688SOL    HW137718   6.198   9.645   2.961 -0.7524 -1.6491  0.4236
 8688SOL    HW237719   6.093   9.683   2.842  0.5148  3.6777  0.8764
 8689SOL     OW37720   0.997   2.274   0.801  0.1125 -0.2214 -0.4013
 8689SOL    HW137721   0.992   2.237   0.708  0.6803  1.4907 -1.1414
 8689SOL    HW237722   1.003   2.199   0.866 -1.1735 -1.4746 -1.6839
 8690SOL     OW37723   4.067   9.280   2.129 -0.0259 -0.2830  0.1181
 8690SOL    HW137724   4.141   9.220   2.100 -0.7046 -0.1198 -2.0492
 8690SOL    HW237725   4.016   9.312   2.049 -1.4562  0.8836  1.4460
 8691SOL     OW37726   0.185   2.275   3.348 -0.1495  0.1456 -0.0425
 8691SOL    HW137727   0.091   2.254   3.324 -0.6087  1.0531  0.9176
 8691SOL    HW237728   0.223   2.340   3.282  0.8286 -2.5417 -2.2199
 8692SOL     OW37729   6.571   8.827   3.936  0.7006  0.3224 -0.0637
 8692SOL    HW137730   6.545   8.922   3.914 -0.4095 -0.4040 -1.9765
 8692SOL    HW237731   6.670   8.818   3.929  0.6962  1.0216 -1.2092
 8693SOL     OW37732   3.312   2.026   2.508 -0.2087 -0.4687 -0.8267
 8693SOL    HW137733   3.224   2.019   2.555 -0.6708  2.1667 -1.2294
 8693SOL    HW237734   3.375   2.080   2.564  0.6801 -1.1111 -1.2017
 8694SOL     OW37735   8.174   2.038   0.638 -0.1034  0.4260 -0.1392
 8694SOL    HW137736   8.203   2.064   0.546  0.3287  0.9184  0.1323
 8694SOL    HW237737   8.090   2.087   0.661 -0.1658  0.3668 -0.2413
 8695SOL     OW37738   1.275   7.774   7.559 -0.3395 -0.0901  0.5114
 8695SOL    HW137739   1.261   7.732   7.469 -0.5182 -1.1150  1.0118
 8695SOL    HW237740   1.347   7.725   7.608  1.3328  1.8573  0.0572
 8696SOL     OW37741   0.618   6.069   6.275  0.3822 -0.2457  0.2526
 8696SOL    HW137742   0.566   6.001   6.225  2.0419 -1.2811 -0.1003
 8696SOL    HW237743   0.700   6.094   6.224  0.9254  0.3846  1.3896
 8697SOL     OW37744   0.757   7.054   4.285 -0.8713 -0.4324  0.0253
 8697SOL    HW137745   0.663   7.022   4.280 -0.9746  0.0896 -1.3572
 8697SOL    HW237746   0.767   7.116   4.363 -2.1633  1.1201 -1.0060
 8698SOL     OW37747   6.080   0.661   6.483  0.1618  0.0754  0.2133
 8698SOL    HW137748   5.997   0.714   6.496  1.1191  1.1586  2.0872
 8698SOL    HW237749   6.149   0.717   6.437  0.9346  0.2543  1.5601
 8699SOL     OW37750   0.780   6.872   5.184  0.0171 -0.0399 -0.1890
 8699SOL    HW137751   0.714   6.905   5.252  0.7857 -1.8847  1.4888
 8699SOL    HW237752   0.872   6.892   5.216  0.3910 -1.0657 -0.6297
 8700SOL     OW37753   7.441   1.059   5.633 -0.4190  0.4665 -0.0093
 8700SOL    HW137754   7.534   1.095   5.637  0.4038 -1.6361  0.6472
 8700SOL    HW237755   7.411   1.055   5.538 -0.0255  1.5855 -0.1872
 8701SOL     OW37756   0.673   6.501   5.773 -0.7708 -0.1328 -0.8557
 8701SOL    HW137757   0.735   6.446   5.717 -0.8665  1.6342 -2.7767
 8701SOL    HW237758   0.702   6.498   5.868  0.9506 -1.0982 -1.3895
 8702SOL     OW37759   7.575   0.630   5.211  0.1706 -0.1838  0.1289
 8702SOL    HW137760   7.604   0.535   5.227 -1.0966 -0.1849  2.6963
 8702SOL    HW237761   7.656   0.688   5.204  0.9712 -1.4321 -1.5594
 8703SOL     OW37762   7.457   9.909   3.227  0.0192  0.1481  0.1089
 8703SOL    HW137763   7.493   9.834   3.283  0.2847  0.1818 -0.0187
 8703SOL    HW237764   7.358   9.916   3.241 -0.2301 -1.0983 -0.9074
 8704SOL     OW37765   1.660   7.782  10.010  0.0203 -0.5101 -0.7039
 8704SOL    HW137766   1.662   7.782  10.110  1.3236  0.7578 -0.7116
 8704SOL    HW237767   1.572   7.818   9.978 -0.2311 -0.5135 -0.0221
 8705SOL     OW37768   5.028   7.411   4.690  0.4233 -0.3790 -0.6378
 8705SOL    HW137769   4.936   7.375   4.678  0.1597 -0.1245  0.5387
 8705SOL    HW237770   5.070   7.369   4.770  0.6438  0.8694 -0.0853
 8706SOL     OW37771   5.267   0.052   6.800 -0.3099  0.1550 -0.1042
 8706SOL    HW137772   5.235  -0.012   6.869 -0.1969 -0.8607 -0.9849
 8706SOL    HW237773   5.340   0.109   6.838 -0.1905 -0.4479  0.5815
 8707SOL     OW37774   8.025   0.454   0.610 -0.2512 -0.7025 -0.0680
 8707SOL    HW137775   8.062   0.486   0.697 -1.3980 -0.2582  0.2628
 8707SOL    HW237776   8.099   0.417   0.554  0.6041 -0.3212  0.7985
 8708SOL     OW37777   7.877   1.050   6.483  0.1025  0.8961  0.3031
 8708SOL    HW137778   7.821   0.983   6.435  1.7232  0.2603 -0.7382
 8708SOL    HW237779   7.860   1.141   6.445  1.6089  0.3568 -1.7647
 8709SOL     OW37780   5.255   7.723   3.254  0.7843 -0.5852 -0.2448
 8709SOL    HW137781   5.343   7.771   3.249  0.9398 -0.8771 -0.3570
 8709SOL    HW237782   5.244   7.685   3.346  0.1921  0.5350  0.1550
 8710SOL     OW37783   3.648   7.494   2.328  0.1084  0.3660  0.2514
 8710SOL    HW137784   3.663   7.585   2.368 -1.7895  1.2556 -0.9918
 8710SOL    HW237785   3.728   7.469   2.273  0.0144  1.9809 -0.6669
 8711SOL     OW37786   7.488   6.412   5.526  0.0731 -0.4217  0.2973
 8711SOL    HW137787   7.551   6.343   5.560  0.7215 -0.3113 -0.6639
 8711SOL    HW237788   7.536   6.499   5.514 -0.0246 -0.5614 -1.2724
 8712SOL     OW37789   3.291   4.385   0.071 -0.1114  0.5482  0.0861
 8712SOL    HW137790   3.360   4.373   0.143 -0.8098  0.7997  0.7992
 8712SOL    HW237791   3.303   4.475   0.028  0.7734  0.1024 -0.6188
 8713SOL     OW37792   1.426   0.527   0.782  0.2837 -0.4734 -0.3560
 8713SOL    HW137793   1.438   0.489   0.691  0.5458 -1.2290 -0.0067
 8713SOL    HW237794   1.340   0.578   0.786 -0.2506 -1.3433 -0.7084
 8714SOL     OW37795   6.339   8.123   2.430 -0.1120 -0.5767 -0.2976
 8714SOL    HW137796   6.248   8.113   2.390 -0.5129  0.3998  0.3546
 8714SOL    HW237797   6.382   8.033   2.439 -2.0726 -1.3528  1.8573
 8715SOL     OW37798   3.238   7.169   4.458 -0.1541  0.5960  0.2406
 8715SOL    HW137799   3.157   7.116   4.480  1.1921 -1.5100  0.2296
 8715SOL    HW237800   3.271   7.143   4.367  0.4989  1.4916  0.2113
 8716SOL     OW37801   2.586   1.450   7.103 -0.6240 -0.3415  0.3306
 8716SOL    HW137802   2.532   1.387   7.159  0.0273  0.2804  1.6992
 8716SOL    HW237803   2.683   1.432   7.118 -0.4427 -0.7164 -1.2563
 8717SOL     OW37804   4.364   0.004   4.320 -0.2088 -0.0663  0.0997
 8717SOL    HW137805   4.425  -0.068   4.351  1.2117  0.8683 -0.4719
 8717SOL    HW237806   4.325  -0.021   4.231  3.1446  1.4377 -1.8881
 8718SOL     OW37807   2.745   9.088   7.041  0.1688 -0.3185  0.3160
 8718SOL    HW137808   2.665   9.058   6.989  0.6962 -0.9689 -0.1366
 8718SOL    HW237809   2.813   9.015   7.042  0.6851  0.1627  0.8484
 8719SOL     OW37810   0.338   2.586   6.572 -0.0320 -0.3222  0.1516
 8719SOL    HW137811   0.360   2.495   6.537 -0.0636 -0.4874  0.5510
 8719SOL    HW237812   0.243   2.587   6.604 -0.6742  0.4371 -1.7340
 8720SOL     OW37813   6.034   3.692   0.720  0.4198 -0.0118  0.0925
 8720SOL    HW137814   6.043   3.722   0.815  2.1825 -0.6557  0.1580
 8720SOL    HW237815   5.969   3.616   0.715 -1.1567  1.2829  0.4762
 8721SOL     OW37816   8.281   6.495   1.104 -0.2970 -0.2048 -0.5246
 8721SOL    HW137817   8.241   6.531   1.020 -0.7997 -1.6374 -0.9189
 8721SOL    HW237818   8.380   6.511   1.104 -0.5771  1.6000 -0.4465
 8722SOL     OW37819   2.589   7.648   6.276  0.7903 -0.5713  0.0152
 8722SOL    HW137820   2.571   7.738   6.239  0.8873 -0.7210 -0.3965
 8722SOL    HW237821   2.661   7.655   6.346  0.7698 -0.3279  0.0123
 8723SOL     OW37822   8.344   3.744   3.846 -0.0784 -0.2968 -0.3044
 8723SOL    HW137823   8.368   3.660   3.895  0.3165 -0.1123 -0.1767
 8723SOL    HW237824   8.249   3.740   3.817 -0.8189  0.2803  1.9282
 8724SOL     OW37825   5.871   0.632   2.051 -0.6837  0.5294 -0.5520
 8724SOL    HW137826   5.952   0.668   2.005  1.4265 -0.9778  1.8289
 8724SOL    HW237827   5.816   0.580   1.986  1.2547 -0.0158 -1.8031
 8725SOL     OW37828   9.173   8.824   7.971  0.2552  0.0386  0.1631
 8725SOL    HW137829   9.254   8.844   7.917  0.8995  0.2854  1.2170
 8725SOL    HW237830   9.152   8.902   8.031 -1.7339  0.6846 -1.2906
 8726SOL     OW37831   3.508   9.575   2.859 -0.5473 -0.1938 -0.0949
 8726SOL    HW137832   3.513   9.567   2.959 -0.3796  0.3040 -0.0605
 8726SOL    HW237833   3.558   9.499   2.817 -0.0116 -0.0152  0.2090
 8727SOL     OW37834   0.775   2.577   5.441  0.1682 -0.4553  0.0148
 8727SOL    HW137835   0.871   2.572   5.468  0.9711  0.9865 -2.4213
 8727SOL    HW237836   0.745   2.489   5.406  0.5936 -0.9105  0.7940
 8728SOL     OW37837   1.726   5.605   1.983  0.1993  0.9364  0.6007
 8728SOL    HW137838   1.724   5.608   1.883  0.9461  2.6084  0.6146
 8728SOL    HW237839   1.660   5.672   2.019  1.1874  1.5965  1.2122
 8729SOL     OW37840   0.955   4.938   1.413 -1.0425  0.5936 -0.0674
 8729SOL    HW137841   1.046   4.921   1.375 -1.1327  0.6693 -0.3153
 8729SOL    HW237842   0.926   4.859   1.468  0.0677  1.4136  1.7700
 8730SOL     OW37843   4.647   5.984   3.534 -0.1988 -0.5900 -0.2745
 8730SOL    HW137844   4.676   5.902   3.484 -1.6547 -1.2599 -0.0453
 8730SOL    HW237845   4.712   6.002   3.608  0.3373 -1.3191 -0.5556
 8731SOL     OW37846   2.506   5.758   0.617  0.1671 -0.1754  0.1329
 8731SOL    HW137847   2.551   5.676   0.652 -0.3257 -0.3592  0.3318
 8731SOL    HW237848   2.560   5.796   0.542  0.7333 -0.3135  0.4702
 8732SOL     OW37849   0.877   7.189   4.514  0.0804 -0.2373  0.4252
 8732SOL    HW137850   0.897   7.257   4.444  1.4180 -1.5740 -0.5475
 8732SOL    HW237851   0.955   7.181   4.577 -0.4155 -0.2590  1.0472
 8733SOL     OW37852   8.890   4.820   1.724 -0.4873 -0.8536  0.2521
 8733SOL    HW137853   8.865   4.787   1.633 -1.8614  0.8996 -0.0399
 8733SOL    HW237854   8.988   4.808   1.738 -0.2689 -1.1744 -1.4499
 8734SOL     OW37855   0.254   9.499   1.041  0.0811  0.2229  0.0423
 8734SOL    HW137856   0.317   9.577   1.039 -0.2988  0.5110 -0.9197
 8734SOL    HW237857   0.172   9.524   1.093  0.2896  0.2164  0.3703
 8735SOL     OW37858   4.041   1.754   1.196  0.2749 -0.3723 -0.8635
 8735SOL    HW137859   4.079   1.663   1.175 -1.1235 -0.8084 -1.6012
 8735SOL    HW237860   3.943   1.753   1.179  0.0614  0.9640  0.2558
 8736SOL     OW37861   7.592   3.369   0.310  0.0314 -0.4805  0.7709
 8736SOL    HW137862   7.608   3.454   0.261  1.2559 -2.0160 -1.6257
 8736SOL    HW237863   7.669   3.350   0.370  0.1626 -0.3243  0.6515
 8737SOL     OW37864   3.670   2.432   4.461  0.4153 -0.4641  0.0319
 8737SOL    HW137865   3.700   2.350   4.413 -1.1710 -0.9082 -0.2464
 8737SOL    HW237866   3.645   2.502   4.394 -0.7399 -0.6924  0.2143
 8738SOL     OW37867   9.258   2.848   1.731  0.6229 -0.1712  0.1859
 8738SOL    HW137868   9.344   2.862   1.682  0.0172  0.3814 -0.7190
 8738SOL    HW237869   9.192   2.918   1.704  0.3502  0.3005  1.9608
 8739SOL     OW37870   5.423   1.612   0.868  0.0949  0.4667 -0.1807
 8739SOL    HW137871   5.408   1.521   0.831 -1.6864  0.4596  0.4901
 8739SOL    HW237872   5.519   1.624   0.891 -0.0109 -1.9924  1.7042
 8740SOL     OW37873   4.226   4.037   2.311 -0.0940 -0.4121  0.0048
 8740SOL    HW137874   4.253   3.948   2.275  0.0130 -0.1097 -0.6865
 8740SOL    HW237875   4.275   4.056   2.396  0.4050 -0.7177 -0.2109
 8741SOL     OW37876   5.388   1.557   6.828  0.8681 -0.1337 -0.2923
 8741SOL    HW137877   5.352   1.523   6.915 -0.1053  0.8809 -0.2850
 8741SOL    HW237878   5.462   1.622   6.846  0.7890 -0.0604 -0.2312
 8742SOL     OW37879   9.030   6.010   1.916  0.0367  0.3553  0.1256
 8742SOL    HW137880   9.100   5.950   1.877 -1.8462 -0.9649 -1.3158
 8742SOL    HW237881   8.952   6.015   1.854 -0.5497  2.9905  1.0239
 8743SOL     OW37882   0.338   9.163   1.361 -0.7846 -0.4370  0.2149
 8743SOL    HW137883   0.355   9.124   1.270 -1.9490  0.7285 -0.5300
 8743SOL    HW237884   0.412   9.139   1.423  1.1171  0.5510 -1.6229
 8744SOL     OW37885   2.078   5.128   1.491  0.9967 -0.4003 -0.1448
 8744SOL    HW137886   2.064   5.033   1.465 -0.2206  0.1956 -1.7479
 8744SOL    HW237887   2.152   5.134   1.558  1.5788 -2.3737 -0.5900
 8745SOL     OW37888   1.405   7.591   5.237 -0.6228 -0.0857 -0.1813
 8745SOL    HW137889   1.481   7.554   5.290 -0.5353  1.1431  0.5851
 8745SOL    HW237890   1.336   7.628   5.300 -0.4769  1.4585 -0.9204
 8746SOL     OW37891   2.638   2.019   5.414  0.0304 -0.5893  0.0247
 8746SOL    HW137892   2.586   2.028   5.499  0.6361  1.0274  0.2432
 8746SOL    HW237893   2.726   1.975   5.433 -0.3961 -1.4690 -0.0062
 8747SOL     OW37894   6.656   0.436   5.001  0.2238 -0.2817  0.2770
 8747SOL    HW137895   6.652   0.428   4.901 -0.9366 -1.0708  0.3693
 8747SOL    HW237896   6.751   0.436   5.031  0.5509 -1.5504 -0.7195
 8748SOL     OW37897   8.784   5.995   0.364  0.5062 -0.3874 -0.0341
 8748SOL    HW137898   8.720   5.920   0.346 -0.0216  0.0259  0.0768
 8748SOL    HW237899   8.868   5.959   0.404 -0.4976 -0.7244  1.8424
 8749SOL     OW37900   1.505   4.853   0.503 -0.3618 -0.4720 -0.6599
 8749SOL    HW137901   1.516   4.952   0.509  0.5165 -0.5820 -0.4311
 8749SOL    HW237902   1.545   4.820   0.418 -0.1156 -0.7060 -0.4527
 8750SOL     OW37903   4.009   2.454   6.141  0.6107 -0.5489  0.2911
 8750SOL    HW137904   4.088   2.508   6.113 -1.0739  0.5179 -2.6643
 8750SOL    HW237905   3.953   2.432   6.061 -2.5197 -0.5751  2.3841
 8751SOL     OW37906   8.170   2.768   6.351  0.1307  0.4545  0.5209
 8751SOL    HW137907   8.108   2.719   6.412  0.0263 -0.6932 -0.4895
 8751SOL    HW237908   8.241   2.705   6.317 -0.5897  0.7247 -1.5692
 8752SOL     OW37909   7.615   9.636   4.879  0.2978  0.0757 -0.3500
 8752SOL    HW137910   7.704   9.606   4.845  1.0788  0.8987  0.9164
 8752SOL    HW237911   7.544   9.575   4.845  1.5036 -1.3626 -0.3279
 8753SOL     OW37912   8.559   7.533   1.446 -0.4833 -0.1879  0.6922
 8753SOL    HW137913   8.549   7.434   1.446 -1.5514 -0.0930 -0.8925
 8753SOL    HW237914   8.652   7.558   1.419  0.1763 -0.7658  2.3524
 8754SOL     OW37915   2.378   6.602   7.462 -0.3795 -1.1667  0.0687
 8754SOL    HW137916   2.313   6.611   7.387 -1.5941 -1.4178  1.0795
 8754SOL    HW237917   2.441   6.679   7.461 -2.6033  0.7339  0.9088
 8755SOL     OW37918   1.646   3.745   8.268  0.3640 -0.3369  0.2914
 8755SOL    HW137919   1.592   3.781   8.345  0.0546  0.4110 -0.2619
 8755SOL    HW237920   1.734   3.791   8.265 -0.4765  1.2584 -1.1086
 8756SOL     OW37921   8.071   2.912   4.207  0.1864  0.3810  0.3366
 8756SOL    HW137922   8.064   2.991   4.146  0.8373  0.7436  0.7235
 8756SOL    HW237923   8.066   2.943   4.302 -1.6930 -0.2761  0.4645
 8757SOL     OW37924   6.833   4.648   0.143 -0.2513  0.0980 -0.0162
 8757SOL    HW137925   6.865   4.607   0.228  0.4149  1.2272  0.2912
 8757SOL    HW237926   6.735   4.632   0.132 -0.7080  1.4862  1.8551
 8758SOL     OW37927   3.336   4.869   7.585 -0.0424 -0.2872 -0.6034
 8758SOL    HW137928   3.416   4.811   7.591 -0.0507 -0.2797 -0.4181
 8758SOL    HW237929   3.256   4.819   7.619 -0.0293 -0.1304 -0.3384
 8759SOL     OW37930   0.742   0.692   0.726 -0.3827 -0.3631  0.0859
 8759SOL    HW137931   0.686   0.700   0.643 -1.1853  0.7936  0.7284
 8759SOL    HW237932   0.683   0.696   0.807  0.1168 -3.9098  0.7010
 8760SOL     OW37933   7.099   8.278   2.815 -0.0686 -0.0909  0.2700
 8760SOL    HW137934   7.083   8.242   2.907  0.4003  3.3221  1.7689
 8760SOL    HW237935   7.196   8.299   2.803 -0.1180 -0.5368 -1.0285
 8761SOL     OW37936   5.963   0.952   1.163 -0.2844  0.4163 -0.1450
 8761SOL    HW137937   5.897   0.971   1.090 -0.5506 -0.1341 -0.0501
 8761SOL    HW237938   6.053   0.933   1.122 -0.3296  0.5377 -0.3050
 8762SOL     OW37939   8.999   6.179   3.440  0.3121 -0.0461 -0.1340
 8762SOL    HW137940   9.008   6.273   3.407  2.2684 -0.5603 -1.1067
 8762SOL    HW237941   8.903   6.151   3.434 -0.1528  1.6124 -0.5992
 8763SOL     OW37942   1.998   8.460   9.886  0.1431  0.4629 -0.3842
 8763SOL    HW137943   1.957   8.527   9.948 -1.4650 -0.5925 -0.2636
 8763SOL    HW237944   2.008   8.500   9.795 -0.2923  1.0574 -0.1702
 8764SOL     OW37945   9.836   0.009   0.915 -0.7622  0.0937 -0.1449
 8764SOL    HW137946   9.812   0.003   1.012  0.6472 -2.8655  0.0743
 8764SOL    HW237947   9.760   0.050   0.865 -1.3636  2.0383  2.2394
 8765SOL     OW37948   2.194   2.244   7.210  0.2687 -0.1808  0.8967
 8765SOL    HW137949   2.220   2.339   7.198 -0.7231 -0.0335 -0.1943
 8765SOL    HW237950   2.239   2.188   7.141 -0.6500 -0.2271  0.3356
 8766SOL     OW37951   3.869   9.909   3.010  0.7065  0.3067 -0.0540
 8766SOL    HW137952   3.914   9.989   3.051  2.4370  0.5680 -2.3615
 8766SOL    HW237953   3.812   9.938   2.934  1.0733 -0.6202 -0.6921
 8767SOL     OW37954   5.152   1.297   7.378 -0.4306  0.0486 -0.6052
 8767SOL    HW137955   5.148   1.251   7.466 -2.0043 -0.0557 -0.7038
 8767SOL    HW237956   5.129   1.231   7.305 -0.8899  0.5498 -0.9175
 8768SOL     OW37957   4.555   2.968   4.227  0.4722 -0.3506  0.0350
 8768SOL    HW137958   4.611   2.886   4.220 -1.1409 -1.5387  0.7255
 8768SOL    HW237959   4.502   2.965   4.312 -4.4351 -1.7628 -2.8336
 8769SOL     OW37960   9.612   6.134   1.931  0.4901 -0.4462  0.0589
 8769SOL    HW137961   9.542   6.150   1.999 -1.6102 -2.3317 -1.5749
 8769SOL    HW237962   9.701   6.124   1.976 -0.7476 -1.0175  2.4416
 8770SOL     OW37963   8.383   0.777   0.516 -0.0162 -0.1839  0.1971
 8770SOL    HW137964   8.374   0.679   0.497  0.8310 -0.0638 -0.9065
 8770SOL    HW237965   8.460   0.792   0.579  1.7185 -0.0236 -1.8799
 8771SOL     OW37966   1.035   5.290   3.394  0.6411 -0.2535 -0.5265
 8771SOL    HW137967   1.078   5.200   3.401 -1.4579 -1.2088  0.7476
 8771SOL    HW237968   1.081   5.354   3.456 -0.0668 -1.3961  1.2330
 8772SOL     OW37969   7.926   7.413   4.709  0.4406 -0.2933 -0.7733
 8772SOL    HW137970   7.865   7.415   4.630  0.2758 -0.9797 -0.6698
 8772SOL    HW237971   7.989   7.336   4.699 -0.6865 -1.4134  0.5779
 8773SOL     OW37972   4.781   5.275   2.625  0.6998  0.0277  0.0264
 8773SOL    HW137973   4.807   5.180   2.613 -1.1487 -0.4452 -0.4348
 8773SOL    HW237974   4.801   5.327   2.542  0.8283 -0.1676 -0.0641
 8774SOL     OW37975   8.560   5.932   7.832 -0.9654 -0.3169 -0.3666
 8774SOL    HW137976   8.608   5.847   7.855 -3.2033 -1.1438  1.4660
 8774SOL    HW237977   8.507   5.919   7.749 -3.8211 -1.7933  1.6103
 8775SOL     OW37978   2.445   5.725   2.794 -0.4263  0.0578  0.4558
 8775SOL    HW137979   2.504   5.657   2.751 -2.4845 -1.6478  0.2105
 8775SOL    HW237980   2.427   5.698   2.889 -1.7191 -0.0851  0.1848
 8776SOL     OW37981   4.926   0.946   7.385  0.2541  0.0734  0.1778
 8776SOL    HW137982   5.006   0.887   7.382  0.7798  0.7829  0.0250
 8776SOL    HW237983   4.871   0.924   7.466  0.2348 -0.8828 -0.0964
 8777SOL     OW37984   6.765   5.464   1.210  0.4539 -0.6143 -0.4731
 8777SOL    HW137985   6.815   5.416   1.138  0.2632  0.6474 -1.4613
 8777SOL    HW237986   6.737   5.398   1.280  0.5244 -1.8906 -1.6138
 8778SOL     OW37987   1.156   9.458   9.840  0.2673 -0.4400  0.4464
 8778SOL    HW137988   1.214   9.376   9.833  0.7601 -0.0173 -0.5109
 8778SOL    HW237989   1.138   9.494   9.749 -0.7286 -0.0172  0.8083
 8779SOL     OW37990   5.929   9.823   3.870 -0.2703 -0.0188  0.0845
 8779SOL    HW137991   5.840   9.779   3.885  0.0469 -0.7602 -0.2116
 8779SOL    HW237992   5.969   9.847   3.959 -0.9327  0.6715  0.2091
 8780SOL     OW37993   5.427   5.129   0.444  0.0147  0.7085 -0.1363
 8780SOL    HW137994   5.481   5.148   0.362 -0.7428 -1.2047 -1.1028
 8780SOL    HW237995   5.470   5.173   0.523  2.0914  0.5404 -1.1479
 8781SOL     OW37996   8.679   8.031   4.619 -0.6685  0.1940 -0.1836
 8781SOL    HW137997   8.674   8.039   4.719  1.5567 -0.1112 -0.0216
 8781SOL    HW237998   8.626   7.952   4.589  2.1061 -2.3153  1.2291
 8782SOL     OW37999   7.016   0.972   4.590 -0.5250  0.1353  0.1294
 8782SOL    HW138000   7.114   0.976   4.572 -0.0346 -1.7719  2.0572
 8782SOL    HW238001   6.997   0.892   4.648 -2.9715  1.4958  1.2608
 8783SOL     OW38002   9.736   1.527   0.613 -0.8388 -0.7047 -0.1501
 8783SOL    HW138003   9.740   1.477   0.526  2.6493  2.4999 -1.9710
 8783SOL    HW238004   9.677   1.608   0.601 -0.9167 -0.6350  0.7014
 8784SOL     OW38005   0.389   4.876   2.086 -0.2063 -0.6311  0.0754
 8784SOL    HW138006   0.441   4.797   2.118  0.4999  0.2059  1.0585
 8784SOL    HW238007   0.297   4.848   2.061 -0.5642 -1.4528  2.1947
 8785SOL     OW38008   9.435   7.580   7.126 -0.0398  0.4382 -0.6470
 8785SOL    HW138009   9.498   7.539   7.060  0.5565 -1.0642  0.8268
 8785SOL    HW238010   9.459   7.551   7.218 -2.0209  1.0053  0.0769
 8786SOL     OW38011   8.596   7.549   7.200  0.5041  0.0957  0.2870
 8786SOL    HW138012   8.585   7.646   7.182 -1.4715 -0.4154 -1.4256
 8786SOL    HW238013   8.648   7.507   7.126 -0.4329 -0.5200 -0.0259
 8787SOL     OW38014   6.331   9.490   8.378 -0.3674  0.2277 -0.2379
 8787SOL    HW138015   6.405   9.456   8.320 -0.5518 -0.3481 -0.1358
 8787SOL    HW238016   6.253   9.515   8.320 -0.4797 -0.1626 -0.2580
 8788SOL     OW38017   4.805   8.445   5.796  0.3733 -0.1901 -0.1132
 8788SOL    HW138018   4.714   8.449   5.753 -0.4770 -1.5274  1.5002
 8788SOL    HW238019   4.819   8.528   5.850  0.2262  0.1487 -0.5902
 8789SOL     OW38020   7.339   8.938   5.503  0.4396  1.0245 -0.0760
 8789SOL    HW138021   7.257   8.905   5.457  1.2078  0.9993 -1.4850
 8789SOL    HW238022   7.366   8.875   5.575  1.4348 -1.0711 -2.1996
 8790SOL     OW38023   4.041   8.186   2.109  0.1624 -0.5092 -0.1318
 8790SOL    HW138024   4.056   8.239   2.026  1.1928  0.3076  0.5642
 8790SOL    HW238025   4.017   8.092   2.085 -1.1844  0.1341 -1.3714
 8791SOL     OW38026   7.875   3.841   1.441  0.6100 -0.4322 -0.2168
 8791SOL    HW138027   7.974   3.835   1.427  0.4036 -0.0940 -1.8255
 8791SOL    HW238028   7.829   3.776   1.381 -0.1807 -0.3137  0.2598
 8792SOL     OW38029   1.506   6.046   5.231  0.5979  0.1048  0.1673
 8792SOL    HW138030   1.437   6.109   5.268  0.7930 -0.3733  1.3740
 8792SOL    HW238031   1.597   6.075   5.260  0.8738  0.5036 -1.0913
 8793SOL     OW38032   2.184   4.594   5.287  0.4753 -0.0926 -0.7047
 8793SOL    HW138033   2.197   4.672   5.226  1.4275  1.2729  1.2098
 8793SOL    HW238034   2.118   4.618   5.358 -0.1754 -1.4678 -0.8196
 8794SOL     OW38035   0.524   1.644   4.936  0.0763 -0.0057 -0.0346
 8794SOL    HW138036   0.613   1.616   4.973  0.5884  1.0034 -0.4806
 8794SOL    HW238037   0.467   1.680   5.011  0.5096  0.5290  0.0369
 8795SOL     OW38038   7.413   5.546   1.805  0.4725  0.1345  0.4063
 8795SOL    HW138039   7.413   5.566   1.707  0.4515 -2.6636 -0.2277
 8795SOL    HW238040   7.501   5.508   1.831  0.5527  1.0894  1.5294
 8796SOL     OW38041   3.388   8.270   0.904  0.0377  0.2133  0.2278
 8796SOL    HW138042   3.412   8.201   0.836  0.2523 -0.8578  1.3758
 8796SOL    HW238043   3.471   8.319   0.932 -0.1182  0.9627 -0.6037
 8797SOL     OW38044   9.919   1.311   7.284 -0.2238  0.0773 -0.1348
 8797SOL    HW138045   9.960   1.335   7.371  0.5504 -0.9453 -0.2161
 8797SOL    HW238046   9.875   1.392   7.244 -0.5801  0.5445  1.1920
 8798SOL     OW38047   9.708   7.464   3.603  0.1580  0.0009  0.3131
 8798SOL    HW138048   9.787   7.402   3.598  1.6300  1.9075 -0.7992
 8798SOL    HW238049   9.718   7.535   3.533 -0.8207  2.2649  2.4453
 8799SOL     OW38050   5.777   9.533   7.755 -0.2545 -0.4700 -0.3182
 8799SOL    HW138051   5.693   9.578   7.785 -0.6827 -2.0040  0.8611
 8799SOL    HW238052   5.761   9.486   7.668 -0.7278 -1.0414  0.0698
 8800SOL     OW38053   3.993   3.266   5.085 -0.2411  0.9009  0.0765
 8800SOL    HW138054   3.962   3.293   4.994  1.6432 -2.2363 -1.6193
 8800SOL    HW238055   4.070   3.324   5.113 -0.0801  1.1533 -0.8784
 8801SOL     OW38056   8.732   0.245   5.456  0.0670 -0.0305  0.5103
 8801SOL    HW138057   8.636   0.243   5.429 -0.1189 -0.0515  1.1629
 8801SOL    HW238058   8.783   0.308   5.397 -0.1990 -0.5841 -0.3135
 8802SOL     OW38059   0.688   0.098   1.198  0.3227 -0.2027 -0.1462
 8802SOL    HW138060   0.756   0.034   1.162  0.4902  0.2375 -0.6057
 8802SOL    HW238061   0.642   0.145   1.123  1.0956  1.1559  0.2125
 8803SOL     OW38062   0.792   1.673   7.751 -0.3029 -0.1226 -0.1673
 8803SOL    HW138063   0.697   1.644   7.747 -0.9181  1.7894 -0.0360
 8803SOL    HW238064   0.805   1.754   7.693  0.6326  1.2080  1.8359
 8804SOL     OW38065   1.802   4.103   3.191 -0.9196 -0.0082  0.2620
 8804SOL    HW138066   1.865   4.177   3.216 -0.2238 -0.4484 -0.1929
 8804SOL    HW238067   1.721   4.142   3.147 -0.3312  0.4448 -0.4197
 8805SOL     OW38068   5.446   3.835   1.360  0.3605 -0.4701 -0.2757
 8805SOL    HW138069   5.410   3.742   1.355  1.0776 -0.8222  0.8644
 8805SOL    HW238070   5.381   3.893   1.410  0.2602 -0.5239 -0.3421
 8806SOL     OW38071   8.215   9.130   6.357  0.0216  0.0159  0.1486
 8806SOL    HW138072   8.209   9.227   6.383  1.6732  0.1935 -0.0391
 8806SOL    HW238073   8.239   9.123   6.260  0.8750 -0.5699  0.3999
 8807SOL     OW38074   2.531   3.729   4.694 -0.2916  0.0526  0.1776
 8807SOL    HW138075   2.563   3.734   4.789 -0.1884  0.8869  0.1049
 8807SOL    HW238076   2.608   3.747   4.632 -0.4590 -0.0088 -0.0477
 8808SOL     OW38077   0.012   7.780   4.034  0.5538  0.3171  0.6798
 8808SOL    HW138078  -0.082   7.798   4.005  0.2602  0.8720  1.9299
 8808SOL    HW238079   0.011   7.747   4.128  1.8239  3.2785  1.7866
 8809SOL     OW38080   9.676   9.096   1.421 -0.1060  0.0861  0.5052
 8809SOL    HW138081   9.701   9.155   1.344 -0.2980  1.2974  1.3694
 8809SOL    HW238082   9.600   9.037   1.394  0.1987  0.1027 -0.4199
 8810SOL     OW38083   0.175   6.895   2.539  0.3369  0.0773 -0.0366
 8810SOL    HW138084   0.265   6.855   2.558  0.8915  0.7996 -1.0875
 8810SOL    HW238085   0.138   6.934   2.622  0.9103 -0.3962  0.4491
 8811SOL     OW38086   1.121   4.756   4.931  0.2015  0.0722 -0.0397
 8811SOL    HW138087   1.196   4.736   4.994  1.7161 -1.0374 -2.1386
 8811SOL    HW238088   1.149   4.829   4.867 -1.4083  1.3741  0.6939
 8812SOL     OW38089   3.878   2.079   5.661 -0.2925 -0.1511 -0.2812
 8812SOL    HW138090   3.972   2.091   5.691 -0.4408 -0.4272  0.2988
 8812SOL    HW238091   3.854   1.981   5.665 -1.1244  0.0993  1.1417
 8813SOL     OW38092   2.571   5.501   4.536  0.0432 -0.0531  0.2673
 8813SOL    HW138093   2.578   5.411   4.492 -0.6659  1.9714 -4.2548
 8813SOL    HW238094   2.485   5.544   4.509  0.4524  2.0482  2.2659
 8814SOL     OW38095   3.201   0.007   1.578 -0.6444 -0.1261 -0.8424
 8814SOL    HW138096   3.192   0.044   1.671 -0.2741 -1.5115 -0.2387
 8814SOL    HW238097   3.212   0.082   1.513  0.3840  0.8015  0.3827
 8815SOL     OW38098   6.634   1.912   6.093  0.2150 -0.0664 -0.0918
 8815SOL    HW138099   6.658   1.882   6.001 -2.4813 -0.8567 -0.5891
 8815SOL    HW238100   6.636   1.833   6.155 -0.1882  0.0196  0.0334
 8816SOL     OW38101   2.362   2.287   1.892  0.1886 -0.2370 -0.1336
 8816SOL    HW138102   2.414   2.348   1.952  0.2762 -0.3479 -0.0963
 8816SOL    HW238103   2.348   2.332   1.803  0.0048 -0.0483 -0.0106
 8817SOL     OW38104   8.261   9.688   6.382 -0.0474 -0.1615 -0.1511
 8817SOL    HW138105   8.276   9.704   6.284  0.1076  2.8950  0.3106
 8817SOL    HW238106   8.290   9.596   6.406  2.9434  0.1468 -2.3711
 8818SOL     OW38107   3.606   5.671   3.720 -0.6873  0.1699 -0.1300
 8818SOL    HW138108   3.668   5.699   3.794  1.8688  0.6823 -2.3532
 8818SOL    HW238109   3.545   5.746   3.698  0.8270  1.2437 -0.7701
 8819SOL     OW38110   9.225   1.595   6.604  0.2351  0.2579 -0.3107
 8819SOL    HW138111   9.318   1.574   6.574 -0.0848 -0.5335 -0.7629
 8819SOL    HW238112   9.224   1.609   6.703  0.6829 -0.6384 -0.1724
 8820SOL     OW38113   2.020   3.298   0.897  0.0350  0.0082 -0.8186
 8820SOL    HW138114   2.109   3.311   0.940  0.0632 -0.5752 -0.6943
 8820SOL    HW238115   2.031   3.247   0.812 -0.4018 -1.9330  0.2608
 8821SOL     OW38116   1.085   5.756   4.053 -0.2332 -0.0878  0.0109
 8821SOL    HW138117   1.045   5.800   4.133  1.8529  0.8508  0.5849
 8821SOL    HW238118   1.121   5.826   3.991  0.0016 -0.8782 -0.7480
 8822SOL     OW38119   0.890   8.307   7.708  0.1583  0.2957  0.4470
 8822SOL    HW138120   0.912   8.210   7.721  1.1887  0.0672 -2.5958
 8822SOL    HW238121   0.970   8.363   7.728  0.3202  0.3146 -0.2477
 8823SOL     OW38122   6.927   9.149   6.053 -0.0604  0.5013  0.1810
 8823SOL    HW138123   7.020   9.186   6.043  0.4269 -0.6918  0.1887
 8823SOL    HW238124   6.912   9.078   5.985 -1.8798  2.4084 -1.4526
 8824SOL     OW38125   0.958   3.661   6.016 -0.5126 -0.5951  0.1140
 8824SOL    HW138126   0.954   3.595   5.940  0.3454 -0.5833  0.0500
 8824SOL    HW238127   0.945   3.753   5.980  0.9390 -0.4933 -0.1758
 8825SOL     OW38128   8.059   7.403   0.366  0.1635 -0.4068  0.2086
 8825SOL    HW138129   8.031   7.495   0.339 -1.0781 -1.0512 -0.7556
 8825SOL    HW238130   8.024   7.383   0.458 -0.3195 -0.2420  0.0617
 8826SOL     OW38131   7.787   4.730   6.113 -0.2128 -0.5124 -0.2130
 8826SOL    HW138132   7.740   4.662   6.169  0.2025 -0.3908  0.2984
 8826SOL    HW238133   7.787   4.818   6.161 -0.8725 -0.1180 -0.9378
 8827SOL     OW38134   8.608   3.683   6.414  0.0947 -0.3057 -0.1701
 8827SOL    HW138135   8.583   3.596   6.371  1.0602 -0.9708  0.5969
 8827SOL    HW238136   8.671   3.732   6.355  0.2026 -0.5091 -0.2262
 8828SOL     OW38137   0.797   3.349   1.564  0.3219 -0.2775 -0.0054
 8828SOL    HW138138   0.747   3.380   1.482 -0.5760 -0.2616  0.5434
 8828SOL    HW238139   0.804   3.424   1.629 -1.1986 -1.0019  1.0107
 8829SOL     OW38140   9.070   9.222   0.169 -0.0952 -0.5805 -0.1293
 8829SOL    HW138141   9.082   9.298   0.105  1.7755 -1.4150 -0.7927
 8829SOL    HW238142   8.978   9.226   0.207  0.8863  3.7504  2.1231
 8830SOL     OW38143   2.704   1.291   0.681  0.2361  0.3180 -1.0876
 8830SOL    HW138144   2.773   1.221   0.697  0.5333  0.6875 -0.7624
 8830SOL    HW238145   2.669   1.325   0.769 -0.5123 -0.0180 -1.2451
 8831SOL     OW38146   7.373   6.373   1.299 -0.2797  0.0114  0.9181
 8831SOL    HW138147   7.436   6.358   1.375  0.7438 -2.1199 -0.3292
 8831SOL    HW238148   7.409   6.444   1.239  0.8423 -1.0458  0.3274
 8832SOL     OW38149   9.609   4.073   6.821 -0.6211 -0.2991  0.5225
 8832SOL    HW138150   9.708   4.063   6.819 -0.4537  0.9140  2.0754
 8832SOL    HW238151   9.585   4.170   6.813 -1.6791 -0.5896  0.1455
 8833SOL     OW38152   6.496   1.830   2.880 -0.0261 -0.2240 -0.6595
 8833SOL    HW138153   6.574   1.840   2.942 -0.0361  0.9676 -0.8327
 8833SOL    HW238154   6.513   1.883   2.797 -1.5183  0.9736 -0.2182
 8834SOL     OW38155   3.808   2.883   6.775 -0.1218 -0.0645 -0.2161
 8834SOL    HW138156   3.730   2.824   6.754  0.1867 -1.5625  2.6980
 8834SOL    HW238157   3.892   2.829   6.774  0.9138  1.4608 -2.9268
 8835SOL     OW38158   1.525   7.137   3.278 -0.0093  0.4345 -0.0924
 8835SOL    HW138159   1.533   7.207   3.349 -1.9227 -0.4686  1.0655
 8835SOL    HW238160   1.510   7.180   3.190  3.3825  1.6103 -0.1471
 8836SOL     OW38161   8.999   9.035   4.739  0.1948  0.1267 -0.3910
 8836SOL    HW138162   8.984   9.067   4.646  3.1207  0.6582 -0.7112
 8836SOL    HW238163   8.999   8.935   4.740  1.2920  0.1148 -1.1555
 8837SOL     OW38164   5.094   0.315   6.451 -0.5737 -0.5040  0.1751
 8837SOL    HW138165   5.001   0.350   6.442 -0.0861  0.3765 -1.7320
 8837SOL    HW238166   5.147   0.377   6.509 -0.3870  0.5686 -1.1415
 8838SOL     OW38167   9.010   3.650   3.833  0.0285 -0.1432  0.0469
 8838SOL    HW138168   8.970   3.625   3.745  1.0770  0.8174 -0.7205
 8838SOL    HW238169   8.973   3.738   3.863 -0.9993 -0.8933  1.0146
 8839SOL     OW38170   7.886   9.666   0.581  0.5321  0.2105  0.0055
 8839SOL    HW138171   7.872   9.760   0.613  3.0035  0.4101  0.6137
 8839SOL    HW238172   7.922   9.610   0.656 -2.5382 -1.6846  0.1369
 8840SOL     OW38173   3.872   2.086   2.536 -0.0676 -0.2576  0.0104
 8840SOL    HW138174   3.855   2.182   2.560  2.0528  0.0635  0.2937
 8840SOL    HW238175   3.902   2.036   2.617 -0.9332 -1.1170 -0.1910
 8841SOL     OW38176   2.201   7.759   0.072  0.0403  0.3388  0.2280
 8841SOL    HW138177   2.105   7.741   0.052  0.3963 -0.4595 -0.7703
 8841SOL    HW238178   2.258   7.690   0.029  1.0742  0.8332  0.7805
 8842SOL     OW38179   8.344   0.199   6.427 -0.2126 -0.4555 -0.6139
 8842SOL    HW138180   8.377   0.220   6.519 -0.8458  0.0141 -0.4900
 8842SOL    HW238181   8.300   0.280   6.388 -0.9830 -0.9998 -0.8785
 8843SOL     OW38182   0.035   3.594   4.009  0.1298  0.2685  0.7247
 8843SOL    HW138183   0.019   3.653   4.088  1.3184  0.1613  1.0558
 8843SOL    HW238184   0.133   3.575   4.001  0.0708  0.6554 -1.0512
 8844SOL     OW38185   3.032   1.168   2.706 -0.7101  0.0825  0.5627
 8844SOL    HW138186   2.980   1.227   2.644 -0.0818  0.4575  0.3914
 8844SOL    HW238187   3.092   1.109   2.653 -0.4908  0.0980  0.7942
 8845SOL     OW38188   1.007   7.873   2.804 -0.7355 -0.0998  0.3597
 8845SOL    HW138189   0.984   7.817   2.883 -1.5617 -0.4642 -0.1282
 8845SOL    HW238190   0.977   7.826   2.720  0.2489  0.2150 -0.1750
 8846SOL     OW38191   7.453   7.537   5.273  0.7374  0.1532 -0.4879
 8846SOL    HW138192   7.437   7.505   5.180 -2.1279 -1.3453  0.4649
 8846SOL    HW238193   7.388   7.611   5.294  1.7988  0.9233  0.1130
 8847SOL     OW38194   0.251   2.656   0.816  0.2862  0.1908 -0.0298
 8847SOL    HW138195   0.332   2.710   0.792 -0.9055  1.8466 -0.4148
 8847SOL    HW238196   0.254   2.632   0.913  0.5090  1.4852  0.2819
 8848SOL     OW38197   3.486   0.292   3.183  0.3708  0.2380  0.0972
 8848SOL    HW138198   3.572   0.244   3.167 -0.1034 -0.3825 -0.5769
 8848SOL    HW238199   3.490   0.338   3.272  1.1642 -0.2872  0.3357
 8849SOL     OW38200   5.942   8.731   3.674  0.5312  0.7712  0.1617
 8849SOL    HW138201   6.032   8.773   3.688  1.2829  0.1744 -2.6438
 8849SOL    HW238202   5.935   8.697   3.580 -2.4520  0.3501  0.4875
 8850SOL     OW38203   1.676   9.639   5.316  0.0538  0.7772  0.0037
 8850SOL    HW138204   1.763   9.650   5.363  0.8861 -0.0480 -1.3153
 8850SOL    HW238205   1.605   9.616   5.382  0.7428  1.8405  1.1442
 8851SOL     OW38206   2.555   4.040   3.653  0.7769  0.2854  0.3402
 8851SOL    HW138207   2.640   4.072   3.696  1.6514  2.6534 -2.8968
 8851SOL    HW238208   2.578   3.982   3.575 -0.5068  1.7380 -1.1567
 8852SOL     OW38209   0.508   7.713   2.382 -0.6830 -0.3945  0.1230
 8852SOL    HW138210   0.519   7.804   2.342 -1.4971  0.6869  2.2780
 8852SOL    HW238211   0.432   7.666   2.338 -3.1920  1.7501  2.0185
 8853SOL     OW38212   7.595   4.806   7.388 -0.0729  0.1600  0.1352
 8853SOL    HW138213   7.514   4.824   7.444  0.5894  0.2086  1.0897
 8853SOL    HW238214   7.675   4.798   7.447  0.5973 -0.0322 -0.7909
 8854SOL     OW38215   0.907   4.089   5.744 -0.2089  0.1929 -0.1938
 8854SOL    HW138216   0.890   4.055   5.651  0.2111  0.0881 -0.2314
 8854SOL    HW238217   0.892   4.188   5.746  0.0141  0.2313 -0.4294
 8855SOL     OW38218   7.420   3.200   2.889 -0.7631 -0.0670  0.2218
 8855SOL    HW138219   7.427   3.162   2.797 -0.0923 -1.9737  1.0341
 8855SOL    HW238220   7.378   3.291   2.884 -2.6051 -0.9732 -1.7593
 8856SOL     OW38221   2.396   7.468   2.893 -0.1410  0.1845 -0.3320
 8856SOL    HW138222   2.336   7.487   2.815 -2.8833 -2.5863  0.9979
 8856SOL    HW238223   2.440   7.379   2.880 -0.8270 -0.4237  1.3344
 8857SOL     OW38224   0.492   7.404   2.671  0.3695  0.4977  0.3799
 8857SOL    HW138225   0.506   7.374   2.576 -0.7108  0.6796  0.1655
 8857SOL    HW238226   0.482   7.503   2.673 -2.6858  0.2373  0.3079
 8858SOL     OW38227   8.377   7.117   3.311  0.3778  0.0029  0.3274
 8858SOL    HW138228   8.288   7.157   3.333  0.5126 -0.4089  1.6130
 8858SOL    HW238229   8.445   7.189   3.306  0.6243 -0.0520  2.6669
 8859SOL     OW38230   9.597   0.048   7.192 -0.3680  0.4988 -0.1620
 8859SOL    HW138231   9.520  -0.007   7.226 -1.0824  0.3061 -1.9824
 8859SOL    HW238232   9.563   0.137   7.160  0.4119  1.0372  0.4910
 8860SOL     OW38233   1.411   7.590   1.225  0.0725  0.9622 -0.1036
 8860SOL    HW138234   1.489   7.527   1.224  0.0571  0.9034  1.4691
 8860SOL    HW238235   1.401   7.629   1.317 -1.2519  1.5945 -0.5107
 8861SOL     OW38236   1.819   6.881   4.142  0.3666  0.3451  0.1629
 8861SOL    HW138237   1.861   6.850   4.227 -2.9717 -1.5007  1.2271
 8861SOL    HW238238   1.775   6.969   4.156 -0.3358 -0.0425  0.4231
 8862SOL     OW38239   8.007   2.733   5.951 -0.0406  0.5146  0.0589
 8862SOL    HW138240   7.947   2.703   6.025 -1.6819 -0.6596 -1.6955
 8862SOL    HW238241   8.101   2.733   5.983 -0.8278  1.2014  2.5031
 8863SOL     OW38242   0.528   3.751   2.813  0.1974 -0.3107 -0.0455
 8863SOL    HW138243   0.429   3.734   2.812 -0.2221  1.9164  0.0915
 8863SOL    HW238244   0.572   3.689   2.877 -0.9880 -1.9016 -0.7290
 8864SOL     OW38245   3.947   6.681   0.218 -0.1934  0.0368  0.2409
 8864SOL    HW138246   3.911   6.610   0.158  0.6776 -0.9553  0.8807
 8864SOL    HW238247   4.025   6.645   0.269 -0.1810  1.2441  1.0804
 8865SOL     OW38248   1.142   5.406   4.837 -0.1868 -0.3494  0.2065
 8865SOL    HW138249   1.046   5.429   4.817  0.0693 -0.5832 -1.3817
 8865SOL    HW238250   1.151   5.383   4.934 -1.5144  0.7787  0.6219
 8866SOL     OW38251   4.237   2.250   4.193  0.2117 -0.1166  0.8395
 8866SOL    HW138252   4.284   2.165   4.216 -0.4415 -0.8608 -0.5344
 8866SOL    HW238253   4.293   2.304   4.130 -0.0653 -0.2672  0.4616
 8867SOL     OW38254   5.306   1.639   6.274  0.6240 -0.2698 -1.1942
 8867SOL    HW138255   5.382   1.580   6.303  1.9179  1.7414 -0.4098
 8867SOL    HW238256   5.261   1.677   6.355 -1.3570 -1.5725 -1.6461
 8868SOL     OW38257   4.311   7.845   0.922  0.3886 -0.3120  0.6551
 8868SOL    HW138258   4.252   7.783   0.870  0.6024 -0.5031  0.6374
 8868SOL    HW238259   4.385   7.793   0.964  0.5230 -0.0796  0.7087
 8869SOL     OW38260   9.159   7.848   4.760 -0.1581  0.5208 -0.2708
 8869SOL    HW138261   9.078   7.869   4.815 -0.9832  0.6074 -1.4979
 8869SOL    HW238262   9.230   7.808   4.818 -1.4155 -0.3863  0.6465
 8870SOL     OW38263   4.410   3.777   6.250  0.1729 -0.3522 -0.0618
 8870SOL    HW138264   4.361   3.827   6.320 -1.7335 -0.5600 -1.2243
 8870SOL    HW238265   4.413   3.680   6.274  0.3823 -0.2826  0.1994
 8871SOL     OW38266   9.569   7.478   1.292  0.1979  0.0392  0.4190
 8871SOL    HW138267   9.641   7.462   1.359  0.3465 -0.1976  0.1994
 8871SOL    HW238268   9.505   7.401   1.292  1.2614 -0.8551 -1.0862
 8872SOL     OW38269   5.945   0.473   4.760 -0.8070 -0.3370 -0.0790
 8872SOL    HW138270   5.993   0.485   4.673  1.0592  2.3207  1.2774
 8872SOL    HW238271   5.893   0.555   4.782 -1.4430 -1.0696  1.2319
 8873SOL     OW38272   8.798   1.013   1.105  0.0634  0.1645 -0.6307
 8873SOL    HW138273   8.827   1.003   1.009  2.4029 -0.8391  0.1532
 8873SOL    HW238274   8.826   1.102   1.139  0.3315  0.0383 -0.5185
 8874SOL     OW38275   8.593   2.633   6.902  0.8607  0.1403 -0.6057
 8874SOL    HW138276   8.626   2.647   6.996 -0.9919  0.3948  0.0246
 8874SOL    HW238277   8.518   2.567   6.903  1.8281 -1.0016 -2.1147
 8875SOL     OW38278   9.441   2.028   5.747 -0.3175  0.2027  0.1157
 8875SOL    HW138279   9.536   2.049   5.725  0.6153 -2.8341  0.9369
 8875SOL    HW238280   9.391   2.113   5.763  2.6416  1.8256  1.2151
 8876SOL     OW38281   3.439   6.732   0.206 -0.1043 -0.2125  0.0301
 8876SOL    HW138282   3.366   6.755   0.271 -1.2796 -0.2160 -1.2663
 8876SOL    HW238283   3.526   6.723   0.255 -0.4334  2.5645  1.2379
 8877SOL     OW38284   8.537   9.116   3.706  0.1238 -0.0185 -0.2850
 8877SOL    HW138285   8.475   9.143   3.632 -0.5553 -0.8280 -0.0127
 8877SOL    HW238286   8.616   9.068   3.666  0.2573  0.4347 -0.5711
 8878SOL     OW38287   7.663   2.133   6.766 -0.4493 -0.5567  0.8042
 8878SOL    HW138288   7.676   2.177   6.855  1.9408  2.2949 -0.8463
 8878SOL    HW238289   7.691   2.037   6.772  0.8640 -0.0846  2.8190
 8879SOL     OW38290   2.377   8.053   0.453 -0.0642 -0.1057 -0.0134
 8879SOL    HW138291   2.335   8.134   0.494  1.9944  1.2941 -0.5578
 8879SOL    HW238292   2.383   7.980   0.521  1.3756  1.4668  1.6113
 8880SOL     OW38293   9.040   5.025   4.692  0.2643  0.0551  0.8095
 8880SOL    HW138294   9.048   4.981   4.781  2.3624 -0.1389  0.5442
 8880SOL    HW238295   9.051   4.956   4.620 -1.4110  0.2096  0.3943
 8881SOL     OW38296   9.114   3.471   5.946  0.3209  0.1927 -0.1765
 8881SOL    HW138297   9.203   3.431   5.970 -0.1771 -1.1283 -0.4617
 8881SOL    HW238298   9.071   3.507   6.029  1.6300  1.9394 -0.2162
 8882SOL     OW38299   2.252   4.518   4.543  0.5434 -0.5535  0.8006
 8882SOL    HW138300   2.238   4.475   4.633 -0.4260 -2.5571 -0.2698
 8882SOL    HW238301   2.169   4.508   4.488  1.6586 -0.7575 -0.8866
 8883SOL     OW38302   6.218   0.924   3.572  0.2443 -0.2394  0.2541
 8883SOL    HW138303   6.251   1.015   3.598 -1.9095  1.3136 -2.1597
 8883SOL    HW238304   6.266   0.893   3.490 -1.2614  0.2027 -0.8295
 8884SOL     OW38305   0.183   5.968   7.472  0.1473 -0.0920 -0.0779
 8884SOL    HW138306   0.232   5.891   7.511  0.1796 -0.3432 -0.5989
 8884SOL    HW238307   0.223   5.991   7.383  0.0979  0.4828  0.0472
 8885SOL     OW38308   2.196   1.579   5.475 -0.6249  0.2442  0.3822
 8885SOL    HW138309   2.168   1.483   5.478 -0.2969 -0.0024 -2.6632
 8885SOL    HW238310   2.133   1.631   5.418  0.7877  1.2502 -0.2947
 8886SOL     OW38311   9.074   9.953   4.586  0.3331 -0.1587  0.0225
 8886SOL    HW138312   9.059   9.862   4.547  0.4679 -0.3604  0.4292
 8886SOL    HW238313   9.172   9.971   4.592  0.2924  0.4238 -0.9718
 8887SOL     OW38314   6.439   7.303   3.119  0.0586  0.8004  0.1409
 8887SOL    HW138315   6.458   7.364   3.196  0.5535  2.3055 -1.1388
 8887SOL    HW238316   6.525   7.279   3.075 -0.3286  1.0650 -0.7672
 8888SOL     OW38317   9.974   0.648   4.194 -0.2447  0.6882 -0.0546
 8888SOL    HW138318  10.070   0.640   4.167 -0.4940 -0.5730 -0.6271
 8888SOL    HW238319   9.958   0.590   4.275 -0.5687  0.7326 -0.0869
 8889SOL     OW38320   1.299   3.721   3.291  0.6939  0.1401  0.4033
 8889SOL    HW138321   1.224   3.775   3.331  0.0020 -0.3863 -0.1761
 8889SOL    HW238322   1.349   3.674   3.364  0.8650  1.0009  0.8501
 8890SOL     OW38323   0.862   9.799   0.794 -0.4278 -0.2054 -0.5182
 8890SOL    HW138324   0.811   9.882   0.814  1.1345  0.7171 -0.2918
 8890SOL    HW238325   0.902   9.806   0.703  1.3221  0.1228  0.2623
 8891SOL     OW38326   1.107   5.772   0.692 -0.1598 -0.3269 -0.2126
 8891SOL    HW138327   1.137   5.824   0.772  0.2626  2.1603 -1.9107
 8891SOL    HW238328   1.017   5.805   0.664 -1.5954 -3.1640  0.9019
 8892SOL     OW38329   8.687   8.046   1.907 -0.1359  0.3609 -0.0461
 8892SOL    HW138330   8.735   8.120   1.955  0.1188  0.0994  0.1043
 8892SOL    HW238331   8.624   8.001   1.970  0.9722 -0.6668  0.3412
 8893SOL     OW38332   7.865   0.837   3.260  0.2569 -0.2004 -0.1363
 8893SOL    HW138333   7.818   0.896   3.326  1.0380 -0.3079  0.5251
 8893SOL    HW238334   7.873   0.745   3.297  0.1631 -0.4116 -0.6383
 8894SOL     OW38335   5.975   1.048   7.321  0.2931 -0.2120  0.0978
 8894SOL    HW138336   6.016   1.043   7.412  0.6568  0.8202 -0.0033
 8894SOL    HW238337   5.963   1.144   7.295  1.4740 -0.4872 -1.5234
 8895SOL     OW38338   4.780   7.289   4.621  0.0978 -0.0775  0.3508
 8895SOL    HW138339   4.696   7.290   4.676 -1.1597  0.8736 -1.5291
 8895SOL    HW238340   4.803   7.195   4.597 -0.5228 -0.3244  0.7160
 8896SOL     OW38341   2.574   8.747   7.770  0.1149 -0.1599  1.0238
 8896SOL    HW138342   2.477   8.722   7.762 -0.6870  3.0993 -0.1772
 8896SOL    HW238343   2.593   8.773   7.865 -0.0056 -1.5011  1.4191
 8897SOL     OW38344   3.306   5.423   0.458 -0.1028  0.4413  0.1916
 8897SOL    HW138345   3.238   5.401   0.388 -1.5426  1.4299  1.2683
 8897SOL    HW238346   3.262   5.433   0.546  1.2437  2.4096  0.6832
 8898SOL     OW38347   3.379   5.493   6.700 -0.0996 -0.2773  0.1324
 8898SOL    HW138348   3.315   5.471   6.627 -3.0961  1.6791  2.0923
 8898SOL    HW238349   3.359   5.584   6.737  1.5379 -1.0709  3.1998
 8899SOL     OW38350   7.792   8.632   6.678  0.5898  0.7071 -0.0656
 8899SOL    HW138351   7.702   8.590   6.674  2.2783 -3.0266 -0.8689
 8899SOL    HW238352   7.805   8.691   6.598 -0.6710  0.2652 -0.6020
 8900SOL     OW38353   4.116   4.411   0.488 -0.0023 -0.2566  0.6913
 8900SOL    HW138354   4.128   4.331   0.430 -1.0557  1.1388 -1.4871
 8900SOL    HW238355   4.038   4.396   0.549 -0.6371 -0.6106 -0.2021
 8901SOL     OW38356   4.408   7.531   3.854  0.6308  0.0664 -0.5512
 8901SOL    HW138357   4.445   7.528   3.761 -1.9049  0.0439 -1.5857
 8901SOL    HW238358   4.398   7.438   3.889  1.2789  0.0641 -0.3553
 8902SOL     OW38359   2.525   9.169   4.762  0.8151  0.3700 -0.3277
 8902SOL    HW138360   2.606   9.186   4.818 -0.2802  2.3822  0.7294
 8902SOL    HW238361   2.466   9.103   4.809  1.1734 -0.0374 -0.4407
 8903SOL     OW38362   4.544   1.310   4.734 -0.0328 -0.0242  0.4428
 8903SOL    HW138363   4.532   1.231   4.794 -2.0492  0.6769  0.9866
 8903SOL    HW238364   4.515   1.286   4.641  1.6098 -0.6275  0.0650
 8904SOL     OW38365   6.280   1.093   6.863 -0.2226 -0.3680  0.6035
 8904SOL    HW138366   6.211   1.152   6.906 -1.6447 -0.7810 -1.0380
 8904SOL    HW238367   6.240   1.002   6.848  0.4065 -0.3806 -1.0795
 8905SOL     OW38368   3.012   7.576   3.727 -0.6682 -0.4183  0.2188
 8905SOL    HW138369   3.074   7.532   3.663 -0.7630  1.2605 -1.0519
 8905SOL    HW238370   3.048   7.568   3.820  0.8361 -0.4959 -0.3666
 8906SOL     OW38371   7.879   0.972   3.644 -0.0837  0.5576  0.1356
 8906SOL    HW138372   7.809   0.997   3.577 -0.7791 -0.4427  0.4853
 8906SOL    HW238373   7.958   0.933   3.595 -0.5520 -0.0878 -0.1147
 8907SOL     OW38374   8.980   2.912   1.597 -0.0945  0.5637  0.5517
 8907SOL    HW138375   8.963   2.958   1.510  1.1869  0.7854  0.4106
 8907SOL    HW238376   9.003   2.979   1.667 -1.1222  0.3854  1.0781
 8908SOL     OW38377   9.608   3.156   4.558 -0.5962 -0.2283  0.4699
 8908SOL    HW138378   9.681   3.158   4.627 -0.1260 -0.0675 -0.0278
 8908SOL    HW238379   9.565   3.246   4.552 -0.2370 -0.0765  0.1336
 8909SOL     OW38380   9.540   9.846   7.922 -0.4928 -0.4173 -0.1659
 8909SOL    HW138381   9.570   9.774   7.859 -1.3763 -1.5710  0.7075
 8909SOL    HW238382   9.614   9.868   7.985  0.9113  1.7743 -2.4683
 8910SOL     OW38383   2.830   7.186   4.367  0.3883 -0.1797 -0.1492
 8910SOL    HW138384   2.849   7.264   4.309  1.0650 -0.0038  0.3048
 8910SOL    HW238385   2.733   7.161   4.359 -0.0043  1.1829  0.2986
 8911SOL     OW38386   3.884   2.189   0.515  0.0523 -0.1431  0.4150
 8911SOL    HW138387   3.816   2.163   0.584 -0.6897 -1.0534 -0.6485
 8911SOL    HW238388   3.865   2.282   0.483  0.4233  0.3008  1.4552
 8912SOL     OW38389   9.951   4.341   6.080 -0.0647 -0.0400  0.1482
 8912SOL    HW138390   9.966   4.247   6.048  0.7975  0.0505  0.2902
 8912SOL    HW238391   9.875   4.381   6.029 -1.4285 -1.3163  1.1025
 8913SOL     OW38392   9.263   5.234   0.891 -0.6341  0.6557  0.2011
 8913SOL    HW138393   9.178   5.266   0.849 -0.0625  2.1307  0.1176
 8913SOL    HW238394   9.298   5.305   0.953  1.7027  1.0076 -1.4646
 8914SOL     OW38395   0.410   6.737   4.540  0.1629  0.3516 -0.1766
 8914SOL    HW138396   0.362   6.650   4.529  0.0961  0.1814  1.2939
 8914SOL    HW238397   0.492   6.723   4.596  0.2872  1.1945 -0.1351
 8915SOL     OW38398   0.777   8.756   2.273 -0.2093 -0.2797  0.0694
 8915SOL    HW138399   0.733   8.670   2.247  1.0156 -0.7223 -0.5647
 8915SOL    HW238400   0.708   8.820   2.306 -1.5182 -0.5737 -1.9739
 8916SOL     OW38401   0.051   0.919   0.466 -0.2453  0.1123 -0.0812
 8916SOL    HW138402  -0.022   0.947   0.404  1.1306  0.2255 -1.6930
 8916SOL    HW238403   0.067   0.992   0.533 -0.8402  0.5745 -0.4348
 8917SOL     OW38404   1.736   4.426   4.536 -0.5217  0.0461  0.0125
 8917SOL    HW138405   1.775   4.362   4.603  3.3641  1.3618 -0.8907
 8917SOL    HW238406   1.692   4.374   4.463 -0.1427 -1.5215  0.8619
 8918SOL     OW38407   1.453   6.218   7.173 -0.6100 -0.3389  1.1463
 8918SOL    HW138408   1.396   6.139   7.198  1.7504 -2.4655  0.1045
 8918SOL    HW238409   1.504   6.196   7.090 -0.6706  2.7243  0.2646
 8919SOL     OW38410   9.835   5.357   3.639 -0.1096 -0.2689  0.0947
 8919SOL    HW138411   9.918   5.308   3.611  0.5234  0.5134  0.5651
 8919SOL    HW238412   9.775   5.295   3.689 -1.1743 -1.6473 -2.7604
 8920SOL     OW38413   1.609   0.826   1.591  0.7436 -0.7174 -0.2950
 8920SOL    HW138414   1.670   0.822   1.670 -0.5002  1.2360  0.7789
 8920SOL    HW238415   1.638   0.900   1.530 -3.1663  3.4028  2.5229
 8921SOL     OW38416   7.099   8.758   2.827  0.5663 -0.4466 -0.4800
 8921SOL    HW138417   7.170   8.802   2.772 -0.4622  1.3832 -0.3961
 8921SOL    HW238418   7.026   8.725   2.767  0.9158 -1.2580 -0.4654
 8922SOL     OW38419   5.466   9.156   5.788 -0.0988 -0.1439  0.7344
 8922SOL    HW138420   5.487   9.249   5.756 -2.2742  0.1940  0.2220
 8922SOL    HW238421   5.466   9.154   5.888  0.4191  0.3046  0.7414
 8923SOL     OW38422   7.643   3.097   0.278  0.0109  0.2392 -0.1726
 8923SOL    HW138423   7.706   3.134   0.347  1.7033 -0.0943 -1.4902
 8923SOL    HW238424   7.610   3.171   0.220  1.7004  0.0229 -1.4541
 8924SOL     OW38425   4.356   1.199   4.512  0.4487  0.2088  0.3307
 8924SOL    HW138426   4.354   1.280   4.453 -0.6290 -0.9715 -1.3154
 8924SOL    HW238427   4.264   1.179   4.543  0.6538 -0.5973  0.4213
 8925SOL     OW38428   8.306   1.823   4.108 -0.0217  0.0785  0.1750
 8925SOL    HW138429   8.214   1.855   4.128 -0.0884 -0.9777  1.5964
 8925SOL    HW238430   8.306   1.724   4.100  0.3917  0.3052 -3.1377
 8926SOL     OW38431   6.236   1.193   1.306  0.1521 -0.3502  0.1045
 8926SOL    HW138432   6.293   1.192   1.388 -2.0250 -0.6710  1.6764
 8926SOL    HW238433   6.188   1.105   1.297 -1.7099  0.6295  0.0446
 8927SOL     OW38434   8.631   8.292   2.309 -0.4052  0.2154  0.1286
 8927SOL    HW138435   8.579   8.259   2.230  2.1433  1.2224 -2.0365
 8927SOL    HW238436   8.591   8.378   2.341 -0.3550  0.7463 -1.2215
 8928SOL     OW38437   2.460   5.363   3.778  0.1613 -0.1176  0.0088
 8928SOL    HW138438   2.414   5.334   3.862 -1.8651  0.3223 -0.9162
 8928SOL    HW238439   2.455   5.462   3.769  1.5068 -0.0360 -0.0123
 8929SOL     OW38440   2.597   9.385   1.557 -0.0105  0.3412 -0.4871
 8929SOL    HW138441   2.520   9.435   1.596  0.2765  1.8152 -1.7411
 8929SOL    HW238442   2.564   9.300   1.515 -0.6151 -0.1478  0.9663
 8930SOL     OW38443   4.414   5.858   3.957 -0.3444 -0.7912 -0.0028
 8930SOL    HW138444   4.344   5.847   3.886 -1.5838 -0.3876  1.1366
 8930SOL    HW238445   4.455   5.948   3.948  0.9090 -1.4763 -1.4306
 8931SOL     OW38446   8.870   8.184   5.488 -0.0823  0.0275  0.1925
 8931SOL    HW138447   8.837   8.198   5.395 -0.8038  0.4810  0.5139
 8931SOL    HW238448   8.867   8.270   5.538 -1.4574 -0.5828  1.1981
 8932SOL     OW38449   3.123   9.066   5.649  0.2473 -0.0244 -0.0555
 8932SOL    HW138450   3.099   9.105   5.560 -1.6963 -1.0237  0.0072
 8932SOL    HW238451   3.120   9.137   5.719 -1.4891  0.1066 -0.2480
 8933SOL     OW38452   9.736   5.867   2.087 -0.0386 -0.3260  0.8469
 8933SOL    HW138453   9.788   5.949   2.110 -0.6158  0.3523 -0.2443
 8933SOL    HW238454   9.794   5.805   2.033 -0.8113  1.1213 -1.7143
 8934SOL     OW38455   6.434   1.225   1.511  0.1334 -0.0451  0.1005
 8934SOL    HW138456   6.503   1.241   1.440 -0.6072 -0.3913 -0.6984
 8934SOL    HW238457   6.475   1.169   1.584  0.2940 -1.5099 -1.0716
 8935SOL     OW38458   2.242   2.613   5.162 -0.0051  0.0795 -0.1498
 8935SOL    HW138459   2.162   2.672   5.170  0.7678  1.1107  0.0595
 8935SOL    HW238460   2.252   2.583   5.067  0.4941  1.5564 -0.5668
 8936SOL     OW38461   4.106   9.875   2.107 -0.4777  0.1646 -0.2845
 8936SOL    HW138462   4.029   9.813   2.093 -0.4047 -0.3558  1.4377
 8936SOL    HW238463   4.072   9.965   2.135 -0.5136  0.4054 -1.0899
 8937SOL     OW38464   8.687   3.916   4.149 -0.0024  0.1534 -0.7953
 8937SOL    HW138465   8.635   3.864   4.217 -0.9463 -0.6470 -2.0860
 8937SOL    HW238466   8.765   3.961   4.192  0.2429 -1.5192  0.5349
 8938SOL     OW38467   9.191   8.553   7.129  0.1193  0.1736 -0.7066
 8938SOL    HW138468   9.204   8.456   7.110 -0.2145  0.0828 -0.4952
 8938SOL    HW238469   9.191   8.605   7.044  1.3885  0.1292 -0.7496
 8939SOL     OW38470   9.975   0.130   4.162  0.6087  0.0460  0.0089
 8939SOL    HW138471   9.940   0.190   4.090  1.9240  0.1536 -0.5539
 8939SOL    HW238472   9.944   0.036   4.145 -0.7048  0.3881  0.3998
 8940SOL     OW38473   4.808   6.469   0.145  0.7976  0.7014  0.0947
 8940SOL    HW138474   4.863   6.509   0.072  0.4521  0.0254 -0.5504
 8940SOL    HW238475   4.799   6.371   0.129  0.1837  0.6558  0.7054
 8941SOL     OW38476   8.231   4.851   6.182 -0.0514  0.0995  0.9628
 8941SOL    HW138477   8.292   4.923   6.215  0.5215 -0.0421  0.2189
 8941SOL    HW238478   8.199   4.796   6.260 -0.4545  1.1245  1.5245
 8942SOL     OW38479   2.625   9.725   5.260 -0.0732  0.0482  0.2777
 8942SOL    HW138480   2.698   9.669   5.221 -0.9754  0.0452 -1.4354
 8942SOL    HW238481   2.600   9.689   5.350  0.0129 -1.7125 -0.3829
 8943SOL     OW38482   4.222   4.895   7.302  0.2125  0.3812 -0.2331
 8943SOL    HW138483   4.262   4.967   7.246  1.9376  0.6917  1.3010
 8943SOL    HW238484   4.238   4.916   7.399 -1.8110 -0.6205  0.3450
 8944SOL     OW38485   1.204   2.152   3.629 -0.6832  0.7009 -0.8980
 8944SOL    HW138486   1.188   2.144   3.531 -1.2954  0.7009 -0.8031
 8944SOL    HW238487   1.227   2.063   3.667  0.7420  0.9188 -1.2438
 8945SOL     OW38488   8.826   8.208   2.078  0.0658  0.0045 -0.2343
 8945SOL    HW138489   8.771   8.229   2.158 -2.0152 -2.2966 -0.9878
 8945SOL    HW238490   8.896   8.141   2.103  0.1909  0.1962 -0.0720
 8946SOL     OW38491   0.785   4.106   0.906  0.2954  0.1048  0.3702
 8946SOL    HW138492   0.818   4.161   0.830 -0.6365  0.6366  0.3441
 8946SOL    HW238493   0.843   4.119   0.986  0.3468  0.7617  0.2220
 8947SOL     OW38494   4.559   6.038   9.923  0.2282 -0.1929 -0.3326
 8947SOL    HW138495   4.658   6.028   9.915 -0.0062 -1.0033 -2.5594
 8947SOL    HW238496   4.537   6.131   9.954  1.6160  1.0181 -2.7798
 8948SOL     OW38497   5.978   8.064   3.033 -0.6413 -0.0197 -0.0553
 8948SOL    HW138498   5.967   8.034   3.128  1.2420 -1.9878 -0.4235
 8948SOL    HW238499   5.958   8.162   3.026  0.9547  0.5493  2.7108
 8949SOL     OW38500   7.778   2.068   3.646  0.4283  0.3528 -0.6148
 8949SOL    HW138501   7.774   2.151   3.703  1.2716  0.5485 -0.8234
 8949SOL    HW238502   7.714   2.000   3.681  0.6704  0.6109  0.3529
 8950SOL     OW38503   9.489   3.310   3.832 -0.1143 -0.4761 -0.0991
 8950SOL    HW138504   9.555   3.259   3.886  0.1242  0.3879  0.4362
 8950SOL    HW238505   9.397   3.297   3.869 -0.1003 -0.8023 -0.1819
 8951SOL     OW38506   8.755   0.208   6.321  0.0040  0.2670  0.1883
 8951SOL    HW138507   8.712   0.297   6.307 -0.3186 -0.0141 -0.6679
 8951SOL    HW238508   8.827   0.216   6.390  0.0051  1.2006  0.0847
 8952SOL     OW38509   6.677   7.252   3.015  0.4695  0.5488  0.0953
 8952SOL    HW138510   6.662   7.246   2.917 -0.0791  1.2029  0.1436
 8952SOL    HW238511   6.710   7.163   3.049  1.4604  0.5609 -0.8089
 8953SOL     OW38512   9.189   3.045   3.235 -0.1015 -0.0595 -0.3339
 8953SOL    HW138513   9.221   3.107   3.307  1.1463  0.8260 -1.6318
 8953SOL    HW238514   9.244   2.962   3.237  0.1483  0.1024 -0.4835
 8954SOL     OW38515   3.996   0.849   1.114  0.0183  0.2499 -0.2903
 8954SOL    HW138516   3.947   0.900   1.043  2.3184  3.0562  0.0361
 8954SOL    HW238517   3.966   0.880   1.204  0.9463  0.5432 -0.0801
 8955SOL     OW38518   6.973   2.771   1.105  0.0413 -0.1194  0.6844
 8955SOL    HW138519   7.021   2.834   1.045 -0.0070  0.6170  1.4129
 8955SOL    HW238520   6.968   2.681   1.062 -0.2780  0.4765 -0.5538
 8956SOL     OW38521   2.833   5.552   3.014 -1.0893 -0.2909  0.4265
 8956SOL    HW138522   2.786   5.464   3.000 -1.3174 -0.2071  0.6470
 8956SOL    HW238523   2.919   5.536   3.062 -1.1007 -0.4017  0.4113
 8957SOL     OW38524   2.292   5.673   4.484 -0.5030  0.2539 -0.1411
 8957SOL    HW138525   2.316   5.737   4.410  2.5591  0.5403  1.0556
 8957SOL    HW238526   2.300   5.719   4.572  2.7797 -1.9866  0.8169
 8958SOL     OW38527   2.970   7.752   0.785  0.3629 -0.8570 -0.0083
 8958SOL    HW138528   2.955   7.836   0.733  2.1249 -0.7833 -0.4174
 8958SOL    HW238529   2.930   7.675   0.736 -1.3925 -0.2786  0.4332
 8959SOL     OW38530   0.962   4.432   4.753  0.3977 -0.6955  0.5647
 8959SOL    HW138531   0.872   4.399   4.725  0.4526 -0.7253  0.4217
 8959SOL    HW238532   1.015   4.456   4.672 -0.1397  1.0530  0.7023
 8960SOL     OW38533   2.043   3.483   3.789  0.2203 -0.0736 -0.2171
 8960SOL    HW138534   1.980   3.547   3.745 -0.4228 -1.5095 -1.4293
 8960SOL    HW238535   2.131   3.529   3.805 -0.3365  1.2114 -0.7677
 8961SOL     OW38536   8.583   8.006   4.874 -0.4106 -0.2155  0.3189
 8961SOL    HW138537   8.583   7.972   4.969 -0.2694 -0.6041  0.1798
 8961SOL    HW238538   8.489   8.017   4.843 -0.4532 -1.5260 -0.0104
 8962SOL     OW38539   2.834   1.527   2.711  0.0325  0.2948  0.4244
 8962SOL    HW138540   2.905   1.559   2.773  0.5345 -0.7109  0.3787
 8962SOL    HW238541   2.840   1.578   2.625  2.4599 -1.6165 -0.5958
 8963SOL     OW38542   6.647   9.550   4.057  0.7932 -0.6111 -0.1221
 8963SOL    HW138543   6.674   9.645   4.039 -1.3766  0.3135  1.3414
 8963SOL    HW238544   6.582   9.548   4.133 -1.3963 -3.0099 -2.0034
 8964SOL     OW38545   0.364   3.872   5.698 -0.4590 -0.0524  0.4649
 8964SOL    HW138546   0.284   3.917   5.738  0.1617 -0.6956  2.4780
 8964SOL    HW238547   0.426   3.844   5.770  1.3508 -0.0609 -1.0474
 8965SOL     OW38548   8.621   0.915   2.028  0.1152 -0.1155  0.1246
 8965SOL    HW138549   8.637   0.941   2.124 -0.6783  1.8383 -0.2404
 8965SOL    HW238550   8.693   0.953   1.971 -0.6925  0.7079 -0.3444
 8966SOL     OW38551   4.625   7.866   2.852  0.0298  0.2210 -0.1042
 8966SOL    HW138552   4.668   7.823   2.772  0.0915 -1.0556  0.5962
 8966SOL    HW238553   4.684   7.938   2.887  1.8277 -1.7993  1.1071
 8967SOL     OW38554   8.857   6.032   6.106  0.4420  0.2023  0.2321
 8967SOL    HW138555   8.849   6.039   6.205 -0.7777  0.6831  0.1121
 8967SOL    HW238556   8.936   6.085   6.074  0.2070  0.9157  0.8412
 8968SOL     OW38557   7.906   5.289   6.366 -0.1271  0.0173  0.8363
 8968SOL    HW138558   7.870   5.345   6.440 -0.5346  0.2815  0.4405
 8968SOL    HW238559   7.842   5.289   6.290  0.6785  0.4437  0.1449
 8969SOL     OW38560   3.805   7.195   3.759  0.6284 -0.3852 -0.0626
 8969SOL    HW138561   3.894   7.217   3.718  0.4306 -0.3288 -0.4616
 8969SOL    HW238562   3.732   7.226   3.699  0.3358 -0.2938  0.3408
 8970SOL     OW38563   2.347   7.966   6.620  0.2426  0.6515  0.1887
 8970SOL    HW138564   2.321   7.994   6.527 -1.4215 -1.0348  0.1062
 8970SOL    HW238565   2.313   8.033   6.686 -0.4277  0.7764 -0.2771
 8971SOL     OW38566   8.894   7.480   4.701 -0.3680  0.5711  0.0565
 8971SOL    HW138567   8.970   7.505   4.642 -0.0690 -0.7697 -0.1305
 8971SOL    HW238568   8.833   7.559   4.712  0.6917  1.4484 -0.3175
 8972SOL     OW38569   9.699   1.543   7.824  0.4385 -0.3086  0.6216
 8972SOL    HW138570   9.643   1.473   7.868  0.6200  0.2189  1.6888
 8972SOL    HW238571   9.659   1.566   7.735 -0.1204 -1.1135  0.6558
 8973SOL     OW38572   4.744   1.941   6.989 -0.3457  0.0401  0.1695
 8973SOL    HW138573   4.777   2.034   7.005 -1.4041  0.0884  2.2324
 8973SOL    HW238574   4.737   1.925   6.890  0.3709  1.9471 -0.2219
 8974SOL     OW38575   7.936   9.641   6.398  0.2972 -0.7176 -0.0598
 8974SOL    HW138576   7.892   9.614   6.484  0.7423  0.0933  0.4259
 8974SOL    HW238577   8.030   9.605   6.396  0.4554 -0.3084  0.0159
 8975SOL     OW38578   9.684   9.736   2.962  0.1941  0.1561 -0.0425
 8975SOL    HW138579   9.611   9.751   2.895 -1.0351 -0.0846  1.2255
 8975SOL    HW238580   9.728   9.648   2.943  0.3109  0.4028 -0.9513
 8976SOL     OW38581   5.299   4.418   1.283 -0.7856 -0.0099 -0.5426
 8976SOL    HW138582   5.292   4.335   1.339 -0.5713 -0.7517 -1.6003
 8976SOL    HW238583   5.294   4.393   1.186 -0.7347  1.2212 -0.8664
 8977SOL     OW38584   4.580   8.388   6.982 -0.2852 -0.2071 -0.1701
 8977SOL    HW138585   4.680   8.388   6.993 -0.2361  0.1649 -0.6076
 8977SOL    HW238586   4.547   8.294   6.972 -0.1763 -0.4779  1.8113
 8978SOL     OW38587   0.717   5.751   7.437 -0.2559 -0.2645  0.2763
 8978SOL    HW138588   0.774   5.691   7.381 -1.4390  0.7235 -2.0387
 8978SOL    HW238589   0.651   5.696   7.487 -0.5958 -1.0114 -0.9661
 8979SOL     OW38590   0.140   1.962   4.797  0.5490 -0.1708 -0.4243
 8979SOL    HW138591   0.191   1.979   4.881  0.1421 -1.7660  0.1702
 8979SOL    HW238592   0.199   1.912   4.733  1.0355  1.5099 -1.3097
 8980SOL     OW38593   6.939   3.750   0.269  0.1322 -1.2561 -0.6248
 8980SOL    HW138594   6.943   3.657   0.231  0.6665 -2.6313  2.6178
 8980SOL    HW238595   6.845   3.771   0.298  0.1131 -0.9979 -0.8740
 8981SOL     OW38596   3.515   1.433   6.019 -0.1775 -0.1126 -0.6054
 8981SOL    HW138597   3.545   1.525   5.997  0.8409 -0.3590 -0.2712
 8981SOL    HW238598   3.442   1.436   6.088  0.4570  0.4007  0.0472
 8982SOL     OW38599   9.100   6.504   5.179 -1.1318 -0.1059 -0.4932
 8982SOL    HW138600   9.071   6.463   5.266  0.9691  0.7105  0.6244
 8982SOL    HW238601   9.165   6.443   5.134  0.4244  1.0471  0.1823
 8983SOL     OW38602   1.629   2.886   5.649  0.2574  0.1360 -0.0367
 8983SOL    HW138603   1.665   2.929   5.732  1.3754 -0.3069 -0.2892
 8983SOL    HW238604   1.573   2.807   5.674  1.3853 -0.5813  0.2730
 8984SOL     OW38605   9.000   1.605   3.346  0.3689 -0.3823 -0.3095
 8984SOL    HW138606   8.933   1.551   3.296 -0.8803 -0.5500  1.4820
 8984SOL    HW238607   8.956   1.688   3.381  1.4053  0.1029 -0.1389
 8985SOL     OW38608   3.161   0.973   7.403 -0.3255  0.2383  0.6723
 8985SOL    HW138609   3.200   0.982   7.311  2.3505  1.1449  1.8616
 8985SOL    HW238610   3.100   0.894   7.405  0.0882 -0.1978 -1.7068
 8986SOL     OW38611   7.829   2.487   4.313 -0.0433 -0.3096  0.5120
 8986SOL    HW138612   7.783   2.573   4.336  0.3553  0.1426 -0.3448
 8986SOL    HW238613   7.902   2.470   4.379 -0.7133 -0.4669  1.2261
 8987SOL     OW38614   2.308   7.849   2.637 -0.1308  0.0494  0.6562
 8987SOL    HW138615   2.384   7.813   2.691  0.7331  0.1919 -0.4590
 8987SOL    HW238616   2.263   7.774   2.589  0.4273  0.1947 -0.0975
 8988SOL     OW38617   4.444   9.014   9.925  0.3601 -0.3672  0.4470
 8988SOL    HW138618   4.476   9.105   9.949 -0.3526 -0.7887  3.1405
 8988SOL    HW238619   4.406   9.015   9.832 -1.1361  2.4629  1.0465
 8989SOL     OW38620   1.368   0.168   2.150  0.1096  0.6782  0.5282
 8989SOL    HW138621   1.309   0.161   2.070 -1.0542  0.6096  1.3902
 8989SOL    HW238622   1.353   0.256   2.196 -0.2174  0.1468  1.4450
 8990SOL     OW38623   5.030   3.853   1.695  0.2570 -0.1292  0.3857
 8990SOL    HW138624   4.986   3.913   1.761  2.4883  0.4856  1.3843
 8990SOL    HW238625   4.980   3.766   1.690 -1.8786  1.0706  0.3496
 8991SOL     OW38626   6.817   6.627   6.613  0.0354  0.1034  0.8934
 8991SOL    HW138627   6.819   6.584   6.704 -1.7828 -0.9539  0.4517
 8991SOL    HW238628   6.792   6.559   6.545 -1.1285  1.4614 -0.0598
 8992SOL     OW38629   3.993   1.292   3.767 -0.2342 -0.6857  0.6055
 8992SOL    HW138630   4.060   1.323   3.834 -1.0892  1.2160  0.6127
 8992SOL    HW238631   3.999   1.348   3.685 -3.3740  1.0570  1.5108
 8993SOL     OW38632   9.751   9.734   4.866 -0.0584  0.2036  0.2430
 8993SOL    HW138633   9.722   9.829   4.853  0.0849  0.1903 -0.1604
 8993SOL    HW238634   9.797   9.725   4.954 -0.2934  0.4547  0.3934
 8994SOL     OW38635   7.901   3.688   1.041 -0.7419 -0.0218 -0.2494
 8994SOL    HW138636   7.869   3.639   0.959 -0.2839  1.2040 -1.1811
 8994SOL    HW238637   7.853   3.775   1.047  0.4138  0.6073 -0.1178
 8995SOL     OW38638   0.283   8.910   2.929 -0.1209 -0.0115  0.7013
 8995SOL    HW138639   0.198   8.954   2.901 -0.0319  0.4163  1.1074
 8995SOL    HW238640   0.270   8.810   2.930 -0.4602  0.0288  0.2521
 8996SOL     OW38641   5.210   4.632   0.821 -0.3512 -0.1752 -0.5715
 8996SOL    HW138642   5.128   4.683   0.844  0.9177  2.4248 -1.6742
 8996SOL    HW238643   5.290   4.674   0.865  0.6944 -1.3517 -1.2984
 8997SOL     OW38644   1.812   2.964   0.248  0.6499  1.0604  0.2180
 8997SOL    HW138645   1.758   2.901   0.192 -1.7499  0.8299  2.7021
 8997SOL    HW238646   1.788   3.058   0.225 -1.6279  0.9501  2.0320
 8998SOL     OW38647   0.522   8.523   1.519  1.0974  0.5950  0.0281
 8998SOL    HW138648   0.509   8.551   1.614  0.0062  0.3248 -0.0309
 8998SOL    HW238649   0.532   8.603   1.461  2.9812  0.7381  0.5295
 8999SOL     OW38650   9.058   3.803   6.506 -0.4143 -0.0054 -0.4895
 8999SOL    HW138651   9.132   3.817   6.573 -0.7416  0.8247 -0.3005
 8999SOL    HW238652   9.080   3.724   6.448 -0.4852 -1.2104  1.0879
 9000SOL     OW38653   7.520   7.650   8.180 -0.0042  0.0173 -0.6995
 9000SOL    HW138654   7.487   7.637   8.086 -2.2241 -0.1589  0.0755
 9000SOL    HW238655   7.504   7.566   8.233 -2.5676  1.4544  0.9065
 9001SOL     OW38656   3.894   5.656   0.248  0.1245 -0.8470 -0.3266
 9001SOL    HW138657   3.831   5.723   0.288  0.7837  0.3673 -1.2598
 9001SOL    HW238658   3.978   5.652   0.302  0.3138 -0.4848 -0.5872
 9002SOL     OW38659   1.984   1.353   5.238 -0.0066 -0.4416 -0.1816
 9002SOL    HW138660   2.051   1.338   5.311  0.8627 -0.4229 -0.9667
 9002SOL    HW238661   1.975   1.270   5.183 -1.7421 -0.9307  0.8184
 9003SOL     OW38662   8.737   9.636   6.542  0.5728 -0.4145 -0.3260
 9003SOL    HW138663   8.706   9.726   6.572  2.8335  0.2473  0.1311
 9003SOL    HW238664   8.688   9.608   6.460 -0.2745  1.1373 -0.3506
 9004SOL     OW38665   8.179   5.210   4.630  0.7111  0.6411  0.0095
 9004SOL    HW138666   8.199   5.197   4.728  0.8599  0.2535 -0.0729
 9004SOL    HW238667   8.123   5.292   4.619  2.2144  1.7422  0.2522
 9005SOL     OW38668   7.260   5.780   6.762  0.2949  0.6760  0.1164
 9005SOL    HW138669   7.168   5.741   6.755  0.5648 -0.2235  1.4875
 9005SOL    HW238670   7.288   5.816   6.673 -0.8647 -0.2223 -0.6207
 9006SOL     OW38671   9.454   6.819   4.344 -0.2417  0.9166 -0.1788
 9006SOL    HW138672   9.538   6.872   4.345  0.1903  0.2158  1.8120
 9006SOL    HW238673   9.406   6.829   4.431 -2.3607  1.5048 -1.3793
 9007SOL     OW38674   9.863   1.656   4.158  0.1457 -0.1763 -0.0855
 9007SOL    HW138675   9.772   1.651   4.118  0.7180 -1.5737 -1.2653
 9007SOL    HW238676   9.889   1.566   4.194  1.6152 -0.1524 -1.0376
 9008SOL     OW38677   5.913   0.179   5.437  0.0089  0.2516 -0.0229
 9008SOL    HW138678   5.933   0.122   5.358 -1.3603  1.0203 -0.9631
 9008SOL    HW238679   5.871   0.265   5.406 -0.7280  0.4772  1.5450
 9009SOL     OW38680   3.147   2.252   3.518  0.8254  0.9185  0.2482
 9009SOL    HW138681   3.094   2.324   3.472  0.9996  1.3078  0.6637
 9009SOL    HW238682   3.147   2.267   3.616  2.4971  1.4440  0.1827
 9010SOL     OW38683   9.868   3.731   3.296  0.0475 -0.3216 -0.5854
 9010SOL    HW138684   9.880   3.781   3.210 -1.1498 -0.2935 -0.7399
 9010SOL    HW238685   9.882   3.633   3.279 -1.7764 -0.5021 -1.1620
 9011SOL     OW38686   8.441   6.797   6.170  0.2607 -0.9094  0.0098
 9011SOL    HW138687   8.478   6.722   6.115 -0.2350 -0.5295 -0.8446
 9011SOL    HW238688   8.389   6.759   6.247  0.7520 -1.4391  0.0834
 9012SOL     OW38689   4.550   8.687   7.115  0.5147 -0.0312  0.0918
 9012SOL    HW138690   4.608   8.768   7.118  0.4490  0.0591 -0.9464
 9012SOL    HW238691   4.467   8.707   7.064  1.5956 -1.4184 -2.3127
 9013SOL     OW38692   8.912   8.410   2.786  0.5139 -0.4301  0.2778
 9013SOL    HW138693   8.953   8.395   2.696  1.5294 -1.2421  0.8636
 9013SOL    HW238694   8.841   8.341   2.802  1.3922 -1.2392  0.7218
 9014SOL     OW38695   7.966   4.960   2.941  0.1992 -0.2139 -0.4091
 9014SOL    HW138696   7.946   4.924   3.032 -0.5455  2.1363  0.3746
 9014SOL    HW238697   7.977   5.059   2.946 -2.8679  0.3609 -3.3486
 9015SOL     OW38698   3.566   4.538   2.588  0.7088  0.1453  0.5421
 9015SOL    HW138699   3.533   4.575   2.675 -0.7782  0.8186 -0.2992
 9015SOL    HW238700   3.538   4.598   2.513  0.2321 -1.4762 -0.6068
 9016SOL     OW38701   9.950   9.114   4.751  0.5107 -0.4753 -0.2786
 9016SOL    HW138702  10.022   9.052   4.720  2.0881  0.4675  1.3329
 9016SOL    HW238703   9.927   9.178   4.678  1.2741 -0.8188 -0.8291
 9017SOL     OW38704   1.469   7.064   5.175  0.1335 -0.7339 -0.1712
 9017SOL    HW138705   1.514   6.987   5.131  0.7932 -0.0536 -0.6999
 9017SOL    HW238706   1.536   7.136   5.192 -0.2126 -0.7984  1.5135
 9018SOL     OW38707   9.043   8.718   6.022  0.3010 -0.1743  0.8138
 9018SOL    HW138708   8.983   8.793   6.049  2.2460  1.5813  0.4462
 9018SOL    HW238709   9.118   8.709   6.088  0.3898 -1.4277  0.5552
 9019SOL     OW38710   4.619   0.763   7.814 -0.3765  0.3012 -0.3077
 9019SOL    HW138711   4.527   0.791   7.785 -0.4235  0.6696  0.2007
 9019SOL    HW238712   4.612   0.714   7.901 -0.0393  0.6937 -0.0641
 9020SOL     OW38713   7.878   0.137   5.213 -0.1194  0.6198 -0.2358
 9020SOL    HW138714   7.940   0.184   5.150  2.8858 -2.2069  0.5081
 9020SOL    HW238715   7.860   0.044   5.179 -0.7778  0.0470  1.6259
 9021SOL     OW38716   7.324   0.919   4.040  0.0297 -0.0760 -0.5186
 9021SOL    HW138717   7.240   0.955   4.000  0.1061  0.5001 -0.1754
 9021SOL    HW238718   7.389   0.994   4.053 -0.0255 -0.2332  0.7391
 9022SOL     OW38719   2.555   7.846   4.765  0.0569 -0.2739  0.2874
 9022SOL    HW138720   2.538   7.944   4.776 -1.5754 -0.7617  2.5167
 9022SOL    HW238721   2.519   7.815   4.676  1.2916  1.2563 -0.7745
 9023SOL     OW38722   2.845   0.521   0.737 -0.1007 -0.4785 -0.5556
 9023SOL    HW138723   2.757   0.523   0.785  0.0441  0.7834 -0.3218
 9023SOL    HW238724   2.859   0.431   0.697  0.9796 -2.4931  4.0015
 9024SOL     OW38725   5.866   7.493   5.049 -0.2187 -0.6437 -0.6345
 9024SOL    HW138726   5.909   7.581   5.031  1.3759 -1.6180 -1.7593
 9024SOL    HW238727   5.906   7.423   4.988 -0.5005 -2.3960  1.1296
 9025SOL     OW38728   2.409   8.799   1.408 -0.4296 -0.3322 -0.0431
 9025SOL    HW138729   2.501   8.765   1.390  0.5797  3.1646 -2.0702
 9025SOL    HW238730   2.399   8.823   1.504  0.7961 -0.7230  0.1796
 9026SOL     OW38731   2.470   1.088   4.720 -0.3659 -0.0946  0.2738
 9026SOL    HW138732   2.489   1.169   4.664 -0.4665 -0.4856 -0.3279
 9026SOL    HW238733   2.373   1.067   4.716 -0.0891 -1.1795 -0.8461
 9027SOL     OW38734   9.508   6.885   2.870  0.1414  0.4079 -0.0036
 9027SOL    HW138735   9.553   6.970   2.841 -0.3897  0.4118 -0.8178
 9027SOL    HW238736   9.558   6.807   2.832  0.9681  0.3201  1.2120
 9028SOL     OW38737   4.770   1.300   7.649  0.2443  0.3241  0.2046
 9028SOL    HW138738   4.742   1.248   7.568  1.7822  1.0156 -0.7910
 9028SOL    HW238739   4.699   1.367   7.671 -0.7254 -0.6711  0.1438
 9029SOL     OW38740   0.414   6.448   6.084  0.4905  0.0390  0.7274
 9029SOL    HW138741   0.384   6.501   6.004  0.8069 -1.0615 -0.1443
 9029SOL    HW238742   0.507   6.415   6.067  0.8763  0.4914  1.9193
 9030SOL     OW38743   9.460   8.574   4.175  0.1750  0.7325  0.0899
 9030SOL    HW138744   9.538   8.530   4.220 -0.6152 -0.3089  0.4670
 9030SOL    HW238745   9.379   8.515   4.183 -0.2197  0.9649 -1.8586
 9031SOL     OW38746   0.719   3.504   4.293  0.0819  0.1971  0.5257
 9031SOL    HW138747   0.765   3.508   4.205  0.9759  1.3673  1.0196
 9031SOL    HW238748   0.771   3.446   4.356 -0.4589 -0.4950  0.3334
 9032SOL     OW38749   4.296   3.419   0.824  0.4411 -0.2456  0.1667
 9032SOL    HW138750   4.367   3.461   0.880 -0.7115 -0.7568  2.0876
 9032SOL    HW238751   4.302   3.453   0.730  1.7910  1.4146  0.8285
 9033SOL     OW38752   1.036   3.781   7.065 -0.2989  0.2004 -0.1873
 9033SOL    HW138753   1.130   3.797   7.035 -0.3804  2.4383  0.6033
 9033SOL    HW238754   0.973   3.802   6.989 -0.2245  0.0869 -0.2800
 9034SOL     OW38755   5.914   1.474   0.804 -0.4993  0.3235  0.3267
 9034SOL    HW138756   5.831   1.419   0.803 -0.4706  0.2880 -0.9313
 9034SOL    HW238757   5.902   1.555   0.746  0.9431 -0.6280 -1.3663
 9035SOL     OW38758   0.374   1.511   0.845 -0.0568 -0.2371  0.0884
 9035SOL    HW138759   0.305   1.519   0.773  0.1983 -0.3637 -0.1703
 9035SOL    HW238760   0.458   1.472   0.807 -0.1205 -0.8650  0.5843
 9036SOL     OW38761   4.038   8.666   6.932  0.4799  0.4942 -0.2825
 9036SOL    HW138762   4.095   8.746   6.952 -0.3424  1.2323 -0.8193
 9036SOL    HW238763   4.093   8.595   6.888  0.9961  1.1775 -0.7479
 9037SOL     OW38764   2.275   5.690   6.646 -0.1988  0.8476 -0.4363
 9037SOL    HW138765   2.223   5.620   6.596  0.6471 -0.5085  0.5472
 9037SOL    HW238766   2.223   5.719   6.726  1.0253 -1.3989  1.2301
 9038SOL     OW38767   1.863   2.022   4.546  0.2518  0.5251 -0.1098
 9038SOL    HW138768   1.797   2.084   4.589  0.4209  0.1632  0.6689
 9038SOL    HW238769   1.822   1.931   4.535  1.1052 -0.0886  1.6814
 9039SOL     OW38770   0.566   1.629   0.555 -0.3809 -0.6847 -0.1848
 9039SOL    HW138771   0.471   1.605   0.535  0.1034 -1.3356 -1.7836
 9039SOL    HW238772   0.615   1.649   0.470  0.9585 -0.5230  0.5961
 9040SOL     OW38773   4.361   4.488   5.506  0.0491  0.3358 -0.2895
 9040SOL    HW138774   4.271   4.464   5.469  0.2714  0.5170 -0.9745
 9040SOL    HW238775   4.365   4.587   5.521  0.8811  0.6532 -2.3957
 9041SOL     OW38776   1.784   8.304   2.004 -0.3456 -0.1589  0.4951
 9041SOL    HW138777   1.742   8.301   2.095  1.2587 -0.3872  1.2399
 9041SOL    HW238778   1.852   8.377   2.000  0.8367 -1.2448  0.0482
 9042SOL     OW38779   8.490   2.989   4.960 -0.2518  0.4090 -0.1606
 9042SOL    HW138780   8.539   2.961   4.878  0.9398 -0.9683  0.9972
 9042SOL    HW238781   8.482   3.089   4.962  1.6668  0.5899 -0.8368
 9043SOL     OW38782   5.119   1.967   6.213 -0.0866 -0.0802 -0.0121
 9043SOL    HW138783   5.041   1.906   6.194 -0.1580  1.0467 -3.7758
 9043SOL    HW238784   5.185   1.961   6.138  2.7518  0.1464  2.3898
 9044SOL     OW38785   5.847   9.446   1.487 -0.1791  0.5020 -0.2076
 9044SOL    HW138786   5.946   9.454   1.477 -0.0625  1.3095  1.4316
 9044SOL    HW238787   5.822   9.349   1.494  0.7311  0.3797  1.5115
 9045SOL     OW38788   7.521   8.994   1.772  0.4569  0.2973  0.0347
 9045SOL    HW138789   7.559   8.918   1.719 -0.4438 -0.1044 -0.0410
 9045SOL    HW238790   7.504   8.964   1.866  1.2441  0.7634  0.3315
 9046SOL     OW38791   8.015   6.241   1.017 -0.1615  0.1489 -0.2906
 9046SOL    HW138792   8.100   6.251   0.964  0.1916 -3.5135 -0.5129
 9046SOL    HW238793   8.017   6.155   1.067 -2.8139  1.1010  1.5310
 9047SOL     OW38794   8.749   1.753   4.192  0.0979  0.1897  0.4461
 9047SOL    HW138795   8.818   1.693   4.150 -0.1454  0.8550 -0.9404
 9047SOL    HW238796   8.674   1.698   4.228 -0.2802 -0.3377 -1.1049
 9048SOL     OW38797   9.945   6.797   4.063  0.6249  0.5958  0.0038
 9048SOL    HW138798  10.038   6.831   4.074  0.9438 -0.0654 -0.5747
 9048SOL    HW238799   9.920   6.742   4.142  1.5044 -0.9658 -0.7725
 9049SOL     OW38800   8.751   5.264   3.972 -0.5859 -0.1211 -0.5497
 9049SOL    HW138801   8.660   5.231   3.998  0.1070 -1.8656 -0.2262
 9049SOL    HW238802   8.790   5.320   4.045 -1.1774  0.1729 -0.4629
 9050SOL     OW38803   3.953   2.223   1.649 -0.2101  0.2548  0.0178
 9050SOL    HW138804   4.024   2.256   1.587 -0.7155 -0.2531 -0.8315
 9050SOL    HW238805   3.993   2.208   1.740  1.0724 -1.2214 -0.7662
 9051SOL     OW38806   1.056   0.419   3.298  0.0818 -0.4908  0.1290
 9051SOL    HW138807   1.143   0.421   3.347 -0.2697  0.2235  0.7440
 9051SOL    HW238808   0.995   0.352   3.341 -1.2843  2.2103  2.5575
 9052SOL     OW38809   8.567   2.324   6.788 -0.1537  0.8341  0.1821
 9052SOL    HW138810   8.555   2.320   6.689  0.6604  0.8626  0.0846
 9052SOL    HW238811   8.648   2.272   6.815  0.8973  2.6649  0.6021
 9053SOL     OW38812   1.750   9.097   5.183 -0.3446  0.3493 -0.2335
 9053SOL    HW138813   1.727   9.100   5.085 -2.5805  1.2851  0.2872
 9053SOL    HW238814   1.758   9.190   5.219  3.3925  0.0343 -0.1390
 9054SOL     OW38815   7.498   4.460   3.642 -0.1681 -0.0553  0.0053
 9054SOL    HW138816   7.460   4.542   3.599 -1.3499 -0.6409 -0.0960
 9054SOL    HW238817   7.507   4.387   3.573 -2.9224 -1.2921  0.8510
 9055SOL     OW38818   8.574   1.147   5.501 -0.3177 -0.2095 -0.2735
 9055SOL    HW138819   8.552   1.070   5.442  0.1532 -0.8603  0.3957
 9055SOL    HW238820   8.537   1.131   5.593 -0.3953  0.4506 -0.1853
 9056SOL     OW38821   0.456   0.188   3.485 -0.4469 -0.3936 -0.1195
 9056SOL    HW138822   0.523   0.143   3.426  0.7350 -0.9474  1.6123
 9056SOL    HW238823   0.469   0.287   3.479 -0.6468 -0.4277 -1.1545
 9057SOL     OW38824   7.767   7.373   4.504 -0.5752  0.0503 -0.6247
 9057SOL    HW138825   7.853   7.342   4.462 -0.7405 -0.5168 -0.5460
 9057SOL    HW238826   7.706   7.295   4.517 -0.1583  0.0640  1.5550
 9058SOL     OW38827   9.911   8.778   4.345 -0.3457 -0.0080  0.1021
 9058SOL    HW138828   9.920   8.707   4.415  1.8336 -0.2148 -0.3451
 9058SOL    HW238829   9.826   8.765   4.295  0.1884 -2.5548 -0.2286
 9059SOL     OW38830   2.576   0.306   7.683 -0.4401 -0.0314  0.3730
 9059SOL    HW138831   2.569   0.335   7.587 -0.9218 -0.4259  0.2849
 9059SOL    HW238832   2.592   0.385   7.741 -1.5936  0.3936  0.1248
 9060SOL     OW38833   3.096   3.655   6.932 -0.0406  0.3016  0.1567
 9060SOL    HW138834   3.186   3.626   6.901  0.3585  0.7545  0.8809
 9060SOL    HW238835   3.073   3.744   6.892 -0.6676 -0.3418 -0.9484
 9061SOL     OW38836   8.806   4.431   0.519  0.5688  0.2210  0.1698
 9061SOL    HW138837   8.832   4.409   0.425  1.7000  1.8232  0.1017
 9061SOL    HW238838   8.864   4.380   0.582 -0.1116 -0.7623  0.0173
 9062SOL     OW38839   2.247   4.003   9.919  0.2772  0.0242 -0.0423
 9062SOL    HW138840   2.295   4.074   9.971  0.4230 -0.6599  0.7734
 9062SOL    HW238841   2.302   3.919   9.919 -0.4839 -0.4823  0.1070
 9063SOL     OW38842   9.449   6.999   1.879 -0.9404  0.3286  0.0602
 9063SOL    HW138843   9.362   7.042   1.906 -2.5957 -1.1436 -2.7663
 9063SOL    HW238844   9.435   6.901   1.867  1.6902 -0.2974  1.7244
 9064SOL     OW38845   1.056   6.018   0.142 -0.3306  1.0466  0.6058
 9064SOL    HW138846   1.059   6.083   0.218 -2.6573  1.4982  0.3506
 9064SOL    HW238847   1.074   5.926   0.176 -0.8383  1.3141  1.6266
 9065SOL     OW38848   0.376   5.372   5.579  0.5825 -0.2028  0.3020
 9065SOL    HW138849   0.292   5.325   5.605  0.5798 -0.7676 -0.7092
 9065SOL    HW238850   0.433   5.311   5.525  0.6587  0.8811 -0.8795
 9066SOL     OW38851   7.664   1.859   6.798  0.2242  0.2796  0.3623
 9066SOL    HW138852   7.742   1.830   6.854  0.1135  0.2141  0.4835
 9066SOL    HW238853   7.579   1.829   6.842  0.0808  1.3412  0.8096
 9067SOL     OW38854   3.969   2.048   6.452  0.4892 -0.1405 -0.1721
 9067SOL    HW138855   4.006   1.963   6.490  2.4784  0.1032 -1.4515
 9067SOL    HW238856   3.913   2.094   6.521  1.8594 -1.0066  1.5604
 9068SOL     OW38857   8.253   2.380   6.179  0.3220  0.4252 -0.6298
 9068SOL    HW138858   8.283   2.287   6.156  1.9704  0.4126  1.4745
 9068SOL    HW238859   8.158   2.377   6.212  0.1929 -0.4295 -1.0523
 9069SOL     OW38860   5.794   8.258   4.578 -0.2259  0.4320 -0.4256
 9069SOL    HW138861   5.823   8.222   4.666  1.3615  0.9195 -0.7392
 9069SOL    HW238862   5.727   8.195   4.537  1.2599 -1.3126 -0.2317
 9070SOL     OW38863   8.321   5.763   6.437  0.1835  0.3984 -0.5625
 9070SOL    HW138864   8.347   5.675   6.478  0.1107  0.5589 -0.1753
 9070SOL    HW238865   8.298   5.828   6.509 -1.3832  0.2431 -0.9039
 9071SOL     OW38866   1.359   8.672   4.500  0.0888 -0.1700  0.2162
 9071SOL    HW138867   1.364   8.767   4.469 -0.2138  0.1703  1.2179
 9071SOL    HW238868   1.337   8.613   4.422 -2.2206  0.8543  0.0690
 9072SOL     OW38869   4.240   8.421   3.565 -0.2265 -0.2288 -0.4747
 9072SOL    HW138870   4.311   8.387   3.626  0.2069 -0.0414 -0.8779
 9072SOL    HW238871   4.217   8.515   3.588 -0.4861 -0.3505 -0.2194
 9073SOL     OW38872   8.492   8.484   3.162  0.1687  0.1272  0.3460
 9073SOL    HW138873   8.441   8.570   3.167 -3.2118 -1.7956  0.3508
 9073SOL    HW238874   8.512   8.452   3.254 -0.0758  0.0405  0.3688
 9074SOL     OW38875   6.734   6.940   7.728 -0.2242 -0.0253 -0.0646
 9074SOL    HW138876   6.669   6.906   7.659  0.7741 -2.9081  0.3610
 9074SOL    HW238877   6.826   6.907   7.707  0.4295  0.6589  1.6150
 9075SOL     OW38878   9.605   7.405   0.170  0.1916  0.1396 -0.4912
 9075SOL    HW138879   9.626   7.361   0.083 -0.0329  0.8508 -0.9119
 9075SOL    HW238880   9.683   7.459   0.200 -0.1031  0.7376 -0.7835
 9076SOL     OW38881   3.243   2.786   4.044  0.1988 -0.0588 -0.0262
 9076SOL    HW138882   3.245   2.860   3.976  0.5685  0.5118  0.5957
 9076SOL    HW238883   3.227   2.699   3.998  3.5502 -0.1136 -1.2463
 9077SOL     OW38884   9.140   7.295   2.498  0.2414  0.0860  0.4600
 9077SOL    HW138885   9.049   7.289   2.460 -0.0249  0.1764  1.0687
 9077SOL    HW238886   9.207   7.304   2.425 -0.4987  3.3734  0.1027
 9078SOL     OW38887   1.800   7.491   3.026 -0.7525  0.4575 -0.1397
 9078SOL    HW138888   1.820   7.531   2.936 -0.6467 -1.0735 -0.8167
 9078SOL    HW238889   1.707   7.455   3.026 -2.4342  4.4409  1.8648
 9079SOL     OW38890   0.284   4.169   2.316 -0.1699  0.2653  0.7832
 9079SOL    HW138891   0.309   4.261   2.287 -0.8241  0.1842 -0.0540
 9079SOL    HW238892   0.202   4.140   2.267  0.5882 -1.1455  0.3366
 9080SOL     OW38893   2.941   7.343   6.783 -0.1156 -0.2554 -0.3244
 9080SOL    HW138894   2.862   7.365   6.727 -1.2581 -1.6750  0.7099
 9080SOL    HW238895   2.979   7.255   6.755 -0.1298 -0.5327  0.5136
 9081SOL     OW38896   0.852   0.454   1.626  0.0209 -0.3659 -0.0155
 9081SOL    HW138897   0.803   0.413   1.549 -0.4376  0.2791 -0.0739
 9081SOL    HW238898   0.815   0.546   1.643 -0.2162 -0.6997  1.2881
 9082SOL     OW38899   7.932   3.358   3.219  0.5728 -0.1610 -0.3720
 9082SOL    HW138900   7.968   3.420   3.149  0.1873 -1.2887 -1.5632
 9082SOL    HW238901   8.006   3.333   3.282  1.2924 -0.4337 -1.3162
 9083SOL     OW38902   7.350   5.191   6.856 -0.2711 -0.1832  0.1182
 9083SOL    HW138903   7.385   5.123   6.921 -3.1509 -0.0514  1.8896
 9083SOL    HW238904   7.411   5.270   6.854  0.5399 -0.7434  1.6949
 9084SOL     OW38905   9.833   9.753   5.771  0.2430 -0.3998 -0.1861
 9084SOL    HW138906   9.873   9.770   5.861 -1.9922 -0.2284  0.7993
 9084SOL    HW238907   9.807   9.657   5.763 -0.5597 -0.1783 -0.2404
 9085SOL     OW38908   8.526   4.587   2.750 -0.3880  0.2289 -0.3471
 9085SOL    HW138909   8.613   4.593   2.800  0.4891  0.1233 -1.8211
 9085SOL    HW238910   8.506   4.491   2.731  0.2451  0.3788 -1.8228
 9086SOL     OW38911   6.642   1.553   2.467  0.1655 -0.1948 -0.5064
 9086SOL    HW138912   6.627   1.459   2.498 -1.2416  0.7146  1.6992
 9086SOL    HW238913   6.581   1.614   2.517  2.1742  2.0970 -0.7701
 9087SOL     OW38914   9.533   0.422   3.797 -0.3825 -0.3873 -0.0638
 9087SOL    HW138915   9.453   0.477   3.774 -0.0698  1.2609  2.5245
 9087SOL    HW238916   9.504   0.343   3.853 -0.2688 -0.0314  0.5038
 9088SOL     OW38917   8.105   6.877   5.879  0.4195 -0.2937  0.0401
 9088SOL    HW138918   8.172   6.926   5.935  0.1057 -0.3387  0.4497
 9088SOL    HW238919   8.099   6.921   5.789  1.3015 -0.5352 -0.1399
 9089SOL     OW38920   9.634   9.464   6.913  0.2681  0.4959  0.5249
 9089SOL    HW138921   9.624   9.364   6.921  1.4387  0.4377  1.5607
 9089SOL    HW238922   9.665   9.500   7.001  1.9696  1.4984 -0.4611
 9090SOL     OW38923   4.401   8.382   1.922 -0.3243 -0.6600 -0.3263
 9090SOL    HW138924   4.380   8.299   1.870 -1.0666 -0.4051 -0.4261
 9090SOL    HW238925   4.367   8.462   1.875  0.3548 -0.2903 -0.2029
 9091SOL     OW38926   8.308   4.052   2.153 -0.2310  0.3034  0.0112
 9091SOL    HW138927   8.367   4.112   2.098  0.1675 -0.9881 -1.0086
 9091SOL    HW238928   8.221   4.039   2.106 -0.4551  0.3998  0.4080
 9092SOL     OW38929   1.978   8.845   4.620  0.4828  0.1868 -0.4238
 9092SOL    HW138930   2.037   8.764   4.628 -1.1954 -0.9657  0.6564
 9092SOL    HW238931   2.024   8.924   4.662  2.0166 -0.2590 -1.2362
 9093SOL     OW38932   6.733   8.227   2.165  0.1688  0.1967  0.4724
 9093SOL    HW138933   6.638   8.215   2.137  0.2663 -0.0188  0.2289
 9093SOL    HW238934   6.736   8.254   2.261 -0.1135 -0.5532  0.7024
 9094SOL     OW38935   2.564   8.870   6.122 -0.3175 -0.0924  0.1151
 9094SOL    HW138936   2.625   8.797   6.091  1.4581  0.8693  1.2307
 9094SOL    HW238937   2.495   8.831   6.184  0.0272 -0.9831 -0.0509
 9095SOL     OW38938   3.674   4.733   1.992 -0.3503  0.0232 -0.3367
 9095SOL    HW138939   3.720   4.661   1.939 -0.1227 -0.6644  0.7974
 9095SOL    HW238940   3.587   4.755   1.948 -0.3038 -0.7648 -0.8344
 9096SOL     OW38941   4.160   1.655   0.905 -0.4905  0.0545  0.3858
 9096SOL    HW138942   4.251   1.690   0.928 -0.3624  1.1361 -1.5701
 9096SOL    HW238943   4.100   1.732   0.880 -1.8546 -0.6729  1.3249
 9097SOL     OW38944   1.832   2.152   5.086  0.3454 -0.4847 -0.1011
 9097SOL    HW138945   1.926   2.185   5.096  0.4037 -1.1632  1.7784
 9097SOL    HW238946   1.827   2.056   5.113 -0.7988 -0.5906 -0.6589
 9098SOL     OW38947   6.443   1.608   3.935 -0.2419 -0.4319 -0.1620
 9098SOL    HW138948   6.359   1.651   3.968 -0.4487  0.1483 -1.3827
 9098SOL    HW238949   6.435   1.594   3.836  0.8834 -0.8788 -0.1895
 9099SOL     OW38950   0.575   3.823   9.735 -0.3426  0.5285  0.1595
 9099SOL    HW138951   0.552   3.791   9.643 -0.1672  2.6470 -0.6508
 9099SOL    HW238952   0.494   3.815   9.794  0.1365 -2.8927  0.4714
 9100SOL     OW38953   0.916   1.251   0.190 -0.1181  0.1017 -0.6490
 9100SOL    HW138954   0.913   1.162   0.234  1.3829 -0.9860 -2.6458
 9100SOL    HW238955   0.853   1.251   0.112  0.6685  0.4359 -1.2829
 9101SOL     OW38956   3.194   2.378   6.553  0.2893 -0.3304  0.2829
 9101SOL    HW138957   3.239   2.342   6.635 -2.9989  1.1696  2.8450
 9101SOL    HW238958   3.134   2.309   6.514  0.8912 -0.6271 -0.1175
 9102SOL     OW38959   6.408   9.749   6.122  0.1301 -0.1494  0.4373
 9102SOL    HW138960   6.463   9.759   6.039 -0.1510  0.2694  0.2994
 9102SOL    HW238961   6.337   9.819   6.123 -0.4400 -0.7343  0.5882
 9103SOL     OW38962   4.344   0.188   5.229  0.1739  0.1872 -0.8414
 9103SOL    HW138963   4.289   0.271   5.218 -0.8079 -0.2373  0.6632
 9103SOL    HW238964   4.344   0.136   5.144 -0.0461  1.2155 -1.4810
 9104SOL     OW38965   8.633   0.190   8.144  0.1411 -0.6095  0.1867
 9104SOL    HW138966   8.695   0.237   8.208  1.3150 -1.4726 -0.2910
 9104SOL    HW238967   8.602   0.104   8.184  2.3803 -2.0755 -1.1176
 9105SOL     OW38968   4.600   4.508   6.448 -0.4329  0.1513  0.0911
 9105SOL    HW138969   4.543   4.454   6.509 -1.4169  0.2680 -0.7069
 9105SOL    HW238970   4.543   4.569   6.394  0.6969  2.2408  1.1960
 9106SOL     OW38971   2.386   1.793   6.019  0.0873 -0.2417 -0.0938
 9106SOL    HW138972   2.342   1.867   5.968  1.1336  1.0481  0.8312
 9106SOL    HW238973   2.386   1.816   6.117  3.6007  0.2710 -0.1454
 9107SOL     OW38974   7.464   4.405  10.056  0.2784 -0.3097 -0.2836
 9107SOL    HW138975   7.414   4.334  10.107  1.3399 -0.4338  0.6065
 9107SOL    HW238976   7.561   4.400  10.078  0.4309  1.1486 -0.5451
 9108SOL     OW38977   6.115   9.404   1.973 -0.0124  0.0225 -0.4634
 9108SOL    HW138978   6.183   9.399   2.046 -1.1313 -0.4569  0.5743
 9108SOL    HW238979   6.127   9.326   1.911 -0.2780 -0.6555  0.3219
 9109SOL     OW38980   9.928   0.017   1.594 -0.1081  0.3396  0.0693
 9109SOL    HW138981   9.973  -0.059   1.640  0.0740  0.4518  0.0794
 9109SOL    HW238982   9.829   0.002   1.592 -0.0323 -0.0906 -0.2950
 9110SOL     OW38983   2.715   3.497   1.699  0.0082  0.3234 -0.0121
 9110SOL    HW138984   2.806   3.465   1.724 -1.1316 -1.7702  1.6747
 9110SOL    HW238985   2.666   3.424   1.652 -0.5123  1.7531 -1.7749
 9111SOL     OW38986   5.939   9.028   6.208  0.0706  0.3991  0.6223
 9111SOL    HW138987   5.934   9.126   6.229  0.1592  0.2724  1.2243
 9111SOL    HW238988   5.981   9.016   6.118 -1.9351  1.0306 -0.4581
 9112SOL     OW38989   5.704   7.910   3.494 -0.4071  0.1562 -0.0423
 9112SOL    HW138990   5.760   7.839   3.537 -0.6762  0.9611  1.6982
 9112SOL    HW238991   5.607   7.889   3.510 -0.5172  0.3575 -0.4529
 9113SOL     OW38992   1.786   0.837   1.133 -0.6372  0.0688 -0.4237
 9113SOL    HW138993   1.802   0.917   1.190 -1.7205  0.1275 -0.1849
 9113SOL    HW238994   1.743   0.864   1.047 -0.8170 -0.2244 -0.4303
 9114SOL     OW38995   8.184   9.676   2.030  0.1010 -0.0745  0.3769
 9114SOL    HW138996   8.261   9.613   2.024 -1.0345 -1.3791 -1.1584
 9114SOL    HW238997   8.193   9.747   1.961 -0.8512 -1.1697 -0.9121
 9115SOL     OW38998   7.942   8.068   2.467  0.2515 -0.2424 -0.2699
 9115SOL    HW138999   7.949   8.092   2.370 -1.5379  1.0710 -0.1083
 9115SOL    HW239000   7.846   8.063   2.493  0.7146 -0.2591  1.5174
 9116SOL     OW39001   8.964   6.531   3.120  0.0336 -0.4831 -0.0203
 9116SOL    HW139002   9.057   6.565   3.137 -0.2355  1.4095 -2.0236
 9116SOL    HW239003   8.922   6.503   3.206  1.2928  1.7434  1.3691
 9117SOL     OW39004   8.485   8.272   0.648  0.1555 -0.1946 -0.5823
 9117SOL    HW139005   8.428   8.290   0.728  0.0865 -1.2393 -0.3858
 9117SOL    HW239006   8.442   8.201   0.591 -0.2914  1.2465 -2.0754
 9118SOL     OW39007   2.307   6.313   4.885 -0.1397 -0.0842  0.3320
 9118SOL    HW139008   2.315   6.244   4.957  0.0432  0.6263  1.0045
 9118SOL    HW239009   2.385   6.375   4.890 -0.7201  0.6570  0.2455
 9119SOL     OW39010   3.410   1.980   3.344 -0.3822 -0.2699 -0.0905
 9119SOL    HW139011   3.447   1.889   3.360  0.0065 -0.2350 -0.7598
 9119SOL    HW239012   3.407   2.031   3.430  1.4070 -0.1645 -0.0709
 9120SOL     OW39013   9.287   6.397   6.090  0.1594 -0.0465  0.1761
 9120SOL    HW139014   9.348   6.363   6.161  1.2708  0.1606 -0.6734
 9120SOL    HW239015   9.274   6.327   6.020 -0.5837 -0.0872  0.3449
 9121SOL     OW39016   8.738   0.207   2.885  0.1756  0.3167  0.1467
 9121SOL    HW139017   8.675   0.280   2.857 -0.3115 -0.1078  0.1177
 9121SOL    HW239018   8.829   0.225   2.848  0.0109  0.8080 -0.0241
 9122SOL     OW39019   2.113   9.991   6.168 -0.3849 -0.1996  0.0355
 9122SOL    HW139020   2.057  10.031   6.095  0.2261 -0.3983 -0.5372
 9122SOL    HW239021   2.126  10.060   6.240 -1.1684 -0.0756  0.0647
 9123SOL     OW39022   4.294   1.100   3.694 -0.6205 -0.1201  0.4864
 9123SOL    HW139023   4.196   1.082   3.708 -1.0370  1.0149 -0.8546
 9123SOL    HW239024   4.332   1.031   3.633 -0.9676  0.3962 -0.3179
 9124SOL     OW39025   0.925   1.790   5.885  0.2144 -0.0988 -0.4306
 9124SOL    HW139026   0.933   1.698   5.924 -0.3208  1.0781  2.5881
 9124SOL    HW239027   0.849   1.793   5.821  1.4264 -2.2292 -2.0046
 9125SOL     OW39028   0.954   8.235   7.037  0.4250 -0.1910 -0.9568
 9125SOL    HW139029   1.009   8.294   6.978  0.0407 -0.5306 -1.6576
 9125SOL    HW239030   0.936   8.282   7.123  1.1136  0.2501 -1.0503
 9126SOL     OW39031   9.883   0.832   5.456  0.0007  0.2923  0.2774
 9126SOL    HW139032   9.872   0.932   5.453  4.1575  0.8362  0.0858
 9126SOL    HW239033   9.897   0.798   5.363 -3.6638 -0.8530  0.0735
 9127SOL     OW39034   9.767   8.739   7.849 -0.5319 -0.4882 -0.4609
 9127SOL    HW139035   9.817   8.727   7.763 -0.2002  2.2372 -0.6827
 9127SOL    HW239036   9.804   8.676   7.917  0.0160 -1.8321 -1.9666
 9128SOL     OW39037   8.717   9.007   2.507  0.3954 -0.5019  0.0607
 9128SOL    HW139038   8.622   8.991   2.480 -0.2368  1.1221  1.2148
 9128SOL    HW239039   8.763   8.920   2.523  0.0645 -1.4368 -3.6575
 9129SOL     OW39040   5.518   7.438   5.666 -0.2316 -0.4518  0.4011
 9129SOL    HW139041   5.524   7.397   5.757  0.3774  0.8408  0.9482
 9129SOL    HW239042   5.599   7.413   5.613  0.7713  1.0756  1.1779
 9130SOL     OW39043   1.455   2.027   2.340  0.2042  0.1227 -0.0598
 9130SOL    HW139044   1.526   2.054   2.274  0.7211 -0.6425  0.1785
 9130SOL    HW239045   1.381   2.094   2.339  1.1934  1.2381  0.0783
 9131SOL     OW39046   0.685   1.902   2.692  0.3184  0.1068  0.0648
 9131SOL    HW139047   0.620   1.965   2.649 -0.3522 -1.8713 -1.9078
 9131SOL    HW239048   0.637   1.844   2.757  0.6993  0.6880  0.8791
 9132SOL     OW39049   1.017   1.966   7.720  0.1047 -0.0700 -0.0586
 9132SOL    HW139050   0.944   1.942   7.655  0.4712  0.2266 -0.5837
 9132SOL    HW239051   0.984   1.951   7.814 -1.1172  1.3343 -0.2339
 9133SOL     OW39052   3.540   4.569   3.023  0.5354 -0.0856 -0.1307
 9133SOL    HW139053   3.583   4.481   3.003  0.7356  0.4107 -1.9429
 9133SOL    HW239054   3.609   4.633   3.056  1.0202  0.4025 -2.0579
 9134SOL     OW39055   8.398   8.819   8.236 -0.0365 -0.2379 -0.6131
 9134SOL    HW139056   8.405   8.866   8.148 -1.3158 -0.7763 -1.0070
 9134SOL    HW239057   8.489   8.787   8.264  0.3678 -0.1142 -1.7582
 9135SOL     OW39058   3.611   2.105   0.242 -0.5673  0.4790  0.2187
 9135SOL    HW139059   3.584   2.077   0.150 -0.2727 -2.7310  1.0499
 9135SOL    HW239060   3.710   2.099   0.251 -0.3759  3.0842  0.0502
 9136SOL     OW39061   3.597   0.744   1.495 -0.1869  1.2250  0.6081
 9136SOL    HW139062   3.520   0.746   1.432 -1.1636 -1.4067  1.6518
 9136SOL    HW239063   3.581   0.807   1.570 -1.9797 -0.2786  1.5174
 9137SOL     OW39064   0.481   5.137   5.458 -0.3754 -0.7411 -0.2065
 9137SOL    HW139065   0.577   5.116   5.474 -0.8560 -1.4337  2.0034
 9137SOL    HW239066   0.424   5.075   5.514 -2.0197  1.6044  0.7991
 9138SOL     OW39067   7.440   2.257   0.233 -0.0489  0.1626 -0.1658
 9138SOL    HW139068   7.534   2.276   0.261 -0.6001  0.5252  1.5390
 9138SOL    HW239069   7.438   2.228   0.137  1.9688 -1.3280  0.1992
 9139SOL     OW39070   1.836   0.038   4.036  0.3676  0.3516  0.3085
 9139SOL    HW139071   1.874   0.046   4.128  1.0073  0.4189  0.0371
 9139SOL    HW239072   1.896   0.084   3.970  1.5477 -2.3084 -0.5693
 9140SOL     OW39073   0.584   6.075   7.780 -0.2916 -0.5325 -0.1712
 9140SOL    HW139074   0.617   6.168   7.765 -0.5180 -0.2482  1.0750
 9140SOL    HW239075   0.657   6.010   7.757  0.0520 -0.0298 -0.5059
 9141SOL     OW39076   1.862   0.371   6.208  0.3733 -0.4217 -0.4261
 9141SOL    HW139077   1.877   0.470   6.207 -0.7660 -0.1766  2.1262
 9141SOL    HW239078   1.944   0.326   6.243  1.0329 -0.4348 -1.9470
 9142SOL     OW39079   4.005   3.649   0.993 -0.5781  0.3167 -0.4891
 9142SOL    HW139080   4.003   3.588   0.914 -0.3947  1.1487 -1.1320
 9142SOL    HW239081   4.042   3.738   0.967  3.3588 -0.6638  1.4216
 9143SOL     OW39082   4.493   7.683   1.747 -0.3207 -0.1163  0.1148
 9143SOL    HW139083   4.522   7.716   1.657  0.4062 -0.0955  0.3550
 9143SOL    HW239084   4.492   7.583   1.747 -1.1087 -0.1159 -0.1613
 9144SOL     OW39085   5.936   9.216   3.200  0.5577  0.1287 -0.1949
 9144SOL    HW139086   5.998   9.163   3.142 -0.1434 -0.7022 -0.1862
 9144SOL    HW239087   5.949   9.314   3.182  0.2596 -0.1230 -1.8386
 9145SOL     OW39088   9.179   5.088   1.264 -0.6471 -0.0959  0.1313
 9145SOL    HW139089   9.120   5.169   1.263 -1.0992 -0.4327 -0.4696
 9145SOL    HW239090   9.268   5.111   1.224 -1.0204 -0.0798 -0.6959
 9146SOL     OW39091   7.013   8.209   2.532 -0.8331  0.1181 -0.0108
 9146SOL    HW139092   7.037   8.241   2.624  0.4902 -1.6348  0.2927
 9146SOL    HW239093   6.938   8.264   2.496  1.2461  3.5027  0.4926
 9147SOL     OW39094   2.517   2.093   2.847 -0.6087  0.1167 -0.4272
 9147SOL    HW139095   2.579   2.041   2.789  0.5668 -0.0909  0.9666
 9147SOL    HW239096   2.448   2.139   2.791 -1.3723 -2.5424 -1.7222
 9148SOL     OW39097   9.447   6.322   2.485  0.0565  0.4079  0.1496
 9148SOL    HW139098   9.360   6.288   2.449  0.2937  0.2670 -0.2981
 9148SOL    HW239099   9.433   6.410   2.530 -0.1987  0.7314 -0.5503
 9149SOL     OW39100   9.580   9.419   7.258  0.0112  0.9891 -0.0974
 9149SOL    HW139101   9.660   9.463   7.217 -0.1976  1.2456 -0.2309
 9149SOL    HW239102   9.562   9.332   7.212 -1.1700  2.0173 -1.6183
 9150SOL     OW39103   2.509   5.938   6.448 -0.0463 -0.1320  0.3869
 9150SOL    HW139104   2.425   5.991   6.442  0.1597  0.2363  0.7179
 9150SOL    HW239105   2.506   5.877   6.527 -0.1556 -0.3930  0.1834
 9151SOL     OW39106   5.898   4.242   2.181 -0.0737 -0.4729 -0.1120
 9151SOL    HW139107   5.836   4.302   2.130 -0.4651  0.0509  0.9649
 9151SOL    HW239108   5.917   4.283   2.270 -1.1503 -2.4264  1.0321
 9152SOL     OW39109   3.470   6.826   1.974 -0.2088  0.1378  0.1531
 9152SOL    HW139110   3.393   6.887   1.957 -0.8084 -0.9339 -1.1008
 9152SOL    HW239111   3.483   6.815   2.073 -1.6395  0.3711  0.3756
 9153SOL     OW39112   8.911   0.501   6.754 -0.1554 -0.9039  0.6248
 9153SOL    HW139113   8.888   0.598   6.765 -0.7571 -0.8381 -1.0387
 9153SOL    HW239114   9.001   0.483   6.793  0.8702  0.7601 -0.9211
 9154SOL     OW39115   2.328   9.869   1.224 -0.8717 -0.3923 -0.1187
 9154SOL    HW139116   2.229   9.857   1.220 -0.5925 -2.7326 -0.6178
 9154SOL    HW239117   2.373   9.795   1.174  1.1499  0.0786  0.9344
 9155SOL     OW39118   4.670   7.936   6.092 -0.2075 -0.3000 -0.4127
 9155SOL    HW139119   4.752   7.980   6.056 -0.4415 -0.0339 -0.6202
 9155SOL    HW239120   4.671   7.941   6.192 -0.4055  0.4787 -0.4520
 9156SOL     OW39121   8.238   4.320   0.102  0.0919  0.3016  0.2203
 9156SOL    HW139122   8.271   4.290   0.013 -0.0974  1.8160 -0.3668
 9156SOL    HW239123   8.310   4.368   0.150 -0.7968  2.4093 -0.5008
 9157SOL     OW39124   7.540   2.474   4.439  0.1015 -0.1204  0.0325
 9157SOL    HW139125   7.551   2.566   4.402 -0.9704  0.6133  1.4885
 9157SOL    HW239126   7.606   2.413   4.396  1.4738  1.5278 -0.2484
 9158SOL     OW39127   9.276   0.251   1.564 -0.1203  0.2648 -0.1792
 9158SOL    HW139128   9.314   0.287   1.649 -0.9448  0.7965 -0.0344
 9158SOL    HW239129   9.196   0.305   1.537  0.3372  0.3180 -1.4712
 9159SOL     OW39130   3.641   8.530   0.570  0.1652 -0.4286 -0.0494
 9159SOL    HW139131   3.610   8.620   0.599  1.8647  0.7680 -1.8152
 9159SOL    HW239132   3.717   8.500   0.628  1.2417  0.3947 -1.0197
 9160SOL     OW39133   8.194   6.228   2.067  0.8356 -0.3524 -0.3074
 9160SOL    HW139134   8.251   6.309   2.060  0.3077  0.0443 -0.1035
 9160SOL    HW239135   8.193   6.180   1.979  0.6027  0.2371 -0.6328
 9161SOL     OW39136   1.106   5.096   0.108  0.0543 -0.2531  0.2739
 9161SOL    HW139137   1.193   5.048   0.116  0.1843 -0.1856 -0.6667
 9161SOL    HW239138   1.122   5.191   0.080 -0.3096 -0.2137  0.1917
 9162SOL     OW39139   0.590   0.896   5.546 -0.1837  0.9701 -0.0460
 9162SOL    HW139140   0.621   0.959   5.617  2.8652 -1.5071  0.9814
 9162SOL    HW239141   0.581   0.804   5.585  2.0074 -0.5459 -2.9124
 9163SOL     OW39142   6.718   5.072   2.626 -0.3688  0.1997 -0.9095
 9163SOL    HW139143   6.642   5.038   2.572  1.0655 -0.8430 -2.2929
 9163SOL    HW239144   6.773   5.135   2.572 -0.0382  0.6825 -0.0351
 9164SOL     OW39145   8.766   0.967   5.997  0.0013 -0.3936 -0.4325
 9164SOL    HW139146   8.760   1.067   6.006  0.5749  0.1669 -5.2163
 9164SOL    HW239147   8.857   0.936   6.025 -0.0823  0.4317  0.7982
 9165SOL     OW39148   8.892   5.546   2.466  0.3188 -1.0457  0.1075
 9165SOL    HW139149   8.962   5.498   2.414  0.8394  0.4486 -0.6187
 9165SOL    HW239150   8.935   5.613   2.527 -0.4879  1.1532 -1.6494
 9166SOL     OW39151   4.974   7.416   4.171 -0.0275 -0.1367 -0.1847
 9166SOL    HW139152   5.009   7.370   4.253 -0.4877  0.2052  0.2054
 9166SOL    HW239153   5.033   7.494   4.150  0.3247 -0.4622 -0.4160
 9167SOL     OW39154   0.697   7.547   7.519 -0.3369  0.1031  0.0711
 9167SOL    HW139155   0.660   7.463   7.560  0.8575 -0.3733  0.1784
 9167SOL    HW239156   0.662   7.626   7.569 -0.8992 -0.3548  0.4168
 9168SOL     OW39157   8.240   4.604   5.284 -0.6536  0.7450 -0.3625
 9168SOL    HW139158   8.275   4.547   5.210  0.9105  1.5277 -0.2492
 9168SOL    HW239159   8.304   4.601   5.361 -2.1574  0.1013  0.9009
 9169SOL     OW39160   7.010   2.341   3.055  0.4682 -0.7800 -0.2594
 9169SOL    HW139161   7.097   2.325   3.009 -0.8885 -2.5788 -2.3175
 9169SOL    HW239162   6.946   2.384   2.991  0.2846  2.0026  1.6963
 9170SOL     OW39163   8.783   3.454   5.710  0.3826  0.1643 -0.7194
 9170SOL    HW139164   8.824   3.495   5.628 -1.5202  0.4204 -1.5756
 9170SOL    HW239165   8.851   3.398   5.756  1.8600  1.0141 -1.7831
 9171SOL     OW39166   4.691   2.748   4.955 -0.0469 -0.2157  0.5046
 9171SOL    HW139167   4.665   2.842   4.932 -1.3457 -0.5672  0.4647
 9171SOL    HW239168   4.790   2.741   4.963  0.3154  0.3703 -2.9402
 9172SOL     OW39169   1.455   2.417   7.023 -0.6955  0.5319  0.4566
 9172SOL    HW139170   1.451   2.373   6.933 -0.0991  0.6170  0.3811
 9172SOL    HW239171   1.440   2.516   7.013 -4.5782  0.0423  0.9236
 9173SOL     OW39172   2.857   8.370   7.526 -0.0902 -0.1298 -0.3362
 9173SOL    HW139173   2.887   8.275   7.511 -0.9759 -0.5466  0.4495
 9173SOL    HW239174   2.821   8.407   7.441  0.2751 -0.4947 -0.6533
 9174SOL     OW39175   1.822   8.889   6.312 -0.2087 -0.2102 -0.5352
 9174SOL    HW139176   1.911   8.870   6.354 -0.1349  1.0249 -0.1122
 9174SOL    HW239177   1.836   8.917   6.217 -0.1589 -0.1840 -0.5197
 9175SOL     OW39178   7.431   2.162   4.667  0.5710  0.0828  0.4597
 9175SOL    HW139179   7.475   2.132   4.582  0.4297 -0.4170  0.5589
 9175SOL    HW239180   7.360   2.095   4.693 -0.5277  1.0794  0.0850
 9176SOL     OW39181   8.803   1.164   2.491  0.2012  0.2141  0.1994
 9176SOL    HW139182   8.761   1.228   2.555  0.1614  1.2670 -0.8597
 9176SOL    HW239183   8.885   1.206   2.451  0.8157 -0.8404  0.3481
 9177SOL     OW39184   7.935   3.172   1.291  0.0574 -0.0046  0.1548
 9177SOL    HW139185   8.032   3.171   1.316 -0.4077  3.3011  2.3351
 9177SOL    HW239186   7.897   3.263   1.307 -3.2389 -1.0340 -1.4238
 9178SOL     OW39187   1.176   8.922   1.951  0.7874 -0.3343 -0.2896
 9178SOL    HW139188   1.178   8.982   2.031  2.0826  0.1932 -0.6985
 9178SOL    HW239189   1.082   8.906   1.922  0.2165 -1.5168  2.0800
 9179SOL     OW39190   0.365   6.610   5.868 -0.0699  0.2212  0.2833
 9179SOL    HW139191   0.334   6.568   5.783  0.1664 -0.1593  0.3828
 9179SOL    HW239192   0.401   6.702   5.849 -1.6596  0.8485  0.2324
 9180SOL     OW39193   3.114   0.978   6.547 -0.1666 -0.3289  0.5425
 9180SOL    HW139194   3.029   0.925   6.547 -0.5719  0.3167  0.8032
 9180SOL    HW239195   3.170   0.951   6.469 -0.7581 -0.5282  0.1806
 9181SOL     OW39196   0.162   7.069   6.418  0.1184  0.3847  0.3181
 9181SOL    HW139197   0.177   7.040   6.324 -2.1763 -1.1491  0.3914
 9181SOL    HW239198   0.104   7.151   6.419 -1.2003 -0.5264  0.4129
 9182SOL     OW39199   0.263   3.464   0.650  0.0228  0.1042  0.4492
 9182SOL    HW139200   0.214   3.451   0.564 -0.1656  0.4509  0.5009
 9182SOL    HW239201   0.236   3.394   0.715  0.9170 -0.7657 -0.1039
 9183SOL     OW39202   9.332   5.328   7.034 -0.3066 -0.2806  0.4795
 9183SOL    HW139203   9.416   5.321   7.088 -0.5431  0.3592  0.9325
 9183SOL    HW239204   9.313   5.424   7.014 -0.6346 -0.4611 -0.0941
 9184SOL     OW39205   7.271   6.661   6.484  0.0529  0.0506  0.5985
 9184SOL    HW139206   7.177   6.689   6.506  0.7432  1.5374  1.6383
 9184SOL    HW239207   7.315   6.733   6.430  0.9844 -0.1575  1.0910
 9185SOL     OW39208   3.042   1.802   0.956  0.3523 -0.0436 -0.2328
 9185SOL    HW139209   3.009   1.779   0.865 -1.2438  0.0002  0.3070
 9185SOL    HW239210   3.125   1.749   0.976  1.4984  0.9580 -2.2069
 9186SOL     OW39211   3.298   4.269   4.983 -0.2520 -0.5270  0.1380
 9186SOL    HW139212   3.358   4.229   5.053  1.5924  1.2530 -0.3790
 9186SOL    HW239213   3.320   4.365   4.970  0.6177 -1.1564 -4.0242
 9187SOL     OW39214   5.289   2.620   4.696  0.3193 -0.0470  0.1362
 9187SOL    HW139215   5.358   2.570   4.645  0.9062 -0.6614  1.5156
 9187SOL    HW239216   5.333   2.680   4.763 -0.4707 -1.2862  1.8199
 9188SOL     OW39217   2.750   7.460   1.333  0.1065 -0.3431  0.7013
 9188SOL    HW139218   2.754   7.364   1.360  0.3357 -0.1794  1.2570
 9188SOL    HW239219   2.683   7.471   1.259 -3.3990 -0.2248  3.7694
 9189SOL     OW39220   2.399   4.480   6.823 -0.1259 -0.1558 -0.7665
 9189SOL    HW139221   2.482   4.440   6.862  0.5858  1.4705 -0.5760
 9189SOL    HW239222   2.326   4.411   6.823  1.4227 -1.8323 -1.6379
 9190SOL     OW39223   8.053   7.078   7.835 -0.1979  0.1160  0.6021
 9190SOL    HW139224   8.137   7.127   7.813  0.1289 -0.6027  0.2551
 9190SOL    HW239225   8.017   7.112   7.922  0.8644 -0.1208  1.1416
 9191SOL     OW39226   9.218   7.538   0.621  0.1331 -0.5328 -0.3847
 9191SOL    HW139227   9.317   7.531   0.611  0.3830  1.6298  0.2312
 9191SOL    HW239228   9.181   7.595   0.547 -0.5967 -0.9459 -0.3425
 9192SOL     OW39229   4.016   4.940   7.098 -0.6424  0.6369  0.7953
 9192SOL    HW139230   4.081   4.919   7.170  1.6520 -2.0355 -1.8969
 9192SOL    HW239231   4.066   4.972   7.017 -2.6323 -1.0784 -1.1885
 9193SOL     OW39232   2.854   1.355   7.095  0.3938 -0.1953  0.0320
 9193SOL    HW139233   2.916   1.286   7.059  1.1812  1.8062 -2.5724
 9193SOL    HW239234   2.896   1.445   7.088 -1.9468  0.9502  0.1925
 9194SOL     OW39235   9.595   6.220   3.719 -0.6233 -0.0127  0.1747
 9194SOL    HW139236   9.601   6.281   3.798 -0.8621 -1.4238  1.3099
 9194SOL    HW239237   9.685   6.182   3.699 -0.5273  0.4889 -0.3442
 9195SOL     OW39238   9.872   3.076   2.730 -0.2931 -0.0493  0.1113
 9195SOL    HW139239   9.827   2.989   2.751 -0.7513 -0.2509 -1.5776
 9195SOL    HW239240   9.816   3.152   2.762 -0.1282 -0.3576  1.1500
 9196SOL     OW39241   1.481   2.562   6.652  0.2808 -0.5816  0.0736
 9196SOL    HW139242   1.432   2.623   6.589 -0.8802  2.4716  3.7439
 9196SOL    HW239243   1.580   2.575   6.640  0.0585  2.3090  0.9309
 9197SOL     OW39244   8.283   4.480   4.085 -0.3617 -0.1002  0.3414
 9197SOL    HW139245   8.321   4.573   4.095 -1.6776  0.6096 -1.0377
 9197SOL    HW239246   8.213   4.466   4.154  0.2313 -0.2780  0.9118
 9198SOL     OW39247   8.702   6.012   2.527 -0.7635  0.1967 -0.2952
 9198SOL    HW139248   8.794   6.050   2.537  0.1330 -1.9361 -0.1894
 9198SOL    HW239249   8.635   6.085   2.535  0.8213  1.4967  1.5934
 9199SOL     OW39250   0.995   7.055   6.494 -0.0064  0.7966 -0.0652
 9199SOL    HW139251   1.025   6.983   6.432 -0.4361 -0.9524  1.7306
 9199SOL    HW239252   0.897   7.071   6.480 -0.3280 -0.3238  0.8754
 9200SOL     OW39253   7.117   9.141   7.181 -0.0477  0.6336 -0.4780
 9200SOL    HW139254   7.096   9.057   7.230  1.2630  0.0981 -0.8162
 9200SOL    HW239255   7.203   9.179   7.215  0.8412  0.2946 -2.3189
 9201SOL     OW39256   1.262   8.173   5.126 -0.2019 -0.4498 -0.3653
 9201SOL    HW139257   1.204   8.203   5.051  0.5717  0.2858 -0.6825
 9201SOL    HW239258   1.206   8.141   5.202 -1.0311  1.0626 -0.3290
 9202SOL     OW39259   0.353   8.367   0.499 -0.2462 -0.1431 -0.2482
 9202SOL    HW139260   0.365   8.435   0.426 -2.3203 -1.9155 -2.3111
 9202SOL    HW239261   0.258   8.334   0.498  0.5918 -2.6740  1.0817
 9203SOL     OW39262   0.956   4.278   2.023  0.2512 -0.2910 -0.3780
 9203SOL    HW139263   0.931   4.292   2.119  1.7156 -0.7011  0.0726
 9203SOL    HW239264   0.912   4.348   1.967 -1.0497 -0.3609  0.5128
 9204SOL     OW39265   2.430   0.215   7.210  0.1575  0.2020 -0.2615
 9204SOL    HW139266   2.403   0.127   7.248  1.8231 -1.6536 -3.1684
 9204SOL    HW239267   2.357   0.249   7.151  1.2218 -1.4046 -2.5756
 9205SOL     OW39268   4.180   3.781   5.396  0.3176  0.0283  0.4265
 9205SOL    HW139269   4.099   3.724   5.384  1.8047 -1.9786 -0.4365
 9205SOL    HW239270   4.262   3.725   5.388  1.8607  2.3347 -0.6626
 9206SOL     OW39271   6.548   9.450   4.798 -0.3261 -0.4265 -0.5284
 9206SOL    HW139272   6.467   9.443   4.739  0.4046 -1.2141 -1.4616
 9206SOL    HW239273   6.629   9.427   4.745  0.7512  2.3585 -0.1234
 9207SOL     OW39274   7.958   2.087   5.150  0.4620 -0.2444 -0.3904
 9207SOL    HW139275   7.987   2.023   5.079  0.4559 -1.2784  0.5278
 9207SOL    HW239276   8.035   2.109   5.210  0.0556 -0.7142  0.3088
 9208SOL     OW39277   3.894   3.511   1.609  0.4383  0.2389  0.2021
 9208SOL    HW139278   3.922   3.420   1.640  0.9783  0.1835 -0.4396
 9208SOL    HW239279   3.801   3.530   1.641  0.3874 -0.4672  0.4778
 9209SOL     OW39280   8.936   5.096   2.914  0.5751 -0.3157 -0.2001
 9209SOL    HW139281   8.997   5.020   2.938 -1.0730 -1.3761  0.6951
 9209SOL    HW239282   8.991   5.178   2.897  2.3015 -1.4173 -0.1032
 9210SOL     OW39283   5.473   0.782   5.824 -0.3525 -0.1230 -0.2923
 9210SOL    HW139284   5.376   0.756   5.830 -0.6181  1.0448  0.5282
 9210SOL    HW239285   5.521   0.751   5.906 -0.4155  0.8807  0.1314
 9211SOL     OW39286   1.234   0.091   9.937 -0.3725 -0.2320  0.0434
 9211SOL    HW139287   1.193   0.046   9.858 -0.1182  2.1862 -1.5395
 9211SOL    HW239288   1.333   0.082   9.933 -0.3896 -0.5857  0.3952
 9212SOL     OW39289   9.726   4.080   1.972 -0.8359 -0.3688  0.1320
 9212SOL    HW139290   9.770   4.012   2.030 -0.9802 -0.4442  0.1539
 9212SOL    HW239291   9.754   4.066   1.877 -0.1305  0.1319  0.2641
 9213SOL     OW39292   1.976   4.548   5.509 -0.0698 -0.2163 -0.0495
 9213SOL    HW139293   1.969   4.465   5.564 -0.0740  0.0660  0.3829
 9213SOL    HW239294   1.892   4.602   5.518 -0.4515 -0.6320 -1.0969
 9214SOL     OW39295   9.099   5.547   2.829  0.5835 -0.1313 -0.6786
 9214SOL    HW139296   9.161   5.607   2.879  1.7656 -1.0887 -0.9559
 9214SOL    HW239297   9.069   5.592   2.745  2.0334 -0.1900 -1.2447
 9215SOL     OW39298   8.275   3.571   2.632 -0.3261  0.2226  0.3503
 9215SOL    HW139299   8.336   3.634   2.586 -0.1167 -1.1543 -1.3352
 9215SOL    HW239300   8.328   3.507   2.688  0.1459 -2.6965 -3.2086
 9216SOL     OW39301   0.621   7.284   0.986  0.5460  0.4315 -0.9372
 9216SOL    HW139302   0.578   7.319   0.903 -1.0701  0.1333 -0.2613
 9216SOL    HW239303   0.578   7.326   1.066  0.2046 -1.2828 -0.1881
 9217SOL     OW39304   6.492   0.961   5.507  0.8034 -0.0460 -0.1451
 9217SOL    HW139305   6.458   1.047   5.543 -0.7549  0.1266 -1.9511
 9217SOL    HW239306   6.461   0.885   5.565 -1.4597  0.2433 -0.9332
 9218SOL     OW39307   0.662   5.568   6.361  0.1443 -0.3850  0.1886
 9218SOL    HW139308   0.590   5.579   6.293  1.3208 -0.0931 -1.0191
 9218SOL    HW239309   0.629   5.507   6.434 -2.9362  3.1637  1.9462
 9219SOL     OW39310   8.960   3.519   5.235 -0.0823 -0.1014  0.0670
 9219SOL    HW139311   8.981   3.528   5.332  0.4824  0.1221 -0.0749
 9219SOL    HW239312   8.870   3.558   5.217 -1.0154 -1.8482  0.8336
 9220SOL     OW39313   4.267   6.308   2.353 -0.4857  0.0629 -0.1682
 9220SOL    HW139314   4.277   6.209   2.366  1.0244  0.1366 -0.7133
 9220SOL    HW239315   4.329   6.339   2.281 -0.2262  1.5786  0.6868
 9221SOL     OW39316   1.024   1.687   2.637 -0.3795  0.7625 -0.0310
 9221SOL    HW139317   1.006   1.696   2.735  2.3597  3.6019  0.2950
 9221SOL    HW239318   0.946   1.722   2.585 -2.5586 -2.2725  1.0270
 9222SOL     OW39319   2.443   5.947   1.973 -0.0691 -0.4674 -0.1315
 9222SOL    HW139320   2.519   5.902   1.927  1.0194  1.3228 -0.1432
 9222SOL    HW239321   2.445   5.925   2.071  0.3947 -0.5209 -0.1526
 9223SOL     OW39322   9.108   9.553   0.226 -0.2351  0.1070 -0.4173
 9223SOL    HW139323   9.028   9.556   0.167 -0.0833 -1.3530 -0.7151
 9223SOL    HW239324   9.095   9.483   0.297 -0.7029  2.2808  1.7123
 9224SOL     OW39325   7.671   5.131   6.847  0.1631 -0.6183 -0.0937
 9224SOL    HW139326   7.646   5.157   6.754 -1.2314  0.4346  0.5660
 9224SOL    HW239327   7.642   5.037   6.864  0.3205 -0.7768 -0.6745
 9225SOL     OW39328   6.308   3.721   1.271 -0.1248  0.2066 -0.5060
 9225SOL    HW139329   6.350   3.774   1.197  0.9285  0.8820  0.5539
 9225SOL    HW239330   6.380   3.685   1.331 -0.9885  0.1374  0.5082
 9226SOL     OW39331   8.524   3.143   0.536 -0.8138 -0.2012  0.2012
 9226SOL    HW139332   8.575   3.058   0.548 -3.0681 -1.5715  0.4620
 9226SOL    HW239333   8.546   3.206   0.611  1.5512 -0.1637 -0.4800
 9227SOL     OW39334   4.520   4.883   7.418 -0.0377  0.5807  0.4604
 9227SOL    HW139335   4.602   4.939   7.428  0.8425 -0.4923 -0.5456
 9227SOL    HW239336   4.498   4.874   7.321  0.2902 -1.4268  0.5494
 9228SOL     OW39337   2.457   7.272   1.232 -0.2260 -0.0629  0.3991
 9228SOL    HW139338   2.461   7.326   1.148 -0.9029  0.0174  0.4166
 9228SOL    HW239339   2.365   7.235   1.243 -0.3420  0.5295  1.4846
 9229SOL     OW39340   0.181   7.220   7.922 -0.3845  0.0327 -0.3549
 9229SOL    HW139341   0.125   7.138   7.909 -0.8665  0.5250 -1.4521
 9229SOL    HW239342   0.128   7.301   7.895  0.7335  0.5348 -1.0857
 9230SOL     OW39343   2.967   3.102   3.820 -0.5041  0.0955  0.3197
 9230SOL    HW139344   2.902   3.134   3.751 -0.6440 -0.5712  0.1421
 9230SOL    HW239345   2.923   3.103   3.910 -1.5095 -2.4984 -0.1025
 9231SOL     OW39346   0.005   2.187   1.024 -0.1949  0.9694  0.0653
 9231SOL    HW139347   0.005   2.096   1.066  2.3888  1.6065  1.5667
 9231SOL    HW239348   0.043   2.182   0.932 -2.7200  0.1129 -0.9789
 9232SOL     OW39349   3.207   5.348   4.963 -0.4538 -0.4759 -0.3678
 9232SOL    HW139350   3.113   5.378   4.974 -1.1019 -1.9389 -1.8599
 9232SOL    HW239351   3.226   5.274   5.029  0.5900  1.8306  2.0200
 9233SOL     OW39352   4.402   9.739   6.020  0.1458 -0.2091 -0.2339
 9233SOL    HW139353   4.435   9.813   6.078  1.1929 -1.9057  1.3718
 9233SOL    HW239354   4.369   9.664   6.076 -1.9708 -0.5344 -1.8476
 9234SOL     OW39355   1.518   5.107   4.622 -0.5296 -0.1230  0.0759
 9234SOL    HW139356   1.453   5.161   4.675 -0.0675  0.6817 -0.1685
 9234SOL    HW239357   1.595   5.080   4.681 -0.1431  0.5542 -0.1062
 9235SOL     OW39358   3.765   2.749   3.452  0.4551 -0.3265  0.0109
 9235SOL    HW139359   3.734   2.842   3.435  2.7750  0.6616  1.0019
 9235SOL    HW239360   3.857   2.737   3.416  0.3783 -2.1002  0.3361
 9236SOL     OW39361   2.695   0.441   0.060 -0.1136 -0.2935  0.3365
 9236SOL    HW139362   2.595   0.443   0.065 -0.0685  0.5600  1.1844
 9236SOL    HW239363   2.725   0.351   0.030 -1.1456 -0.5023 -0.1044
 9237SOL     OW39364   1.140   4.137   2.650  0.0280 -0.2361  0.1994
 9237SOL    HW139365   1.045   4.114   2.670 -1.0927  1.1917 -3.1129
 9237SOL    HW239366   1.172   4.207   2.714 -0.5805 -1.8630  2.3474
 9238SOL     OW39367   6.516   0.119   4.898  0.9731 -0.0514 -0.1151
 9238SOL    HW139368   6.494   0.184   4.971 -0.7133 -0.5400 -0.1699
 9238SOL    HW239369   6.460   0.037   4.909  2.7102 -1.3052 -0.3526
 9239SOL     OW39370   9.513   8.066   1.423 -0.0903  0.8100  0.1829
 9239SOL    HW139371   9.432   8.022   1.461 -0.4039  0.8946 -0.3842
 9239SOL    HW239372   9.544   8.138   1.485 -0.8650  1.2496  0.0754
 9240SOL     OW39373   3.865   3.016   0.748  0.4725 -0.3440 -0.5555
 9240SOL    HW139374   3.875   3.097   0.806  2.0511 -0.1845 -1.0188
 9240SOL    HW239375   3.796   2.956   0.787  0.7953  0.2364  0.9587
 9241SOL     OW39376   0.117   6.124   7.249 -0.2756 -0.3418  0.4488
 9241SOL    HW139377   0.050   6.059   7.212 -1.0781  0.2252  0.8877
 9241SOL    HW239378   0.071   6.188   7.310  0.5057  0.6589  0.0006
 9242SOL     OW39379   7.505   2.122   4.409  0.4077  0.3608 -0.2701
 9242SOL    HW139380   7.597   2.086   4.426  0.2854 -0.4151 -1.1871
 9242SOL    HW239381   7.488   2.121   4.310 -0.3366  1.1309 -0.1517
 9243SOL     OW39382   8.062   0.547   5.267  0.2014 -0.4179 -0.3364
 9243SOL    HW139383   8.003   0.603   5.210  0.2102 -1.0294 -0.9644
 9243SOL    HW239384   8.024   0.539   5.359  0.0492  0.3572 -0.3337
 9244SOL     OW39385   8.588   6.701   5.515  0.9370 -0.0622  0.3398
 9244SOL    HW139386   8.673   6.744   5.545  0.9721 -0.3873  0.7115
 9244SOL    HW239387   8.583   6.608   5.552  0.7813 -0.3194 -0.3126
 9245SOL     OW39388   4.146   4.297   0.786  0.5808  0.2826 -0.6373
 9245SOL    HW139389   4.105   4.207   0.771  1.1032 -0.0672  0.0298
 9245SOL    HW239390   4.093   4.366   0.736 -0.8833 -0.1413  0.2946
 9246SOL     OW39391   4.057   3.826   4.715  0.7025  0.1455 -0.4294
 9246SOL    HW139392   4.001   3.744   4.704  1.3059  0.0769 -3.2352
 9246SOL    HW239393   3.998   3.905   4.729  0.0516 -0.4409  0.2098
 9247SOL     OW39394   5.544   1.934   1.748  0.3187 -0.2188  0.0315
 9247SOL    HW139395   5.538   1.835   1.733  0.8322  0.0572 -2.0607
 9247SOL    HW239396   5.622   1.954   1.808  2.4189 -0.8241 -2.4121
 9248SOL     OW39397   8.438   8.777   7.705  0.3951 -0.0630  0.4965
 9248SOL    HW139398   8.416   8.784   7.608  0.4761  0.2309  0.4996
 9248SOL    HW239399   8.536   8.759   7.716  0.5620  0.8581  0.5516
 9249SOL     OW39400   7.690   3.497   5.147 -0.4788  0.2446 -0.6964
 9249SOL    HW139401   7.666   3.483   5.243  1.2189 -0.4444 -0.3668
 9249SOL    HW239402   7.607   3.491   5.091 -1.5293  0.9344  0.7378
 9250SOL     OW39403   1.340   9.224   9.828 -0.1170  0.4877 -0.4545
 9250SOL    HW139404   1.296   9.138   9.801 -1.0777  1.0939 -0.8105
 9250SOL    HW239405   1.439   9.214   9.819 -0.1386 -1.0040  0.6929
 9251SOL     OW39406   2.011   7.632   1.350 -1.0400  0.4452  0.6188
 9251SOL    HW139407   1.913   7.638   1.330 -1.4358 -1.2825  1.8835
 9251SOL    HW239408   2.028   7.666   1.443 -0.5553  0.0743  0.6684
 9252SOL     OW39409   5.969   2.256   0.799  0.0273  0.3685 -0.1599
 9252SOL    HW139410   6.059   2.255   0.756  0.4578 -0.9430  0.7310
 9252SOL    HW239411   5.901   2.220   0.736 -0.0614  2.3378 -1.2088
 9253SOL     OW39412   4.266   6.630   1.335  0.2488  0.1780 -0.1070
 9253SOL    HW139413   4.177   6.635   1.381 -0.5884 -2.8230 -1.2757
 9253SOL    HW239414   4.332   6.584   1.394 -0.5892 -2.8626 -1.4130
 9254SOL     OW39415   7.493   0.919   7.435  0.8921  0.5150  0.2004
 9254SOL    HW139416   7.581   0.911   7.482 -0.3064 -1.0310  2.2535
 9254SOL    HW239417   7.422   0.944   7.501 -0.4670  0.3990 -1.1963
 9255SOL     OW39418   8.091   7.772   5.468  0.4941 -0.1084 -0.0648
 9255SOL    HW139419   8.145   7.841   5.421 -1.4138  0.3805 -1.5885
 9255SOL    HW239420   8.099   7.785   5.567  2.7752  0.2166 -0.2598
 9256SOL     OW39421   7.243   4.274   3.579  0.7087  0.4524  0.2130
 9256SOL    HW139422   7.226   4.354   3.522  0.3398  1.5817  1.8634
 9256SOL    HW239423   7.310   4.298   3.649  0.3599 -0.5873  0.9056
 9257SOL     OW39424   9.434   5.918   4.173  0.2987 -0.1318  0.2923
 9257SOL    HW139425   9.461   5.860   4.096 -1.7276 -1.5328  0.6037
 9257SOL    HW239426   9.486   5.893   4.254  0.4581 -0.5233  0.0685
 9258SOL     OW39427   2.913   0.486   5.023 -0.2737  0.0511  0.2424
 9258SOL    HW139428   2.864   0.530   4.948  2.1389  0.7658 -0.9706
 9258SOL    HW239429   2.992   0.541   5.049  0.3782 -1.4502  1.6039
 9259SOL     OW39430   9.187   6.382   4.017  0.2071  0.3010  0.1037
 9259SOL    HW139431   9.103   6.348   4.060  0.4738  0.5711  0.8362
 9259SOL    HW239432   9.179   6.481   4.002 -0.4242 -0.0108 -1.6993
 9260SOL     OW39433   3.212   1.595   3.080 -0.0033 -0.2283 -0.6197
 9260SOL    HW139434   3.120   1.599   3.043  0.1272 -0.5692 -0.9839
 9260SOL    HW239435   3.211   1.542   3.165 -0.5073  1.5573  0.5125
 9261SOL     OW39436   0.403   9.237   4.929  0.4156 -0.1140  0.0702
 9261SOL    HW139437   0.323   9.177   4.939 -0.1256  0.6648  0.3945
 9261SOL    HW239438   0.435   9.264   5.019  0.5345  0.2582 -0.0859
 9262SOL     OW39439   1.944   7.083   0.876 -0.0880 -0.0714 -0.3750
 9262SOL    HW139440   1.880   7.019   0.918 -1.0510  0.5474 -0.8777
 9262SOL    HW239441   2.037   7.060   0.904 -0.6310 -0.1857  1.4295
 9263SOL     OW39442   1.771   2.769   6.402  0.3583  0.0974  0.0992
 9263SOL    HW139443   1.844   2.807   6.459  0.1901 -0.6034  0.7944
 9263SOL    HW239444   1.810   2.739   6.314  0.8932 -0.2077  0.4356
 9264SOL     OW39445   4.113   2.707   5.341 -0.1101 -0.4183 -0.4409
 9264SOL    HW139446   4.019   2.692   5.310  0.3233 -1.1728 -1.4411
 9264SOL    HW239447   4.136   2.804   5.333 -2.0504  0.4610  3.4484
 9265SOL     OW39448   5.462   1.338   7.454 -0.2455  0.2859  0.0460
 9265SOL    HW139449   5.440   1.433   7.476 -0.8485  0.2759 -0.4840
 9265SOL    HW239450   5.399   1.277   7.502 -0.2523  0.1827 -0.0928
 9266SOL     OW39451   0.338   0.229   2.705  0.2021  0.3053  0.3481
 9266SOL    HW139452   0.289   0.161   2.652  0.1524 -0.3653  1.2408
 9266SOL    HW239453   0.435   0.225   2.683  0.6770 -2.2248  2.6798
 9267SOL     OW39454   6.815   0.496   0.922  0.2542 -0.1445  0.4694
 9267SOL    HW139455   6.798   0.582   0.971  0.8098 -0.1008  0.5909
 9267SOL    HW239456   6.886   0.511   0.853 -0.5368 -0.2032 -0.3626
 9268SOL     OW39457   9.611   2.365   3.648 -0.0905 -0.0618  0.2181
 9268SOL    HW139458   9.550   2.357   3.569  0.2629 -1.9608  0.0985
 9268SOL    HW239459   9.560   2.401   3.726 -1.4282 -1.7431  0.1494
 9269SOL     OW39460   6.710   6.928   3.988  0.3306 -0.1405  0.3383
 9269SOL    HW139461   6.715   7.009   4.047  1.1477  0.1617 -0.1397
 9269SOL    HW239462   6.681   6.955   3.896  3.6933  0.1299 -0.7380
 9270SOL     OW39463   3.104   0.113   4.026 -0.1276 -0.0571 -0.0470
 9270SOL    HW139464   3.012   0.147   4.010  0.7641  3.1011  1.2236
 9270SOL    HW239465   3.111   0.078   4.120 -0.4453 -1.8604 -0.6684
 9271SOL     OW39466   0.496   3.866   4.382 -0.1094  0.1933 -0.2034
 9271SOL    HW139467   0.502   3.928   4.460  0.5288  1.1621 -1.0173
 9271SOL    HW239468   0.461   3.777   4.413 -1.1628  0.9923  0.9412
 9272SOL     OW39469   1.004   4.117   7.969 -0.3017  0.3696  0.3072
 9272SOL    HW139470   0.940   4.149   8.039  1.1721  2.6817  0.6723
 9272SOL    HW239471   0.955   4.100   7.884 -1.4899  1.5598  0.7300
 9273SOL     OW39472   3.395   6.498   6.196 -0.5884 -0.1833  0.2141
 9273SOL    HW139473   3.364   6.592   6.207 -1.8404 -0.6272  0.4671
 9273SOL    HW239474   3.428   6.485   6.102 -0.9706  0.3450  0.0037
 9274SOL     OW39475   4.151   8.330   5.749  0.0265  0.0561  0.9473
 9274SOL    HW139476   4.111   8.416   5.782  0.3092  0.5013  0.1637
 9274SOL    HW239477   4.243   8.320   5.785  0.1778  0.3321  0.6417
 9275SOL     OW39478   2.466   1.090   6.955  0.3294 -0.2030 -0.6457
 9275SOL    HW139479   2.512   1.001   6.958  1.2957  0.3446  1.2662
 9275SOL    HW239480   2.510   1.148   6.886  0.2996 -0.8619 -1.2250
 9276SOL     OW39481   2.342   9.485   0.615  0.0909 -0.4025  0.2119
 9276SOL    HW139482   2.325   9.492   0.516 -0.8501  0.3388  0.4207
 9276SOL    HW239483   2.353   9.577   0.653  2.6329 -0.7643  0.4413
 9277SOL     OW39484   8.517   8.269   7.494 -0.3428 -0.4384 -0.2473
 9277SOL    HW139485   8.507   8.179   7.536 -1.7799 -0.1426  0.0647
 9277SOL    HW239486   8.588   8.321   7.543  2.3675 -2.2934 -2.0267
 9278SOL     OW39487   4.999   4.792   0.785 -0.5099 -0.3937  0.3203
 9278SOL    HW139488   4.908   4.819   0.751 -0.2583  0.3080  0.1923
 9278SOL    HW239489   5.064   4.791   0.709 -0.1285  0.3725  0.6326
 9279SOL     OW39490   2.242   8.443   3.891  0.4141  0.3251  0.6668
 9279SOL    HW139491   2.228   8.348   3.864  1.2943  0.4860 -0.3768
 9279SOL    HW239492   2.300   8.447   3.972 -0.1521 -0.0484  1.0957
 9280SOL     OW39493   3.601   0.607   3.546 -0.1238 -1.0507 -0.5019
 9280SOL    HW139494   3.541   0.532   3.518 -1.0336 -0.8945  0.9919
 9280SOL    HW239495   3.649   0.582   3.630  0.2598 -0.3194 -0.5028
 9281SOL     OW39496   6.136   9.143   5.750 -0.2976  0.1222  0.6850
 9281SOL    HW139497   6.111   9.093   5.667 -0.2934 -0.2090  0.8805
 9281SOL    HW239498   6.235   9.159   5.750 -0.4991  1.4149 -0.0767
 9282SOL     OW39499   2.146   0.933   6.717 -1.0098 -0.1602  0.4130
 9282SOL    HW139500   2.165   0.835   6.711  1.2245  0.2772 -0.1226
 9282SOL    HW239501   2.060   0.953   6.670 -0.2647 -1.5304 -1.6120
 9283SOL     OW39502   3.207   2.613   0.050 -0.1762 -0.1248  0.0162
 9283SOL    HW139503   3.234   2.674  -0.024  0.7039 -0.3282  0.1557
 9283SOL    HW239504   3.216   2.518   0.020 -1.4958 -0.1934 -0.1848
 9284SOL     OW39505   7.242   3.908   1.338  0.0137  0.0360 -0.1100
 9284SOL    HW139506   7.205   3.840   1.401 -0.0537  1.4078  1.3438
 9284SOL    HW239507   7.207   3.890   1.246  0.1710 -2.0249  0.2097
 9285SOL     OW39508   4.089   1.917   0.869 -0.0125  0.0893 -0.3724
 9285SOL    HW139509   4.097   1.980   0.792  2.1844 -0.6075 -0.7548
 9285SOL    HW239510   4.170   1.926   0.927 -1.2505 -0.0050  1.4026
 9286SOL     OW39511   9.321   8.001   3.883  0.0935 -0.2963 -0.0140
 9286SOL    HW139512   9.400   8.009   3.823  0.0342  1.4006  0.1287
 9286SOL    HW239513   9.349   8.017   3.978 -0.5324  0.8903 -0.0303
 9287SOL     OW39514   1.015   6.856   7.540  0.0603  0.6274 -0.3729
 9287SOL    HW139515   1.111   6.868   7.563 -0.1549 -0.4352  1.1723
 9287SOL    HW239516   0.961   6.929   7.582  0.1065  0.8224 -0.6508
 9288SOL     OW39517   4.065   2.871   3.156 -0.2252  0.1882 -0.2458
 9288SOL    HW139518   4.035   2.939   3.222  0.3732 -0.2655  0.5038
 9288SOL    HW239519   4.164   2.859   3.163 -0.4277 -1.3412  0.1897
 9289SOL     OW39520   0.379   9.030   3.833  0.1518 -0.2514  0.2478
 9289SOL    HW139521   0.355   8.948   3.780 -0.2311 -1.5639  2.4102
 9289SOL    HW239522   0.475   9.027   3.859 -0.0118 -0.3127  0.8520
 9290SOL     OW39523   6.401   1.106   3.935  0.0464  0.4898 -0.1794
 9290SOL    HW139524   6.381   1.196   3.972  1.6978 -0.2391  2.7053
 9290SOL    HW239525   6.321   1.047   3.943 -0.0454  0.7648  1.0287
 9291SOL     OW39526   1.970   3.925   5.951  0.4721  0.1894  0.0541
 9291SOL    HW139527   2.047   3.908   5.889  0.6362 -2.6675  0.9716
 9291SOL    HW239528   1.914   3.843   5.957 -0.7829  1.1583  1.9902
 9292SOL     OW39529   2.233   7.337   0.829 -0.0094  0.4082 -0.1434
 9292SOL    HW139530   2.264   7.301   0.740 -0.0236  1.1234 -0.4410
 9292SOL    HW239531   2.188   7.425   0.815 -3.1813 -1.1085  0.1553
 9293SOL     OW39532   2.153   4.715   3.262 -0.7160 -0.1004  0.0976
 9293SOL    HW139533   2.128   4.630   3.216  1.2929 -0.4695 -0.3735
 9293SOL    HW239534   2.199   4.776   3.197 -0.8202  0.7284  0.7928
 9294SOL     OW39535   4.026   1.760   7.273  0.1577 -0.5516 -0.0181
 9294SOL    HW139536   4.109   1.812   7.253  0.1886 -0.8901 -0.7921
 9294SOL    HW239537   4.035   1.715   7.362  0.8260 -0.6205 -0.1169
 9295SOL     OW39538   2.501   9.713   5.028 -0.4790  0.3467 -0.0811
 9295SOL    HW139539   2.538   9.704   5.120 -1.3007  0.0581  0.2257
 9295SOL    HW239540   2.546   9.647   4.967  1.5626  1.9660 -0.3755
 9296SOL     OW39541   7.837   4.527   1.482 -0.2464 -0.5109  0.1652
 9296SOL    HW139542   7.912   4.550   1.419 -0.7757  0.6930 -0.0397
 9296SOL    HW239543   7.796   4.440   1.455 -1.7793  0.9500 -2.4014
 9297SOL     OW39544   5.990   0.747   7.517 -0.1667  0.2857  0.0634
 9297SOL    HW139545   6.058   0.677   7.495 -0.2957  0.0321  0.4700
 9297SOL    HW239546   5.985   0.813   7.442  0.6775  0.4234  0.1212
 9298SOL     OW39547   5.531   9.667   6.552 -0.2129  0.2427 -0.8137
 9298SOL    HW139548   5.591   9.599   6.593 -2.0084 -0.0544  1.4157
 9298SOL    HW239549   5.549   9.757   6.593 -1.2548  0.1501 -0.1316
 9299SOL     OW39550   8.352   9.136   3.921 -0.1323 -0.2931 -0.4552
 9299SOL    HW139551   8.263   9.171   3.893 -0.0711 -0.3283 -0.6934
 9299SOL    HW239552   8.415   9.138   3.843  0.3916  0.7617 -0.0048
 9300SOL     OW39553   9.545   9.113   4.115  0.0959 -0.2342 -0.4418
 9300SOL    HW139554   9.465   9.121   4.056  0.2069  0.4905 -0.4993
 9300SOL    HW239555   9.628   9.127   4.061  0.1998  0.3796 -0.1252
 9301SOL     OW39556   9.029   2.250   7.205  0.6360  0.7407 -0.1631
 9301SOL    HW139557   8.940   2.205   7.201  0.1339  1.5752  1.2575
 9301SOL    HW239558   9.031   2.328   7.143  1.0548 -0.4258 -1.6432
 9302SOL     OW39559   8.252   8.889   3.632  0.5075  0.4510 -0.4819
 9302SOL    HW139560   8.187   8.846   3.570 -1.1011 -0.3652  1.7109
 9302SOL    HW239561   8.285   8.974   3.592 -0.2683 -0.2065 -2.5655
 9303SOL     OW39562   0.702   2.226   3.182 -0.2218  0.1093  0.6429
 9303SOL    HW139563   0.795   2.235   3.215 -0.5866  0.5772  1.5602
 9303SOL    HW239564   0.651   2.163   3.240 -0.4559 -0.1941  0.1090
 9304SOL     OW39565   9.374   7.475   2.740 -0.6702  0.7550  0.1716
 9304SOL    HW139566   9.382   7.401   2.807 -0.7324  0.2219 -0.4093
 9304SOL    HW239567   9.277   7.492   2.722 -0.6371  0.2399 -0.5079
 9305SOL     OW39568   3.000   6.689   9.923 -0.1793 -0.1194  0.2105
 9305SOL    HW139569   3.038   6.636   9.999 -2.2623 -2.3891 -0.2568
 9305SOL    HW239570   3.037   6.654   9.837  1.4083  1.7947  0.0717
 9306SOL     OW39571   0.926   7.960   7.308  0.2525 -0.1349 -1.0090
 9306SOL    HW139572   0.986   8.019   7.253  1.8376 -1.2095 -0.4616
 9306SOL    HW239573   0.959   7.958   7.402 -0.2403 -1.2632 -0.8549
 9307SOL     OW39574   3.055   4.694   1.394  0.2024 -1.0785  0.0892
 9307SOL    HW139575   3.119   4.751   1.445 -0.3860 -1.1801  0.9622
 9307SOL    HW239576   3.081   4.692   1.298  0.2255  0.6606  0.0465
 9308SOL     OW39577   7.014   8.785   6.148  0.1471  0.1496  0.0127
 9308SOL    HW139578   6.922   8.808   6.180 -0.1070  1.8263 -1.7874
 9308SOL    HW239579   7.034   8.690   6.170 -2.2633 -0.4317 -0.1151
 9309SOL     OW39580   5.676   4.606   1.796 -0.1222 -0.1888 -0.2007
 9309SOL    HW139581   5.601   4.553   1.757 -2.0021  0.3078  2.5800
 9309SOL    HW239582   5.657   4.704   1.786  0.8777 -0.0395 -0.7532
 9310SOL     OW39583   9.026   0.885   6.102 -0.2603 -0.1275 -0.0401
 9310SOL    HW139584   9.026   0.857   6.198 -0.1862  1.8757  0.5704
 9310SOL    HW239585   9.120   0.906   6.074 -0.3658 -0.0812 -0.3551
 9311SOL     OW39586   2.771   5.235   6.377  0.5147  0.1393 -0.0531
 9311SOL    HW139587   2.799   5.141   6.396  0.7413  0.0466 -0.8566
 9311SOL    HW239588   2.682   5.252   6.420  0.8361 -0.1956  0.7561
 9312SOL     OW39589   0.947   4.703   5.375  0.0357 -0.1180 -0.3936
 9312SOL    HW139590   1.026   4.764   5.367 -0.4192  0.4429 -0.6595
 9312SOL    HW239591   0.958   4.643   5.454  0.2339  0.6799  0.1770
 9313SOL     OW39592   1.989   4.310   5.676 -0.4860  0.0847 -0.0045
 9313SOL    HW139593   2.028   4.224   5.643 -3.4796 -0.7401 -1.5534
 9313SOL    HW239594   1.895   4.295   5.705 -0.7607  2.6614  0.5407
 9314SOL     OW39595   3.734   3.016   4.355  0.2816 -0.7838  0.4794
 9314SOL    HW139596   3.642   3.049   4.332  0.5733 -0.3536 -0.0840
 9314SOL    HW239597   3.728   2.951   4.430 -0.6982 -2.2715 -0.8675
 9315SOL     OW39598   1.492   3.946   2.831  0.6684 -0.7314 -0.1430
 9315SOL    HW139599   1.396   3.919   2.831  1.0328 -2.0954  1.1049
 9315SOL    HW239600   1.505   4.024   2.769 -1.1980 -0.6310 -0.4335
 9316SOL     OW39601   6.214   7.934   2.971  0.1043 -0.1160 -0.2142
 9316SOL    HW139602   6.130   7.982   2.996 -1.7548 -2.5122 -1.6232
 9316SOL    HW239603   6.245   7.967   2.881  1.3214  1.5393  0.7843
 9317SOL     OW39604   1.129   9.075   3.333 -0.1154  0.1955  0.1065
 9317SOL    HW139605   1.221   9.111   3.343 -1.0769  1.8832  3.5035
 9317SOL    HW239606   1.062   9.145   3.360 -2.3524 -1.5199 -0.7609
 9318SOL     OW39607   2.090   1.611   3.055  0.7324 -0.2940 -0.1539
 9318SOL    HW139608   2.089   1.711   3.057  1.7467 -0.3013  1.0287
 9318SOL    HW239609   1.998   1.577   3.073  0.8185  0.4037  1.7413
 9319SOL     OW39610   3.725   7.607   3.337 -0.1713  0.1870  0.2105
 9319SOL    HW139611   3.802   7.544   3.341 -0.2746 -0.0540 -1.3934
 9319SOL    HW239612   3.649   7.564   3.289 -1.3871  0.3648  1.9068
 9320SOL     OW39613   6.893   0.476   2.822  0.0461 -0.5358  0.1649
 9320SOL    HW139614   6.977   0.530   2.820 -1.0700  1.2414  0.4005
 9320SOL    HW239615   6.846   0.485   2.734  1.2755 -3.4691 -0.8502
 9321SOL     OW39616   4.215   8.080   0.075 -0.1134  0.2197 -0.3566
 9321SOL    HW139617   4.258   8.149   0.016 -0.9635  1.0510 -0.0298
 9321SOL    HW239618   4.259   8.081   0.164  0.4728 -0.3003 -0.6345
 9322SOL     OW39619   5.099   1.542   7.235  0.2302 -0.4012 -0.0235
 9322SOL    HW139620   5.008   1.580   7.249  0.2273 -0.2233 -0.5340
 9322SOL    HW239621   5.110   1.460   7.291  0.0322  0.0153  0.6210
 9323SOL     OW39622   1.154   9.466   5.777 -0.2689  0.5178  0.2420
 9323SOL    HW139623   1.102   9.521   5.712  0.7110  0.8474 -0.2693
 9323SOL    HW239624   1.111   9.471   5.867 -2.2591 -0.7945 -0.5862
 9324SOL     OW39625   6.304   1.958   5.106  0.1032  0.4456 -0.5552
 9324SOL    HW139626   6.240   2.013   5.159  0.1281  0.4448 -0.5242
 9324SOL    HW239627   6.368   1.913   5.169  0.8681  1.3714 -0.6631
 9325SOL     OW39628   1.853   5.555   6.139  0.5625  0.3913 -0.1256
 9325SOL    HW139629   1.841   5.457   6.156 -0.2930  0.2335 -1.5592
 9325SOL    HW239630   1.950   5.579   6.152  1.0130 -0.8897 -1.0093
 9326SOL     OW39631   5.517   2.393   5.884  0.5603 -0.3322 -0.4200
 9326SOL    HW139632   5.515   2.483   5.841  3.1398  1.0888  2.2343
 9326SOL    HW239633   5.483   2.324   5.820 -1.4604  2.4994 -2.5113
 9327SOL     OW39634   8.939   2.101   0.559  0.5298 -0.2639  0.0422
 9327SOL    HW139635   8.998   2.047   0.619  0.2034  0.6555  1.2222
 9327SOL    HW239636   8.992   2.177   0.521  0.1334  0.5770  1.1225
 9328SOL     OW39637   4.327   8.509   0.031 -0.0836  0.0951  0.4255
 9328SOL    HW139638   4.333   8.605   0.006  1.2752  0.4248  1.8750
 9328SOL    HW239639   4.304   8.501   0.128 -4.1407 -1.1196 -0.5503
 9329SOL     OW39640   4.877   2.503   1.886 -0.4885  0.5837 -0.2935
 9329SOL    HW139641   4.791   2.457   1.864  0.7102 -1.6443 -0.4525
 9329SOL    HW239642   4.924   2.529   1.802 -0.2116  0.2831 -0.2321
 9330SOL     OW39643   5.729   9.524   5.093 -0.0347  0.2134 -0.7008
 9330SOL    HW139644   5.760   9.528   5.188 -0.7407 -0.2110 -0.4474
 9330SOL    HW239645   5.808   9.522   5.032  0.4783 -2.0958 -0.0204
 9331SOL     OW39646   2.181   2.408   3.896  0.0704 -0.0605  0.2285
 9331SOL    HW139647   2.227   2.377   3.814  1.6622  1.1450  0.6413
 9331SOL    HW239648   2.206   2.350   3.974 -0.1664 -0.2220  0.1842
 9332SOL     OW39649   4.774   9.402   4.622 -0.3862 -0.2890 -0.1594
 9332SOL    HW139650   4.706   9.379   4.553 -1.4810  2.0771  0.1009
 9332SOL    HW239651   4.774   9.332   4.694 -0.8076 -1.5659 -1.3667
 9333SOL     OW39652   8.648   8.330   1.830 -0.8074 -0.2383  0.5912
 9333SOL    HW139653   8.711   8.372   1.895 -0.1628 -1.3884  0.7168
 9333SOL    HW239654   8.639   8.233   1.851 -1.9998 -0.2409  0.0707
 9334SOL     OW39655   4.256   3.858   1.974 -0.4467 -0.3696 -0.0707
 9334SOL    HW139656   4.352   3.834   1.962 -0.3184 -1.1037  2.2399
 9334SOL    HW239657   4.198   3.789   1.931  0.0104 -1.9647  1.8279
 9335SOL     OW39658   8.270   8.633   2.371  0.3770  0.2514  0.4960
 9335SOL    HW139659   8.218   8.718   2.363  1.0489  0.6117 -0.1370
 9335SOL    HW239660   8.224   8.561   2.318  0.4921  0.5579 -0.0324
 9336SOL     OW39661   9.528   1.001   1.969 -0.1016  0.1728 -0.0738
 9336SOL    HW139662   9.627   1.006   1.952  0.4321 -0.3624  2.5843
 9336SOL    HW239663   9.499   0.906   1.966 -0.2516  0.1966  0.5221
 9337SOL     OW39664   0.202   3.783   1.447  0.1293  0.2447 -0.2793
 9337SOL    HW139665   0.254   3.837   1.513 -0.5438  2.1120 -1.2326
 9337SOL    HW239666   0.105   3.783   1.473 -0.1380  0.9860 -1.2591
 9338SOL     OW39667   1.423   2.623   3.001 -1.1026  0.3694  0.6731
 9338SOL    HW139668   1.445   2.715   3.032 -1.7626  0.4466  0.9242
 9338SOL    HW239669   1.443   2.615   2.903 -0.8484  0.7160  0.6964
 9339SOL     OW39670   7.477   8.158   8.310 -0.0140 -0.3018  0.5209
 9339SOL    HW139671   7.564   8.166   8.359 -0.3283  0.5397  0.9491
 9339SOL    HW239672   7.443   8.249   8.287  0.0428 -0.6685 -1.1339
 9340SOL     OW39673   3.407   1.317   1.500  0.1439 -0.1392 -0.3505
 9340SOL    HW139674   3.456   1.232   1.517  1.0355  0.3369 -0.5321
 9340SOL    HW239675   3.347   1.336   1.578  0.1210 -0.8007 -0.2014
 9341SOL     OW39676   0.918   2.152   4.422  0.3779 -0.0162 -0.4424
 9341SOL    HW139677   0.964   2.064   4.417 -0.6772 -0.5612 -0.8657
 9341SOL    HW239678   0.970   2.220   4.370  0.6123 -0.6629 -1.0721
 9342SOL     OW39679   7.573   7.339   7.710  0.6610  0.3565  0.2419
 9342SOL    HW139680   7.625   7.390   7.779  0.2838  0.3004  0.5697
 9342SOL    HW239681   7.513   7.401   7.661  0.6701  0.3360  0.2044
 9343SOL     OW39682   4.836   2.201   7.040  0.0077 -0.3963  0.1509
 9343SOL    HW139683   4.787   2.257   6.973 -0.7137 -2.2959 -0.9437
 9343SOL    HW239684   4.858   2.256   7.120  0.7637  1.9074 -1.5845
 9344SOL     OW39685   2.381   3.607   0.149  0.0981 -0.7241  0.1977
 9344SOL    HW139686   2.473   3.623   0.112 -0.2930 -0.8619 -0.8472
 9344SOL    HW239687   2.386   3.542   0.225  0.9446 -0.2321  0.5637
 9345SOL     OW39688   3.225   6.799   0.397 -0.4226  0.6537  0.5084
 9345SOL    HW139689   3.161   6.873   0.378 -2.1313 -1.6256 -3.1947
 9345SOL    HW239690   3.174   6.718   0.428  1.1671  0.2431  2.1251
 9346SOL     OW39691   1.695   3.419   6.199 -0.0464  0.1509 -0.3419
 9346SOL    HW139692   1.640   3.502   6.194 -0.9656 -0.4303 -0.1593
 9346SOL    HW239693   1.658   3.351   6.135 -0.4289 -0.7516  0.8077
 9347SOL     OW39694   0.930   9.681   7.033  0.2199 -0.0145 -0.4967
 9347SOL    HW139695   0.904   9.585   7.026  1.5752 -0.3685 -0.8232
 9347SOL    HW239696   0.998   9.692   7.105 -1.0194  0.9430  0.5487
 9348SOL     OW39697   3.726   0.537   3.036 -0.3836  0.2503 -0.7407
 9348SOL    HW139698   3.630   0.555   3.017 -0.3537 -0.2026 -1.3353
 9348SOL    HW239699   3.752   0.448   2.999  0.1467  0.1566 -0.1682
 9349SOL     OW39700   3.845   8.276   2.715  0.6269 -0.2474  1.0540
 9349SOL    HW139701   3.840   8.309   2.621  0.4381 -0.3660  1.0226
 9349SOL    HW239702   3.809   8.183   2.720 -1.7368  0.6515  1.6619
 9350SOL     OW39703   5.153   1.342   3.977  0.0075  0.1131  0.9757
 9350SOL    HW139704   5.109   1.393   4.051 -0.1788 -0.3107  1.1597
 9350SOL    HW239705   5.108   1.253   3.967  0.2807  0.0168  0.6082
 9351SOL     OW39706   7.729   0.049   6.861  0.1184  0.7742  0.0522
 9351SOL    HW139707   7.691   0.138   6.836  1.4666  1.5537  0.6603
 9351SOL    HW239708   7.828   0.059   6.876  0.1269 -0.6342  1.0000
 9352SOL     OW39709   0.334   3.707   2.499  0.2184  0.0723 -0.5598
 9352SOL    HW139710   0.293   3.798   2.501  0.6643  0.2686  0.5833
 9352SOL    HW239711   0.314   3.660   2.585 -1.3253 -1.5172 -1.7554
 9353SOL     OW39712   9.467   3.571   4.265  0.7698  0.2128  0.2530
 9353SOL    HW139713   9.538   3.570   4.193 -0.9614 -1.3622 -1.4906
 9353SOL    HW239714   9.462   3.662   4.306  1.1119  1.4361 -2.3415
 9354SOL     OW39715   2.139   2.352   6.761  0.9386 -0.1193  0.6104
 9354SOL    HW139716   2.192   2.268   6.750  1.8858  0.5875 -0.2541
 9354SOL    HW239717   2.194   2.431   6.734 -0.0980  0.7479  0.9717
 9355SOL     OW39718   6.717   0.128   2.163 -0.5841 -0.6120 -0.0086
 9355SOL    HW139719   6.719   0.059   2.090  2.7117 -0.4470 -0.1482
 9355SOL    HW239720   6.684   0.085   2.247 -1.5239 -1.5600 -0.8332
 9356SOL     OW39721   7.191   5.412   7.098  0.3512  0.0892  0.1865
 9356SOL    HW139722   7.288   5.406   7.122  0.2445 -0.8450  0.3791
 9356SOL    HW239723   7.140   5.445   7.178  0.2306 -1.3829  0.7239
 9357SOL     OW39724   1.609   1.469   1.489  0.4162 -0.3671  0.2577
 9357SOL    HW139725   1.538   1.410   1.453 -0.6788  0.1112  1.6005
 9357SOL    HW239726   1.638   1.534   1.417 -0.9198 -0.1688 -0.1160
 9358SOL     OW39727   4.587   1.090   7.532 -0.5452  0.1042  0.2143
 9358SOL    HW139728   4.635   1.014   7.575  1.0087  0.7879 -0.2840
 9358SOL    HW239729   4.491   1.088   7.560 -0.5016 -1.9441  0.3188
 9359SOL     OW39730   9.348   3.751   0.260 -0.1278  0.0443 -0.2395
 9359SOL    HW139731   9.344   3.667   0.205 -1.4622 -0.1591  0.1517
 9359SOL    HW239732   9.362   3.728   0.356  3.5624  0.4480 -0.5862
 9360SOL     OW39733   1.498   3.847   6.085  0.1825  0.5795  0.2653
 9360SOL    HW139734   1.517   3.945   6.077  2.2727 -0.0587 -3.9205
 9360SOL    HW239735   1.400   3.831   6.073  0.0647  2.0250 -0.8589
 9361SOL     OW39736   3.550   3.074   5.058  0.5093 -0.0856  0.0056
 9361SOL    HW139737   3.568   2.982   5.093 -2.3290 -0.6704  0.0534
 9361SOL    HW239738   3.583   3.141   5.124  0.5614 -1.0981  1.0273
 9362SOL     OW39739   9.898   6.285   4.248  0.0500  0.3921 -0.3831
 9362SOL    HW139740   9.890   6.344   4.168  0.0437  0.8329 -0.0597
 9362SOL    HW239741   9.830   6.311   4.316 -1.8018 -1.7461 -1.3348
 9363SOL     OW39742   1.119   3.120   4.091 -0.5352  0.3168 -0.4970
 9363SOL    HW139743   1.130   3.027   4.125  1.6266  0.2421 -1.3349
 9363SOL    HW239744   1.076   3.118   4.001 -0.8344  0.1607 -0.3516
 9364SOL     OW39745   7.306   4.559   0.463 -0.0986 -0.1851  0.3457
 9364SOL    HW139746   7.285   4.475   0.514 -1.8689  0.3551  0.5432
 9364SOL    HW239747   7.261   4.637   0.507 -0.2123  0.5518 -1.0452
 9365SOL     OW39748   8.062   0.206   4.225  0.0467  0.0735  0.3175
 9365SOL    HW139749   8.109   0.125   4.262 -0.2824 -0.5394 -0.5851
 9365SOL    HW239750   8.023   0.259   4.300  0.6075 -0.3903  0.9497
 9366SOL     OW39751   0.002   3.692   6.631 -1.1801 -0.2028  0.2190
 9366SOL    HW139752   0.088   3.647   6.607 -1.9136 -0.1888 -2.6024
 9366SOL    HW239753   0.019   3.790   6.642 -0.5786 -0.3973  1.0873
 9367SOL     OW39754   4.063   8.408   5.234 -0.0035  0.1616 -0.1232
 9367SOL    HW139755   4.090   8.341   5.303 -1.0607 -0.5858 -0.4045
 9367SOL    HW239756   4.132   8.412   5.162  0.4345 -0.0672  0.2838
 9368SOL     OW39757   2.426   6.968   2.087 -0.2354  0.1754  0.1823
 9368SOL    HW139758   2.423   6.879   2.042  0.4422  0.0478  0.3878
 9368SOL    HW239759   2.508   7.017   2.058  1.1703 -0.6421  2.6718
 9369SOL     OW39760   7.436   5.607   1.248 -0.0014  0.5956  0.0514
 9369SOL    HW139761   7.512   5.630   1.188  0.2274  0.1358  0.1613
 9369SOL    HW239762   7.451   5.516   1.288  0.2976  1.2708  1.5042
 9370SOL     OW39763   8.542   4.758   1.137 -0.1712 -0.4612 -0.0477
 9370SOL    HW139764   8.537   4.830   1.206 -2.6028 -0.6342  0.0113
 9370SOL    HW239765   8.541   4.799   1.046 -1.6476 -0.3751 -0.0158
 9371SOL     OW39766   2.904   3.711   0.693 -0.0187 -0.1471  0.8149
 9371SOL    HW139767   2.874   3.647   0.763 -0.4439 -0.1610  0.6224
 9371SOL    HW239768   2.832   3.778   0.675 -0.4923 -1.0273 -0.6604
 9372SOL     OW39769   2.253   3.193   4.142 -0.1306 -0.1204 -0.0882
 9372SOL    HW139770   2.184   3.122   4.129  1.2457 -1.3125 -0.9652
 9372SOL    HW239771   2.278   3.198   4.239 -1.4006  0.2794  0.2213
 9373SOL     OW39772   9.512   7.507   0.563 -0.1885 -0.0644 -0.4085
 9373SOL    HW139773   9.551   7.436   0.622 -0.3632  0.5883  0.5051
 9373SOL    HW239774   9.446   7.466   0.501 -0.1930 -0.7223  0.0229
 9374SOL     OW39775   2.599   3.899   3.129 -0.0379  0.2774  0.2574
 9374SOL    HW139776   2.516   3.932   3.175  0.1639  1.1670 -0.0331
 9374SOL    HW239777   2.625   3.961   3.056  0.5935 -0.2810 -0.0017
 9375SOL     OW39778   3.593   0.450   0.473  0.0255  0.4686 -0.4385
 9375SOL    HW139779   3.623   0.368   0.424 -0.3420  1.3484 -2.1753
 9375SOL    HW239780   3.564   0.425   0.565  1.8351 -1.0474 -0.2525
 9376SOL     OW39781   0.451   2.777   1.573  0.0244  0.4215 -0.3748
 9376SOL    HW139782   0.469   2.842   1.499 -0.7556  0.6184 -0.3955
 9376SOL    HW239783   0.376   2.811   1.629 -1.9644 -1.5601 -1.7400
 9377SOL     OW39784   4.579   8.692   5.914  0.0176  0.1545  0.1603
 9377SOL    HW139785   4.678   8.702   5.924 -0.3255  2.5588  1.6166
 9377SOL    HW239786   4.544   8.766   5.856 -1.1429  0.4014  1.1474
 9378SOL     OW39787   1.132   6.610   2.269 -0.2574  0.2390 -0.6937
 9378SOL    HW139788   1.200   6.651   2.330 -0.6496 -0.9165  0.5458
 9378SOL    HW239789   1.090   6.682   2.213  0.0934  1.3150  0.4012
 9379SOL     OW39790   6.785   9.126   3.998  0.7207  0.0302  0.5876
 9379SOL    HW139791   6.690   9.134   4.029  0.8632  0.6062  0.8872
 9379SOL    HW239792   6.839   9.079   4.068  0.3406 -1.7033 -0.2468
 9380SOL     OW39793   5.065   1.549   1.263 -0.4807  1.2157 -0.2495
 9380SOL    HW139794   5.147   1.524   1.313 -0.0179  1.4421 -0.8824
 9380SOL    HW239795   5.048   1.647   1.273 -0.8401  1.1170  0.1204
 9381SOL     OW39796   0.912   7.850   6.740  0.3872 -0.8436  0.0257
 9381SOL    HW139797   0.956   7.880   6.825 -1.8761  2.0338  0.2255
 9381SOL    HW239798   0.951   7.899   6.663 -0.3181 -0.5209 -0.1316
 9382SOL     OW39799   0.222   8.203   7.511 -0.4657  0.2177  0.2770
 9382SOL    HW139800   0.158   8.198   7.434 -1.2817 -2.1652  1.0532
 9382SOL    HW239801   0.309   8.160   7.485  0.7721  3.1239 -0.6532
 9383SOL     OW39802   1.473   5.272   4.982  0.1186 -0.4058  0.6156
 9383SOL    HW139803   1.397   5.268   5.047 -0.6478  1.7737 -0.1010
 9383SOL    HW239804   1.438   5.296   4.892  1.6797  0.6979  0.2890
 9384SOL     OW39805   5.264   9.167   4.795  0.2259  0.5251  0.0826
 9384SOL    HW139806   5.288   9.149   4.890 -0.3501 -2.2925 -0.2507
 9384SOL    HW239807   5.348   9.169   4.740  0.3198 -2.0319  0.0472
 9385SOL     OW39808   3.428   0.024   3.989  0.3905  0.0782  0.4167
 9385SOL    HW139809   3.384   0.044   4.077  0.7380 -0.4315  0.7057
 9385SOL    HW239810   3.368  -0.034   3.934  1.5130 -2.2092  1.5834
 9386SOL     OW39811   5.224   8.914   1.310  0.0272  0.2443  0.0985
 9386SOL    HW139812   5.161   8.855   1.261  0.2488  0.0064  0.1018
 9386SOL    HW239813   5.175   8.964   1.382 -0.0386 -0.3887  0.4926
 9387SOL     OW39814   8.112   7.676   5.040 -0.4124  0.2066  0.5229
 9387SOL    HW139815   8.072   7.600   5.091 -0.6467 -0.4346 -0.6139
 9387SOL    HW239816   8.077   7.677   4.947  0.1922  1.2378  0.2921
 9388SOL     OW39817   3.414   3.769   6.241  0.0494  0.4913  0.1107
 9388SOL    HW139818   3.318   3.753   6.263 -0.2022  2.3201  0.4297
 9388SOL    HW239819   3.423   3.790   6.143  0.4112 -1.7544 -0.3634
 9389SOL     OW39820   7.773   9.745   1.307  0.0256 -0.1762 -0.4673
 9389SOL    HW139821   7.775   9.782   1.214 -0.4366 -1.6504 -1.0928
 9389SOL    HW239822   7.866   9.744   1.344  0.2214  0.3799 -0.9413
 9390SOL     OW39823   4.082   6.044   4.205 -0.3084 -0.0718  0.0436
 9390SOL    HW139824   4.169   5.995   4.196 -1.0335 -1.1571 -1.4230
 9390SOL    HW239825   4.068   6.102   4.124 -2.1141 -1.8850 -0.9977
 9391SOL     OW39826   0.922   5.619   7.672 -0.2895 -0.2402  0.4263
 9391SOL    HW139827   0.862   5.609   7.592 -0.2049  3.2581 -0.1705
 9391SOL    HW239828   0.874   5.673   7.742  1.0279 -0.0422  1.1877
 9392SOL     OW39829   4.043   0.532   7.682 -0.1202  0.4230 -0.1815
 9392SOL    HW139830   3.966   0.502   7.626 -2.0355  2.8911  1.0242
 9392SOL    HW239831   4.113   0.572   7.624 -0.8929  0.4934 -1.0733
 9393SOL     OW39832   8.102   8.068   1.861 -0.6831  0.2200  0.2264
 9393SOL    HW139833   8.029   8.006   1.889 -0.4567 -0.5990 -0.9107
 9393SOL    HW239834   8.188   8.038   1.902 -1.0864  1.5545  2.0626
 9394SOL     OW39835   0.561   5.653   4.928 -0.0970  0.2310  0.2325
 9394SOL    HW139836   0.607   5.723   4.872 -1.0510 -0.0036 -0.8595
 9394SOL    HW239837   0.582   5.562   4.891  3.0238 -0.2472  3.0204
 9395SOL     OW39838   6.876   7.277   6.058  0.0281  0.3832 -0.3671
 9395SOL    HW139839   6.964   7.268   6.105  0.4323 -0.7527 -1.3212
 9395SOL    HW239840   6.889   7.327   5.972 -0.2381  0.1070 -0.5697
 9396SOL     OW39841   8.782   3.746   5.996 -0.9679 -0.0057 -0.2059
 9396SOL    HW139842   8.730   3.826   5.967  0.5291  0.2249 -2.3939
 9396SOL    HW239843   8.878   3.757   5.969 -0.6638 -2.3586 -0.2225
 9397SOL     OW39844   9.443   5.531   6.079  0.1639  0.1930  0.0947
 9397SOL    HW139845   9.352   5.503   6.050  0.2117  0.0281  0.0973
 9397SOL    HW239846   9.475   5.607   6.023  0.5162 -0.5446 -0.7237
 9398SOL     OW39847   8.253   5.679   3.615  0.1604  0.6410  0.2509
 9398SOL    HW139848   8.187   5.705   3.545 -0.1914 -1.1302 -0.0995
 9398SOL    HW239849   8.217   5.602   3.668  0.5621  1.7488  2.1737
 9399SOL     OW39850   6.020   3.484   1.116 -0.3101  0.1207 -0.3192
 9399SOL    HW139851   6.070   3.458   1.198  0.4333 -0.3802 -0.9241
 9399SOL    HW239852   5.934   3.433   1.112  0.3890 -1.0583 -0.6671
 9400SOL     OW39853   4.900   9.702   1.818 -0.4159  0.6209  0.2813
 9400SOL    HW139854   4.906   9.800   1.835 -3.3963  0.7214  1.1345
 9400SOL    HW239855   4.855   9.685   1.730 -0.4714  0.0385  0.4155
 9401SOL     OW39856   1.843   0.407   0.535 -0.2018  0.1022  1.1716
 9401SOL    HW139857   1.825   0.350   0.455  0.8864  1.5663 -0.1554
 9401SOL    HW239858   1.791   0.373   0.613 -2.1864 -0.6529 -0.4428
 9402SOL     OW39859   5.675   1.620   6.177  0.5420 -0.6165  0.3998
 9402SOL    HW139860   5.666   1.595   6.081  0.2575 -1.1273  0.5608
 9402SOL    HW239861   5.748   1.566   6.219  2.6302  1.6194 -0.2395
 9403SOL     OW39862   1.743   8.001   0.384  0.6455 -0.5829 -0.1204
 9403SOL    HW139863   1.727   8.068   0.456  2.4272 -0.2071 -0.0387
 9403SOL    HW239864   1.842   7.988   0.372  0.4180 -0.2196 -2.8590
 9404SOL     OW39865   8.940   7.776   8.048 -0.5725  0.0102  0.1112
 9404SOL    HW139866   8.913   7.832   8.126 -0.7891  0.1561 -0.0684
 9404SOL    HW239867   8.865   7.715   8.023  0.2365 -1.5416  1.3431
 9405SOL     OW39868   0.842   1.536   2.136  1.1443 -0.0311 -0.1944
 9405SOL    HW139869   0.874   1.515   2.228 -0.9006  0.7112  0.7260
 9405SOL    HW239870   0.782   1.462   2.105  1.1811  0.1072 -0.5946
 9406SOL     OW39871   0.572   4.759   1.556  0.1120 -0.8374 -0.1194
 9406SOL    HW139872   0.542   4.727   1.466  1.2043 -0.4607 -0.6243
 9406SOL    HW239873   0.513   4.719   1.626 -1.4855 -0.2165 -1.0779
 9407SOL     OW39874   7.663   2.322   4.782 -0.4987  0.3330  0.2101
 9407SOL    HW139875   7.591   2.283   4.725  0.2952 -3.4199  1.5997
 9407SOL    HW239876   7.642   2.304   4.878  2.1594 -0.6533  0.6463
 9408SOL     OW39877   9.881   3.513   5.355  0.3312  0.2467 -0.1698
 9408SOL    HW139878   9.936   3.503   5.438 -1.1865  1.2005  0.9595
 9408SOL    HW239879   9.875   3.610   5.331 -0.5952  0.1200 -0.4596
 9409SOL     OW39880   1.411   8.543   6.827 -0.2776  0.5682  0.5317
 9409SOL    HW139881   1.447   8.520   6.737  0.5941 -1.9448  1.4751
 9409SOL    HW239882   1.398   8.642   6.834  1.0955  0.9437 -1.7913
 9410SOL     OW39883   3.277   9.866   3.766 -0.3682  0.6179  0.2552
 9410SOL    HW139884   3.350   9.809   3.805  0.1625  0.7854 -0.4878
 9410SOL    HW239885   3.191   9.847   3.814  0.6390  2.1341  2.7473
 9411SOL     OW39886   0.962   4.278   0.041 -0.4313 -0.4432  0.1626
 9411SOL    HW139887   0.969   4.342  -0.035  1.6891  0.1829  0.8333
 9411SOL    HW239888   0.867   4.249   0.053 -0.5842 -1.6789 -3.6017
 9412SOL     OW39889   9.142   4.794   1.215  0.9621  0.0257  0.4813
 9412SOL    HW139890   9.173   4.855   1.288  0.2671 -0.7580  1.4482
 9412SOL    HW239891   9.159   4.837   1.126  1.3905  1.1915  1.1138
 9413SOL     OW39892   9.610   7.708   2.200  0.2724  0.3156  0.0777
 9413SOL    HW139893   9.582   7.617   2.232  1.6814 -0.3360 -0.4619
 9413SOL    HW239894   9.583   7.719   2.105 -1.0373  0.9717  0.5227
 9414SOL     OW39895   7.446   3.490   0.945 -0.3202 -0.6195 -0.1405
 9414SOL    HW139896   7.355   3.465   0.977 -0.5859 -0.2666 -0.6104
 9414SOL    HW239897   7.440   3.525   0.851  0.1205  0.5874  0.2675
 9415SOL     OW39898   7.417   4.890   0.397 -0.1981  0.2043  0.0570
 9415SOL    HW139899   7.343   4.875   0.463 -0.5288 -0.1647 -0.3918
 9415SOL    HW239900   7.495   4.832   0.422 -1.1890 -1.7351 -1.2166
 9416SOL     OW39901   2.121   2.866   5.122  0.1248 -0.3142 -0.1267
 9416SOL    HW139902   2.078   2.899   5.038 -1.5022  0.5574  1.0232
 9416SOL    HW239903   2.050   2.845   5.190  1.3617 -2.0482  0.6532
 9417SOL     OW39904   7.129   8.150   7.796 -0.6022 -0.4453  0.3622
 9417SOL    HW139905   7.102   8.210   7.871  0.6080 -0.3268  0.7024
 9417SOL    HW239906   7.228   8.148   7.788 -0.5876 -2.7523  0.6604
 9418SOL     OW39907   1.017   5.958   1.745  0.2588  0.3025 -0.0898
 9418SOL    HW139908   0.969   5.957   1.833 -1.1894  1.5413 -0.8353
 9418SOL    HW239909   1.092   5.892   1.748 -0.1225 -0.1032  1.8682
 9419SOL     OW39910   0.025   3.261   1.574  0.1981  0.0080  0.3259
 9419SOL    HW139911   0.010   3.163   1.579 -1.5737  0.2196 -0.5966
 9419SOL    HW239912   0.014   3.302   1.664 -2.0248 -0.2294  0.1702
 9420SOL     OW39913   5.218   9.742   6.591  0.4420 -0.0819  0.1147
 9420SOL    HW139914   5.306   9.787   6.577  0.2984  0.2473  0.2779
 9420SOL    HW239915   5.211   9.664   6.528  1.4386 -0.9679  1.0633
 9421SOL     OW39916   7.528   4.107   9.989 -0.2004 -0.6617  0.2320
 9421SOL    HW139917   7.588   4.150   9.922 -1.2964 -0.1496 -0.4299
 9421SOL    HW239918   7.537   4.153  10.077 -0.7448  0.4087 -0.2606
 9422SOL     OW39919   8.865   8.424   5.641 -0.2201  0.4624  0.3715
 9422SOL    HW139920   8.879   8.467   5.730  1.9953  0.6993 -0.0758
 9422SOL    HW239921   8.872   8.493   5.569  1.4682 -0.2937 -0.2144
 9423SOL     OW39922   2.311   6.335   5.271  0.1628  0.0820 -0.2394
 9423SOL    HW139923   2.327   6.392   5.191  1.7714 -2.2277 -1.6027
 9423SOL    HW239924   2.234   6.274   5.254 -1.6798  1.9066  1.2899
 9424SOL     OW39925   9.251   4.256   4.690 -0.6294  0.1487 -0.1364
 9424SOL    HW139926   9.206   4.321   4.750 -0.6328 -0.1384  0.1720
 9424SOL    HW239927   9.224   4.163   4.715 -0.3688  0.0105 -0.3622
 9425SOL     OW39928   7.795   3.353   5.923  0.0197 -0.3348 -0.2239
 9425SOL    HW139929   7.831   3.376   6.013 -1.3809 -1.9598  0.7829
 9425SOL    HW239930   7.798   3.434   5.864  0.9841  0.7310  1.2600
 9426SOL     OW39931   9.360   9.412   3.319 -0.0199 -0.2928  0.1879
 9426SOL    HW139932   9.304   9.474   3.374 -0.0664 -0.7027  0.6030
 9426SOL    HW239933   9.324   9.409   3.226 -0.5432 -0.3697  0.3905
 9427SOL     OW39934   7.043   9.849   8.075  0.5197 -0.1667 -0.3644
 9427SOL    HW139935   7.115   9.794   8.034  0.8211  0.6844 -0.9660
 9427SOL    HW239936   7.018   9.924   8.014 -2.4363 -1.7242 -1.1900
 9428SOL     OW39937   1.596   9.892   5.150 -0.1699  0.8234 -0.7266
 9428SOL    HW139938   1.556   9.813   5.197 -2.8091  1.5611 -1.6383
 9428SOL    HW239939   1.629   9.864   5.060 -1.6243  0.8263 -1.2830
 9429SOL     OW39940   8.347   7.203   0.702  0.3133 -0.6809  0.0687
 9429SOL    HW139941   8.295   7.210   0.616  0.2168 -0.1090  0.1694
 9429SOL    HW239942   8.445   7.207   0.682  0.2925 -0.6594 -0.0248
 9430SOL     OW39943   7.389   3.479   4.214 -0.7963 -0.6755 -0.2466
 9430SOL    HW139944   7.385   3.509   4.309 -2.7161 -0.1930 -0.4604
 9430SOL    HW239945   7.424   3.552   4.157  0.9612 -1.1726  0.1441
 9431SOL     OW39946   0.717   3.747   3.955  0.4568 -0.4298  0.7344
 9431SOL    HW139947   0.719   3.683   3.877  0.8519  0.5199 -0.0484
 9431SOL    HW239948   0.629   3.794   3.956  1.9331  2.5565 -1.6360
 9432SOL     OW39949   9.723   8.492   4.274  0.6603  0.1957  0.9525
 9432SOL    HW139950   9.766   8.472   4.186 -0.8269  1.2429 -0.0528
 9432SOL    HW239951   9.792   8.525   4.338  1.8976 -1.3541  0.4478
 9433SOL     OW39952   4.693   9.456   2.174  0.1614  0.1167 -0.4652
 9433SOL    HW139953   4.758   9.419   2.239 -0.6698  1.6738  1.3002
 9433SOL    HW239954   4.733   9.536   2.129  0.1099  0.0329 -0.6629
 9434SOL     OW39955   6.642   4.684   1.285 -0.3171  0.0254 -0.4331
 9434SOL    HW139956   6.700   4.654   1.209  2.1318  1.5592  0.7755
 9434SOL    HW239957   6.624   4.782   1.277 -1.5454 -0.1505  0.0207
 9435SOL     OW39958   8.647   7.416   2.874  0.0330 -0.2413 -0.5358
 9435SOL    HW139959   8.704   7.363   2.812  0.2655 -0.6245  0.0009
 9435SOL    HW239960   8.653   7.513   2.850 -0.7065 -0.4850 -1.7725
 9436SOL     OW39961   4.887   8.755   6.192  0.3093  0.2797 -0.3795
 9436SOL    HW139962   4.956   8.755   6.264  1.0494  0.8250 -1.0771
 9436SOL    HW239963   4.805   8.707   6.224  1.2493 -0.9656  0.2236
 9437SOL     OW39964   2.168   8.146   5.808  0.2701  0.7365  0.5833
 9437SOL    HW139965   2.118   8.227   5.837  0.1847  1.1925 -0.8311
 9437SOL    HW239966   2.148   8.126   5.712  0.1778 -1.0357  0.9493
 9438SOL     OW39967   1.994   6.682   5.629  0.0997  0.2269 -0.3511
 9438SOL    HW139968   2.051   6.643   5.701 -0.5389  0.0947  0.0824
 9438SOL    HW239969   1.975   6.778   5.649  1.8303  0.8378 -1.5155
 9439SOL     OW39970   1.537   3.508   4.377  0.5507 -0.2835  0.2700
 9439SOL    HW139971   1.512   3.433   4.315  0.2754  1.8203 -2.2833
 9439SOL    HW239972   1.456   3.542   4.422  0.4191 -0.4352  0.1500
 9440SOL     OW39973   1.752   0.091   1.860 -0.4714  0.1429  0.5329
 9440SOL    HW139974   1.755   0.139   1.947  2.2309  1.9562 -0.4768
 9440SOL    HW239975   1.670   0.117   1.809 -0.8954  0.8377  1.5708
 9441SOL     OW39976   7.377   0.256   1.955  0.9110 -0.2927  0.3003
 9441SOL    HW139977   7.470   0.285   1.977  0.6578  0.8456 -0.0522
 9441SOL    HW239978   7.345   0.191   2.024  1.1865  0.9749  1.6683
 9442SOL     OW39979   1.851   7.407   3.751  0.0405  0.4719 -0.0428
 9442SOL    HW139980   1.920   7.479   3.755  0.6718 -0.1525  0.4438
 9442SOL    HW239981   1.896   7.318   3.746 -0.7143 -0.0270  1.7652
 9443SOL     OW39982   0.657   2.250   0.849 -0.6362  0.3528  0.8275
 9443SOL    HW139983   0.745   2.244   0.896 -0.1625  0.7332 -0.0002
 9443SOL    HW239984   0.659   2.326   0.784 -1.3856  0.0137  0.3981
 9444SOL     OW39985   2.335   8.362   4.196 -0.0457 -0.1199 -0.4729
 9444SOL    HW139986   2.247   8.408   4.183 -0.5315 -0.7849  0.4295
 9444SOL    HW239987   2.399   8.425   4.242  0.0002  0.4101 -1.2529
 9445SOL     OW39988   3.872   1.219   3.995  0.3412  0.3857  0.0889
 9445SOL    HW139989   3.866   1.121   3.977 -1.6850  0.5980 -0.4466
 9445SOL    HW239990   3.922   1.264   3.921  0.4539 -0.1063 -0.1311
 9446SOL     OW39991   9.410   8.793   2.076 -0.3768  0.0125  0.4643
 9446SOL    HW139992   9.498   8.755   2.104  0.8520  2.2261 -0.1897
 9446SOL    HW239993   9.377   8.855   2.147 -0.7935  0.1297  0.1669
 9447SOL     OW39994   9.063   4.629   6.389  0.0902 -0.0038 -0.2596
 9447SOL    HW139995   9.124   4.575   6.447 -0.0126  0.7748  0.5883
 9447SOL    HW239996   9.089   4.725   6.394 -2.4595  0.6611  1.7808
 9448SOL     OW39997   1.888   1.953   3.590 -0.2611  1.0059 -0.3854
 9448SOL    HW139998   1.796   1.934   3.556 -0.5815  0.5053  0.7283
 9448SOL    HW239999   1.886   2.035   3.647 -0.2742  0.2680  0.6888
 9449SOL     OW40000   1.851   0.532   2.933 -0.4093  0.0808  0.1172
 9449SOL    HW140001   1.945   0.566   2.936  0.4433 -2.0831 -1.0265
 9449SOL    HW240002   1.802   0.561   3.015  1.5867  0.2502  1.2651
 9450SOL     OW40003   5.785   8.217   5.872 -0.0346  0.3559 -0.2253
 9450SOL    HW140004   5.768   8.135   5.927  0.0243  0.2005 -0.4399
 9450SOL    HW240005   5.812   8.292   5.932  0.5931  0.0320 -0.1020
 9451SOL     OW40006   8.005   9.292   4.350  0.4882 -0.0430 -0.1515
 9451SOL    HW140007   7.958   9.217   4.305  0.7171  0.7871 -1.7991
 9451SOL    HW240008   8.019   9.269   4.447 -0.7200 -1.4899 -0.3039
 9452SOL     OW40009   4.848   4.159   1.558  0.4620 -1.2489 -0.1892
 9452SOL    HW140010   4.845   4.239   1.499  2.2946 -0.3417  0.8951
 9452SOL    HW240011   4.922   4.169   1.625 -0.8621 -2.7236  1.5711
 9453SOL     OW40012   4.460   8.604   8.170 -0.1413  0.1730  0.1218
 9453SOL    HW140013   4.534   8.649   8.120 -0.0040 -0.5967 -0.3895
 9453SOL    HW240014   4.374   8.615   8.120 -0.2520  0.5278  0.3908
 9454SOL     OW40015   2.732   9.952   4.126  0.4241  0.2091  0.1876
 9454SOL    HW140016   2.684   9.865   4.110  1.3772 -0.1285 -0.9528
 9454SOL    HW240017   2.688  10.024   4.073  2.0397 -0.4032 -2.0787
 9455SOL     OW40018   5.871   9.331   7.156 -0.0877 -0.4558  0.0282
 9455SOL    HW140019   5.796   9.264   7.153 -0.6533  0.1758  0.0844
 9455SOL    HW240020   5.887   9.368   7.065  1.1284 -1.6431 -0.2691
 9456SOL     OW40021   0.449   4.084   6.707 -0.1708 -0.0639  0.7175
 9456SOL    HW140022   0.452   4.122   6.800  1.1847 -0.4889  0.8583
 9456SOL    HW240023   0.542   4.062   6.678 -0.7523 -1.3621 -0.1576
 9457SOL     OW40024   4.534   0.582   5.395  0.2712 -0.0727  0.5367
 9457SOL    HW140025   4.475   0.641   5.449  0.3797  0.9748 -0.4602
 9457SOL    HW240026   4.596   0.532   5.456 -0.0513  0.5883  1.4162
 9458SOL     OW40027   9.179   6.038   5.592 -0.1392  0.0297 -0.4183
 9458SOL    HW140028   9.082   6.061   5.589 -0.0845  0.0609 -2.1649
 9458SOL    HW240029   9.233   6.122   5.595 -0.1590  0.0113  1.2065
 9459SOL     OW40030   1.497   3.518   4.939  0.0237 -0.2616  0.3763
 9459SOL    HW140031   1.455   3.606   4.916  1.1267  0.1065 -0.2385
 9459SOL    HW240032   1.584   3.509   4.891  0.2465 -1.3896  0.9863
 9460SOL     OW40033   9.976   3.328   6.911 -0.2604 -0.1512  0.1725
 9460SOL    HW140034   9.906   3.263   6.941 -0.9825  0.1821 -0.7737
 9460SOL    HW240035   9.949   3.421   6.937 -0.3986  0.0292 -0.6153
 9461SOL     OW40036   2.820   3.890   0.995  0.4965  0.2884  0.5165
 9461SOL    HW140037   2.875   3.853   1.070  0.4022  3.6669  2.3615
 9461SOL    HW240038   2.729   3.849   0.996  0.0219  1.3121  3.1927
 9462SOL     OW40039   1.064   8.078   1.105 -0.0846 -0.3991 -0.0056
 9462SOL    HW140040   1.123   8.021   1.162 -0.1983  0.9564  1.4994
 9462SOL    HW240041   1.116   8.158   1.073 -0.0490 -1.0953 -1.7341
 9463SOL     OW40042   6.668   0.755   2.183 -0.3917 -0.3920 -0.7475
 9463SOL    HW140043   6.608   0.810   2.125 -0.2454  0.7217  0.1328
 9463SOL    HW240044   6.633   0.662   2.190 -1.4305 -0.0264 -1.1043
 9464SOL     OW40045   2.394   9.036   5.237 -0.1097 -0.2271  0.1151
 9464SOL    HW140046   2.303   8.997   5.225 -0.7556  1.0643  0.7652
 9464SOL    HW240047   2.402   9.073   5.329  0.9334  0.0644 -0.0905
 9465SOL     OW40048   8.940   6.820   7.165 -0.4688 -0.0134  0.4320
 9465SOL    HW140049   9.004   6.767   7.110 -0.2179  2.4592 -1.7068
 9465SOL    HW240050   8.864   6.761   7.193  0.4051 -1.7978 -0.8466
 9466SOL     OW40051   9.769   1.902   0.192 -0.0313  0.0884 -0.2023
 9466SOL    HW140052   9.750   1.949   0.106 -1.4092 -1.2266 -0.6384
 9466SOL    HW240053   9.867   1.882   0.199  0.4680  2.3523 -0.3276
 9467SOL     OW40054   9.185   2.129   6.650  0.0846  0.0110  0.5225
 9467SOL    HW140055   9.219   2.040   6.617 -1.3675 -0.2782 -0.2166
 9467SOL    HW240056   9.256   2.198   6.638 -0.3291 -0.1238 -3.1123
 9468SOL     OW40057   1.512   4.827   9.925 -0.2210 -0.1060 -0.2117
 9468SOL    HW140058   1.564   4.906   9.893  0.2487 -0.3801 -0.1433
 9468SOL    HW240059   1.510   4.826  10.025 -1.2715  0.4844 -0.2213
 9469SOL     OW40060   8.021   4.972   6.030 -0.4944  0.3976  0.0162
 9469SOL    HW140061   8.053   4.916   6.106  0.6952 -0.2247 -0.9311
 9469SOL    HW240062   7.986   4.913   5.957  0.0024  0.9131 -0.6492
 9470SOL     OW40063   3.198   9.445   4.850 -0.1054 -0.7682 -0.8758
 9470SOL    HW140064   3.191   9.543   4.865  1.3688 -0.1644 -3.8164
 9470SOL    HW240065   3.108   9.402   4.863 -1.2297  1.2763 -1.7131
 9471SOL     OW40066   0.802   8.982   5.701  0.5876  0.2336 -0.0364
 9471SOL    HW140067   0.868   9.033   5.757  1.0599 -1.7087  1.1948
 9471SOL    HW240068   0.850   8.913   5.646  0.2291  2.5183 -3.4239
 9472SOL     OW40069   0.149   1.641   6.828 -0.7625  0.0735  0.5612
 9472SOL    HW140070   0.051   1.657   6.817 -0.4921  1.4248  0.0041
 9472SOL    HW240071   0.197   1.728   6.824  0.5175 -0.6407  0.2503
 9473SOL     OW40072   9.196   2.425   4.216 -0.1181 -0.4401 -0.0685
 9473SOL    HW140073   9.116   2.451   4.163 -0.8526 -1.5442  0.4776
 9473SOL    HW240074   9.258   2.504   4.225 -0.7021  0.1622 -1.2573
 9474SOL     OW40075   4.075   0.395   1.140  0.0291 -0.0970 -0.0254
 9474SOL    HW140076   4.099   0.301   1.161  0.4984 -0.0894 -0.4996
 9474SOL    HW240077   4.059   0.446   1.225 -0.2181 -0.6023  0.2277
 9475SOL     OW40078   3.378   0.756   2.532  0.2752 -0.5877 -0.7882
 9475SOL    HW140079   3.321   0.676   2.553  0.1337 -0.2129  0.3144
 9475SOL    HW240080   3.439   0.734   2.456 -0.7027 -1.2931 -1.3836
 9476SOL     OW40081   2.973   3.837   1.829 -0.1797  0.3156 -0.7875
 9476SOL    HW140082   2.873   3.847   1.836 -0.0047  1.7437 -0.3252
 9476SOL    HW240083   2.994   3.745   1.796 -1.5325 -1.1441  2.2310
 9477SOL     OW40084   1.387   7.577   5.613 -0.4871  0.4554 -0.2279
 9477SOL    HW140085   1.419   7.628   5.533  1.0749 -0.4896 -0.2402
 9477SOL    HW240086   1.339   7.494   5.583  1.4554 -0.7131 -0.2304
 9478SOL     OW40087   4.090   1.707   6.925  0.4702 -0.3343 -0.3193
 9478SOL    HW140088   4.059   1.722   7.019 -1.2323 -0.5875 -0.8133
 9478SOL    HW240089   4.013   1.677   6.869  0.9788  1.7669 -2.2597
 9479SOL     OW40090   1.894   4.307   9.929  0.1727  0.1763 -0.0029
 9479SOL    HW140091   1.888   4.360  10.014  0.8976  2.0221 -1.0745
 9479SOL    HW240092   1.804   4.305   9.885  0.2000  0.7391 -0.0855
 9480SOL     OW40093   1.418   3.273   7.434  0.2592  0.0431 -0.0590
 9480SOL    HW140094   1.439   3.266   7.336 -1.1978 -0.3823 -0.3558
 9480SOL    HW240095   1.461   3.355   7.471 -0.8260  1.3113 -1.5240
 9481SOL     OW40096   7.583   5.977   0.252 -0.5924  0.6096  0.1761
 9481SOL    HW140097   7.597   5.914   0.329  0.7035  0.2170 -0.3693
 9481SOL    HW240098   7.529   5.931   0.181 -1.0172  0.6655  0.4596
 9482SOL     OW40099   8.217   1.946   1.497 -0.2881 -0.2979 -0.4394
 9482SOL    HW140100   8.280   2.006   1.546  0.0284 -0.9506 -0.0411
 9482SOL    HW240101   8.133   1.996   1.476 -0.2942  0.0817  0.4835
 9483SOL     OW40102   5.579   5.485   2.464 -0.5984  0.7387 -0.3041
 9483SOL    HW140103   5.599   5.528   2.552 -0.1544  1.3476 -0.6984
 9483SOL    HW240104   5.491   5.438   2.469 -0.7420  1.0700  0.3598
 9484SOL     OW40105   9.965   6.932   0.887 -0.3019 -0.5332  0.1461
 9484SOL    HW140106   9.955   7.004   0.818  1.4585 -0.2080  0.2227
 9484SOL    HW240107  10.005   6.850   0.845 -1.3990 -1.1572  0.2770
 9485SOL     OW40108   9.603   8.276   5.997 -0.3415  0.4725 -0.4174
 9485SOL    HW140109   9.583   8.372   6.015 -0.8501  0.0861  1.2017
 9485SOL    HW240110   9.638   8.265   5.904  1.9791  2.5364  0.1848
 9486SOL     OW40111   5.282   8.802   4.527 -0.3276 -0.1981 -0.0288
 9486SOL    HW140112   5.318   8.744   4.600  0.0590  0.5338  0.3770
 9486SOL    HW240113   5.268   8.748   4.444 -2.0537 -1.3148  0.9752
 9487SOL     OW40114   2.535   0.170   2.457  0.5695  0.2738  0.0286
 9487SOL    HW140115   2.609   0.179   2.523  0.2691  0.9401  0.2791
 9487SOL    HW240116   2.457   0.125   2.500  0.7767 -0.3035 -0.1954
 9488SOL     OW40117   4.223   3.031   6.662  0.5723  0.3141 -0.3014
 9488SOL    HW140118   4.127   3.016   6.639  0.3365 -0.8750  1.4343
 9488SOL    HW240119   4.261   3.100   6.600 -0.7951 -0.7723 -2.4083
 9489SOL     OW40120   9.884   7.311   7.894 -0.4499 -0.1628  0.2608
 9489SOL    HW140121   9.892   7.398   7.845  3.3625  0.6026  2.0153
 9489SOL    HW240122   9.812   7.318   7.963 -0.8801  1.2337 -0.3088
 9490SOL     OW40123   7.384   2.413   2.613  0.1160 -0.3435  0.3520
 9490SOL    HW140124   7.484   2.400   2.613  0.0367 -1.0013  1.6800
 9490SOL    HW240125   7.343   2.360   2.539  0.8821  0.9963 -1.0602
 9491SOL     OW40126   0.764   6.341   4.198  0.1640 -0.4133  0.2991
 9491SOL    HW140127   0.703   6.262   4.197  0.2256 -0.4450 -1.2082
 9491SOL    HW240128   0.740   6.400   4.276 -0.2928 -1.5770  1.0505
 9492SOL     OW40129   4.735   4.533   1.576 -0.0089  0.0464  0.0790
 9492SOL    HW140130   4.798   4.503   1.647  1.0004  0.0825 -0.7942
 9492SOL    HW240131   4.746   4.475   1.495 -0.7700  0.3460 -0.2448
 9493SOL     OW40132   2.635   3.370   4.742  0.1432 -0.2811 -0.2530
 9493SOL    HW140133   2.708   3.304   4.727  0.3770  0.1791 -1.1721
 9493SOL    HW240134   2.661   3.459   4.705 -0.1941  0.3242  0.9290
 9494SOL     OW40135   8.701   5.321   2.142  0.2607  0.1853  0.2698
 9494SOL    HW140136   8.701   5.421   2.144  1.7497  0.1939  0.6301
 9494SOL    HW240137   8.698   5.285   2.235 -1.6734 -0.1310  0.0992
 9495SOL     OW40138   7.694   7.097   8.099  0.0429  0.4135 -0.4295
 9495SOL    HW140139   7.660   7.103   8.005 -0.8929  0.8086 -0.0723
 9495SOL    HW240140   7.661   7.175   8.151  0.6354  0.2407  0.2103
 9496SOL     OW40141   9.605   1.397   1.486 -0.0159  0.2334  0.2332
 9496SOL    HW140142   9.635   1.325   1.549  0.5642 -0.6601 -1.0395
 9496SOL    HW240143   9.668   1.401   1.408  0.0372  2.2263  0.3616
 9497SOL     OW40144   4.061   2.360   6.719  0.9142 -0.2050 -0.0389
 9497SOL    HW140145   4.072   2.431   6.789  0.3998 -0.0392 -0.1252
 9497SOL    HW240146   4.004   2.286   6.756  0.5326 -0.0542 -0.3292
 9498SOL     OW40147   1.604   1.944   6.657 -0.1864  0.0021  0.6883
 9498SOL    HW140148   1.569   1.931   6.750 -1.8495 -0.4471  0.0212
 9498SOL    HW240149   1.634   1.857   6.620  1.3519  0.3317  1.1292
 9499SOL     OW40150   2.531   3.893   7.381 -0.3452 -0.3123  0.1723
 9499SOL    HW140151   2.530   3.905   7.282  2.1200 -0.9153  0.0312
 9499SOL    HW240152   2.441   3.913   7.419 -1.1948  0.3230 -2.1426
 9500SOL     OW40153   1.842   6.572  10.012 -0.3314 -0.0268 -0.8459
 9500SOL    HW140154   1.878   6.597  10.102 -1.8960  1.3355 -0.5590
 9500SOL    HW240155   1.758   6.518  10.023 -0.3648 -0.1129 -1.4732
 9501SOL     OW40156   9.470   2.295   2.403 -0.0268 -0.3631  0.6226
 9501SOL    HW140157   9.498   2.328   2.313 -0.8586  2.6073  1.4132
 9501SOL    HW240158   9.407   2.218   2.392 -2.2680  1.6810 -1.4092
 9502SOL     OW40159   1.309   4.096   1.437 -0.7574 -0.7243  0.1310
 9502SOL    HW140160   1.217   4.134   1.447 -0.4567 -0.0654  0.4174
 9502SOL    HW240161   1.359   4.147   1.368 -0.8073 -1.4729 -0.4682
 9503SOL     OW40162   2.036   4.356   3.692  0.4227 -0.7770 -0.1246
 9503SOL    HW140163   2.037   4.397   3.784  1.3343  0.2634 -0.5943
 9503SOL    HW240164   2.015   4.426   3.624 -1.6301 -1.8099 -0.6065
 9504SOL     OW40165   9.554   6.629   3.134 -0.7356 -0.0912  0.1585
 9504SOL    HW140166   9.528   6.723   3.157  1.3406  1.3531 -2.9098
 9504SOL    HW240167   9.475   6.569   3.143 -2.9890  2.5933 -0.9905
 9505SOL     OW40168   3.243   8.478   1.599  0.6204 -0.3596  0.1046
 9505SOL    HW140169   3.172   8.410   1.582  1.0248 -0.6622 -0.3778
 9505SOL    HW240170   3.250   8.495   1.697  0.7409 -1.2543  0.2562
 9506SOL     OW40171   7.672   6.191   1.353 -0.4433  0.1748  0.6699
 9506SOL    HW140172   7.621   6.246   1.419 -1.1893  0.4982 -0.1637
 9506SOL    HW240173   7.720   6.251   1.289  0.5522 -0.1323  1.1268
 9507SOL     OW40174   7.361   7.200   8.285 -0.0088 -0.1468 -0.5744
 9507SOL    HW140175   7.332   7.108   8.313 -1.1707  0.4963  0.3670
 9507SOL    HW240176   7.361   7.206   8.185 -1.8386 -0.5782 -0.6226
 9508SOL     OW40177   4.201   0.373   3.713 -0.0799  0.0976 -0.5607
 9508SOL    HW140178   4.192   0.387   3.614  0.8452  1.3989 -0.4749
 9508SOL    HW240179   4.116   0.400   3.758 -0.1643  0.4246 -0.9126
 9509SOL     OW40180   8.885   6.935   0.705  0.1520 -0.9186 -0.0489
 9509SOL    HW140181   8.830   7.018   0.719 -1.2429 -1.8531  0.1283
 9509SOL    HW240182   8.961   6.934   0.769 -0.6981 -0.5129  0.9858
 9510SOL     OW40183   2.250   4.352   1.432  0.6898  0.0801 -0.0335
 9510SOL    HW140184   2.229   4.398   1.518 -1.6933  0.5247 -0.8074
 9510SOL    HW240185   2.269   4.420   1.361 -0.4301 -0.1590 -0.5863
 9511SOL     OW40186   9.074   8.170   6.879 -0.3540  0.2953 -0.1202
 9511SOL    HW140187   9.099   8.247   6.937 -0.1015  0.1164  0.0095
 9511SOL    HW240188   8.980   8.182   6.845  0.0815  1.2122 -1.0117
 9512SOL     OW40189   1.723   8.849   5.350 -0.8394 -0.0668  0.1181
 9512SOL    HW140190   1.805   8.797   5.371 -1.3783 -0.4865  1.2163
 9512SOL    HW240191   1.739   8.907   5.270  0.8653  0.6513  0.9653
 9513SOL     OW40192   8.962   4.235   4.906  0.0983  0.0023  0.0912
 9513SOL    HW140193   8.867   4.259   4.926  0.2582  0.9284 -0.2585
 9513SOL    HW240194   8.967   4.138   4.882 -0.6706 -0.1942  0.6812
 9514SOL     OW40195   1.188   5.568   9.971 -0.2725 -0.4859 -0.1691
 9514SOL    HW140196   1.281   5.572  10.009  0.0110 -1.2870 -0.7610
 9514SOL    HW240197   1.172   5.649   9.915 -0.2734  0.1235  0.6947
 9515SOL     OW40198   9.517   8.597   2.969  0.1229  0.3640  0.2557
 9515SOL    HW140199   9.616   8.599   2.957  0.0687 -1.3739 -0.6022
 9515SOL    HW240200   9.471   8.612   2.881 -0.3606 -0.3969  0.3731
 9516SOL     OW40201   2.621   6.130   2.569  0.1848  0.0104 -0.3390
 9516SOL    HW140202   2.638   6.206   2.631 -1.7951  0.0032  0.2649
 9516SOL    HW240203   2.555   6.067   2.610  0.0273 -0.8082 -1.7944
 9517SOL     OW40204   2.319   7.808   0.333  0.2688 -0.5134 -0.1795
 9517SOL    HW140205   2.291   7.790   0.239  1.0891  0.7462 -0.6750
 9517SOL    HW240206   2.318   7.906   0.350  1.4910 -0.6389  0.6941
 9518SOL     OW40207   8.388   0.885   2.260 -0.0975  0.3178  0.4530
 9518SOL    HW140208   8.454   0.815   2.286  0.4285  1.6675  2.8841
 9518SOL    HW240209   8.435   0.960   2.214 -0.3889 -0.1023 -0.5300
 9519SOL     OW40210   0.447   2.116   0.715 -0.2977  0.2853  0.0219
 9519SOL    HW140211   0.526   2.151   0.765 -0.9190 -0.0988  1.2785
 9519SOL    HW240212   0.472   2.033   0.666  0.1999  0.4265  0.0394
 9520SOL     OW40213   5.114   1.481   0.750 -0.8038 -0.0060  0.3594
 9520SOL    HW140214   5.016   1.461   0.754 -0.7449 -0.0989  1.3203
 9520SOL    HW240215   5.144   1.520   0.837  0.0086  0.0454  0.0585
 9521SOL     OW40216   0.095   2.945   4.996 -0.3204 -0.3198  0.2760
 9521SOL    HW140217   0.163   2.977   5.062 -2.9240  2.0260  1.9500
 9521SOL    HW240218   0.007   2.936   5.042 -2.2704  1.5925 -2.9435
 9522SOL     OW40219   3.868   6.835   4.911 -0.1148 -0.1783 -0.7686
 9522SOL    HW140220   3.801   6.856   4.840 -1.1984  1.1830  0.6431
 9522SOL    HW240221   3.840   6.752   4.959 -0.9169  0.5192 -0.0268
 9523SOL     OW40222   1.864   0.792   6.921  0.1499 -0.1361  0.2596
 9523SOL    HW140223   1.856   0.725   6.995 -0.3051  0.9994  1.2363
 9523SOL    HW240224   1.849   0.884   6.957  1.1658  0.5401 -1.0005
 9524SOL     OW40225   5.472   2.688   5.109 -0.1199 -0.5254 -0.8336
 9524SOL    HW140226   5.496   2.594   5.083  1.1849 -0.3716 -0.2061
 9524SOL    HW240227   5.467   2.744   5.026  1.7634 -0.5544 -0.9913
 9525SOL     OW40228   5.296   7.385   2.264  0.1012  0.3166  0.3189
 9525SOL    HW140229   5.238   7.349   2.191 -3.1366  1.9891  1.9463
 9525SOL    HW240230   5.341   7.468   2.233  0.3314 -0.0728 -0.4094
 9526SOL     OW40231   3.251   8.841   4.329 -0.0909 -0.6956  0.1952
 9526SOL    HW140232   3.345   8.874   4.317  1.2125 -3.8608  1.1015
 9526SOL    HW240233   3.230   8.776   4.256 -0.9918 -1.2450  0.9438
 9527SOL     OW40234   6.927   1.289   3.058  0.3833  0.1090  0.0835
 9527SOL    HW140235   6.851   1.249   3.108 -1.7392 -0.2846 -3.3039
 9527SOL    HW240236   7.013   1.245   3.085 -1.0199 -1.8055  1.4990
 9528SOL     OW40237   9.174   8.105   0.506  0.0460 -0.3344 -0.2912
 9528SOL    HW140238   9.192   8.161   0.425 -0.1076  0.1897  0.0358
 9528SOL    HW240239   9.120   8.025   0.480  0.7758 -0.6538 -0.8670
 9529SOL     OW40240   3.325   2.940   4.255 -0.2533  0.1333  0.0602
 9529SOL    HW140241   3.306   2.865   4.192  0.1577  0.7686 -0.8331
 9529SOL    HW240242   3.372   2.905   4.336  0.4901 -0.4794 -0.6269
 9530SOL     OW40243   1.743   2.604   6.623 -0.2084  0.4161  0.0498
 9530SOL    HW140244   1.833   2.623   6.662 -0.3832  1.5385 -0.0682
 9530SOL    HW240245   1.727   2.666   6.546 -0.5744 -0.6145 -0.7105
 9531SOL     OW40246   1.328   2.256   4.856 -0.1747 -0.4165  0.3903
 9531SOL    HW140247   1.256   2.187   4.848 -1.0081  0.4959 -0.1765
 9531SOL    HW240248   1.306   2.318   4.931 -1.5604  1.6491 -1.6652
 9532SOL     OW40249   8.472   9.104   5.386  0.2574 -0.3585  0.5119
 9532SOL    HW140250   8.499   9.199   5.369 -0.5412 -0.0490  0.9502
 9532SOL    HW240251   8.462   9.056   5.299  1.4889 -0.2781  0.3154
 9533SOL     OW40252   2.419   0.633   6.510 -0.3427 -0.6033 -0.3964
 9533SOL    HW140253   2.395   0.727   6.532  0.0073 -0.6117  0.0200
 9533SOL    HW240254   2.346   0.572   6.541 -0.3137 -0.5211 -0.1649
 9534SOL     OW40255   0.753   3.023   5.867 -0.0303  0.5537 -0.1192
 9534SOL    HW140256   0.740   3.057   5.960  0.4643 -0.7924  0.4600
 9534SOL    HW240257   0.717   2.930   5.861 -0.4620  0.7998 -1.3974
 9535SOL     OW40258   8.306   5.660   1.571 -0.1271  0.6253 -0.3926
 9535SOL    HW140259   8.336   5.573   1.610 -1.1293  1.0851  1.4672
 9535SOL    HW240260   8.357   5.678   1.487  0.9113 -1.1946 -0.1823
 9536SOL     OW40261   9.907   2.297   7.242  0.0424  0.3140  0.0522
 9536SOL    HW140262   9.847   2.217   7.242  0.6887 -0.1953  1.5396
 9536SOL    HW240263   9.938   2.315   7.148 -0.1166 -1.1895 -0.3117
 9537SOL     OW40264   9.187   7.452   7.196 -0.7655 -0.6561  0.3462
 9537SOL    HW140265   9.246   7.533   7.198  0.2910 -1.4239  1.2125
 9537SOL    HW240266   9.236   7.375   7.154 -2.1094 -0.6047 -1.3881
 9538SOL     OW40267   6.882   8.707   2.655  0.0803 -0.1908  0.2557
 9538SOL    HW140268   6.814   8.721   2.583  0.7860 -1.0528 -0.5966
 9538SOL    HW240269   6.854   8.631   2.713 -0.7368  0.8237  1.2017
 9539SOL     OW40270   9.429   9.635   5.687 -0.1118  0.0981  0.3660
 9539SOL    HW140271   9.468   9.581   5.612 -3.3427 -0.9517 -0.6470
 9539SOL    HW240272   9.480   9.720   5.697  2.6151 -1.3600 -0.6137
 9540SOL     OW40273   8.609   6.772   5.168 -0.5348 -0.0126  0.4534
 9540SOL    HW140274   8.633   6.868   5.154 -0.5715 -0.1217 -0.3760
 9540SOL    HW240275   8.688   6.723   5.204  0.4146 -0.3090 -1.9840
 9541SOL     OW40276   3.746   3.257   4.147 -0.4922  0.2105 -0.0560
 9541SOL    HW140277   3.732   3.247   4.048 -2.4384  0.6283  0.1542
 9541SOL    HW240278   3.677   3.319   4.184  0.2485  0.0901  1.5715
 9542SOL     OW40279   7.452   9.163   2.421  0.3175 -1.0405 -0.7517
 9542SOL    HW140280   7.468   9.065   2.413  0.7678 -1.2765  2.3555
 9542SOL    HW240281   7.380   9.180   2.489  1.2727  0.8214 -0.1475
 9543SOL     OW40282   4.152   1.785   4.671 -0.2016 -1.0537 -0.0757
 9543SOL    HW140283   4.101   1.843   4.735 -1.1346 -0.9226 -0.9335
 9543SOL    HW240284   4.146   1.823   4.579  2.2468 -0.5062 -0.0540
 9544SOL     OW40285   0.234   3.820   5.222  0.3882  0.1248  0.2384
 9544SOL    HW140286   0.212   3.906   5.268  1.7748  0.6010  0.0344
 9544SOL    HW240287   0.288   3.762   5.282  0.0037 -0.3340  0.1418
 9545SOL     OW40288   4.378   9.357   0.384  0.0141 -0.3091 -0.2883
 9545SOL    HW140289   4.406   9.282   0.444 -0.8723 -1.0553 -0.7905
 9545SOL    HW240290   4.339   9.431   0.438  0.1805 -0.5409  0.1470
 9546SOL     OW40291   4.223   8.180   3.403 -0.3422 -0.1567  0.0602
 9546SOL    HW140292   4.184   8.268   3.428  1.1924  1.0934 -1.7605
 9546SOL    HW240293   4.297   8.157   3.466  0.7626  0.9849 -0.7801
 9547SOL     OW40294   9.111   0.464   7.004 -0.1339 -0.1256  0.4738
 9547SOL    HW140295   9.127   0.369   6.981  1.0652 -0.0328  0.9211
 9547SOL    HW240296   9.198   0.510   7.024 -0.5689  1.3889 -0.9994
 9548SOL     OW40297   4.139   4.756   5.681 -0.5558  0.4291 -0.0867
 9548SOL    HW140298   4.223   4.779   5.633 -0.0305 -0.0865  0.5894
 9548SOL    HW240299   4.149   4.669   5.729 -1.3016  0.5990  0.4047
 9549SOL     OW40300   5.957   2.365   5.713 -0.0117 -0.5450  0.2755
 9549SOL    HW140301   5.903   2.389   5.794  0.4608 -0.8151  0.6783
 9549SOL    HW240302   6.051   2.348   5.741 -0.3856 -3.1556  0.0849
 9550SOL     OW40303   6.716   6.563   6.270 -0.0964  0.2709  0.1788
 9550SOL    HW140304   6.794   6.596   6.218  1.0437  0.8463  2.2099
 9550SOL    HW240305   6.665   6.641   6.307 -0.9362 -0.1338 -0.0977
 9551SOL     OW40306   4.206   1.444   0.707  0.2033  0.2117 -0.2598
 9551SOL    HW140307   4.218   1.520   0.771  3.0065 -0.6724  0.3206
 9551SOL    HW240308   4.226   1.476   0.614  1.4688  0.1693 -0.0059
 9552SOL     OW40309   1.847   9.283   4.802 -0.1232  0.1787 -0.3469
 9552SOL    HW140310   1.913   9.310   4.732  0.6285 -1.4407 -0.2696
 9552SOL    HW240311   1.764   9.250   4.757 -0.4278  1.0379 -0.4429
 9553SOL     OW40312   3.178   6.935   0.846 -0.5226 -0.6327  0.5147
 9553SOL    HW140313   3.260   6.879   0.855  0.8625  1.1753 -0.5704
 9553SOL    HW240314   3.187   7.018   0.900 -1.1659  0.1022 -0.4734
 9554SOL     OW40315   7.410   2.820   2.275  0.0435 -0.0140  0.4646
 9554SOL    HW140316   7.319   2.814   2.317  0.2207  0.1443  0.8602
 9554SOL    HW240317   7.411   2.896   2.209  0.3442  0.9376  1.5549
 9555SOL     OW40318   6.572   9.131   2.597  0.2213 -0.1409  0.2647
 9555SOL    HW140319   6.657   9.096   2.635  1.1240 -0.6521 -2.1523
 9555SOL    HW240320   6.572   9.231   2.603  0.6426 -0.1740  0.9353
 9556SOL     OW40321   2.953   5.560   3.422  0.3921 -0.5304 -0.9304
 9556SOL    HW140322   2.883   5.548   3.351 -1.4409 -2.3742  1.0739
 9556SOL    HW240323   2.912   5.604   3.502  2.5142  1.8455 -1.0920
 9557SOL     OW40324   4.872   4.968   0.230  0.2943 -0.1596  0.1010
 9557SOL    HW140325   4.802   4.986   0.160  1.6404 -0.3963 -1.3438
 9557SOL    HW240326   4.832   4.978   0.321 -0.5859  3.8519 -0.6535
 9558SOL     OW40327   8.665   2.374   0.450 -0.0617  0.3178  0.4632
 9558SOL    HW140328   8.675   2.286   0.404 -0.8265  0.5744 -0.1924
 9558SOL    HW240329   8.620   2.440   0.389  1.0018  1.3263  0.7405
 9559SOL     OW40330   2.393   0.154   5.248  0.0769 -0.3468 -0.1247
 9559SOL    HW140331   2.429   0.223   5.185  1.8598 -1.1426 -0.0096
 9559SOL    HW240332   2.412   0.063   5.213  0.0647 -0.7931  0.9980
 9560SOL     OW40333   1.671   4.787   6.547 -0.2985  0.4217  0.6384
 9560SOL    HW140334   1.614   4.869   6.537 -0.3289  0.1582 -1.5766
 9560SOL    HW240335   1.764   4.807   6.517 -0.5039 -0.5367 -0.7146
 9561SOL     OW40336   8.873   8.528   7.894  0.0869 -0.0252  0.0244
 9561SOL    HW140337   8.955   8.541   7.839  0.3006 -0.7514  0.1576
 9561SOL    HW240338   8.880   8.441   7.944  0.8358  1.5462  2.7945
 9562SOL     OW40339   0.276   3.560   6.602 -0.4234 -0.2254 -0.0938
 9562SOL    HW140340   0.355   3.527   6.549  0.6309  0.2047  1.1731
 9562SOL    HW240341   0.280   3.660   6.607 -1.0557 -0.2050 -0.0345
 9563SOL     OW40342   0.837   8.494   7.495 -0.2949  1.0497 -0.4416
 9563SOL    HW140343   0.845   8.433   7.573 -0.6455 -3.2716 -3.5860
 9563SOL    HW240344   0.742   8.525   7.486 -1.1008 -1.4650 -1.1876
 9564SOL     OW40345   4.460   9.303   5.941  0.3520  0.2101 -0.5255
 9564SOL    HW140346   4.475   9.278   5.846  0.5558 -0.1082 -0.4136
 9564SOL    HW240347   4.414   9.228   5.988  0.6828  0.1739 -0.2586
 9565SOL     OW40348   0.473   7.667   7.295 -0.6448 -0.1373 -0.2391
 9565SOL    HW140349   0.557   7.624   7.328 -0.4833 -0.0186 -0.4883
 9565SOL    HW240350   0.443   7.621   7.211 -1.8683 -1.3923  0.8792
 9566SOL     OW40351   2.210   7.021   3.772 -0.0565 -0.3094  0.4127
 9566SOL    HW140352   2.246   7.061   3.687  2.7059 -1.0389  1.1737
 9566SOL    HW240353   2.286   6.989   3.828 -1.9627 -2.3010  1.9704
 9567SOL     OW40354   1.573   4.920   5.869  0.3744 -0.3144 -0.6555
 9567SOL    HW140355   1.621   4.959   5.791  2.4389 -0.4919  0.5072
 9567SOL    HW240356   1.485   4.966   5.880  0.6357  0.6185 -2.2635
 9568SOL     OW40357   2.322   1.647   1.112  0.2297  0.5725 -0.1368
 9568SOL    HW140358   2.391   1.575   1.119  0.3035  0.8228  1.9564
 9568SOL    HW240359   2.346   1.723   1.172 -1.0104  1.3843 -0.6439
 9569SOL     OW40360   3.257   7.424   3.096  0.0951 -0.3777 -0.1379
 9569SOL    HW140361   3.161   7.431   3.122  0.4560 -0.4182  1.2775
 9569SOL    HW240362   3.285   7.328   3.094  0.2058 -0.3455 -0.1497
 9570SOL     OW40363   2.666   0.755   2.830  0.0207 -0.3263 -0.1301
 9570SOL    HW140364   2.618   0.701   2.761  2.1807 -1.8493 -0.5013
 9570SOL    HW240365   2.673   0.850   2.800 -0.5435 -0.6240 -1.2149
 9571SOL     OW40366   2.949   7.694   4.283  0.4809 -0.1964  0.9160
 9571SOL    HW140367   2.998   7.675   4.368  2.0167 -0.1522  0.0394
 9571SOL    HW240368   2.975   7.784   4.249  0.3951 -0.5015  0.0282
 9572SOL     OW40369   9.665   8.043   2.574  0.0768 -0.5455  0.2121
 9572SOL    HW140370   9.662   7.978   2.651 -1.1723 -2.6497 -1.5466
 9572SOL    HW240371   9.663   7.992   2.488 -1.7330  1.8546 -1.2296
 9573SOL     OW40372   9.068   3.022   0.395 -0.7521 -0.2020 -0.3935
 9573SOL    HW140373   9.060   3.079   0.477  1.0373  1.5012 -1.3591
 9573SOL    HW240374   9.097   2.930   0.421 -1.0649  0.0800  0.9725
 9574SOL     OW40375   1.631   2.805   0.027 -0.1557 -0.7891 -0.4250
 9574SOL    HW140376   1.575   2.860  -0.036 -2.1165 -1.5176  0.6332
 9574SOL    HW240377   1.571   2.757   0.091  1.7147 -1.5710  0.7745
 9575SOL     OW40378   9.221   3.216   2.613 -0.0836 -0.0539  0.8778
 9575SOL    HW140379   9.273   3.151   2.670 -0.5366 -0.1939  1.1321
 9575SOL    HW240380   9.252   3.309   2.633  1.2959 -0.2547 -0.2357
 9576SOL     OW40381   0.540   3.580   3.387  0.1459 -0.3735  0.1378
 9576SOL    HW140382   0.532   3.540   3.295 -1.1527 -0.4084  0.2574
 9576SOL    HW240383   0.625   3.548   3.430  2.2462  1.9096 -2.1446
 9577SOL     OW40384   5.991   0.176   4.709 -0.0588 -0.2162 -0.4529
 9577SOL    HW140385   6.062   0.151   4.775 -0.0237 -1.3028 -0.8945
 9577SOL    HW240386   5.959   0.268   4.729 -0.9090 -0.9573  1.8700
 9578SOL     OW40387   6.639   0.752   7.342  0.5189 -0.0127 -0.0617
 9578SOL    HW140388   6.660   0.797   7.429 -3.4772  0.0223  0.9733
 9578SOL    HW240389   6.677   0.805   7.267  0.2030  2.3675  1.4264
 9579SOL     OW40390   3.538   5.457   4.207 -0.2819 -0.2682  0.3677
 9579SOL    HW140391   3.535   5.548   4.166 -0.8052 -0.9630 -1.1766
 9579SOL    HW240392   3.573   5.392   4.140 -0.7821 -1.3626  1.1591
 9580SOL     OW40393   5.272   0.140   1.740 -0.1042  0.1830 -0.1238
 9580SOL    HW140394   5.339   0.156   1.667  0.0507  0.5605  0.0998
 9580SOL    HW240395   5.187   0.106   1.700 -0.1007  0.6110 -0.5104
 9581SOL     OW40396   4.497   1.537  10.044  0.3524 -0.1748  0.0011
 9581SOL    HW140397   4.596   1.542  10.041  0.3963 -1.1738 -0.3362
 9581SOL    HW240398   4.459   1.565   9.956  0.2875  0.9279  0.3616
 9582SOL     OW40399   2.184   4.831   0.342  0.0641 -0.4900  0.0651
 9582SOL    HW140400   2.238   4.840   0.258  0.4884 -0.9237  0.2897
 9582SOL    HW240401   2.241   4.793   0.414 -0.2708  0.0119  0.5899
 9583SOL     OW40402   6.852   0.179   5.144 -0.1951 -0.0114 -0.3028
 9583SOL    HW140403   6.811   0.104   5.093  2.9343 -1.4573 -0.8672
 9583SOL    HW240404   6.884   0.145   5.233 -1.9357  1.5241  0.9409
 9584SOL     OW40405   4.793   5.005   7.174 -0.4345 -0.4767 -0.1290
 9584SOL    HW140406   4.777   4.906   7.166 -0.8689 -0.4088 -0.1251
 9584SOL    HW240407   4.732   5.042   7.244 -1.0356 -0.0198 -0.8945
 9585SOL     OW40408   9.017   4.454   4.743 -0.4916  0.0256 -0.2228
 9585SOL    HW140409   8.975   4.469   4.654 -3.3427  2.1969  1.4065
 9585SOL    HW240410   8.976   4.374   4.787 -0.1271 -0.1799 -0.2569
 9586SOL     OW40411   3.572   8.542   7.281  0.4410 -0.0118 -0.3013
 9586SOL    HW140412   3.490   8.599   7.282  0.7460  0.4240  1.8768
 9586SOL    HW240413   3.551   8.455   7.236 -1.4376 -0.2081  0.9088
 9587SOL     OW40414   7.908   2.895   6.480 -0.3175  0.6769 -0.2649
 9587SOL    HW140415   7.962   2.837   6.542  0.2832  1.3480 -0.1637
 9587SOL    HW240416   7.881   2.978   6.528  1.2175  1.7827 -1.2958
 9588SOL     OW40417   1.019   3.269   2.492  0.0325 -0.8575 -0.4736
 9588SOL    HW140418   0.932   3.236   2.529 -0.7901  0.7891 -0.8880
 9588SOL    HW240419   1.059   3.200   2.432 -0.6341 -1.9043  0.2688
 9589SOL     OW40420   2.944   9.093   6.062  0.5002 -0.6868  0.7995
 9589SOL    HW140421   3.016   9.109   6.129 -0.1523  1.5286  1.0059
 9589SOL    HW240422   2.868   9.156   6.079  1.1902  1.3812 -3.2733
 9590SOL     OW40423   1.434   9.958   5.770 -0.0504 -0.8456 -0.6412
 9590SOL    HW140424   1.514   9.941   5.712  0.6131  1.2113 -0.3707
 9590SOL    HW240425   1.450   9.922   5.862  2.0608  2.6344  0.4419
 9591SOL     OW40426   8.352   9.415   7.946 -0.1662 -0.0545 -0.5391
 9591SOL    HW140427   8.429   9.448   7.891  1.6492  2.1376  3.0505
 9591SOL    HW240428   8.301   9.494   7.981 -1.1273 -1.3470  1.0179
 9592SOL     OW40429   1.107   0.883   3.668 -0.3027  0.2862 -0.4939
 9592SOL    HW140430   1.132   0.968   3.716  0.2722 -0.0849 -0.1199
 9592SOL    HW240431   1.043   0.831   3.724  0.8871 -0.4661  0.1955
 9593SOL     OW40432   0.284   2.267   4.392 -0.0436 -0.7641 -0.3105
 9593SOL    HW140433   0.209   2.212   4.356 -2.6428  0.9278  2.3401
 9593SOL    HW240434   0.277   2.361   4.358  1.9125 -0.9972 -1.4381
 9594SOL     OW40435   8.473   8.948   2.423 -0.5454 -0.6894 -0.2757
 9594SOL    HW140436   8.412   9.027   2.429  0.1208 -0.2306  0.5332
 9594SOL    HW240437   8.419   8.864   2.423 -1.2810 -0.2307 -1.4625
 9595SOL     OW40438   8.382   7.211   8.320  0.3447  0.0493 -0.1545
 9595SOL    HW140439   8.471   7.168   8.334  0.2338  0.4100  1.8413
 9595SOL    HW240440   8.394   7.301   8.280  1.0941  1.1727  2.4674
 9596SOL     OW40441   4.484   4.320   3.191  0.4871 -0.0857  0.0078
 9596SOL    HW140442   4.435   4.233   3.185  0.0953  0.1254  0.1617
 9596SOL    HW240443   4.489   4.349   3.287  1.1393 -0.2358  0.0231
 9597SOL     OW40444   2.338   8.059   5.545  0.5127 -0.0671 -0.2256
 9597SOL    HW140445   2.403   8.123   5.586  0.6086  1.0400 -2.1040
 9597SOL    HW240446   2.381   8.010   5.470  0.9077 -3.4304  2.0495
 9598SOL     OW40447   2.596   2.813   7.185  0.7522  0.0843 -0.5725
 9598SOL    HW140448   2.633   2.730   7.143 -0.0133  0.0256 -1.1357
 9598SOL    HW240449   2.670   2.878   7.200  1.0362  0.0962 -1.9912
 9599SOL     OW40450   9.590   2.653   3.141  0.2341  0.2932  0.1029
 9599SOL    HW140451   9.585   2.593   3.061  0.0007  0.5636 -0.0847
 9599SOL    HW240452   9.596   2.597   3.224  1.3361  0.0106 -0.1543
 9600SOL     OW40453   4.054   8.624   0.004 -0.0857  0.8000 -0.6759
 9600SOL    HW140454   4.121   8.555   0.032  0.5968  0.6277 -2.6765
 9600SOL    HW240455   3.973   8.616   0.062  1.3181  0.5414  1.3093
 9601SOL     OW40456   6.122   8.405   4.302  0.3485  0.1931  1.0545
 9601SOL    HW140457   6.073   8.416   4.389  0.3911 -3.2322  1.5922
 9601SOL    HW240458   6.219   8.423   4.317 -0.1418  3.2706  0.8351
 9602SOL     OW40459   2.687   3.963   7.617 -0.3333  0.0720  0.6983
 9602SOL    HW140460   2.641   3.917   7.693  0.9681 -2.2313  0.1372
 9602SOL    HW240461   2.629   3.959   7.536  0.6844 -2.6072  0.0573
 9603SOL     OW40462   1.381   0.549   2.727 -0.6304 -0.1507 -0.2942
 9603SOL    HW140463   1.368   0.489   2.648 -0.8282 -0.3663 -0.0997
 9603SOL    HW240464   1.479   0.563   2.741 -0.6241  0.9186 -1.3419
 9604SOL     OW40465   3.396   8.302   2.528  0.4839  0.8576  0.2185
 9604SOL    HW140466   3.401   8.242   2.448  0.7882  2.3746 -0.9184
 9604SOL    HW240467   3.392   8.397   2.498  0.5085  1.4396  2.0148
 9605SOL     OW40468   6.544   9.384   7.541 -0.5407 -0.2936  0.1489
 9605SOL    HW140469   6.567   9.375   7.444 -0.0062 -0.3508  0.2825
 9605SOL    HW240470   6.586   9.466   7.578 -1.3150  0.0981  0.1650
 9606SOL     OW40471   6.216   5.772   0.036 -0.6235  0.0579 -0.8650
 9606SOL    HW140472   6.309   5.791   0.007  0.1435 -0.9824  0.8703
 9606SOL    HW240473   6.171   5.713  -0.031  1.0380 -2.1035 -0.1144
 9607SOL     OW40474   3.425   7.218   4.233  0.7548 -0.0848 -0.4732
 9607SOL    HW140475   3.497   7.226   4.164  0.1267 -2.4449 -1.4623
 9607SOL    HW240476   3.362   7.145   4.207 -0.5540  0.2255  1.6818
 9608SOL     OW40477   7.033   9.478   3.461  0.1485  0.0343 -0.2368
 9608SOL    HW140478   6.995   9.528   3.538  0.0713 -1.6845  0.8504
 9608SOL    HW240479   7.104   9.416   3.493  0.3959 -0.4083 -1.6072
 9609SOL     OW40480   7.212   7.978   7.550 -0.4469  0.4542  0.4229
 9609SOL    HW140481   7.204   8.062   7.496 -1.7541  0.4269  0.5655
 9609SOL    HW240482   7.179   7.995   7.643  2.0656  0.5815  1.3171
 9610SOL     OW40483   6.440   5.211   2.134  0.6480 -0.1203 -0.0039
 9610SOL    HW140484   6.464   5.114   2.124 -0.1369 -0.2189 -0.9610
 9610SOL    HW240485   6.344   5.225   2.108  0.6664  0.8659  0.4222
 9611SOL     OW40486   2.232   0.274   0.276 -0.2112  0.0273 -0.1462
 9611SOL    HW140487   2.156   0.233   0.328 -1.0707 -0.3995 -1.6947
 9611SOL    HW240488   2.291   0.325   0.338 -1.6510  0.1914  1.1370
 9612SOL     OW40489   4.675   0.715   5.993 -0.1829  0.6622 -0.5322
 9612SOL    HW140490   4.713   0.658   6.066 -0.0092  1.0293 -0.3356
 9612SOL    HW240491   4.749   0.760   5.943 -0.3450  1.3038 -0.2083
 9613SOL     OW40492   8.649   7.966   3.064  0.2569 -0.6374 -0.4262
 9613SOL    HW140493   8.746   7.975   3.087 -0.3967 -0.1768  2.2592
 9613SOL    HW240494   8.607   7.894   3.121 -0.9491 -0.9657 -1.6918
 9614SOL     OW40495   1.644   2.058   0.704 -0.0445 -0.2430 -0.2949
 9614SOL    HW140496   1.660   1.970   0.659  3.6749  0.1203  0.0980
 9614SOL    HW240497   1.577   2.046   0.777  0.5076 -2.8109 -0.1418
 9615SOL     OW40498   3.063   5.698   0.651 -0.1554  0.3485  0.1613
 9615SOL    HW140499   3.123   5.729   0.577 -0.4348  0.9633  0.1847
 9615SOL    HW240500   3.093   5.608   0.683  1.1217  0.9152  0.5771
 9616SOL     OW40501   2.320   7.776   7.270  0.4344 -0.7066 -0.6009
 9616SOL    HW140502   2.414   7.797   7.297  0.9028 -1.6529 -1.4384
 9616SOL    HW240503   2.319   7.689   7.220 -0.6745 -0.0295 -1.7976
 9617SOL     OW40504   7.856   2.210   5.505 -0.0055  0.3043 -0.0682
 9617SOL    HW140505   7.912   2.135   5.540  1.9364  1.1422 -1.3057
 9617SOL    HW240506   7.806   2.180   5.424 -0.4688 -0.1086  0.3673
 9618SOL     OW40507   3.936   4.857   1.969 -0.2469  0.4580 -0.3228
 9618SOL    HW140508   3.985   4.858   2.057 -0.1367  0.0143 -0.3760
 9618SOL    HW240509   3.867   4.784   1.970  1.7846 -1.5783 -1.6832
 9619SOL     OW40510   4.691   5.727   2.824 -0.3913  0.0283 -0.0635
 9619SOL    HW140511   4.672   5.826   2.829  2.1900  0.5898 -0.9018
 9619SOL    HW240512   4.604   5.677   2.831 -1.7999  2.3578 -0.1336
 9620SOL     OW40513   2.592   2.598   1.282 -0.2696  0.3409 -0.0914
 9620SOL    HW140514   2.626   2.507   1.261  0.9396  0.9749 -0.9717
 9620SOL    HW240515   2.617   2.661   1.208  2.3833  2.2274  2.2929
 9621SOL     OW40516   7.045   9.632   5.775 -0.5962 -0.2419  0.0850
 9621SOL    HW140517   7.070   9.578   5.856 -2.3941 -0.4001  0.5579
 9621SOL    HW240518   7.040   9.729   5.799 -2.7748 -0.4512  0.6192
 9622SOL     OW40519   2.592   1.221   5.017  0.2842 -0.3821 -0.0077
 9622SOL    HW140520   2.501   1.235   4.980 -0.5090 -0.3664  1.8938
 9622SOL    HW240521   2.585   1.188   5.111  2.2308 -1.2144 -0.1328
 9623SOL     OW40522   8.428   5.324   5.204  0.2694  0.5365  0.1179
 9623SOL    HW140523   8.521   5.310   5.239  0.2971  3.5836  1.3980
 9623SOL    HW240524   8.364   5.328   5.280 -0.6264  0.5595 -0.6262
 9624SOL     OW40525   0.407   5.589   6.758 -0.4050 -0.3557 -0.2038
 9624SOL    HW140526   0.372   5.627   6.844  0.5505  1.6031 -0.6477
 9624SOL    HW240527   0.467   5.512   6.778 -0.4034 -0.0866  0.8903
 9625SOL     OW40528   9.812   9.583   1.032  0.2163 -0.1786 -0.4223
 9625SOL    HW140529   9.851   9.598   0.941 -1.6898  0.4434 -1.1601
 9625SOL    HW240530   9.868   9.628   1.101  2.7945 -2.3047 -1.0434
 9626SOL     OW40531   8.821   0.350   0.880  0.1918  0.2886 -0.6393
 9626SOL    HW140532   8.811   0.380   0.975  0.7043 -1.9249  0.1516
 9626SOL    HW240533   8.850   0.427   0.823  3.2042  0.9456  1.6331
 9627SOL     OW40534   9.726   2.951   0.908 -0.0412 -0.8980  0.0790
 9627SOL    HW140535   9.777   2.960   0.822  0.3629  1.0826  0.5006
 9627SOL    HW240536   9.628   2.959   0.890  0.0908  0.3805 -0.0954
 9628SOL     OW40537   5.403   6.904   1.712  0.1469 -0.2927 -0.4426
 9628SOL    HW140538   5.455   6.987   1.735 -0.2672 -0.3381  0.6701
 9628SOL    HW240539   5.327   6.929   1.652  0.3466  0.0499 -0.5604
 9629SOL     OW40540   7.605   6.139   5.550 -0.7444  0.4809  0.2412
 9629SOL    HW140541   7.544   6.116   5.474 -0.2338 -1.5965  0.4361
 9629SOL    HW240542   7.696   6.101   5.533  0.0631  2.1282  0.7421
 9630SOL     OW40543   7.803   6.697   5.110 -0.1845  0.2718 -0.2670
 9630SOL    HW140544   7.855   6.648   5.040 -1.7710 -0.1505 -1.1559
 9630SOL    HW240545   7.836   6.669   5.201  1.4905  0.4040 -0.8191
 9631SOL     OW40546   2.042   8.845   4.993  0.3427 -0.0726 -0.4412
 9631SOL    HW140547   2.116   8.810   4.935  1.3670 -1.2160  1.4775
 9631SOL    HW240548   2.012   8.773   5.055  1.5116  1.9749  2.6323
 9632SOL     OW40549   6.374   7.832   6.560  0.0806 -0.5400  0.4273
 9632SOL    HW140550   6.357   7.772   6.639  1.4061 -0.6927  0.6005
 9632SOL    HW240551   6.462   7.808   6.518  0.5321  1.1558  0.3840
 9633SOL     OW40552   2.726   5.758   3.903 -0.2390 -0.8229  0.0879
 9633SOL    HW140553   2.781   5.751   3.986  1.8687 -1.5164 -1.3036
 9633SOL    HW240554   2.679   5.846   3.901  2.7088  0.8299  0.2397
 9634SOL     OW40555   0.459   6.027   0.002 -0.9330 -0.5664 -0.4058
 9634SOL    HW140556   0.437   5.989   0.091 -1.8236  0.7703 -0.0391
 9634SOL    HW240557   0.432   6.123  -0.001 -0.1076 -0.3603 -1.8166
 9635SOL     OW40558   0.147   8.093   3.485 -0.2523 -0.4066  0.1036
 9635SOL    HW140559   0.222   8.118   3.424 -0.6959 -1.9638 -1.0915
 9635SOL    HW240560   0.066   8.148   3.463 -0.1511 -0.3548 -0.1401
 9636SOL     OW40561   1.977   2.019   6.932 -0.0761  0.4219 -0.4709
 9636SOL    HW140562   2.074   2.036   6.951  0.2327  0.0947 -1.7409
 9636SOL    HW240563   1.945   1.945   6.992  1.1761 -1.3443 -1.9241
 9637SOL     OW40564   8.301   8.063   4.825  0.0131 -0.5140 -0.3180
 9637SOL    HW140565   8.243   8.077   4.905 -1.0649 -0.5827 -1.0763
 9637SOL    HW240566   8.245   8.034   4.747  0.8291  0.9564 -1.4839
 9638SOL     OW40567   2.647   3.233   6.076 -0.0522  0.2459 -0.0970
 9638SOL    HW140568   2.607   3.208   6.165 -0.3495  1.0563  0.0020
 9638SOL    HW240569   2.632   3.331   6.059  0.2293  0.1487 -0.9251
 9639SOL     OW40570   0.099   6.761   6.181  0.2726 -0.1626  0.2407
 9639SOL    HW140571   0.133   6.850   6.153 -0.6823  0.6378  1.6038
 9639SOL    HW240572  -0.001   6.758   6.171  0.3076 -1.1062  0.1036
 9640SOL     OW40573   8.933   5.344   5.774  0.3712  0.4275 -0.3103
 9640SOL    HW140574   8.869   5.271   5.751  0.9012 -0.3790  0.7306
 9640SOL    HW240575   8.941   5.407   5.697 -1.4983  0.4155 -0.5365
 9641SOL     OW40576   4.300   6.013   2.133 -0.8858  0.1377 -0.3234
 9641SOL    HW140577   4.223   5.955   2.160 -0.8934  0.0458 -0.5460
 9641SOL    HW240578   4.352   6.038   2.215 -1.3837  0.5353 -0.1244
 9642SOL     OW40579   0.482   5.442   1.180 -0.4497  0.1389 -0.2383
 9642SOL    HW140580   0.462   5.354   1.223  0.3592 -0.1378 -0.4270
 9642SOL    HW240581   0.515   5.506   1.250  1.4655 -0.4985 -0.5334
 9643SOL     OW40582   0.851   9.917   1.087 -0.6296 -0.5076  0.7357
 9643SOL    HW140583   0.839   9.977   1.008 -0.7583 -1.0896  0.3185
 9643SOL    HW240584   0.949   9.898   1.100 -0.7017 -1.3514  0.0268
 9644SOL     OW40585   9.431   3.889   1.506  0.2742  0.1359 -0.0044
 9644SOL    HW140586   9.343   3.855   1.537  1.1499 -0.3918  1.9978
 9644SOL    HW240587   9.455   3.971   1.558  0.8544  0.4070 -0.6915
 9645SOL     OW40588   1.914   2.762   4.168 -0.7496 -0.1769 -0.2091
 9645SOL    HW140589   1.849   2.753   4.092 -0.6581  2.4943 -0.6618
 9645SOL    HW240590   1.991   2.700   4.153 -1.5216 -0.8689 -1.4610
 9646SOL     OW40591   2.424   0.901   6.609  0.3982 -0.1807 -0.3324
 9646SOL    HW140592   2.379   0.918   6.697 -0.5608 -1.0022 -0.6642
 9646SOL    HW240593   2.517   0.938   6.612  0.7375 -1.1273  1.3984
 9647SOL     OW40594   1.599   5.537   0.209  0.0996 -0.2563  0.0226
 9647SOL    HW140595   1.636   5.561   0.119 -1.3871  0.9137 -0.3010
 9647SOL    HW240596   1.502   5.561   0.213  0.1332 -0.3250  1.9323
 9648SOL     OW40597   4.471   4.208   0.652 -0.1305  0.4462 -0.1481
 9648SOL    HW140598   4.416   4.260   0.718  0.1641 -1.3314  1.5739
 9648SOL    HW240599   4.550   4.169   0.699  1.0519  0.5736 -1.9745
 9649SOL     OW40600   9.403   3.005   5.779  0.6190  0.1749 -0.3263
 9649SOL    HW140601   9.334   2.948   5.825 -0.3419  1.2294 -0.4284
 9649SOL    HW240602   9.438   2.956   5.699 -1.2415  0.2928 -1.2468
 9650SOL     OW40603   0.306   4.887   1.814  0.1043 -0.0900 -0.4967
 9650SOL    HW140604   0.273   4.898   1.907  0.3927 -1.5136 -0.2126
 9650SOL    HW240605   0.373   4.813   1.811 -2.0654 -2.0406 -2.3572
 9651SOL     OW40606   8.660   5.403   2.807  0.0670 -0.5402 -0.1300
 9651SOL    HW140607   8.615   5.313   2.809  0.3642 -0.6786  0.5849
 9651SOL    HW240608   8.746   5.397   2.857  0.1760  0.0992 -0.2483
 9652SOL     OW40609   2.192  10.000   0.060  0.0581 -0.3984 -0.0487
 9652SOL    HW140610   2.282  10.041   0.048 -0.0660 -0.5284 -1.5360
 9652SOL    HW240611   2.195   9.904   0.031 -0.5289 -0.4331 -0.0140
 9653SOL     OW40612   4.707   8.128   4.691 -0.1652  0.4121  0.0808
 9653SOL    HW140613   4.771   8.197   4.725 -0.8311  1.2246 -0.3049
 9653SOL    HW240614   4.734   8.100   4.599 -0.4635  0.8825 -0.1503
 9654SOL     OW40615   2.536   0.410   7.433  0.3238 -0.2434 -0.0606
 9654SOL    HW140616   2.507   0.488   7.377 -0.3715  0.5728  1.4132
 9654SOL    HW240617   2.523   0.326   7.381 -3.3480  0.2269 -0.0352
 9655SOL     OW40618   5.828   1.905   4.451  0.2139  0.0349 -0.0159
 9655SOL    HW140619   5.827   1.806   4.442 -1.3643  0.1208 -0.8593
 9655SOL    HW240620   5.853   1.947   4.364 -2.2833  0.4548 -0.5653
 9656SOL     OW40621   1.723   7.347   4.906  0.3133  0.1574  0.0287
 9656SOL    HW140622   1.822   7.344   4.889  0.0937 -0.1328 -1.2468
 9656SOL    HW240623   1.687   7.435   4.877  0.0506 -0.0773 -0.3663
 9657SOL     OW40624   6.188   3.777   1.584  0.3128 -0.2607  0.5682
 9657SOL    HW140625   6.272   3.832   1.582  0.3138 -0.3024 -1.1245
 9657SOL    HW240626   6.114   3.830   1.624  0.6594  0.4766  0.2363
 9658SOL     OW40627   0.635   6.866   2.018  0.2078 -0.6683  0.3614
 9658SOL    HW140628   0.708   6.884   1.953  1.5105 -0.3855  1.8556
 9658SOL    HW240629   0.607   6.770   2.012 -0.0608 -0.5216 -0.9471
 9659SOL     OW40630   4.321   7.936   4.453 -0.1649  0.2630 -0.6440
 9659SOL    HW140631   4.338   7.933   4.355 -1.7380  0.2664 -0.9202
 9659SOL    HW240632   4.247   7.874   4.477 -1.0747  1.6524  0.2568
 9660SOL     OW40633   2.931   6.287   2.780  0.0568  0.2714  0.7811
 9660SOL    HW140634   2.972   6.353   2.717  0.4702  0.5135  1.3024
 9660SOL    HW240635   2.944   6.194   2.743  2.4645  0.2033  1.6773
 9661SOL     OW40636   2.275   3.067   1.768  0.1298 -0.4191  0.4441
 9661SOL    HW140637   2.177   3.087   1.778  0.1021 -0.9154  1.2052
 9661SOL    HW240638   2.286   2.972   1.740  0.4095 -0.4837  0.7708
 9662SOL     OW40639   7.618   0.300   6.808  0.6162 -0.2622  0.0133
 9662SOL    HW140640   7.529   0.271   6.774 -0.5391  1.1274  1.8223
 9662SOL    HW240641   7.674   0.332   6.731 -0.5118 -0.8904 -1.0874
 9663SOL     OW40642   4.597   3.002   4.876  0.6278 -0.5224 -0.5201
 9663SOL    HW140643   4.664   3.014   4.803 -0.1115 -1.0202 -1.2862
 9663SOL    HW240644   4.540   3.084   4.883  1.0673 -0.2449 -0.1088
 9664SOL     OW40645   8.445   6.340   7.207 -0.0116 -0.3598  0.5020
 9664SOL    HW140646   8.389   6.387   7.276 -1.4153 -2.1245  0.5835
 9664SOL    HW240647   8.423   6.377   7.116 -0.7594 -0.5252  0.6158
 9665SOL     OW40648   9.657   4.386   0.263  0.0679 -0.0876 -0.1380
 9665SOL    HW140649   9.571   4.433   0.243  0.2630  0.2759 -0.1362
 9665SOL    HW240650   9.648   4.336   0.349  0.2264  0.9124  0.4766
 9666SOL     OW40651   3.452   2.916   2.256 -0.0463 -1.0879 -0.3430
 9666SOL    HW140652   3.526   2.901   2.189 -1.0072 -1.1188 -1.4066
 9666SOL    HW240653   3.370   2.946   2.208 -0.3408  0.2362  0.9930
 9667SOL     OW40654   0.189   4.205   5.801  0.1033 -0.5044 -0.0871
 9667SOL    HW140655   0.161   4.292   5.759  0.1932 -1.3911 -2.0747
 9667SOL    HW240656   0.273   4.219   5.853  0.0760  0.6166 -0.3229
 9668SOL     OW40657   9.048   6.744   0.573  0.6288 -0.5352  0.3699
 9668SOL    HW140658   8.967   6.791   0.609  1.5970  0.1239  1.7461
 9668SOL    HW240659   9.023   6.653   0.540 -0.8432  0.0407 -0.1360
 9669SOL     OW40660   2.004   3.271   4.592  0.1020 -0.0897  0.0878
 9669SOL    HW140661   2.033   3.366   4.604 -0.0846 -0.1533  1.1348
 9669SOL    HW240662   1.908   3.269   4.566  0.0678  0.0052  0.2054
 9670SOL     OW40663   3.238   1.548   5.894 -0.2937 -0.0430 -0.1379
 9670SOL    HW140664   3.143   1.521   5.907  0.2716 -2.4083 -0.6243
 9670SOL    HW240665   3.286   1.545   5.981 -0.5090  0.5784  0.0068
 9671SOL     OW40666   0.177   7.701   2.444 -0.4772  0.1837 -0.6322
 9671SOL    HW140667   0.077   7.697   2.443 -0.4745  0.0276 -1.5968
 9671SOL    HW240668   0.213   7.646   2.368  0.3556 -0.1368 -0.0128
 9672SOL     OW40669   6.026   2.231   1.879  0.1076  0.6304  0.0310
 9672SOL    HW140670   6.108   2.212   1.825  0.7423 -0.1110  1.2367
 9672SOL    HW240671   6.009   2.155   1.941 -0.6995  1.4024  0.7695
 9673SOL     OW40672   5.426   9.407   7.672 -0.1807 -0.5522 -0.0582
 9673SOL    HW140673   5.373   9.457   7.741 -0.5120 -1.5039  0.3953
 9673SOL    HW240674   5.460   9.322   7.713  0.2652 -0.7578 -0.8568
 9674SOL     OW40675   0.005   7.221   4.322 -0.2425  0.0352  0.6726
 9674SOL    HW140676   0.047   7.252   4.237 -0.5773 -0.4208  0.3363
 9674SOL    HW240677   0.044   7.271   4.399  0.8401 -0.3013  0.3577
 9675SOL     OW40678   3.513   5.921   4.923  0.0256  0.1146  0.1923
 9675SOL    HW140679   3.556   5.941   4.835  1.7739 -0.6153  0.8546
 9675SOL    HW240680   3.416   5.946   4.920  0.2600  0.8358 -1.6691
 9676SOL     OW40681   2.441   7.940   2.380 -0.0141 -0.3550 -0.3804
 9676SOL    HW140682   2.400   8.030   2.396  0.7568  0.1007 -0.9532
 9676SOL    HW240683   2.444   7.890   2.466  0.7339  0.6633  0.1927
 9677SOL     OW40684   7.548   0.609   8.141  0.0463  0.0563 -0.3704
 9677SOL    HW140685   7.581   0.605   8.235  0.6829  1.1796 -0.5356
 9677SOL    HW240686   7.450   0.628   8.140 -0.0292 -0.3092  0.0655
 9678SOL     OW40687   0.346   4.635   9.930 -0.0972 -0.0945  0.2271
 9678SOL    HW140688   0.418   4.591   9.984  0.5885  0.0727 -0.5357
 9678SOL    HW240689   0.271   4.664   9.990  0.8630  0.5082  1.1511
 9679SOL     OW40690   9.301   3.357   0.722  0.5773 -0.3566 -0.3287
 9679SOL    HW140691   9.398   3.373   0.705  0.0537  1.6884 -1.5847
 9679SOL    HW240692   9.287   3.336   0.819  2.1646  0.3076  0.0506
 9680SOL     OW40693   0.949   8.832   3.872  0.4118  0.1452 -0.7444
 9680SOL    HW140694   0.884   8.902   3.841  0.6971  1.1741  0.8943
 9680SOL    HW240695   1.042   8.865   3.856  0.5584  0.5589  0.8905
 9681SOL     OW40696   8.325   9.172   6.701  0.1552 -0.0436 -0.3282
 9681SOL    HW140697   8.261   9.125   6.640  2.1639 -0.3171 -2.3192
 9681SOL    HW240698   8.330   9.123   6.788 -2.7431  0.3338  0.0963
 9682SOL     OW40699   1.647   7.106   1.885 -0.1422 -0.2869  0.3294
 9682SOL    HW140700   1.559   7.134   1.847 -0.3432 -0.4228  0.6989
 9682SOL    HW240701   1.636   7.023   1.940  0.1352 -0.0478  0.7518
 9683SOL     OW40702   0.292   9.402   4.434 -0.2550 -0.0036 -0.0445
 9683SOL    HW140703   0.282   9.306   4.405 -3.4568 -0.5779  2.6518
 9683SOL    HW240704   0.252   9.461   4.364 -0.4013 -0.7892 -0.6421
 9684SOL     OW40705   2.001   7.318   6.106 -0.0114  0.4001 -0.0042
 9684SOL    HW140706   1.962   7.372   6.031 -0.6735 -2.4199 -1.7460
 9684SOL    HW240707   1.937   7.317   6.183 -1.8655 -1.2331 -1.5141
 9685SOL     OW40708   6.140   9.528   3.382  0.4750  0.0354 -0.1332
 9685SOL    HW140709   6.230   9.547   3.344  0.6092  1.7293  1.0094
 9685SOL    HW240710   6.146   9.521   3.482 -0.0497 -3.3517 -0.2459
 9686SOL     OW40711   4.969   9.390   7.125 -0.2389  0.3298 -0.0779
 9686SOL    HW140712   5.000   9.452   7.054 -0.9995  1.8049  0.8424
 9686SOL    HW240713   4.869   9.394   7.131 -0.4841 -2.6788 -1.5187
 9687SOL     OW40714   1.498   2.294   6.738 -0.0126  0.2109  0.0552
 9687SOL    HW140715   1.593   2.268   6.722  0.1881 -0.1386  1.6446
 9687SOL    HW240716   1.475   2.374   6.683  1.4391  0.7716  0.2404
 9688SOL     OW40717   1.954   7.815   6.195 -0.1014  0.0398  0.0951
 9688SOL    HW140718   2.032   7.834   6.254 -0.5022 -1.9569  1.3276
 9688SOL    HW240719   1.874   7.865   6.228 -0.4039 -1.3177  1.5010
 9689SOL     OW40720   2.659   5.029   6.991 -0.8876  0.3855 -0.1102
 9689SOL    HW140721   2.733   5.082   7.032 -0.1168  0.8346 -2.0397
 9689SOL    HW240722   2.686   4.933   6.983 -1.4597  0.0910  1.4197
 9690SOL     OW40723   2.624   3.545   6.115  0.3059  0.4685  0.3149
 9690SOL    HW140724   2.536   3.541   6.068 -0.4620  1.9443  1.5841
 9690SOL    HW240725   2.685   3.607   6.066  0.5143 -0.2449 -0.3402
 9691SOL     OW40726   2.992   1.514   5.404 -0.4650 -0.1856 -0.0352
 9691SOL    HW140727   3.011   1.422   5.436  0.4913  0.5506  1.5538
 9691SOL    HW240728   2.934   1.562   5.470 -2.3114 -0.1501 -1.6142
 9692SOL     OW40729   9.157   0.560   2.820 -0.0722 -0.0101  0.8888
 9692SOL    HW140730   9.221   0.636   2.825 -0.2840  0.3167 -0.9257
 9692SOL    HW240731   9.072   0.585   2.866 -0.7682  1.5382 -1.1527
 9693SOL     OW40732   8.130   2.579   3.997 -0.6019 -0.9699  0.2804
 9693SOL    HW140733   8.110   2.662   3.947  0.8225 -1.6417 -1.4360
 9693SOL    HW240734   8.124   2.597   4.095 -0.6096  1.0507 -0.0750
 9694SOL     OW40735   5.122   9.965   2.980 -0.1815 -0.1465 -0.1034
 9694SOL    HW140736   5.082  10.056   2.983 -0.7520 -0.3897 -0.0614
 9694SOL    HW240737   5.089   9.917   2.899  0.5407 -0.1258 -0.4104
 9695SOL     OW40738   0.509   0.764   0.503  0.0673 -0.2748  0.3143
 9695SOL    HW140739   0.446   0.687   0.489  1.0846 -1.1271  0.3029
 9695SOL    HW240740   0.474   0.824   0.574 -0.4119 -1.1198  0.7916
 9696SOL     OW40741   8.981   9.109   0.784  0.0634  0.8307 -0.3069
 9696SOL    HW140742   9.006   9.069   0.872 -1.3485  2.0166  0.6483
 9696SOL    HW240743   9.064   9.129   0.732  0.8388 -2.3692 -0.3955
 9697SOL     OW40744   2.603   3.283   7.122  0.4944 -0.3113  0.0829
 9697SOL    HW140745   2.602   3.231   7.208 -0.5089  0.4315  0.5263
 9697SOL    HW240746   2.509   3.310   7.099  0.7204 -0.7415 -1.3970
 9698SOL     OW40747   9.888   9.223   1.929 -0.1802  0.2614  0.0011
 9698SOL    HW140748   9.849   9.162   1.998 -0.9984  0.1784 -0.5309
 9698SOL    HW240749   9.968   9.179   1.887 -0.9519 -0.5843 -0.5965
 9699SOL     OW40750   8.464   3.555   3.272  0.5639 -0.2141  0.2309
 9699SOL    HW140751   8.431   3.574   3.365  1.2625 -0.2884  0.4973
 9699SOL    HW240752   8.559   3.584   3.264  0.3412  0.3163 -0.6333
 9700SOL     OW40753   8.067   7.985   1.584  0.1612  0.4548  0.1404
 9700SOL    HW140754   8.137   7.916   1.561 -0.5667  0.1342 -1.1752
 9700SOL    HW240755   8.083   8.019   1.676  0.5081 -1.5280  0.8396
 9701SOL     OW40756   3.773   9.267   2.352 -0.1525 -0.5433  0.2546
 9701SOL    HW140757   3.768   9.313   2.263  0.7845 -2.7595 -0.9945
 9701SOL    HW240758   3.864   9.226   2.363  0.8434  2.3160  3.6026
 9702SOL     OW40759   1.366   2.446   6.169 -0.0556  0.3276 -0.1077
 9702SOL    HW140760   1.362   2.375   6.100 -0.7930 -0.4006  0.6715
 9702SOL    HW240761   1.276   2.487   6.181  0.1015  0.5660  0.3076
 9703SOL     OW40762   4.121   2.919   3.582  0.5608 -0.0009  0.4987
 9703SOL    HW140763   4.118   2.887   3.676 -0.2238 -0.6085  0.2746
 9703SOL    HW240764   4.216   2.935   3.555  0.7896  0.0619  1.3525
 9704SOL     OW40765   1.104   9.005   1.513 -0.2086  0.7341 -0.4080
 9704SOL    HW140766   1.157   8.972   1.591 -0.4423  0.0893 -0.5119
 9704SOL    HW240767   1.040   8.934   1.485  1.0603  0.2860 -2.2699
 9705SOL     OW40768   6.985   2.424   1.829 -0.5727  0.5397  0.2730
 9705SOL    HW140769   7.040   2.508   1.829 -1.8657  1.4041  0.6690
 9705SOL    HW240770   6.987   2.382   1.739  1.5579  0.0020  0.5356
 9706SOL     OW40771   1.160   2.707   2.787  0.1641  0.4808  0.1285
 9706SOL    HW140772   1.248   2.663   2.770  1.1246  1.9300  1.2571
 9706SOL    HW240773   1.086   2.642   2.768  1.5225 -1.3857  1.0813
 9707SOL     OW40774   8.656   3.059   6.283 -0.5294  0.2858 -0.0388
 9707SOL    HW140775   8.616   3.107   6.205  0.3471  0.0401 -0.6425
 9707SOL    HW240776   8.625   3.102   6.368 -1.1017  0.8576 -0.5318
 9708SOL     OW40777   1.299   9.868   4.684  0.0381 -0.3451  0.0163
 9708SOL    HW140778   1.238   9.884   4.761 -0.9076  0.1215 -0.8119
 9708SOL    HW240779   1.258   9.905   4.601  1.2273 -0.4768 -0.6429
 9709SOL     OW40780   3.241   7.876   6.559  0.1297  0.4767 -0.7094
 9709SOL    HW140781   3.291   7.828   6.632 -0.3720 -1.1853 -1.4294
 9709SOL    HW240782   3.304   7.936   6.510  0.6441  1.0187  0.5702
 9710SOL     OW40783   0.404   3.567   4.913 -0.3195 -0.6536  0.5761
 9710SOL    HW140784   0.389   3.545   4.817  1.0006 -1.7900  0.6051
 9710SOL    HW240785   0.427   3.483   4.963  0.2763  0.1160  1.6248
 9711SOL     OW40786   6.122   9.269   7.490  0.4094 -0.1272 -0.2041
 9711SOL    HW140787   6.090   9.345   7.547 -0.7240 -0.5546 -0.2743
 9711SOL    HW240788   6.179   9.306   7.416 -1.1294  0.8058 -0.9652
 9712SOL     OW40789   3.704   6.949   6.935 -0.3112  0.3725  0.2254
 9712SOL    HW140790   3.659   7.025   6.889 -1.8867 -0.0124  1.0730
 9712SOL    HW240791   3.638   6.903   6.996  0.9018 -0.9832  0.5527
 9713SOL     OW40792   1.716   2.867   3.600 -0.0484  0.3141 -0.2676
 9713SOL    HW140793   1.739   2.770   3.601  0.5651  0.4561  0.0305
 9713SOL    HW240794   1.711   2.901   3.695 -1.0623  0.3931 -0.3385
 9714SOL     OW40795   4.663   0.492   5.834 -0.7802 -0.2300 -0.2627
 9714SOL    HW140796   4.719   0.507   5.753 -0.9091  1.1461 -0.1106
 9714SOL    HW240797   4.647   0.580   5.880  0.3132 -1.1194  1.9204
 9715SOL     OW40798   5.703   4.435   1.119  0.0298  0.3039 -0.3539
 9715SOL    HW140799   5.716   4.485   1.033  1.6112  0.7268  0.1199
 9715SOL    HW240800   5.673   4.342   1.099 -0.8667  0.7790 -1.3120
 9716SOL     OW40801   2.942   0.628   5.626 -0.1579  0.0525 -0.8143
 9716SOL    HW140802   2.868   0.563   5.611  1.4650 -2.0689  0.1415
 9716SOL    HW240803   2.998   0.635   5.544 -0.3182  0.2079 -0.9096
 9717SOL     OW40804   4.717   7.933   3.288  0.3868  0.6927 -0.3115
 9717SOL    HW140805   4.652   7.875   3.238 -0.7398  2.2882 -0.7062
 9717SOL    HW240806   4.811   7.903   3.267 -0.0839  0.8420 -2.7868
 9718SOL     OW40807   0.699   8.331   5.370 -0.0452  0.1866  0.1981
 9718SOL    HW140808   0.702   8.356   5.467 -3.9977 -2.0393  0.9951
 9718SOL    HW240809   0.763   8.256   5.353  0.7220  0.6355  1.0667
 9719SOL     OW40810   2.861   4.874   2.375  0.6821  0.0224  0.7967
 9719SOL    HW140811   2.826   4.965   2.353  1.4521  0.0443 -0.3617
 9719SOL    HW240812   2.800   4.804   2.337  0.4347  0.0506  1.1373
 9720SOL     OW40813   5.002   2.494   0.617 -0.2346 -0.5379 -1.1760
 9720SOL    HW140814   4.998   2.482   0.717  0.1961  0.6519 -1.0122
 9720SOL    HW240815   5.078   2.440   0.580 -1.3572 -2.2453 -1.0715
 9721SOL     OW40816   6.716   1.054   3.087 -0.4287  0.6391 -0.3367
 9721SOL    HW140817   6.626   1.050   3.043  0.6775 -1.2071 -2.5483
 9721SOL    HW240818   6.722   0.982   3.156 -0.1919 -0.1330 -1.1490
 9722SOL     OW40819   3.251   7.704   2.709  0.2859  0.0808  0.1751
 9722SOL    HW140820   3.168   7.698   2.765 -0.4380 -1.3260 -1.0204
 9722SOL    HW240821   3.261   7.798   2.676 -1.1502  0.1350 -0.1461
 9723SOL     OW40822   0.776   9.534   6.759 -0.3205 -0.1454  0.3433
 9723SOL    HW140823   0.741   9.625   6.781 -0.5538  0.2465 -1.5625
 9723SOL    HW240824   0.815   9.535   6.667 -1.1100 -2.1939 -0.0308
 9724SOL     OW40825   0.446   1.691   2.718  0.0397 -0.5297  0.6141
 9724SOL    HW140826   0.522   1.631   2.693  1.1302  1.7835 -1.9367
 9724SOL    HW240827   0.375   1.684   2.648  0.6660  1.9126 -0.3142
 9725SOL     OW40828   1.276   7.981   2.851  0.3691  0.4267 -0.4005
 9725SOL    HW140829   1.189   7.936   2.836  1.1046 -1.1648 -0.0226
 9725SOL    HW240830   1.268   8.079   2.831 -1.5019  0.2999 -0.2723
 9726SOL     OW40831   3.031   4.321   3.151 -0.3408  0.0915  0.1578
 9726SOL    HW140832   3.070   4.292   3.064  1.0057  1.2264  0.3529
 9726SOL    HW240833   2.933   4.334   3.141 -0.1780  0.3591 -1.2403
 9727SOL     OW40834   3.605   5.937   2.474 -0.2644 -0.0403  0.4691
 9727SOL    HW140835   3.575   6.030   2.453  0.6280 -0.1176 -1.3357
 9727SOL    HW240836   3.697   5.939   2.514 -0.4496 -0.1087  0.8961
 9728SOL     OW40837   3.994   3.541   4.128  0.2091  0.9903 -0.3201
 9728SOL    HW140838   4.086   3.519   4.096 -0.1465 -2.0241  0.5896
 9728SOL    HW240839   3.926   3.492   4.073 -0.5543 -1.5913  2.7238
 9729SOL     OW40840   6.886   9.668   5.150 -0.1999 -0.2137  0.0056
 9729SOL    HW140841   6.969   9.703   5.194 -0.5097  1.3375 -0.6357
 9729SOL    HW240842   6.814   9.736   5.156 -0.3986 -0.1586 -2.4899
 9730SOL     OW40843   7.003   9.148   4.239 -0.4641  0.3966 -0.4879
 9730SOL    HW140844   6.985   9.054   4.211 -0.8317  0.0844  0.7513
 9730SOL    HW240845   7.088   9.180   4.198  0.0387 -0.7295 -0.3305
 9731SOL     OW40846   9.796   0.832   0.165  0.2459 -0.1676 -0.5849
 9731SOL    HW140847   9.835   0.918   0.196 -1.5656  0.4499  0.0539
 9731SOL    HW240848   9.699   0.845   0.144 -0.3264 -2.2970  0.6137
 9732SOL     OW40849   0.952   8.576   5.692  0.2088 -0.3110  0.3554
 9732SOL    HW140850   0.968   8.576   5.593 -0.9798 -0.1953  0.1540
 9732SOL    HW240851   0.869   8.628   5.712 -1.8724 -3.7081  1.0130
 9733SOL     OW40852   8.400   8.857   3.918  0.4006 -0.3317 -0.9503
 9733SOL    HW140853   8.419   8.945   3.960 -2.5418 -0.2147  0.2773
 9733SOL    HW240854   8.369   8.870   3.824 -2.0261  0.1736 -0.1275
 9734SOL     OW40855   7.893   7.353   3.682 -0.5241  0.0086 -0.6609
 9734SOL    HW140856   7.926   7.272   3.729  1.5156  1.0726 -0.2222
 9734SOL    HW240857   7.828   7.402   3.741  1.5068  0.9759  0.8251
 9735SOL     OW40858   2.785   2.972   4.882  0.3681  0.2683 -0.0349
 9735SOL    HW140859   2.848   2.898   4.908  0.2530 -0.3099 -1.3781
 9735SOL    HW240860   2.700   2.933   4.848  0.0226  1.0286 -0.0436
 9736SOL     OW40861   6.799   9.516   8.143  0.4859  0.3551 -0.1996
 9736SOL    HW140862   6.796   9.612   8.172  1.3753  0.3691 -0.1346
 9736SOL    HW240863   6.876   9.503   8.079 -0.0660 -0.1590 -0.7672
 9737SOL     OW40864   3.701   4.313   0.825 -0.4871 -0.4934 -0.5054
 9737SOL    HW140865   3.608   4.309   0.789 -0.0508 -2.7936 -1.5015
 9737SOL    HW240866   3.702   4.368   0.908 -2.5899  0.1894 -0.8948
 9738SOL     OW40867   2.800   5.586   1.365  0.0297  0.4653 -0.1769
 9738SOL    HW140868   2.733   5.642   1.416  0.2848  0.0491  0.6297
 9738SOL    HW240869   2.756   5.548   1.284 -0.8597 -0.1673  0.5774
 9739SOL     OW40870   7.882   0.607   3.381  0.3682 -0.0181 -0.0748
 9739SOL    HW140871   7.820   0.606   3.459 -1.2091  3.0168 -1.2187
 9739SOL    HW240872   7.938   0.524   3.382  0.4658 -0.0113  4.2931
 9740SOL     OW40873   9.292   6.269   4.564 -0.0348 -0.8717  0.0607
 9740SOL    HW140874   9.210   6.279   4.508  0.2044 -1.4913 -0.4002
 9740SOL    HW240875   9.357   6.343   4.542 -1.0090  0.4020  1.3742
 9741SOL     OW40876   2.709   5.813   0.457  0.5835  0.2387  1.3118
 9741SOL    HW140877   2.788   5.757   0.430 -1.7819 -2.4270 -0.2672
 9741SOL    HW240878   2.734   5.910   0.451  2.7187 -0.4331 -2.6370
 9742SOL     OW40879   8.053   8.682   2.772  0.3365 -0.2009  0.3613
 9742SOL    HW140880   8.080   8.587   2.753 -0.6026 -0.3127 -0.4078
 9742SOL    HW240881   7.966   8.683   2.820  1.1353  0.2170  1.8329
 9743SOL     OW40882   4.614   2.495  10.042 -0.1105  0.0084 -0.3198
 9743SOL    HW140883   4.545   2.430  10.075  0.6473 -1.8642 -2.2796
 9743SOL    HW240884   4.686   2.445   9.993  0.5172  2.3433 -1.8716
 9744SOL     OW40885   3.482   5.126   2.579 -0.3917 -0.6133 -0.8225
 9744SOL    HW140886   3.416   5.166   2.515  1.0094 -0.4181 -2.1935
 9744SOL    HW240887   3.494   5.187   2.657 -2.1564 -0.8713 -0.3357
 9745SOL     OW40888   8.318   0.558   4.293 -0.0336  0.1213  0.4676
 9745SOL    HW140889   8.286   0.467   4.320  1.4980 -0.5909 -0.0485
 9745SOL    HW240890   8.297   0.573   4.196  1.4273 -0.4696  0.0477
 9746SOL     OW40891   6.566   8.262   7.837 -0.3247 -0.4133  0.2074
 9746SOL    HW140892   6.624   8.223   7.908  1.2767  0.8452 -0.3626
 9746SOL    HW240893   6.475   8.281   7.874 -0.6618 -3.2256  0.8797
 9747SOL     OW40894   4.352   7.420   1.548  0.6482  0.3923  0.3852
 9747SOL    HW140895   4.291   7.400   1.625 -1.9538 -1.1216 -1.9516
 9747SOL    HW240896   4.326   7.507   1.507 -0.4033 -0.5294 -0.9721
 9748SOL     OW40897   0.126   9.160   1.738 -0.2008 -0.0133  0.0024
 9748SOL    HW140898   0.219   9.176   1.771 -0.2408 -0.5832  0.3969
 9748SOL    HW240899   0.113   9.208   1.652  0.7829 -0.7579 -0.5757
 9749SOL     OW40900   6.474   2.396   5.581 -0.1492 -0.2902  0.1082
 9749SOL    HW140901   6.490   2.299   5.567  0.6668 -0.0579 -0.6284
 9749SOL    HW240902   6.478   2.444   5.493 -0.6435  0.3980  0.4491
 9750SOL     OW40903   1.961   2.189   3.291 -0.1640  0.1928  0.1079
 9750SOL    HW140904   2.060   2.182   3.282 -0.0449  1.0786  0.7360
 9750SOL    HW240905   1.938   2.226   3.380 -1.1158 -1.2462  0.4839
 9751SOL     OW40906   3.032   8.246   6.052 -0.1841 -0.0707 -0.2353
 9751SOL    HW140907   3.059   8.155   6.084  1.2128  0.6337  0.6560
 9751SOL    HW240908   3.006   8.302   6.130  1.1367  0.9794 -0.5373
 9752SOL     OW40909   1.657   3.712   4.534 -0.0408 -0.2638 -0.0857
 9752SOL    HW140910   1.756   3.705   4.542  0.1427 -0.3935 -2.2002
 9752SOL    HW240911   1.624   3.646   4.466 -1.6639 -0.7556  1.1565
 9753SOL     OW40912   1.982   3.409   2.258 -0.0259  0.7014  0.5705
 9753SOL    HW140913   2.027   3.399   2.169 -1.2830  1.0101 -0.1016
 9753SOL    HW240914   1.894   3.454   2.247 -1.1351 -1.1255  1.7192
 9754SOL     OW40915   3.760   6.901   3.299  0.3227 -0.4766 -0.0492
 9754SOL    HW140916   3.820   6.962   3.247 -0.9569 -0.0759 -1.0785
 9754SOL    HW240917   3.737   6.944   3.386 -0.9199  0.7297 -0.9462
 9755SOL     OW40918   4.208   1.970   7.208  0.3642  0.0129  0.0468
 9755SOL    HW140919   4.292   1.982   7.155 -0.4261 -0.9077 -1.4657
 9755SOL    HW240920   4.153   2.053   7.202  0.8708  0.3816  0.4991
 9756SOL     OW40921   4.831   9.038   6.211  0.8585  0.6379  0.2781
 9756SOL    HW140922   4.760   9.054   6.141  0.9356 -0.9115 -0.1731
 9756SOL    HW240923   4.865   8.944   6.203  1.1646  0.5703  2.1386
 9757SOL     OW40924   1.321   6.333  10.076  0.6735  0.5112 -0.1233
 9757SOL    HW140925   1.273   6.260  10.028  0.5528 -0.5093  1.5054
 9757SOL    HW240926   1.339   6.304  10.170  1.5242  2.1927  0.2396
 9758SOL     OW40927   4.125   4.339   6.671  0.0967 -0.1781  0.4377
 9758SOL    HW140928   4.128   4.251   6.623  0.3208 -0.8497  1.6597
 9758SOL    HW240929   4.216   4.360   6.708  0.0837  0.6528 -0.0001
 9759SOL     OW40930   2.276   3.853   0.279  0.4642  0.4394 -0.2624
 9759SOL    HW140931   2.344   3.915   0.317  1.5018 -1.3070  0.8043
 9759SOL    HW240932   2.321   3.769   0.249 -1.1571 -0.5370 -0.0160
 9760SOL     OW40933   0.676   4.753   7.105 -0.0129 -0.5545  0.2053
 9760SOL    HW140934   0.707   4.661   7.130  0.5134 -0.6575 -0.8031
 9760SOL    HW240935   0.735   4.790   7.033 -0.4220  0.4437  0.3690
 9761SOL     OW40936   3.398   4.423   3.423 -0.5260 -0.3164 -0.0348
 9761SOL    HW140937   3.447   4.337   3.411  0.2994 -0.0037  0.9548
 9761SOL    HW240938   3.437   4.472   3.501 -1.9448  0.2801  0.3037
 9762SOL     OW40939   8.100   0.360   6.161  0.0812  0.5679 -0.0317
 9762SOL    HW140940   8.038   0.365   6.082 -0.4716  0.3050  0.3830
 9762SOL    HW240941   8.048   0.377   6.244  0.8768  1.9670  0.1803
 9763SOL     OW40942   7.963   7.137   8.102  0.3031  0.1023 -0.0392
 9763SOL    HW140943   8.022   7.103   8.176 -0.1208 -0.5760 -0.0104
 9763SOL    HW240944   7.868   7.111   8.121 -0.0476  1.3820  0.0326
 9764SOL     OW40945   3.871   4.109   4.593  0.1252  0.6261  0.2560
 9764SOL    HW140946   3.887   4.202   4.562  0.9598  0.4585  0.1628
 9764SOL    HW240947   3.921   4.045   4.533  0.9899  0.2351  1.3758
 9765SOL     OW40948   7.862   4.892   1.315 -0.3876 -0.4174  0.4254
 9765SOL    HW140949   7.933   4.955   1.347 -1.3405  1.3242 -0.8414
 9765SOL    HW240950   7.905   4.814   1.269  0.6882  1.2367 -1.4495
 9766SOL     OW40951   1.367   5.944   2.597 -0.3855  0.4726  0.2262
 9766SOL    HW140952   1.286   5.942   2.539 -1.3885 -0.4152  1.6211
 9766SOL    HW240953   1.371   5.860   2.651  0.9566  0.9338  0.8606
 9767SOL     OW40954   0.673   1.692   3.345  0.2995 -0.3893 -0.6570
 9767SOL    HW140955   0.585   1.655   3.374 -0.3820  1.9969  0.4329
 9767SOL    HW240956   0.744   1.623   3.358 -1.1462 -1.7702  0.0303
 9768SOL     OW40957   2.217   4.680   6.454  0.1790  0.2414 -0.9412
 9768SOL    HW140958   2.281   4.680   6.531 -0.2380 -2.2166 -0.5499
 9768SOL    HW240959   2.258   4.633   6.376  0.2380  1.8962 -1.9312
 9769SOL     OW40960   6.902   1.918   1.171  0.2160  0.4364  0.2878
 9769SOL    HW140961   6.838   1.988   1.138  0.5598 -0.2236 -1.8775
 9769SOL    HW240962   6.995   1.951   1.161  0.3510 -0.0609 -0.1001
 9770SOL     OW40963   4.087   4.179   7.807 -0.2152  0.3929 -0.1572
 9770SOL    HW140964   3.995   4.148   7.833 -1.0207  0.4514 -2.8197
 9770SOL    HW240965   4.084   4.223   7.717  2.2283  1.5098  0.2532
 9771SOL     OW40966   6.958   7.630   6.830  0.0151 -0.9907  0.1562
 9771SOL    HW140967   7.054   7.602   6.835  0.6945  1.3231  0.8571
 9771SOL    HW240968   6.948   7.719   6.876 -2.1992 -0.5605 -1.1494
 9772SOL     OW40969   9.250   7.337   5.746 -0.0400  0.2436 -0.1575
 9772SOL    HW140970   9.205   7.308   5.830 -0.6718  0.8343 -0.2945
 9772SOL    HW240971   9.303   7.420   5.763 -0.1370  0.3427 -0.3363
 9773SOL     OW40972   0.563   4.550   0.033 -0.5220  0.2559 -0.4048
 9773SOL    HW140973   0.642   4.611   0.041 -1.1845  1.0819 -0.0635
 9773SOL    HW240974   0.539   4.514   0.123 -0.5676  0.0628 -0.4950
 9774SOL     OW40975   1.948   0.366   2.100 -0.1511  0.3335 -0.4332
 9774SOL    HW140976   1.884   0.381   2.024  0.0000 -0.8260 -0.8106
 9774SOL    HW240977   1.992   0.452   2.125 -0.3394  0.7551 -1.5386
 9775SOL     OW40978   1.428   3.337   4.127  0.1153  0.0948 -0.3513
 9775SOL    HW140979   1.386   3.427   4.140  1.9041  0.9411 -0.2891
 9775SOL    HW240980   1.468   3.332   4.036  2.9398  0.6352  0.7912
 9776SOL     OW40981   7.852   0.281   5.453  0.0562 -0.2245  0.1241
 9776SOL    HW140982   7.828   0.203   5.511 -1.5970  0.8060  0.8468
 9776SOL    HW240983   7.899   0.248   5.371 -0.5935 -1.9846  0.4437
 9777SOL     OW40984   2.469   1.411   7.476  0.1124  0.0055 -0.2566
 9777SOL    HW140985   2.470   1.348   7.554 -1.6457 -0.0543 -0.2611
 9777SOL    HW240986   2.466   1.358   7.391  0.4285  0.0845 -0.3174
 9778SOL     OW40987   0.907   4.067   0.659 -0.1288  0.1604  0.5524
 9778SOL    HW140988   0.971   4.124   0.609  0.1714 -0.6938 -0.0440
 9778SOL    HW240989   0.834   4.037   0.597  1.0570 -2.1419  0.2298
 9779SOL     OW40990   8.372   5.332   4.505 -0.5418 -0.0426 -0.6990
 9779SOL    HW140991   8.459   5.294   4.540  0.1543  2.1645  0.0334
 9779SOL    HW240992   8.296   5.276   4.540  0.3532  0.1819  1.7610
 9780SOL     OW40993   8.468   0.470   7.171 -0.0044 -0.5234  0.2759
 9780SOL    HW140994   8.425   0.547   7.217 -0.9220 -0.7297 -0.2205
 9780SOL    HW240995   8.433   0.384   7.209 -0.8221 -0.6950 -0.8323
 9781SOL     OW40996   6.550   8.416   6.875 -0.3180  0.0807 -0.0557
 9781SOL    HW140997   6.594   8.463   6.952 -1.7328  0.4783  0.5395
 9781SOL    HW240998   6.574   8.319   6.877  0.2364  0.2231  0.4637
 9782SOL     OW40999   7.629   7.427   3.194  0.6779  0.4940  0.2336
 9782SOL    HW141000   7.575   7.350   3.228 -0.8692  1.5344  0.1789
 9782SOL    HW241001   7.651   7.411   3.098  0.0593  0.2787  0.1227
 9783SOL     OW41002   8.499   2.561   2.582  0.0591 -0.2717 -0.2282
 9783SOL    HW141003   8.538   2.579   2.672  1.4425 -0.7724 -0.7177
 9783SOL    HW241004   8.446   2.641   2.552  1.9709  1.0328 -0.2095
 9784SOL     OW41005   3.680   4.951   3.248  0.3027 -0.1389  0.7046
 9784SOL    HW141006   3.655   4.988   3.337 -1.2019  0.3739  0.0837
 9784SOL    HW241007   3.697   4.853   3.257  0.7967  0.0229  1.6633
 9785SOL     OW41008   7.116   9.745   6.171 -0.6124 -0.2540 -0.3884
 9785SOL    HW141009   7.107   9.845   6.167  0.7863 -0.1091 -0.0171
 9785SOL    HW241010   7.041   9.703   6.120 -2.3640  0.9359  1.1476
 9786SOL     OW41011   4.916   5.645   2.924 -0.3182 -0.3813  0.1981
 9786SOL    HW141012   4.976   5.725   2.924  1.7497 -1.9083  0.4964
 9786SOL    HW241013   4.827   5.670   2.885  1.2564  1.3219 -2.4017
 9787SOL     OW41014   6.170   5.275   2.080 -0.1124 -0.4791 -0.1815
 9787SOL    HW141015   6.140   5.351   2.137  0.6973  0.2739 -0.7626
 9787SOL    HW241016   6.164   5.300   1.984  0.7968 -0.9030 -0.3550
 9788SOL     OW41017   6.552   2.169   2.412 -0.6808  0.3164 -0.3040
 9788SOL    HW141018   6.516   2.261   2.425  1.4422  1.3076 -1.0615
 9788SOL    HW241019   6.529   2.137   2.320  1.6438  1.6214 -1.4078
 9789SOL     OW41020   7.408   9.610   1.636 -0.0355  0.5528 -0.1532
 9789SOL    HW141021   7.356   9.621   1.721 -0.7127  1.1472 -0.6427
 9789SOL    HW241022   7.442   9.516   1.631 -1.0430  0.1556  0.1917
 9790SOL     OW41023   0.191   2.564   4.751 -0.5029 -0.4628 -0.2037
 9790SOL    HW141024   0.173   2.539   4.846 -0.3015 -1.0505 -0.3210
 9790SOL    HW241025   0.173   2.662   4.739  0.1612 -0.2383  0.6041
 9791SOL     OW41026   3.357   2.098   3.586  0.0779 -0.1563  0.0976
 9791SOL    HW141027   3.277   2.155   3.564 -1.0782 -1.6361  0.3269
 9791SOL    HW241028   3.352   2.071   3.682  0.6619 -0.5560  0.0141
 9792SOL     OW41029   9.172   7.971   4.522 -0.6165  0.3400 -0.0334
 9792SOL    HW141030   9.150   7.937   4.613 -0.8655  0.1378 -0.1676
 9792SOL    HW241031   9.087   7.992   4.473 -0.5079 -0.3843 -0.5361
 9793SOL     OW41032   1.686   9.711   7.272  0.4543 -0.4474 -0.7982
 9793SOL    HW141033   1.689   9.691   7.174  0.2601 -0.8753 -0.7184
 9793SOL    HW241034   1.774   9.686   7.313  0.5619 -0.1992 -0.8739
 9794SOL     OW41035   3.093   7.801   7.597 -0.1200  0.4879 -0.1387
 9794SOL    HW141036   3.112   7.888   7.551 -0.6082  0.8211  0.2724
 9794SOL    HW241037   3.113   7.810   7.695 -2.8760  1.0572  0.4305
 9795SOL     OW41038   5.129   2.697   1.084  0.1904  0.2979  0.4303
 9795SOL    HW141039   5.186   2.770   1.122  0.4873  0.7258 -0.8161
 9795SOL    HW241040   5.172   2.608   1.102  0.1661  0.4712  1.3556
 9796SOL     OW41041   9.773   2.067   7.248 -0.0143 -0.4165 -0.6555
 9796SOL    HW141042   9.791   1.971   7.229  0.5381 -0.6060  0.7575
 9796SOL    HW241043   9.691   2.075   7.305  1.5374 -0.2782  1.6396
 9797SOL     OW41044   5.057   8.038   6.364 -0.2936 -0.5636 -0.9613
 9797SOL    HW141045   5.134   8.082   6.411 -1.4326 -0.9670  1.3044
 9797SOL    HW241046   4.982   8.104   6.353  0.0421 -0.3996 -2.4885
 9798SOL     OW41047   7.302   5.904   6.496 -0.0665  0.4358  0.0482
 9798SOL    HW141048   7.343   5.971   6.433 -0.0737  2.3090  1.9657
 9798SOL    HW241049   7.212   5.878   6.462  0.1340  1.0552 -0.9876
 9799SOL     OW41050   9.823   7.245   1.793  0.1337  0.7323 -0.2690
 9799SOL    HW141051   9.780   7.223   1.880  1.3253  1.5973  0.5535
 9799SOL    HW241052   9.795   7.178   1.724 -0.2220 -0.3910  0.9477
 9800SOL     OW41053   5.282   1.232   6.836  0.0390 -0.5029  0.5039
 9800SOL    HW141054   5.223   1.236   6.755 -0.8674 -1.4979  1.1027
 9800SOL    HW241055   5.262   1.309   6.896  1.3292  0.7399 -0.6128
 9801SOL     OW41056   6.306   1.311   2.180  0.1390 -0.8023  0.3618
 9801SOL    HW141057   6.234   1.242   2.174 -0.6657  0.0400  0.2064
 9801SOL    HW241058   6.355   1.301   2.267 -0.5995 -0.9665  0.7668
 9802SOL     OW41059   3.976   4.197   0.123 -0.1883 -0.1167  0.4977
 9802SOL    HW141060   3.998   4.228   0.030 -2.0429 -2.1477 -0.6788
 9802SOL    HW241061   4.060   4.193   0.177  1.0145  0.5203 -1.2624
 9803SOL     OW41062   4.114   7.540   4.323 -0.0887  0.6681  0.2133
 9803SOL    HW141063   4.107   7.640   4.327 -1.9752  0.5080  1.3479
 9803SOL    HW241064   4.024   7.499   4.336  0.8509 -1.2297  0.9551
 9804SOL     OW41065   2.052   2.474   1.191 -0.1196 -0.1007  0.4660
 9804SOL    HW141066   2.134   2.428   1.156  0.0858  0.4093  0.2634
 9804SOL    HW241067   1.996   2.409   1.241  1.6769  0.1064  2.8272
 9805SOL     OW41068   7.158   7.926   2.774 -0.3346  0.0653 -0.1927
 9805SOL    HW141069   7.194   7.959   2.861  1.0297  0.8292 -1.0316
 9805SOL    HW241070   7.194   7.834   2.756 -0.0937  0.1741 -0.2644
 9806SOL     OW41071   0.146   2.054   1.667 -0.3443 -0.6399 -0.4224
 9806SOL    HW141072   0.122   2.050   1.570  0.0787 -0.1643 -0.5494
 9806SOL    HW241073   0.066   2.033   1.722 -0.5715 -0.9686 -0.8795
 9807SOL     OW41074   2.402   4.355   2.044  0.3526  0.1459  0.3325
 9807SOL    HW141075   2.469   4.424   2.017  2.3156 -2.2105 -1.0287
 9807SOL    HW241076   2.358   4.318   1.962 -0.4422 -0.4544  1.0257
 9808SOL     OW41077   8.423   3.426   6.057 -0.1703  0.2470  0.4047
 9808SOL    HW141078   8.369   3.475   5.988  1.8790  2.0253  0.0111
 9808SOL    HW241079   8.449   3.337   6.022 -2.0892 -0.2855  0.2636
 9809SOL     OW41080   4.981   7.889   3.289 -0.4778  0.1935 -0.5754
 9809SOL    HW141081   5.074   7.859   3.267  0.0630 -2.5591  4.5341
 9809SOL    HW241082   4.985   7.973   3.344 -1.2293  1.7020 -2.7774
 9810SOL     OW41083   4.496   5.666   1.628  0.4405 -0.8066  0.6115
 9810SOL    HW141084   4.405   5.662   1.584  0.6384  0.0464  0.1178
 9810SOL    HW241085   4.485   5.654   1.726 -0.2206 -0.6776  0.5622
 9811SOL     OW41086   0.792   6.214   9.906  0.5211  0.1517 -0.0261
 9811SOL    HW141087   0.783   6.127   9.859 -1.2071  0.4348 -0.2752
 9811SOL    HW241088   0.801   6.199  10.005  0.0676 -0.3105 -0.0532
 9812SOL     OW41089   0.377   0.704   2.066 -0.0258  0.1771  0.0697
 9812SOL    HW141090   0.373   0.762   1.985 -0.6859 -0.8150 -0.6335
 9812SOL    HW241091   0.472   0.691   2.094  0.2922 -0.4326 -1.2624
 9813SOL     OW41092   0.799   2.530   1.575 -0.0508  0.8076  0.3436
 9813SOL    HW141093   0.889   2.571   1.591 -0.5576  1.2244  2.1891
 9813SOL    HW241094   0.790   2.446   1.629 -0.7908  0.7999  0.2115
 9814SOL     OW41095   4.395   5.310   4.768 -1.0482  0.5131 -0.2107
 9814SOL    HW141096   4.371   5.395   4.720  0.5044  1.5773  0.8387
 9814SOL    HW241097   4.489   5.317   4.803 -1.7986 -0.6305  2.0951
 9815SOL     OW41098   3.759   9.595   4.436  0.1379  0.4299  0.1682
 9815SOL    HW141099   3.734   9.513   4.384 -0.9538  1.5448 -1.1205
 9815SOL    HW241100   3.696   9.606   4.513  1.0186 -0.5731  1.0461
 9816SOL     OW41101   4.475   1.198   6.095 -0.3820 -0.3710 -0.2714
 9816SOL    HW141102   4.443   1.120   6.148  2.3167 -0.1489  1.8157
 9816SOL    HW241103   4.397   1.254   6.067 -2.2677 -3.2623 -0.9942
 9817SOL     OW41104   7.137   6.170   6.297 -0.3030  0.2542 -0.2446
 9817SOL    HW141105   7.071   6.147   6.225  0.5477  0.1301 -1.0048
 9817SOL    HW241106   7.212   6.103   6.295  0.5571  1.2032 -0.3279
 9818SOL     OW41107   0.116   7.643   3.805  0.3958  0.0858 -0.1630
 9818SOL    HW141108   0.062   7.680   3.880 -0.6728 -1.7586 -0.0038
 9818SOL    HW241109   0.114   7.707   3.728  1.2255  1.8347  1.2204
 9819SOL     OW41110   7.732   7.365   6.166  0.8483 -0.4037 -0.5879
 9819SOL    HW141111   7.687   7.292   6.217  3.0737 -0.8077  0.8774
 9819SOL    HW241112   7.737   7.447   6.224  2.4313 -0.5384 -0.4957
 9820SOL     OW41113   6.205   9.600   6.250 -0.6133 -0.0171 -0.0653
 9820SOL    HW141114   6.280   9.632   6.191 -0.6630  0.2839  0.0346
 9820SOL    HW241115   6.221   9.630   6.344  0.5551 -2.3017  0.5018
 9821SOL     OW41116   9.222   8.564   0.251 -0.1342  0.1063 -0.2152
 9821SOL    HW141117   9.263   8.654   0.270  0.6517 -0.1938 -0.4784
 9821SOL    HW241118   9.147   8.548   0.315 -0.9795  1.4070 -0.8579
 9822SOL     OW41119   9.624   3.969   2.451  0.6947  0.0576 -0.3690
 9822SOL    HW141120   9.594   3.912   2.527 -0.0422  0.2193 -0.5370
 9822SOL    HW241121   9.683   4.042   2.485  0.0807  0.3399  0.0873
 9823SOL     OW41122   2.260   9.858   5.081  0.5034 -0.3023 -0.2930
 9823SOL    HW141123   2.344   9.814   5.048  0.1508 -1.1779 -0.0173
 9823SOL    HW241124   2.250   9.947   5.035  0.9636 -0.7102 -1.2120
 9824SOL     OW41125   7.622   3.743   2.870  0.0939 -0.4363 -0.0401
 9824SOL    HW141126   7.603   3.645   2.863  0.0298 -0.3207 -1.8659
 9824SOL    HW241127   7.697   3.767   2.807 -0.9952  0.9520 -0.8349
 9825SOL     OW41128   8.697   1.789   5.416 -0.3639  0.5418  0.0735
 9825SOL    HW141129   8.736   1.799   5.324  0.3568 -1.2715  0.1486
 9825SOL    HW241130   8.759   1.831   5.482 -0.8010  1.7078 -0.2535
 9826SOL     OW41131   5.266   8.633   2.133  0.2364  0.0177  0.4273
 9826SOL    HW141132   5.274   8.641   2.233 -0.4209 -0.5767  0.5362
 9826SOL    HW241133   5.356   8.621   2.093  0.2967 -2.5398  1.2158
 9827SOL     OW41134   9.032   9.849   1.532 -0.6358 -0.6854  0.0600
 9827SOL    HW141135   8.951   9.799   1.501  0.3591 -3.6528  1.9682
 9827SOL    HW241136   9.038   9.844   1.632  0.7748  1.3008  0.0996
 9828SOL     OW41137   7.171   2.077   6.479 -0.0094  0.3233  0.2355
 9828SOL    HW141138   7.252   2.058   6.424  0.4337 -0.4117  1.1308
 9828SOL    HW241139   7.090   2.081   6.420  0.6800  1.1059 -0.6636
 9829SOL     OW41140   7.646   8.485   7.118 -0.0642  0.0956  0.4214
 9829SOL    HW141141   7.645   8.466   7.020 -0.1255  1.6025  0.1127
 9829SOL    HW241142   7.555   8.514   7.147 -0.2870 -1.2941  1.1246
 9830SOL     OW41143   1.668   2.060   2.140 -0.7037  0.6232  0.6539
 9830SOL    HW141144   1.713   2.093   2.057 -0.2093  0.3452  0.8061
 9830SOL    HW241145   1.655   1.961   2.134  1.0289  0.3056  1.6833
 9831SOL     OW41146   2.094   8.280   0.002  0.2683 -0.6193 -0.0940
 9831SOL    HW141147   2.131   8.188  -0.012  0.3971 -0.4690 -0.7893
 9831SOL    HW241148   2.072   8.320  -0.087  0.8333  0.2794  0.1662
 9832SOL     OW41149   9.314   8.395   2.986 -0.0570  0.2965  0.3533
 9832SOL    HW141150   9.291   8.388   2.889 -0.9641 -0.7430  0.6326
 9832SOL    HW241151   9.385   8.464   2.999  0.9678 -0.4494 -1.2030
 9833SOL     OW41152   9.988   3.859   3.565 -0.4251  0.6204  0.1487
 9833SOL    HW141153   9.928   3.788   3.528  3.5413 -1.8614 -1.8345
 9833SOL    HW241154   9.994   3.849   3.664 -0.8818 -1.0229  0.0229
 9834SOL     OW41155   9.408   9.607   6.798  0.6570  0.4331  0.3521
 9834SOL    HW141156   9.426   9.598   6.700 -0.1881 -0.3852  0.2665
 9834SOL    HW241157   9.468   9.546   6.850 -0.8184 -1.2291  0.1561
 9835SOL     OW41158   6.606   5.273   1.324 -0.1041 -0.5315 -0.1926
 9835SOL    HW141159   6.534   5.332   1.361 -0.6917 -0.4258 -1.4713
 9835SOL    HW241160   6.651   5.224   1.398 -0.1846  0.8845  0.8138
 9836SOL     OW41161   9.597   3.382   0.808 -0.0278 -0.1344  0.3037
 9836SOL    HW141162   9.557   3.356   0.895 -0.9169  0.5101  0.0969
 9836SOL    HW241163   9.642   3.471   0.816  0.9290 -0.6185  0.4033
 9837SOL     OW41164   3.362   2.127   4.170  0.4844  0.5281  0.2329
 9837SOL    HW141165   3.336   2.222   4.149 -1.4779  0.5837  2.5844
 9837SOL    HW241166   3.297   2.065   4.126  0.0450  0.4115  1.0351
 9838SOL     OW41167   8.667   0.305   3.357  0.3107  0.1125 -0.5976
 9838SOL    HW141168   8.568   0.291   3.364  0.0933  0.7510 -2.2873
 9838SOL    HW241169   8.689   0.345   3.268  2.0947 -0.0242 -0.2313
 9839SOL     OW41170   9.997   2.329   6.111  0.0408  0.0962  0.5206
 9839SOL    HW141171  10.028   2.367   6.198  1.0478 -0.1104  0.2564
 9839SOL    HW241172   9.930   2.392   6.070 -0.9334 -0.1199  1.7330
 9840SOL     OW41173   7.950   5.148   0.074  0.1558 -0.0010  0.1408
 9840SOL    HW141174   7.854   5.176   0.073  0.7959  2.3045 -0.9004
 9840SOL    HW241175   7.972   5.104  -0.014  0.6911  1.8054 -0.6378
 9841SOL     OW41176   6.450   4.005   2.325  0.5897  0.3538  0.6582
 9841SOL    HW141177   6.540   3.995   2.281  1.0112 -0.3709  1.6594
 9841SOL    HW241178   6.463   4.009   2.424 -0.6043 -1.1890  0.8868
 9842SOL     OW41179   4.616   2.057   1.825  0.1686  0.6332  0.4112
 9842SOL    HW141180   4.624   2.015   1.915  2.7818  0.9853  0.4014
 9842SOL    HW241181   4.614   1.985   1.755  0.4330  0.4135  0.6269
 9843SOL     OW41182   1.929   3.662   4.534  0.4371 -0.4586  0.4147
 9843SOL    HW141183   1.947   3.662   4.435 -0.1769  1.6918  0.2698
 9843SOL    HW241184   2.005   3.616   4.581  1.7240  0.2406 -0.9142
 9844SOL     OW41185   7.107   0.025   6.163 -0.0844  0.1412  0.0463
 9844SOL    HW141186   7.205   0.045   6.162 -0.3440  1.5505  0.5888
 9844SOL    HW241187   7.059   0.100   6.209 -1.7626  0.9736 -2.9568
 9845SOL     OW41188   9.961   1.987   3.067 -0.3091 -0.8099  0.0769
 9845SOL    HW141189   9.862   1.971   3.070 -0.5292  0.6080  0.4332
 9845SOL    HW241190   9.980   2.081   3.094  1.2619 -1.5319  1.5917
 9846SOL     OW41191   6.246   0.344   2.401 -0.2930  0.3948  0.0073
 9846SOL    HW141192   6.171   0.360   2.336 -0.4917  1.5401  0.5074
 9846SOL    HW241193   6.210   0.344   2.494  0.2819  0.5865  0.2294
 9847SOL     OW41194   0.211   5.588   2.784  0.3556  0.0062  0.5078
 9847SOL    HW141195   0.206   5.651   2.862  0.7311 -0.1356  0.6475
 9847SOL    HW241196   0.233   5.639   2.701 -2.3411  0.5067  0.0593
 9848SOL     OW41197   3.509   4.372   1.982 -0.3374  0.2482 -0.1972
 9848SOL    HW141198   3.478   4.380   2.077 -0.6950 -1.0720 -0.1957
 9848SOL    HW241199   3.528   4.276   1.961  2.1491  0.8284 -0.7149
 9849SOL     OW41200   1.122   4.653   4.305  0.0752  0.5186 -0.3146
 9849SOL    HW141201   1.125   4.585   4.231 -0.3423  0.1118  0.0340
 9849SOL    HW241202   1.032   4.650   4.349  0.6478  0.0491  0.8666
 9850SOL     OW41203   0.236   4.872   5.271 -0.1034  0.3840 -0.2346
 9850SOL    HW141204   0.169   4.934   5.310 -0.3467  0.7187 -1.1584
 9850SOL    HW241205   0.304   4.848   5.339 -0.7536  0.6160  0.5038
 9851SOL     OW41206   5.816   9.927   2.102  0.6116  0.0861  0.2212
 9851SOL    HW141207   5.862   9.976   2.176  1.9342 -2.2908  1.0308
 9851SOL    HW241208   5.801   9.832   2.129 -0.7119 -0.3131 -1.8065
 9852SOL     OW41209   1.990   6.439   2.559 -0.0212 -0.1236  0.3352
 9852SOL    HW141210   1.927   6.486   2.621 -0.4714  1.9217 -1.6162
 9852SOL    HW241211   1.947   6.356   2.525 -1.3493  0.8173 -0.3128
 9853SOL     OW41212   0.678   2.083   3.866 -0.0502 -0.6273 -0.0360
 9853SOL    HW141213   0.655   2.151   3.935 -0.9458 -1.3025  0.3319
 9853SOL    HW241214   0.682   1.992   3.908 -0.7482 -1.0608 -0.8976
 9854SOL     OW41215   1.317   3.509   5.429 -0.2476  0.1263  0.4995
 9854SOL    HW141216   1.323   3.609   5.423 -0.1341  0.2178  2.0812
 9854SOL    HW241217   1.376   3.476   5.502 -0.9254 -1.0374  0.5383
 9855SOL     OW41218   3.565   6.131   6.215 -0.1350  0.7841  0.3178
 9855SOL    HW141219   3.657   6.169   6.213  0.7045 -1.1343  1.4461
 9855SOL    HW241220   3.505   6.191   6.268  1.0844  0.7036  1.8057
 9856SOL     OW41221   7.839   8.265   2.734  0.1276 -0.2476  0.2230
 9856SOL    HW141222   7.826   8.170   2.763 -1.3565 -0.2743 -0.4993
 9856SOL    HW241223   7.901   8.268   2.656 -1.5182 -0.8396 -1.1325
 9857SOL     OW41224   1.856   1.777   1.622 -0.0447  0.1160 -0.3268
 9857SOL    HW141225   1.852   1.716   1.701 -1.7480  0.5008 -0.1175
 9857SOL    HW241226   1.941   1.759   1.571 -0.0528 -1.7401  0.2795
 9858SOL     OW41227   9.319   5.219   6.651 -0.6012 -0.1463 -0.0476
 9858SOL    HW141228   9.293   5.125   6.631 -1.1044 -0.0558  0.1808
 9858SOL    HW241229   9.391   5.220   6.721 -1.0532 -0.3404  0.4282
 9859SOL     OW41230   9.877   9.144  10.018 -0.1296  0.5953 -0.1451
 9859SOL    HW141231   9.784   9.108  10.017 -0.2368  0.8652  0.0714
 9859SOL    HW241232   9.876   9.236  10.057  0.0184  1.1611 -1.4476
 9860SOL     OW41233   4.782   1.337   4.873 -0.8500 -0.1559 -0.2158
 9860SOL    HW141234   4.712   1.337   4.802 -2.2974 -0.4594  1.1880
 9860SOL    HW241235   4.809   1.243   4.893 -1.3385 -0.1470  0.4945
 9861SOL     OW41236   3.395   2.151   1.557 -0.1858 -0.2635 -0.2972
 9861SOL    HW141237   3.328   2.091   1.514 -0.5001 -1.0202  1.1983
 9861SOL    HW241238   3.349   2.232   1.594 -0.2546 -0.6355  0.4577
 9862SOL     OW41239   4.999   5.965   0.309  0.1587 -0.2177  0.2892
 9862SOL    HW141240   4.952   5.998   0.228  1.5043  0.1237 -0.3764
 9862SOL    HW241241   5.026   6.044   0.366  0.3219 -0.3808  0.4379
 9863SOL     OW41242   7.383   3.374   4.751 -0.2480 -0.2188  0.3664
 9863SOL    HW141243   7.367   3.286   4.705 -0.2165 -0.2870  0.4866
 9863SOL    HW241244   7.456   3.363   4.818  0.1998  0.0496 -0.0677
 9864SOL     OW41245   4.274   8.867   2.513  0.7432  0.1335 -0.0042
 9864SOL    HW141246   4.358   8.813   2.504  0.9115  0.4429 -0.3123
 9864SOL    HW241247   4.217   8.828   2.585  0.0521 -1.5230 -1.4050
 9865SOL     OW41248   6.297   3.014   0.649 -0.2967  0.0124 -0.3151
 9865SOL    HW141249   6.270   2.945   0.716  0.5849  0.4653  0.5329
 9865SOL    HW241250   6.323   2.970   0.563 -0.5712 -0.6477 -0.0580
 9866SOL     OW41251   8.670   7.425   4.297 -0.0776 -0.1655 -0.0434
 9866SOL    HW141252   8.610   7.393   4.223 -0.8243  0.2155  0.3994
 9866SOL    HW241253   8.766   7.417   4.267 -0.4026  0.7905 -1.3885
 9867SOL     OW41254   2.500   8.662   4.566  0.5575 -0.1501 -0.2063
 9867SOL    HW141255   2.494   8.701   4.658 -0.2147  1.0831 -0.7558
 9867SOL    HW241256   2.501   8.563   4.572  2.9324 -0.0731  1.2658
 9868SOL     OW41257   8.384   5.054   6.322  0.2847 -0.3395  0.0445
 9868SOL    HW141258   8.331   5.133   6.351  0.9613 -0.4392  1.6105
 9868SOL    HW241259   8.451   5.031   6.393  0.6583 -1.8012 -0.7615
 9869SOL     OW41260   3.779   8.741   4.913 -0.0376  0.0052 -0.1255
 9869SOL    HW141261   3.773   8.674   4.840  3.0413  0.3842 -0.8013
 9869SOL    HW241262   3.813   8.696   4.996  0.4515  0.3827 -0.1179
 9870SOL     OW41263   2.555   3.290   4.094  0.5628  0.4340 -0.0157
 9870SOL    HW141264   2.581   3.222   4.026  0.8227  0.3858  0.1314
 9870SOL    HW241265   2.456   3.289   4.107  0.5505  0.2060 -0.1422
 9871SOL     OW41266   3.694   1.677   0.471 -0.0977 -0.1234  0.1323
 9871SOL    HW141267   3.734   1.745   0.533 -1.2354  0.2789  0.4277
 9871SOL    HW241268   3.740   1.683   0.383  1.1337 -0.2988  0.7558
 9872SOL     OW41269   1.148   0.196   0.552  0.1103 -0.5043  0.3759
 9872SOL    HW141270   1.178   0.163   0.641  1.7346 -2.7148 -0.9325
 9872SOL    HW241271   1.056   0.235   0.560  0.2034 -0.7403  2.9836
 9873SOL     OW41272   0.873   0.082   0.849  0.5484 -1.0432 -0.2850
 9873SOL    HW141273   0.860   0.160   0.787 -0.3791  0.1770  1.3879
 9873SOL    HW241274   0.969   0.056   0.850  0.7766 -0.3016 -1.3062
 9874SOL     OW41275   5.255   3.051   0.767 -0.4148  0.4267  0.1327
 9874SOL    HW141276   5.264   2.969   0.709  0.4946  0.9467 -0.4816
 9874SOL    HW241277   5.345   3.094   0.777 -1.1402  2.2022 -0.7954
 9875SOL     OW41278   0.691   5.674   3.824  0.5134  0.5729 -0.1969
 9875SOL    HW141279   0.657   5.726   3.902  1.7692  1.6120 -0.3238
 9875SOL    HW241280   0.620   5.612   3.792 -0.7143  1.6070  0.4784
 9876SOL     OW41281   1.507   3.434   7.662  0.0293 -0.0971  0.3543
 9876SOL    HW141282   1.407   3.438   7.663  0.1077  2.1438  0.0323
 9876SOL    HW241283   1.543   3.447   7.754  0.0743  0.9077  0.2009
 9877SOL     OW41284   8.790   5.719   0.898  0.0558  0.0205 -0.2971
 9877SOL    HW141285   8.788   5.817   0.918  2.3871 -0.1007  0.6709
 9877SOL    HW241286   8.877   5.696   0.854 -0.1070 -1.7605  0.2881
 9878SOL     OW41287   0.769   9.383   0.294  0.3906 -0.0755  0.6645
 9878SOL    HW141288   0.760   9.482   0.306 -2.3307 -0.3392  1.0684
 9878SOL    HW241289   0.827   9.346   0.366  0.9407  1.1429  0.8604
 9879SOL     OW41290   9.534   7.537   4.546 -0.5889  0.3487 -0.4407
 9879SOL    HW141291   9.632   7.551   4.559 -0.5556 -0.0077 -0.3013
 9879SOL    HW241292   9.491   7.519   4.634 -0.6353 -0.3835 -0.6086
 9880SOL     OW41293   5.894   4.079   1.456  0.0900 -0.2130  0.0020
 9880SOL    HW141294   5.828   4.004   1.454  0.1503 -0.2410 -1.5318
 9880SOL    HW241295   5.847   4.166   1.443  0.1876 -0.1145  0.3193
 9881SOL     OW41296   7.331   1.791   6.594 -0.1906 -0.5863 -0.0865
 9881SOL    HW141297   7.296   1.827   6.680 -1.0814 -1.7090  0.0298
 9881SOL    HW241298   7.277   1.712   6.566  0.4215 -0.5556 -1.4123
 9882SOL     OW41299   2.470   9.484   1.265  0.4552  0.1792  0.0202
 9882SOL    HW141300   2.405   9.472   1.340  0.3713  2.5717  0.3928
 9882SOL    HW241301   2.562   9.491   1.302  0.8391 -2.3307 -0.4343
 9883SOL     OW41302   6.721   5.690   6.984 -0.0451 -0.4388  0.0995
 9883SOL    HW141303   6.734   5.788   6.993  0.6947 -0.6868  2.1446
 9883SOL    HW241304   6.650   5.660   7.049  0.5705 -1.4141  0.3361
 9884SOL     OW41305   1.402   9.309   4.385  0.1909  0.0585  0.0558
 9884SOL    HW141306   1.426   9.255   4.304  0.2552  1.3169 -0.7858
 9884SOL    HW241307   1.308   9.341   4.376  0.5771  1.1679 -0.0715
 9885SOL     OW41308   9.279   0.108   2.143  0.6468 -0.1431  0.0860
 9885SOL    HW141309   9.241   0.110   2.236  0.8395 -1.9480  0.2142
 9885SOL    HW241310   9.205   0.113   2.077  0.5277  1.5088  0.3082
 9886SOL     OW41311   7.164   5.001   2.142  0.0068  0.1585 -0.1770
 9886SOL    HW141312   7.203   4.948   2.066  0.5072 -0.2124  0.3319
 9886SOL    HW241313   7.228   4.999   2.220 -0.2945  0.9174  0.0912
 9887SOL     OW41314   5.226   9.691   1.906  0.0218  0.3183  0.1941
 9887SOL    HW141315   5.315   9.669   1.867 -0.0028  2.7617 -1.3009
 9887SOL    HW241316   5.153   9.663   1.843 -0.0680  2.9281 -0.8919
 9888SOL     OW41317   0.423   9.345   4.156  0.6133  0.3202  0.3100
 9888SOL    HW141318   0.326   9.369   4.148  0.1881 -0.9086  1.4673
 9888SOL    HW241319   0.461   9.329   4.065 -0.5080 -0.0357 -0.1027
 9889SOL     OW41320   9.248   1.924   5.573 -0.6918  0.1368  0.2424
 9889SOL    HW141321   9.178   1.948   5.641  0.1289  0.7637  0.8730
 9889SOL    HW241322   9.337   1.953   5.606 -0.4087  1.4972 -1.6352
 9890SOL     OW41323   3.502   5.413   1.121  0.6777  0.4362 -0.2769
 9890SOL    HW141324   3.549   5.409   1.210  0.0994 -0.8268 -0.0200
 9890SOL    HW241325   3.409   5.379   1.131  0.9032 -0.5909 -1.5666
 9891SOL     OW41326   9.389   5.151   1.912  0.4638  0.2481  0.1994
 9891SOL    HW141327   9.437   5.102   1.840  0.0577 -1.7985  1.2760
 9891SOL    HW241328   9.334   5.086   1.966 -1.2921  2.1023  0.7305
 9892SOL     OW41329   2.494   9.858   1.837  0.3242 -0.3375  0.4804
 9892SOL    HW141330   2.449   9.826   1.754  0.4342 -1.9678  1.0262
 9892SOL    HW241331   2.483   9.957   1.845  0.5193 -0.1409 -1.5827
 9893SOL     OW41332   4.487   8.542   6.777 -0.1838  0.0308 -0.2535
 9893SOL    HW141333   4.521   8.500   6.861 -2.1416 -0.3048  0.3938
 9893SOL    HW241334   4.515   8.638   6.774 -3.0295  1.0163  2.5117
 9894SOL     OW41335   3.717   3.918   1.427  0.3063  0.5377 -0.1552
 9894SOL    HW141336   3.738   3.820   1.421 -1.1773  0.1692  0.4640
 9894SOL    HW241337   3.768   3.958   1.503  1.1789  0.3322 -0.6155
 9895SOL     OW41338   2.212   5.101   3.256 -0.1657 -0.1144 -0.3639
 9895SOL    HW141339   2.202   5.160   3.176 -0.7685 -1.1011 -1.0401
 9895SOL    HW241340   2.309   5.080   3.271 -0.1500 -1.0381 -1.6791
 9896SOL     OW41341   4.518   9.541   8.103  0.0585  0.1632 -0.4240
 9896SOL    HW141342   4.605   9.534   8.054  0.6357  0.6598  0.5103
 9896SOL    HW241343   4.518   9.623   8.160  0.6228 -1.9499  2.7076
 9897SOL     OW41344   0.172   9.962   2.228  0.0997 -0.5474 -0.0714
 9897SOL    HW141345   0.159   9.936   2.132  0.8305 -0.2639 -0.2420
 9897SOL    HW241346   0.224  10.047   2.233  0.4457 -0.8020  0.5913
 9898SOL     OW41347   7.930   2.437   4.940 -1.0667  0.5992 -0.1048
 9898SOL    HW141348   7.856   2.480   4.991  0.1650 -0.5373  2.7909
 9898SOL    HW241349   7.896   2.354   4.896 -1.9512  1.0864 -0.3435
 9899SOL     OW41350   4.538   5.089   1.204  0.0061 -0.0967  0.3586
 9899SOL    HW141351   4.561   5.005   1.155  1.6469  0.5107  0.0444
 9899SOL    HW241352   4.454   5.127   1.167 -0.1109 -0.9776 -0.2989
 9900SOL     OW41353   1.255   7.551   4.972 -1.2250  0.2931  0.7196
 9900SOL    HW141354   1.275   7.482   4.903  0.3333 -0.4814  1.9303
 9900SOL    HW241355   1.314   7.538   5.052 -0.8029  3.0913  0.9198
 9901SOL     OW41356   8.544   0.050   7.887  0.1298 -0.5037  0.3156
 9901SOL    HW141357   8.603   0.057   7.968  1.6541  0.1393 -0.8349
 9901SOL    HW241358   8.570  -0.031   7.834 -0.1465 -0.3131 -0.1137
 9902SOL     OW41359   9.162   0.660   4.785 -0.3455  0.2912 -0.0573
 9902SOL    HW141360   9.132   0.704   4.701 -0.2752  1.3907  0.4909
 9902SOL    HW241361   9.117   0.703   4.863  0.1999 -0.1903  0.5319
 9903SOL     OW41362   1.245   2.959   7.972  0.6615  0.5802 -0.4615
 9903SOL    HW141363   1.318   3.024   7.949 -0.1962  1.3065 -1.1868
 9903SOL    HW241364   1.158   3.008   7.979 -0.3146 -0.7444 -2.7989
 9904SOL     OW41365   1.379   6.321   4.722  0.6493  0.4086  0.0444
 9904SOL    HW141366   1.435   6.327   4.639 -1.6075  1.9001 -1.4170
 9904SOL    HW241367   1.373   6.411   4.765  2.0126 -0.4106  2.0014
 9905SOL     OW41368   4.944   4.800   1.435 -0.4106  0.0502 -0.3374
 9905SOL    HW141369   5.015   4.733   1.413 -0.5004  0.7048 -2.7643
 9905SOL    HW241370   4.891   4.768   1.513  2.1647 -0.7258  1.1597
 9906SOL     OW41371   3.351   5.594   1.600  0.4155  0.2355 -0.4611
 9906SOL    HW141372   3.254   5.606   1.621  0.4878 -0.6789  0.4325
 9906SOL    HW241373   3.394   5.684   1.591 -0.4584  0.6483 -0.6026
 9907SOL     OW41374   3.236   5.066   6.693  0.3968  0.0218 -0.5063
 9907SOL    HW141375   3.297   5.108   6.760  0.3928  1.3128 -1.2951
 9907SOL    HW241376   3.141   5.075   6.724  0.4347  0.1691 -0.4319
 9908SOL     OW41377   3.844   9.012   2.795 -0.0162 -0.3553  0.2796
 9908SOL    HW141378   3.914   9.011   2.866 -0.0900 -1.1309  0.3470
 9908SOL    HW241379   3.872   9.074   2.721  0.6289 -0.4873  0.4122
 9909SOL     OW41380   6.573   8.684   7.275 -0.0507  0.4251 -0.7632
 9909SOL    HW141381   6.530   8.764   7.235  1.0830  0.3111 -2.2683
 9909SOL    HW241382   6.635   8.713   7.348 -0.6791  0.7948 -0.3717
 9910SOL     OW41383   8.276   6.760   5.137 -0.3043  0.4270  0.3016
 9910SOL    HW141384   8.194   6.789   5.088 -0.3461  0.9600  0.6820
 9910SOL    HW241385   8.320   6.840   5.178  0.1581  0.0843  0.4740
 9911SOL     OW41386   8.022   8.933   4.445 -0.1478  0.2014  0.1004
 9911SOL    HW141387   7.993   8.846   4.405  1.9912 -1.1571  1.4409
 9911SOL    HW241388   8.101   8.968   4.396  0.4718  0.1820  1.0780
 9912SOL     OW41389   2.358   6.771   2.383  0.2394  0.2370 -0.2483
 9912SOL    HW141390   2.416   6.713   2.441  1.2794  0.9489 -0.5620
 9912SOL    HW241391   2.351   6.730   2.292 -0.1993 -0.1327 -0.0479
 9913SOL     OW41392   3.381   5.042   0.700  0.0065 -0.1485  0.4375
 9913SOL    HW141393   3.448   5.076   0.634 -0.7141  1.1819  0.3805
 9913SOL    HW241394   3.293   5.027   0.655 -0.4446  0.6161  1.0550
 9914SOL     OW41395   4.960   3.876   7.288  0.2762  0.4507  0.1879
 9914SOL    HW141396   4.923   3.963   7.320  1.1402  0.4074  1.3489
 9914SOL    HW241397   4.958   3.810   7.362  0.6528 -0.1857 -0.3657
 9915SOL     OW41398   8.622   9.829   7.714 -0.5555  0.0616  1.1053
 9915SOL    HW141399   8.590   9.735   7.725  2.9575 -1.4320 -0.6789
 9915SOL    HW241400   8.601   9.860   7.621 -0.0621  0.3866  1.1041
 9916SOL     OW41401   6.774   0.181   1.333  0.0438  0.2364  0.5490
 9916SOL    HW141402   6.777   0.086   1.364 -2.2109  0.1415  0.5896
 9916SOL    HW241403   6.703   0.230   1.384  1.6926  2.1653  1.0749
 9917SOL     OW41404   8.256   8.809   1.077  0.0151  0.1523 -0.6377
 9917SOL    HW141405   8.228   8.891   1.127  0.1959  0.1028 -0.4563
 9917SOL    HW241406   8.347   8.781   1.106  0.7718  1.0108 -2.0955
 9918SOL     OW41407   7.715   8.048   5.987 -0.0902 -0.2839 -0.3131
 9918SOL    HW141408   7.615   8.051   5.999  0.0868 -0.3866  1.2461
 9918SOL    HW241409   7.760   8.087   6.067  1.1413 -0.8394 -0.7195
 9919SOL     OW41410   2.305   6.238   5.696  0.2283  0.0960 -0.6145
 9919SOL    HW141411   2.352   6.190   5.622  1.2447 -0.9687  0.6948
 9919SOL    HW241412   2.283   6.331   5.666 -0.1881 -0.6014 -2.5611
 9920SOL     OW41413   7.158   9.086   2.541 -0.6084 -0.4249  0.1340
 9920SOL    HW141414   7.120   9.094   2.449  1.7375 -1.0186 -0.9220
 9920SOL    HW241415   7.114   9.153   2.601 -0.2695  1.8389 -2.0596
 9921SOL     OW41416   0.409   9.384   3.249 -0.3564 -0.0184  0.3332
 9921SOL    HW141417   0.368   9.320   3.314  1.0020  0.7955  2.0336
 9921SOL    HW241418   0.479   9.337   3.195 -1.1662 -0.5818 -0.2364
 9922SOL     OW41419   3.925   5.660   4.477 -0.5885  0.1553 -0.5768
 9922SOL    HW141420   3.897   5.720   4.402 -0.8376  1.5557  0.6067
 9922SOL    HW241421   4.019   5.682   4.504  0.4815 -2.1520 -2.2069
 9923SOL     OW41422   5.699   1.113   5.646 -0.1195 -0.0746  0.9347
 9923SOL    HW141423   5.715   1.016   5.666  1.2135 -0.4987 -1.9376
 9923SOL    HW241424   5.772   1.167   5.689  0.4605 -0.5654  0.5737
 9924SOL     OW41425   1.136   3.049   3.234  0.3315  0.4042 -0.5786
 9924SOL    HW141426   1.161   2.952   3.229  2.4534  0.8862  0.3522
 9924SOL    HW241427   1.189   3.101   3.168  1.6974  1.4224  1.2909
 9925SOL     OW41428   9.240   8.443   5.527  0.1466  0.1004 -0.3351
 9925SOL    HW141429   9.232   8.534   5.566 -3.8782 -1.1251  2.0421
 9925SOL    HW241430   9.184   8.438   5.444 -0.3049 -0.3911 -0.0065
 9926SOL     OW41431   1.148   4.521   7.521  0.0160  0.1599  0.1375
 9926SOL    HW141432   1.083   4.536   7.446 -1.4934 -3.7837  0.5146
 9926SOL    HW241433   1.099   4.485   7.600  2.5343 -2.0294  0.7530
 9927SOL     OW41434   7.243   0.083   2.111 -0.4260 -0.2419 -0.5035
 9927SOL    HW141435   7.154   0.038   2.121 -0.3535 -0.0005  1.4472
 9927SOL    HW241436   7.312   0.030   2.159  0.1765  0.4912 -0.5628
 9928SOL     OW41437   4.733   8.775   3.536  0.4122  0.1822 -0.6847
 9928SOL    HW141438   4.758   8.849   3.475 -3.8917 -0.2678 -3.1973
 9928SOL    HW241439   4.665   8.808   3.602  0.8425 -0.7454  0.2405
 9929SOL     OW41440   8.732   9.308   2.926 -0.3721  0.0947 -0.4333
 9929SOL    HW141441   8.793   9.387   2.928  0.2036 -0.3742  0.9608
 9929SOL    HW241442   8.738   9.264   2.837 -0.1337  1.1842 -0.9637
 9930SOL     OW41443   8.174   3.813   1.443 -0.8371  0.5702 -0.1859
 9930SOL    HW141444   8.187   3.912   1.444 -0.0562  0.4786 -0.9719
 9930SOL    HW241445   8.263   3.768   1.438 -1.0824 -0.2129  2.0645
 9931SOL     OW41446   0.958   2.336   1.945  0.4662 -0.2603 -0.6511
 9931SOL    HW141447   0.914   2.373   1.863  1.2799  1.0530 -0.5145
 9931SOL    HW241448   0.946   2.399   2.021  0.2992 -1.1537  0.0693
 9932SOL     OW41449   9.670   8.929   5.819  0.7370 -0.0684 -0.7649
 9932SOL    HW141450   9.768   8.943   5.806  0.6848 -1.0632 -2.4027
 9932SOL    HW241451   9.653   8.833   5.842  0.1150  0.0444 -0.7377
 9933SOL     OW41452   9.205   3.624   0.602 -0.3517  0.5930 -0.2046
 9933SOL    HW141453   9.249   3.536   0.622  0.2376  0.9127 -0.0697
 9933SOL    HW241454   9.127   3.610   0.541 -0.5234 -0.0750  0.1616
 9934SOL     OW41455   8.445   3.676   3.558 -0.2611 -0.3278  0.1859
 9934SOL    HW141456   8.436   3.774   3.538  2.1518  0.4240  2.4020
 9934SOL    HW241457   8.357   3.640   3.589 -1.4535  0.8656 -1.7309
 9935SOL     OW41458   8.285   2.292   2.298  0.2023  0.2961 -0.2954
 9935SOL    HW141459   8.203   2.306   2.353  0.1907  0.2178 -0.2930
 9935SOL    HW241460   8.282   2.202   2.256  0.4808  0.1355  0.0329
 9936SOL     OW41461   8.572   8.096   3.372 -0.1799 -0.2879  0.1081
 9936SOL    HW141462   8.566   8.179   3.428  0.6613 -0.3876  0.3472
 9936SOL    HW241463   8.533   8.114   3.282 -2.8872 -0.5352  1.1762
 9937SOL     OW41464   9.312   3.203   6.994 -0.5618 -0.4097 -0.0291
 9937SOL    HW141465   9.334   3.106   6.984  0.3846 -0.0927 -1.0679
 9937SOL    HW241466   9.376   3.258   6.940 -1.4742  0.7544  0.0531
 9938SOL     OW41467   3.118   8.341   9.783  0.2388 -0.1735  0.4098
 9938SOL    HW141468   3.178   8.421   9.771  0.8931 -0.7116  0.0709
 9938SOL    HW241469   3.161   8.276   9.845  0.7333 -1.2768 -1.0669
 9939SOL     OW41470   9.701   7.213   4.405 -0.4107  0.0001  0.2665
 9939SOL    HW141471   9.621   7.262   4.437  0.2249 -0.4738  2.6553
 9939SOL    HW241472   9.692   7.116   4.427  0.8735 -0.0337  0.6759
 9940SOL     OW41473   3.169   8.401   6.516  0.1313  0.8067  0.3624
 9940SOL    HW141474   3.088   8.407   6.574  1.0959  1.6641  1.6475
 9940SOL    HW241475   3.171   8.479   6.454  0.0882  0.9078  0.4861
 9941SOL     OW41476   0.655   4.911   0.284  0.2822 -0.1890  0.9006
 9941SOL    HW141477   0.727   4.849   0.314  0.3235 -1.2778 -1.3936
 9941SOL    HW241478   0.567   4.881   0.321  0.4853 -0.8903  0.8080
 9942SOL     OW41479   5.189   0.471   2.422  0.0035  0.3108  0.2189
 9942SOL    HW141480   5.161   0.551   2.369 -1.5504 -0.5824 -0.3226
 9942SOL    HW241481   5.261   0.498   2.486 -1.1133  2.3361  0.6704
 9943SOL     OW41482   8.171   0.339   7.231 -0.6943 -0.0131 -0.2776
 9943SOL    HW141483   8.176   0.316   7.328 -1.5783 -3.6187 -1.0316
 9943SOL    HW241484   8.227   0.275   7.178 -2.1182  0.4214 -2.3654
 9944SOL     OW41485   1.448   8.535   0.110  0.0517 -0.2109 -0.0973
 9944SOL    HW141486   1.439   8.556   0.207  0.8256  0.6394 -0.1989
 9944SOL    HW241487   1.364   8.491   0.077 -0.9814  1.2646  0.5091
 9945SOL     OW41488   0.706   3.412   8.108  0.0951  0.2452 -0.1372
 9945SOL    HW141489   0.635   3.459   8.161  0.0219 -1.9343  1.7819
 9945SOL    HW241490   0.795   3.452   8.130  0.0077 -0.3144  1.2949
 9946SOL     OW41491   3.310   8.214   6.898  0.5942  0.7983 -0.2872
 9946SOL    HW141492   3.326   8.312   6.908 -1.1530  1.2129 -1.3481
 9946SOL    HW241493   3.239   8.198   6.830 -1.8341 -0.9898  2.4869
 9947SOL     OW41494   5.347   5.113   1.739  1.0306 -0.2914 -0.1720
 9947SOL    HW141495   5.295   5.147   1.817  0.4043  2.7824 -1.8935
 9947SOL    HW241496   5.352   5.013   1.744  0.7225 -0.1783  3.5935
 9948SOL     OW41497   1.370   1.262   4.691 -0.3576 -0.5912  0.2061
 9948SOL    HW141498   1.324   1.269   4.602 -1.3000 -0.3319  0.7116
 9948SOL    HW241499   1.370   1.166   4.721 -1.2082 -0.4946  0.5354
 9949SOL     OW41500   2.315   4.862   1.950  0.0207  0.0085  0.1145
 9949SOL    HW141501   2.261   4.946   1.953 -0.0257 -0.0327  0.5466
 9949SOL    HW241502   2.393   4.874   1.889  0.2178  0.4874  0.4615
 9950SOL     OW41503   8.340   6.183   5.595  0.1960  0.0136  0.1798
 9950SOL    HW141504   8.324   6.101   5.650 -2.5928 -0.2392 -0.9103
 9950SOL    HW241505   8.375   6.157   5.505 -0.5350 -0.0116 -0.1078
 9951SOL     OW41506   1.571   5.808   5.487 -0.5682 -0.1924 -0.3200
 9951SOL    HW141507   1.519   5.861   5.420 -0.8131  2.0400  1.5591
 9951SOL    HW241508   1.534   5.716   5.493 -1.7298  0.1533 -1.9156
 9952SOL     OW41509   8.997   2.778   6.050 -0.2855 -0.1494  0.4729
 9952SOL    HW141510   9.059   2.785   6.128 -1.1286 -1.1662  1.2494
 9952SOL    HW241511   8.927   2.849   6.057 -1.6047 -1.5327  1.7973
 9953SOL     OW41512   7.007   6.501   4.707  0.3861  0.2398  0.5853
 9953SOL    HW141513   6.939   6.565   4.743  1.0091  0.9598  0.4877
 9953SOL    HW241514   7.031   6.435   4.778 -0.0205  0.3129  0.7906
 9954SOL     OW41515   6.292   0.174   1.230 -0.3173 -0.4067  0.1179
 9954SOL    HW141516   6.342   0.170   1.143 -2.6225  1.3993 -1.3336
 9954SOL    HW241517   6.214   0.112   1.226 -0.2911 -0.5032  1.0116
 9955SOL     OW41518   0.301   4.708   6.424  0.9643 -0.1134  0.5763
 9955SOL    HW141519   0.272   4.776   6.491 -0.4368 -0.4280  0.3113
 9955SOL    HW241520   0.257   4.620   6.445  2.8709 -0.9840  1.0030
 9956SOL     OW41521   1.706   3.355   3.044 -0.3677  0.0430 -0.1870
 9956SOL    HW141522   1.803   3.329   3.046 -0.6143 -0.9046 -0.2658
 9956SOL    HW241523   1.653   3.289   3.097 -0.9847  0.5124 -0.2186
 9957SOL     OW41524   9.637   9.809   1.964 -0.0794  0.6812  0.6143
 9957SOL    HW141525   9.644   9.903   1.930 -0.9282  0.8811  0.9856
 9957SOL    HW241526   9.728   9.768   1.966  0.1512  1.1099 -0.6407
 9958SOL     OW41527   2.536   2.079   3.410 -0.4259  0.1969  0.4287
 9958SOL    HW141528   2.612   2.127   3.453 -0.7827  0.8691  0.3261
 9958SOL    HW241529   2.569   2.032   3.328 -0.0755  0.2920  0.5123
 9959SOL     OW41530   8.488   8.530   6.779  0.1050  0.0217 -0.5819
 9959SOL    HW141531   8.463   8.439   6.812  2.4322 -1.0473 -1.6210
 9959SOL    HW241532   8.566   8.565   6.832 -0.3356  1.1174 -0.6411
 9960SOL     OW41533   8.260   3.128   5.402 -0.0950 -1.2521  0.0648
 9960SOL    HW141534   8.268   3.034   5.436 -1.2751 -0.8407  1.5161
 9960SOL    HW241535   8.186   3.174   5.449  0.8041  0.5926 -0.2863
 9961SOL     OW41536   4.471   8.600   5.274 -0.1604  0.0513 -0.4467
 9961SOL    HW141537   4.497   8.693   5.298  2.1415 -0.2289 -1.6740
 9961SOL    HW241538   4.465   8.544   5.357 -2.3681  1.4596  0.3704
 9962SOL     OW41539   1.457   8.951   6.280 -0.8499  0.3073  0.0831
 9962SOL    HW141540   1.412   9.021   6.225 -1.7849 -0.5239 -0.2310
 9962SOL    HW241541   1.436   8.860   6.243  1.7819 -0.0681 -0.5754
 9963SOL     OW41542   9.504   6.048   5.515 -0.1551 -0.2819 -0.3404
 9963SOL    HW141543   9.444   6.078   5.441 -0.6682  0.7171  0.4646
 9963SOL    HW241544   9.466   5.966   5.559  0.0775 -0.7889 -1.0833
 9964SOL     OW41545   2.263   1.058   4.100 -0.0952 -0.1618  0.2781
 9964SOL    HW141546   2.334   1.070   4.030 -1.0336 -0.8699 -0.8121
 9964SOL    HW241547   2.202   1.137   4.099 -1.7853 -1.4297 -1.6884
 9965SOL     OW41548   7.589   0.332   4.447 -0.4042  0.2148 -0.2896
 9965SOL    HW141549   7.620   0.333   4.542 -1.3458  1.3179  0.0214
 9965SOL    HW241550   7.550   0.243   4.425 -0.4742  0.0554  0.4637
 9966SOL     OW41551   6.550   1.483   5.043  0.1968  0.2557  0.1917
 9966SOL    HW141552   6.483   1.489   5.117 -0.6115 -0.5434 -0.4618
 9966SOL    HW241553   6.635   1.444   5.078 -0.3784 -0.6761  0.5777
 9967SOL     OW41554   0.154   3.791   0.006 -0.3931  0.5073 -0.1006
 9967SOL    HW141555   0.062   3.753   0.017 -0.9038  1.4692 -0.9054
 9967SOL    HW241556   0.222   3.717   0.012 -1.2102 -0.2006  0.5543
 9968SOL     OW41557   4.864   6.106   4.436  0.2453  0.2982 -0.3178
 9968SOL    HW141558   4.933   6.172   4.464 -1.5012  2.9479 -2.0279
 9968SOL    HW241559   4.776   6.152   4.424 -1.0318 -2.3179 -1.6526
 9969SOL     OW41560   9.542   9.659   3.993 -0.1691  0.0918 -0.2957
 9969SOL    HW141561   9.492   9.745   3.988 -0.2874  0.0707  0.5390
 9969SOL    HW241562   9.640   9.677   3.980 -0.4779 -0.0005 -3.0396
 9970SOL     OW41563   7.297   5.308   2.594  0.2880  0.1999 -0.6916
 9970SOL    HW141564   7.338   5.400   2.584  1.5911 -0.2426  0.4023
 9970SOL    HW241565   7.228   5.295   2.523  0.3494  1.8951 -1.0950
 9971SOL     OW41566   7.401   8.162   7.782  0.0496 -0.3273 -0.2812
 9971SOL    HW141567   7.467   8.151   7.856 -0.7620  1.3332  0.7043
 9971SOL    HW241568   7.439   8.223   7.712 -1.5596  3.0266  1.6958
 9972SOL     OW41569   8.624   8.297   7.206 -0.5396 -0.8479  0.4326
 9972SOL    HW141570   8.551   8.290   7.138  0.7487 -0.1901 -1.0481
 9972SOL    HW241571   8.586   8.332   7.292 -1.5829  1.6734 -1.0012
 9973SOL     OW41572   5.348   4.858   2.350 -0.3968 -0.2563 -0.3657
 9973SOL    HW141573   5.310   4.895   2.434 -0.3318 -1.9278  0.4034
 9973SOL    HW241574   5.440   4.896   2.336 -0.1883 -0.3905  0.6092
 9974SOL     OW41575   4.363   9.467   3.211 -0.4173  0.3611  0.9336
 9974SOL    HW141576   4.440   9.407   3.230 -0.3961 -0.3026 -1.2043
 9974SOL    HW241577   4.366   9.545   3.274  0.4107 -1.0542  2.7091
 9975SOL     OW41578   1.972   9.623   4.647  0.1554  0.1049  0.5957
 9975SOL    HW141579   1.987   9.526   4.625  0.1849  0.2337  0.0333
 9975SOL    HW241580   2.017   9.645   4.734 -0.1429 -0.4698  0.8944
 9976SOL     OW41581   8.653   3.876   3.377  0.4623 -0.1263  0.3617
 9976SOL    HW141582   8.629   3.956   3.433  1.7502  1.9836 -2.0049
 9976SOL    HW241583   8.691   3.805   3.436  0.1585  1.3537  2.4095
 9977SOL     OW41584   2.468   4.499   7.457 -0.3930 -0.6280  0.2353
 9977SOL    HW141585   2.432   4.418   7.411 -0.7253 -1.2017  1.4928
 9977SOL    HW241586   2.436   4.581   7.410 -0.1708 -1.2090 -0.9585
 9978SOL     OW41587   8.039   3.027   0.937  0.0831 -0.3967  0.2107
 9978SOL    HW141588   8.042   2.954   1.005  0.8943 -0.7085 -0.1586
 9978SOL    HW241589   7.958   3.084   0.953  0.8712  0.2159  2.1267
 9979SOL     OW41590   1.975   6.916   6.029 -0.6017  0.1222  0.2792
 9979SOL    HW141591   1.971   6.875   6.120  2.0046 -1.1009 -0.1227
 9979SOL    HW241592   2.053   6.977   6.023 -0.5296 -0.0898 -1.2358
 9980SOL     OW41593   4.380   6.280   0.556 -0.1840  0.3687 -0.2024
 9980SOL    HW141594   4.476   6.305   0.570 -0.3472  0.2129  1.2950
 9980SOL    HW241595   4.322   6.336   0.615 -0.7493 -1.8402  1.3964
 9981SOL     OW41596   3.113   0.100   3.647  0.8405  0.0259 -0.1329
 9981SOL    HW141597   3.116   0.169   3.720  2.4439 -0.9766  0.7852
 9981SOL    HW241598   3.166   0.020   3.675  0.0302 -1.0887 -1.7029
 9982SOL     OW41599   0.318   0.420   5.081  0.3135  0.1823 -0.2158
 9982SOL    HW141600   0.411   0.454   5.071  0.0367  1.3594  1.0793
 9982SOL    HW241601   0.261   0.457   5.008  0.7253 -0.0614 -0.6600
 9983SOL     OW41602   7.830   9.377   3.436 -0.2900  0.0846 -0.9829
 9983SOL    HW141603   7.919   9.420   3.451 -0.6096  0.6493 -0.6995
 9983SOL    HW241604   7.819   9.357   3.338 -0.3978  1.2312 -1.2179
 9984SOL     OW41605   3.725   8.028   2.709  0.2654 -0.2528 -0.5592
 9984SOL    HW141606   3.732   7.945   2.765 -0.7564 -1.3364 -2.0228
 9984SOL    HW241607   3.632   8.064   2.713  0.6414  0.7067 -0.1278
 9985SOL     OW41608   7.997   0.059   4.022  0.1982 -0.2647  0.0408
 9985SOL    HW141609   8.011   0.142   4.076  1.5662 -0.3702 -0.1408
 9985SOL    HW241610   8.084   0.013   4.008 -0.5342 -1.6583 -0.0006
 9986SOL     OW41611   2.378   3.760   6.040 -0.3783  0.1953 -0.6310
 9986SOL    HW141612   2.303   3.724   6.096 -0.3212 -0.0053 -0.6832
 9986SOL    HW241613   2.415   3.687   5.983 -0.6079  0.4560 -1.1239
 9987SOL     OW41614   2.448   6.659   3.993  0.5679 -0.2000 -0.3284
 9987SOL    HW141615   2.533   6.608   4.007 -0.2910 -1.6734 -0.4338
 9987SOL    HW241616   2.445   6.736   4.058  0.2368 -2.3684  2.3159
 9988SOL     OW41617   0.890   0.261   7.167 -0.4254 -0.1075  0.4998
 9988SOL    HW141618   0.947   0.230   7.091  0.5490 -0.2639  1.2926
 9988SOL    HW241619   0.797   0.224   7.156 -0.0432 -0.8938 -0.1163
 9989SOL     OW41620   1.233   9.778   5.336  0.0150 -0.1295  0.0687
 9989SOL    HW141621   1.302   9.848   5.356  1.1430 -0.3706 -2.7434
 9989SOL    HW241622   1.210   9.781   5.239 -0.3492 -3.2912  0.0305
 9990SOL     OW41623   0.358   2.276   6.564 -0.4575 -0.4160 -0.3822
 9990SOL    HW141624   0.320   2.192   6.526 -1.5440 -0.6763  1.2212
 9990SOL    HW241625   0.444   2.298   6.517 -1.3977 -1.0865 -2.4605
 9991SOL     OW41626   3.106   0.840   0.434  0.1779 -0.2934 -0.1226
 9991SOL    HW141627   3.048   0.918   0.411  1.3483  0.4444 -0.6118
 9991SOL    HW241628   3.049   0.760   0.451 -1.0218  0.5986  0.1101
 9992SOL     OW41629   2.281   0.686   1.024  0.0531  0.1502  0.2603
 9992SOL    HW141630   2.299   0.641   0.937  1.5904  1.4979 -0.1502
 9992SOL    HW241631   2.183   0.680   1.045 -0.3563 -0.1292 -1.5959
 9993SOL     OW41632   1.371   2.304   3.023 -0.0635  0.0478  0.6587
 9993SOL    HW141633   1.453   2.325   2.971  0.8590 -0.5654  1.8552
 9993SOL    HW241634   1.383   2.333   3.118 -0.8518 -0.9384  1.0699
 9994SOL     OW41635   4.266   8.059   2.775 -0.0749 -0.0163 -0.3043
 9994SOL    HW141636   4.276   8.106   2.687  0.8774 -0.0808 -0.2404
 9994SOL    HW241637   4.172   8.025   2.785  0.1187 -1.0147 -1.8001
 9995SOL     OW41638   1.768   1.696   6.144  0.2321 -0.0428 -0.2237
 9995SOL    HW141639   1.706   1.624   6.115  1.3940 -1.5051  0.8577
 9995SOL    HW241640   1.773   1.766   6.073 -2.7960  0.2232 -0.2198
 9996SOL     OW41641   6.871   0.585   3.893 -0.4925  0.0596 -0.1451
 9996SOL    HW141642   6.863   0.682   3.868 -0.7034  0.1570  0.2866
 9996SOL    HW241643   6.933   0.539   3.830 -0.5066  0.4452 -0.4418
 9997SOL     OW41644   4.090   7.343   4.046  0.3012  0.0405 -0.0305
 9997SOL    HW141645   4.067   7.369   4.139 -0.0283  1.2538 -0.4331
 9997SOL    HW241646   4.112   7.246   4.042 -3.9259 -1.0273  0.5468
 9998SOL     OW41647   9.402   0.613   7.952 -0.3312  0.4835 -0.3026
 9998SOL    HW141648   9.415   0.634   8.049 -0.9696 -0.7829  0.0693
 9998SOL    HW241649   9.305   0.619   7.930 -0.6616 -2.6396 -0.0015
 9999SOL     OW41650   8.685   3.676   1.449 -0.5802  0.4684 -0.5569
 9999SOL    HW141651   8.758   3.607   1.441 -0.9831  0.0196 -0.3871
 9999SOL    HW241652   8.699   3.748   1.381 -0.2854  0.0969 -0.8879
10000SOL     OW41653   2.934   8.709   5.360 -0.2105 -0.5079 -0.0837
10000SOL    HW141654   2.840   8.675   5.367 -0.0303 -0.9226  0.2847
10000SOL    HW241655   2.966   8.698   5.266 -0.3554 -0.8248 -0.0960
10001SOL     OW41656   6.369   8.240   4.005 -0.3249 -0.2702 -0.0526
10001SOL    HW141657   6.324   8.192   4.080 -1.3270  0.9420  0.1406
10001SOL    HW241658   6.351   8.338   4.012  0.8342  0.0327 -1.0240
10002SOL     OW41659   7.193   9.637   1.852 -0.4335 -0.2575  0.2023
10002SOL    HW141660   7.166   9.733   1.862 -1.3592 -0.4910  0.0049
10002SOL    HW241661   7.259   9.614   1.924  0.0392  0.6104  0.0533
10003SOL     OW41662   6.604   8.062   5.479  0.1086 -0.1034 -0.2339
10003SOL    HW141663   6.544   8.110   5.543 -0.1387  0.3819 -0.8289
10003SOL    HW241664   6.559   8.052   5.391  1.0972  0.7096 -0.8371
10004SOL     OW41665   1.454   0.722   2.379 -0.1173 -0.1898  0.2809
10004SOL    HW141666   1.443   0.756   2.472 -2.6348  1.9836 -0.7906
10004SOL    HW241667   1.552   0.720   2.357  0.4105  0.9226  2.3357
10005SOL     OW41668   7.459   3.196   3.708 -0.6694  0.3706 -0.1735
10005SOL    HW141669   7.436   3.235   3.619  0.7000  1.3421 -0.1306
10005SOL    HW241670   7.445   3.097   3.707  0.9820  0.1337 -2.0143
10006SOL     OW41671   2.940   8.464   1.838  0.1106  0.4343  0.0945
10006SOL    HW141672   3.036   8.487   1.854  0.0522 -0.1682  1.4349
10006SOL    HW241673   2.921   8.462   1.740  1.4569  0.5927 -0.1735
10007SOL     OW41674   0.330   7.717   6.419 -0.3119  0.6027 -0.0309
10007SOL    HW141675   0.347   7.813   6.442 -1.3514  1.8812 -4.2146
10007SOL    HW241676   0.232   7.702   6.409 -0.2135 -1.1526  1.3291
10008SOL     OW41677   7.162   9.563   4.779  0.4479  0.0074 -0.2871
10008SOL    HW141678   7.233   9.549   4.849  0.7172 -0.9373 -0.7411
10008SOL    HW241679   7.120   9.476   4.756  0.5006  0.2831 -1.4565
10009SOL     OW41680   0.430   0.360   2.156 -0.0865 -0.0921 -0.8567
10009SOL    HW141681   0.509   0.409   2.194 -1.3311  3.5370 -2.6760
10009SOL    HW241682   0.441   0.351   2.057 -1.2965 -0.7803 -0.9361
10010SOL     OW41683   7.623   4.875   2.274 -0.1018 -0.7980  0.1107
10010SOL    HW141684   7.604   4.953   2.334  0.9342 -1.1229  0.8703
10010SOL    HW241685   7.721   4.872   2.253 -0.0136 -2.3062  0.6563
10011SOL     OW41686   3.496   0.460   1.550 -0.1311  0.3066 -0.1395
10011SOL    HW141687   3.582   0.492   1.589 -0.3287  2.2239 -1.2276
10011SOL    HW241688   3.499   0.361   1.540  1.4985  0.2283  0.9171
10012SOL     OW41689   1.009   7.312   7.796 -0.0016 -0.1363  0.4133
10012SOL    HW141690   1.024   7.375   7.720  3.3625  0.0517  1.1444
10012SOL    HW241691   0.951   7.355   7.864  1.3049  1.7821  0.3595
10013SOL     OW41692   2.027   2.152   5.945  0.0312  0.2025 -0.4623
10013SOL    HW141693   2.013   2.096   6.027 -0.7013  1.1639  0.0760
10013SOL    HW241694   1.948   2.141   5.884  1.3867 -1.9444 -1.9157
10014SOL     OW41695   8.910   8.694   2.142 -0.7733  0.5356  0.5955
10014SOL    HW141696   8.926   8.636   2.222 -1.4102 -0.6804 -0.1515
10014SOL    HW241697   8.953   8.783   2.157  4.1022 -1.5550 -0.1022
10015SOL     OW41698   5.032   0.996   4.221 -0.0993 -0.2720 -0.6264
10015SOL    HW141699   5.106   0.988   4.155  0.2098 -1.7830 -0.1205
10015SOL    HW241700   5.060   1.056   4.296  0.8203 -1.2768 -0.1612
10016SOL     OW41701   6.364   8.547   6.435  0.0422  0.0420  0.2367
10016SOL    HW141702   6.277   8.572   6.477  0.8881  1.5629  1.1172
10016SOL    HW241703   6.438   8.559   6.501  1.0170 -0.5709 -0.7277
10017SOL     OW41704   2.551   8.446   7.582  0.1145 -0.3866  0.1071
10017SOL    HW141705   2.611   8.506   7.530 -1.5187 -0.1283 -1.5072
10017SOL    HW241706   2.501   8.386   7.520 -2.5436  0.5348  1.2570
10018SOL     OW41707   8.449   6.011   0.453  0.4698 -0.3005 -0.1343
10018SOL    HW141708   8.456   6.007   0.353  0.5897  0.5552 -0.1632
10018SOL    HW241709   8.454   5.919   0.490 -2.5391 -0.9091 -1.1147
10019SOL     OW41710   3.685   2.684   1.293 -0.3339  0.0427 -0.1874
10019SOL    HW141711   3.744   2.749   1.340  0.5311  0.0260 -1.2158
10019SOL    HW241712   3.741   2.619   1.242 -1.1794 -1.5095  0.8068
10020SOL     OW41713   8.638   9.082   5.590  0.0026 -0.2984 -0.1257
10020SOL    HW141714   8.571   9.089   5.517  1.9633  0.6366 -1.9064
10020SOL    HW241715   8.610   9.138   5.668 -1.0006  0.5206 -1.0728
10021SOL     OW41716   0.502   3.894   1.279 -0.1881 -0.0643 -0.5794
10021SOL    HW141717   0.570   3.967   1.288  2.0180 -1.6041 -3.7367
10021SOL    HW241718   0.451   3.907   1.194 -1.1480 -1.0928 -0.1682
10022SOL     OW41719   1.552   2.064   0.995 -0.2657 -0.1228  0.1374
10022SOL    HW141720   1.599   2.152   1.002  1.0333 -0.7677 -0.3200
10022SOL    HW241721   1.547   2.021   1.085 -1.4781  0.7080  0.4726
10023SOL     OW41722   1.250   4.875   0.423 -0.7154  0.3553  0.7090
10023SOL    HW141723   1.342   4.858   0.456 -0.7077  1.1513  1.1234
10023SOL    HW241724   1.240   4.841   0.329 -0.3166 -0.6600  1.0414
10024SOL     OW41725   4.115   1.374   4.929  0.6360 -0.1655  0.2500
10024SOL    HW141726   4.110   1.442   5.002 -3.0508  1.0271 -1.0082
10024SOL    HW241727   4.090   1.284   4.965 -2.0289  0.5719  0.3603
10025SOL     OW41728   6.924   9.430   3.169  0.2516 -0.2152 -0.2905
10025SOL    HW141729   6.933   9.506   3.233 -0.6135 -1.0616  0.8632
10025SOL    HW241730   6.834   9.435   3.124 -0.0851 -0.9318  0.2940
10026SOL     OW41731   8.101   1.332   6.339  0.2235  0.1787 -0.4687
10026SOL    HW141732   8.150   1.292   6.261 -0.9764 -1.5905 -0.3580
10026SOL    HW241733   8.003   1.314   6.329 -0.0085  0.5054  1.1134
10027SOL     OW41734   9.314   5.730   7.261  0.2745  0.4458 -0.4513
10027SOL    HW141735   9.304   5.639   7.300  1.4694  0.2786 -0.4963
10027SOL    HW241736   9.372   5.725   7.180 -2.0643  0.8130 -2.1812
10028SOL     OW41737   0.147   9.396   2.055 -0.0153 -0.3760  0.3098
10028SOL    HW141738   0.153   9.460   1.978  1.8537 -2.6742 -1.5553
10028SOL    HW241739   0.060   9.345   2.049  1.7914 -3.3664 -2.7380
10029SOL     OW41740   8.111   0.959   7.568  0.5889  0.1637  0.0486
10029SOL    HW141741   8.091   0.883   7.630 -0.2571  1.6200  1.5850
10029SOL    HW241742   8.166   0.925   7.491 -1.1092 -2.3248 -0.1451
10030SOL     OW41743   0.234   7.942   4.079 -0.6205  0.3773 -0.0535
10030SOL    HW141744   0.293   7.909   4.005 -1.0259  0.4117 -0.3914
10030SOL    HW241745   0.142   7.906   4.067 -1.1162  1.7783 -0.5310
10031SOL     OW41746   1.074   1.116   4.475 -0.3770  0.3235  0.4723
10031SOL    HW141747   1.141   1.042   4.477  2.0190  2.2735 -2.3021
10031SOL    HW241748   0.995   1.088   4.420 -0.9994 -1.3167  2.1807
10032SOL     OW41749   0.962   6.586   3.557  0.1558  0.4279 -0.2835
10032SOL    HW141750   0.960   6.524   3.636  0.8697  0.3713 -0.3114
10032SOL    HW241751   0.914   6.543   3.480  0.7167 -0.1241 -0.3295
10033SOL     OW41752   9.119   0.159   7.377 -0.8896  0.2632  0.2831
10033SOL    HW141753   9.125   0.235   7.441  2.1590 -0.7312  1.2783
10033SOL    HW241754   9.059   0.088   7.414 -0.4850  0.4317  1.2680
10034SOL     OW41755   9.483   1.318   5.217 -0.1830 -0.0026  0.1160
10034SOL    HW141756   9.521   1.268   5.139 -0.1801 -0.3001  0.3050
10034SOL    HW241757   9.501   1.266   5.301  3.6027  2.3115  0.8498
10035SOL     OW41758   1.717   2.244   7.087 -0.6895 -0.0257 -1.0256
10035SOL    HW141759   1.643   2.311   7.073  0.4769  1.2274 -1.3001
10035SOL    HW241760   1.751   2.214   6.998 -0.0564  0.3138 -0.8977
10036SOL     OW41761   7.682   1.928   1.161  0.0580 -0.8938  0.0292
10036SOL    HW141762   7.718   1.956   1.250 -2.0842  0.3215  0.5426
10036SOL    HW241763   7.740   1.964   1.088  0.1561  0.6332  0.8460
10037SOL     OW41764   7.228   2.752   0.939  0.5853 -0.1646  0.0308
10037SOL    HW141765   7.262   2.667   0.898 -2.2702 -0.1285 -2.6468
10037SOL    HW241766   7.236   2.747   1.038  1.4133 -3.1559 -0.1339
10038SOL     OW41767   2.566   7.377   6.804 -0.0640  0.4075  0.1566
10038SOL    HW141768   2.554   7.407   6.898 -2.2103 -0.1783  0.1185
10038SOL    HW241769   2.500   7.424   6.745 -0.4660 -1.0661 -0.6181
10039SOL     OW41770   4.389   0.151   2.115  0.3393  0.0691  0.3101
10039SOL    HW141771   4.461   0.220   2.122  0.8264 -0.3546 -0.4029
10039SOL    HW241772   4.431   0.060   2.114 -0.2213 -0.1866  0.0782
10040SOL     OW41773   9.376   5.112   2.296 -0.4698  0.4711  0.2364
10040SOL    HW141774   9.341   5.202   2.270  0.4528  0.5940 -0.6255
10040SOL    HW241775   9.344   5.089   2.387  2.1222  3.2490  1.9858
10041SOL     OW41776   2.299   4.224   2.272  0.1421  0.3471 -0.0068
10041SOL    HW141777   2.295   4.286   2.194  0.7690 -0.1481 -0.4351
10041SOL    HW241778   2.210   4.181   2.286  0.4841 -0.9106 -1.5544
10042SOL     OW41779   2.576   2.592   4.214 -0.2508 -0.5953  0.3020
10042SOL    HW141780   2.649   2.647   4.255 -0.8259  0.3263  0.1167
10042SOL    HW241781   2.595   2.580   4.116 -0.0315 -0.8797  0.3791
10043SOL     OW41782   3.703   6.416   7.141 -0.3201 -0.1644 -0.0644
10043SOL    HW141783   3.666   6.397   7.232 -1.4335 -0.5419 -0.5898
10043SOL    HW241784   3.654   6.492   7.100  2.9926  2.8677  1.3306
10044SOL     OW41785   4.417   4.591   1.091 -0.3370  0.5020  0.5787
10044SOL    HW141786   4.342   4.575   1.027 -0.1719  0.6376  0.3451
10044SOL    HW241787   4.388   4.656   1.161  0.3606  2.6484 -1.0275
10045SOL     OW41788   2.454   6.962   3.895 -0.8521 -0.5334  0.3892
10045SOL    HW141789   2.523   6.934   3.829 -0.1972  1.2358  0.2755
10045SOL    HW241790   2.473   6.919   3.983 -0.5209 -1.2784 -0.0423
10046SOL     OW41791   0.120   8.917   1.798  0.0034 -0.2372  0.5486
10046SOL    HW141792   0.121   9.014   1.775  0.0886 -0.0844  1.1961
10046SOL    HW241793   0.028   8.880   1.782  0.2469 -0.3045 -0.7312
10047SOL     OW41794   9.526   7.039   7.576  0.1150 -0.4107 -0.0582
10047SOL    HW141795   9.547   7.130   7.541  0.6540 -0.5209 -0.0322
10047SOL    HW241796   9.567   7.028   7.667  0.0657 -0.6830 -0.0680
10048SOL     OW41797   3.757   5.301   1.976 -0.2603 -0.8385  0.2673
10048SOL    HW141798   3.855   5.321   1.968  0.0934 -0.6316  4.0819
10048SOL    HW241799   3.705   5.374   1.932  1.2720 -2.0561 -3.7400
10049SOL     OW41800   9.994   3.466   5.601 -0.2276  0.0791 -0.2709
10049SOL    HW141801   9.952   3.423   5.681 -0.0040 -1.5023 -0.9872
10049SOL    HW241802  10.089   3.489   5.622 -0.1399 -0.4235 -0.1255
10050SOL     OW41803   6.176   0.535   6.707  0.0687 -0.1167  0.1080
10050SOL    HW141804   6.161   0.580   6.619  1.2571  1.0929  0.4955
10050SOL    HW241805   6.100   0.555   6.768 -1.4378 -2.0914 -1.0595
10051SOL     OW41806   0.146   7.315   1.164 -0.0554  0.2223  0.3371
10051SOL    HW141807   0.166   7.257   1.086 -0.3168 -3.1230  2.6554
10051SOL    HW241808   0.052   7.301   1.194 -0.2230  2.0805  0.7786
10052SOL     OW41809   5.350   5.523   1.786  0.8002 -0.3212  0.5126
10052SOL    HW141810   5.253   5.527   1.808  0.4356  0.7729 -1.2206
10052SOL    HW241811   5.365   5.458   1.711  0.8460  2.4517 -1.9450
10053SOL     OW41812   1.352   1.399   6.306 -0.0906  0.0597 -0.2745
10053SOL    HW141813   1.338   1.339   6.385  0.9393 -1.3632 -1.1607
10053SOL    HW241814   1.450   1.408   6.287 -0.3246  0.4549 -1.3406
10054SOL     OW41815   0.653   8.486   3.054  0.2505  0.0958 -0.1325
10054SOL    HW141816   0.660   8.581   3.084 -0.3437 -0.1280  0.7094
10054SOL    HW241817   0.739   8.460   3.009  0.4959  0.9599 -0.1843
10055SOL     OW41818   0.219   3.230   3.522  0.0806  0.0077 -0.2264
10055SOL    HW141819   0.318   3.225   3.534 -0.0044 -0.7425  0.2082
10055SOL    HW241820   0.187   3.322   3.547  0.4272 -0.3257  1.4810
10056SOL     OW41821   2.262   6.084   2.221 -0.3291 -0.1958  0.2053
10056SOL    HW141822   2.275   6.046   2.130 -1.3779 -2.0422  0.8066
10056SOL    HW241823   2.351   6.106   2.262  0.2229 -1.0256 -0.5559
10057SOL     OW41824   6.920   7.930   8.067 -0.1625  0.3037 -0.3301
10057SOL    HW141825   6.845   7.887   8.017 -0.1963 -0.1106  0.0699
10057SOL    HW241826   6.951   7.868   8.139  1.2111  0.0714 -1.1131
10058SOL     OW41827   6.831   4.582   1.078 -0.1970 -0.8890  0.2201
10058SOL    HW141828   6.870   4.611   0.991  2.2447 -2.1258  0.8748
10058SOL    HW241829   6.757   4.517   1.061 -0.2695 -0.5101 -0.9432
10059SOL     OW41830   6.736   0.930   6.245  0.1181  0.1571  0.4923
10059SOL    HW141831   6.759   1.024   6.217  0.4485 -0.3199 -0.8971
10059SOL    HW241832   6.808   0.895   6.304 -0.4550  1.0929  1.7813
10060SOL     OW41833   0.736   5.611   5.546  0.0371 -0.1637  0.2774
10060SOL    HW141834   0.683   5.674   5.602  0.2100  0.9617 -0.8149
10060SOL    HW241835   0.756   5.653   5.458  1.3472 -1.2081  0.0644
10061SOL     OW41836   2.960   3.045   4.554 -0.2366 -0.1724 -0.5384
10061SOL    HW141837   2.918   2.955   4.569  0.8035 -0.6329 -0.3377
10061SOL    HW241838   2.909   3.114   4.604 -0.0844 -0.8912  0.6247
10062SOL     OW41839   1.786   4.886   4.361 -0.0396  0.1206 -0.0998
10062SOL    HW141840   1.755   4.981   4.364  1.0422  0.4914 -0.6051
10062SOL    HW241841   1.768   4.847   4.271 -0.8238 -0.2791  0.2221
10063SOL     OW41842   4.232   8.980   8.193 -0.1063  0.3603 -0.3176
10063SOL    HW141843   4.300   8.965   8.265 -3.5863 -0.1799  2.9724
10063SOL    HW241844   4.197   8.892   8.162  0.3731  0.6571 -1.7300
10064SOL     OW41845   4.926   3.527   6.724  0.6878  0.2569  0.0216
10064SOL    HW141846   4.937   3.430   6.745  0.9752  0.4864  0.9571
10064SOL    HW241847   4.849   3.539   6.662 -0.0049 -0.4750  0.7307
10065SOL     OW41848   0.444   7.117   7.467 -0.4969  0.3405  0.0577
10065SOL    HW141849   0.437   7.023   7.436  0.2052  0.4440 -0.4334
10065SOL    HW241850   0.372   7.172   7.425 -0.6226  0.1144 -0.0197
10066SOL     OW41851   3.408   1.414   6.721  0.0518 -0.3189 -0.3563
10066SOL    HW141852   3.392   1.384   6.627 -1.0364  0.0697 -0.3061
10066SOL    HW241853   3.354   1.358   6.783 -1.5208  1.3008 -0.2114
10067SOL     OW41854   3.437   8.602   2.538 -0.0143 -0.6000 -0.7028
10067SOL    HW141855   3.475   8.561   2.621 -0.6500 -0.6551 -0.4382
10067SOL    HW241856   3.476   8.692   2.524 -1.2294  0.1539  0.6297
10068SOL     OW41857   6.133   7.900   6.428 -0.4505 -0.8341  0.1054
10068SOL    HW141858   6.226   7.877   6.458 -0.4703  1.1225  1.7552
10068SOL    HW241859   6.071   7.827   6.456  0.5276 -2.0470 -0.7942
10069SOL     OW41860   1.985   5.663   7.482 -0.4210 -0.3879  0.7308
10069SOL    HW141861   1.997   5.758   7.509  0.2229  0.1327 -1.3350
10069SOL    HW241862   2.073   5.624   7.457 -0.9136 -1.0517  0.0035
10070SOL     OW41863   9.737   6.208   6.063 -0.3090  0.3178  0.1568
10070SOL    HW141864   9.702   6.194   5.971  1.5257  0.7707 -0.6203
10070SOL    HW241865   9.724   6.303   6.091 -1.8818 -0.0688  0.8252
10071SOL     OW41866   9.455   7.269   3.753 -0.7573  0.3124  0.3242
10071SOL    HW141867   9.514   7.311   3.822 -3.1160  3.5086  0.4900
10071SOL    HW241868   9.375   7.230   3.798  0.8318 -3.5829  0.0442
10072SOL     OW41869   1.038   0.273  10.035  0.5539  0.0569  0.5207
10072SOL    HW141870   0.945   0.252  10.064 -0.2253 -0.0294 -1.9508
10072SOL    HW241871   1.082   0.190  10.001  1.1829  0.3063  0.7226
10073SOL     OW41872   7.727   8.242   6.645  0.3947  0.6615  0.0087
10073SOL    HW141873   7.815   8.213   6.683 -0.0510  0.4878  0.9251
10073SOL    HW241874   7.655   8.184   6.682 -0.0615  0.5222 -1.0751
10074SOL     OW41875   1.202   9.057   2.411 -0.3547 -0.2000  0.3764
10074SOL    HW141876   1.145   9.132   2.377 -1.3808 -0.1196  2.1895
10074SOL    HW241877   1.142   8.982   2.441  0.6301 -1.3932 -0.5801
10075SOL     OW41878   7.050   1.025   7.136 -0.1567  0.0019 -0.4761
10075SOL    HW141879   7.087   0.974   7.058  0.8018 -0.0660  0.0172
10075SOL    HW241880   7.114   1.020   7.213 -1.1600 -0.0567  0.3750
10076SOL     OW41881   2.902   1.783   7.665 -0.0200  0.0807  0.2616
10076SOL    HW141882   2.842   1.770   7.586 -0.6580  1.1121  0.5628
10076SOL    HW241883   2.956   1.701   7.680 -1.0269 -0.6944 -0.3079
10077SOL     OW41884   5.035   7.103   0.857  0.4179  0.3404  0.0008
10077SOL    HW141885   5.029   7.203   0.850  2.4677  0.7675  3.1793
10077SOL    HW241886   4.962   7.070   0.917  1.1335  0.1958  0.7907
10078SOL     OW41887   0.530   4.996   3.468 -0.0542 -0.0256  0.1971
10078SOL    HW141888   0.552   5.093   3.458  1.9908 -0.6034 -1.0056
10078SOL    HW241889   0.525   4.953   3.378  1.8041 -1.6249  0.8235
10079SOL     OW41890   6.010   2.241   1.091  0.1691  0.3807  0.5402
10079SOL    HW141891   5.998   2.247   0.992  1.0865 -0.2950  0.3854
10079SOL    HW241892   5.927   2.273   1.136 -0.7856 -0.6168 -0.4626
10080SOL     OW41893   6.213   0.183   0.787  0.0066  0.2262  0.2184
10080SOL    HW141894   6.204   0.278   0.816  0.8787  0.0487  1.0745
10080SOL    HW241895   6.256   0.129   0.859 -0.4400 -0.8182 -0.2726
10081SOL     OW41896   1.110   1.248   5.774 -0.2151 -0.2695  0.5936
10081SOL    HW141897   1.035   1.207   5.827 -0.2796  1.3553  1.8113
10081SOL    HW241898   1.141   1.332   5.820 -0.2891  1.2157 -1.9737
10082SOL     OW41899   7.182   1.936   4.040 -0.3424  0.1099 -0.5304
10082SOL    HW141900   7.198   1.852   3.988 -1.0556  0.0025 -0.5772
10082SOL    HW241901   7.116   1.918   4.113 -0.3238  0.5716 -0.3993
10083SOL     OW41902   5.651   0.989   0.725  0.0249 -0.2465 -0.8409
10083SOL    HW141903   5.670   1.010   0.629 -0.0618 -2.6081 -1.4140
10083SOL    HW241904   5.737   0.963   0.770 -0.1437 -0.4768 -0.6518
10084SOL     OW41905   3.199   9.416   3.468  0.3873 -0.3492 -0.4546
10084SOL    HW141906   3.124   9.432   3.532 -0.5939 -0.8787 -1.4425
10084SOL    HW241907   3.162   9.407   3.376  1.7735  0.3257 -1.0906
10085SOL     OW41908   6.139   5.094   0.308  0.2518 -0.7221 -0.0737
10085SOL    HW141909   6.123   5.169   0.372  0.0401 -0.0780 -0.8848
10085SOL    HW241910   6.103   5.009   0.348  1.1880 -0.5524  1.1832
10086SOL     OW41911   8.617   8.586   6.133 -0.6681 -0.3213  0.4109
10086SOL    HW141912   8.623   8.678   6.171 -3.3818 -0.5211  1.4725
10086SOL    HW241913   8.686   8.527   6.175  0.3106  0.9434  0.5798
10087SOL     OW41914   3.112   5.420   1.288  0.1031 -0.4284  0.9535
10087SOL    HW141915   3.124   5.364   1.371  3.0559 -0.7156  0.3728
10087SOL    HW241916   3.066   5.505   1.312 -0.2740 -1.0818  2.6502
10088SOL     OW41917   5.198   8.471   6.286  0.2097  0.8297  0.4754
10088SOL    HW141918   5.278   8.429   6.242 -0.9700 -0.3102 -0.6324
10088SOL    HW241919   5.152   8.531   6.220 -0.6093  0.4385  0.6928
10089SOL     OW41920   2.479   7.497   2.477  0.6392 -0.0538 -0.0475
10089SOL    HW141921   2.506   7.546   2.394  0.2227  1.2334  0.5696
10089SOL    HW241922   2.531   7.412   2.483  1.3306  0.2739 -1.1660
10090SOL     OW41923   1.034   2.388   6.915 -0.0540  0.4759 -0.7892
10090SOL    HW141924   1.061   2.294   6.897 -1.2047 -0.2787  1.2293
10090SOL    HW241925   0.966   2.390   6.988  0.7656  2.9577 -0.0225
10091SOL     OW41926   2.210   3.598   6.209  0.0934  0.3104  0.1069
10091SOL    HW141927   2.119   3.630   6.234 -1.1506 -2.8170 -0.1074
10091SOL    HW241928   2.257   3.565   6.291  0.3029  0.1971 -0.0600
10092SOL     OW41929   5.089   7.638   6.910  0.0152 -0.0569 -0.6161
10092SOL    HW141930   5.086   7.541   6.933 -1.4501  0.0382 -0.3627
10092SOL    HW241931   5.032   7.690   6.974 -2.2671  0.4907 -2.9798
10093SOL     OW41932   0.504   2.100   4.739 -0.4077 -0.0265 -0.1290
10093SOL    HW141933   0.562   2.080   4.819 -0.6462 -1.9436 -0.4055
10093SOL    HW241934   0.421   2.146   4.769 -0.1304 -0.0120  0.6280
10094SOL     OW41935   4.793   5.224   0.534 -0.0509  0.1019 -0.3065
10094SOL    HW141936   4.752   5.313   0.550  1.8042  0.9888 -0.3815
10094SOL    HW241937   4.882   5.219   0.580  0.7571 -0.9761 -1.9186
10095SOL     OW41938   5.657   2.849   0.223 -0.0509  0.0050 -0.3385
10095SOL    HW141939   5.749   2.863   0.260  0.1467  1.6001 -1.3916
10095SOL    HW241940   5.658   2.772   0.159  0.7118  0.4600 -0.8803
10096SOL     OW41941   8.181   4.084   1.428 -0.0135 -0.4236 -0.6582
10096SOL    HW141942   8.281   4.089   1.419  0.1568  1.7199  1.8654
10096SOL    HW241943   8.139   4.152   1.368 -0.0098 -1.8238 -2.2674
10097SOL     OW41944   1.714   2.847   7.298 -0.4837 -0.2954 -0.6293
10097SOL    HW141945   1.751   2.922   7.352 -0.4169  0.6872 -1.9993
10097SOL    HW241946   1.693   2.770   7.358 -0.6630  0.8482  0.8249
10098SOL     OW41947   8.381   8.760   2.000 -0.5118  0.5544 -0.6467
10098SOL    HW141948   8.455   8.783   2.064 -0.4202 -0.8298 -0.2345
10098SOL    HW241949   8.314   8.834   1.999 -0.1031  0.9492  0.4544
10099SOL     OW41950   8.783   0.824   5.037  0.4360  0.2220  0.2553
10099SOL    HW141951   8.853   0.896   5.035  0.7511 -0.1176 -1.2922
10099SOL    HW241952   8.747   0.816   5.130  0.9388  1.8605  0.6083
10100SOL     OW41953   0.602   5.847   4.733  0.1087 -0.3511  0.4126
10100SOL    HW141954   0.654   5.910   4.676 -1.7048 -1.1911 -2.2495
10100SOL    HW241955   0.510   5.883   4.748  0.1170 -0.8079  1.6538
10101SOL     OW41956   4.919   4.830   2.037  0.6096  0.3282 -0.1752
10101SOL    HW141957   4.954   4.801   2.126 -0.7677  1.8706  0.9016
10101SOL    HW241958   4.905   4.750   1.979 -0.2192 -0.8685  1.6505
10102SOL     OW41959   5.264   1.398   4.868 -0.7682  0.2828  0.0426
10102SOL    HW141960   5.199   1.395   4.944 -2.3728  1.2407 -1.2658
10102SOL    HW241961   5.280   1.493   4.841  0.7269  0.0231 -0.0423
10103SOL     OW41962   9.059   2.436   2.313  0.2232 -0.1226 -0.2997
10103SOL    HW141963   9.090   2.420   2.407  1.0007  1.7573 -0.2071
10103SOL    HW241964   8.959   2.443   2.312  0.2571  0.5613  0.5131
10104SOL     OW41965   4.247   4.380   2.551 -0.4193 -0.3661 -0.6132
10104SOL    HW141966   4.278   4.471   2.523 -1.2843  0.5015  1.1439
10104SOL    HW241967   4.147   4.379   2.555 -0.4001 -1.2570 -0.2004
10105SOL     OW41968   7.761   3.112   4.508 -0.1122 -0.1256  0.1162
10105SOL    HW141969   7.682   3.071   4.464  0.3360  1.1951 -2.0236
10105SOL    HW241970   7.818   3.157   4.438  2.2771 -0.6770  1.6636
10106SOL     OW41971   9.549   2.824   1.927  0.1011  0.2143  0.4261
10106SOL    HW141972   9.474   2.759   1.939  1.9792 -2.3866 -1.4089
10106SOL    HW241973   9.627   2.796   1.983  1.3338  0.1939 -1.2506
10107SOL     OW41974   1.643   7.744   3.035  0.2887  0.2639 -0.0699
10107SOL    HW141975   1.624   7.842   3.038  1.5769  0.4898  1.8731
10107SOL    HW241976   1.741   7.729   3.049  0.0509 -1.3106 -0.0162
10108SOL     OW41977   5.250   1.449   5.577  0.4221 -0.4783 -0.6068
10108SOL    HW141978   5.183   1.384   5.613  0.0035 -0.0429 -0.5900
10108SOL    HW241979   5.338   1.434   5.622  0.0532 -0.3158  0.1847
10109SOL     OW41980   2.972   6.347   4.916  0.7102 -0.3682  0.1301
10109SOL    HW141981   2.970   6.268   4.855  0.8801  0.0061 -0.3595
10109SOL    HW241982   3.066   6.369   4.940  0.7714  0.7286 -1.0897
10110SOL     OW41983   3.826   5.850   4.895 -0.0344  0.0353 -0.0595
10110SOL    HW141984   3.816   5.926   4.832 -1.9088 -0.5909 -0.5398
10110SOL    HW241985   3.744   5.792   4.892 -0.1680 -0.0282  2.9166
10111SOL     OW41986   9.186   6.745   3.477  0.5737 -0.0018  0.0309
10111SOL    HW141987   9.147   6.803   3.549  0.0205  0.0414 -0.3027
10111SOL    HW241988   9.280   6.720   3.502  0.3926  0.0321  0.7551
10112SOL     OW41989   3.386   3.353   2.136 -0.5024  0.2102 -0.3075
10112SOL    HW141990   3.327   3.310   2.068 -0.3056 -0.8378  0.1695
10112SOL    HW241991   3.359   3.449   2.148  0.2017  0.7074 -2.6550
10113SOL     OW41992   4.124   7.931   5.983  1.0100 -0.1522  0.3397
10113SOL    HW141993   4.143   8.002   5.915  2.7707 -0.8979  0.0123
10113SOL    HW241994   4.211   7.892   6.015  0.0507 -2.7226 -0.0744
10114SOL     OW41995   8.416   9.421   3.617  0.2178 -0.1098  0.3423
10114SOL    HW141996   8.514   9.405   3.629  0.0310  0.3654  2.8322
10114SOL    HW241997   8.397   9.442   3.521  2.6937  0.8787  0.0306
10115SOL     OW41998   9.126   5.236   4.546 -0.8731 -0.5410 -0.0046
10115SOL    HW141999   9.079   5.155   4.581  0.6054 -1.7637 -0.7660
10115SOL    HW242000   9.190   5.270   4.616  0.4394 -1.6444 -0.6309
10116SOL     OW42001   9.428   4.515   7.118 -0.1674  0.4748  0.3467
10116SOL    HW142002   9.483   4.584   7.071  1.3409  0.1590  1.6170
10116SOL    HW242003   9.390   4.553   7.201  1.5735 -0.4957  1.6330
10117SOL     OW42004   9.116   3.448   5.048 -0.5147 -0.2513  0.6181
10117SOL    HW142005   9.054   3.504   5.103 -0.0997  1.3764 -0.5460
10117SOL    HW242006   9.191   3.416   5.106 -0.4957  0.7957  1.1893
10118SOL     OW42007   8.796   7.333   1.206 -0.2797  0.7103  0.0456
10118SOL    HW142008   8.744   7.368   1.128  1.5963 -0.2131 -1.7003
10118SOL    HW242009   8.754   7.249   1.239 -0.3926  0.4161 -0.8239
10119SOL     OW42010   8.137   8.998   3.022 -0.5410 -0.4523 -0.8303
10119SOL    HW142011   8.099   9.000   2.929 -0.2316  1.8139 -0.9431
10119SOL    HW242012   8.236   8.988   3.018 -0.5749 -0.8393 -0.7226
10120SOL     OW42013   3.970   6.533   5.288 -0.4289 -0.1966  0.1062
10120SOL    HW142014   4.058   6.569   5.256 -1.2673 -0.0032 -2.0666
10120SOL    HW242015   3.961   6.437   5.260 -1.5580  0.2370 -1.0997
10121SOL     OW42016   3.769   2.261   6.900 -0.7006  0.1723 -0.4917
10121SOL    HW142017   3.784   2.204   6.981 -2.6509 -0.6672 -0.6795
10121SOL    HW242018   3.802   2.354   6.917 -1.1355  0.0183  1.2814
10122SOL     OW42019   4.856   8.672   5.926  0.2955  0.2722 -0.1667
10122SOL    HW142020   4.888   8.688   6.019  0.5294 -0.9415 -0.0427
10122SOL    HW242021   4.882   8.750   5.869  0.5526  0.8111  0.6743
10123SOL     OW42022   3.789   1.629   7.561 -0.1988  0.3462  0.0488
10123SOL    HW142023   3.867   1.569   7.578 -0.3003  0.3829  0.6453
10123SOL    HW242024   3.810   1.720   7.596 -0.6916  0.2361  0.6329
10124SOL     OW42025   0.170   2.723   4.362  0.4922 -0.2732 -0.5464
10124SOL    HW142026   0.145   2.659   4.289  0.2942 -0.1669 -0.5723
10124SOL    HW242027   0.143   2.815   4.335 -0.4436 -0.3615  0.0629
10125SOL     OW42028   7.614   5.748   2.133  0.9068  0.3354 -0.1123
10125SOL    HW142029   7.657   5.828   2.091  1.0330  0.6704  0.6482
10125SOL    HW242030   7.676   5.710   2.203  0.8611 -0.4406 -0.4880
10126SOL     OW42031   1.755   3.852   1.321 -0.4999  0.2205  0.2853
10126SOL    HW142032   1.688   3.906   1.374 -0.7912  0.7264 -0.5950
10126SOL    HW242033   1.718   3.834   1.230  0.1476 -0.3641  0.1393
10127SOL     OW42034   4.613   9.537   4.984  0.5370 -0.0485 -0.1956
10127SOL    HW142035   4.536   9.552   5.045  0.8449 -0.8537  0.3875
10127SOL    HW242036   4.602   9.595   4.903 -2.0212 -2.0272 -1.3567
10128SOL     OW42037   8.347   2.890   6.680  0.0845 -0.2247 -0.6200
10128SOL    HW142038   8.313   2.826   6.749 -1.3860  0.8360 -0.3408
10128SOL    HW242039   8.361   2.980   6.722  1.9849 -0.3068 -1.0454
10129SOL     OW42040   3.049   7.616   5.567  0.5753 -0.4138 -0.2126
10129SOL    HW142041   2.968   7.630   5.624 -1.0220 -1.0405 -2.3142
10129SOL    HW242042   3.071   7.519   5.562 -0.1629 -0.5142 -1.8267
10130SOL     OW42043   6.719   8.846   7.524 -0.2210 -0.0921  0.7575
10130SOL    HW142044   6.716   8.931   7.471  0.2322  0.8801  2.2355
10130SOL    HW242045   6.763   8.864   7.612  0.7478 -2.0807  0.7118
10131SOL     OW42046   9.444   2.620   0.201 -0.1711  0.1871 -0.1757
10131SOL    HW142047   9.393   2.621   0.115 -1.8566 -0.4894  0.7949
10131SOL    HW242048   9.445   2.712   0.240  0.2454  0.4107 -0.7079
10132SOL     OW42049   1.179   1.742   0.927  0.0961 -0.1494  0.3620
10132SOL    HW142050   1.156   1.753   1.024  0.5199 -0.0558  0.4541
10132SOL    HW242051   1.262   1.686   0.919  0.2181  0.0730  0.0638
10133SOL     OW42052   3.239   1.627   0.564  0.7391  0.1909  0.2016
10133SOL    HW142053   3.279   1.560   0.628 -0.3918 -0.0040  0.7107
10133SOL    HW242054   3.223   1.583   0.476  1.0533  0.0967  0.1902
10134SOL     OW42055   0.194   7.006   4.825  0.4373 -0.1152  0.2759
10134SOL    HW142056   0.133   7.085   4.825 -0.8500 -1.0856 -0.1006
10134SOL    HW242057   0.228   6.990   4.918  1.4591  1.4320  0.1817
10135SOL     OW42058   4.656   2.321   6.873  0.2772 -0.1046  0.1416
10135SOL    HW142059   4.564   2.282   6.868  1.7991 -3.9363  0.4400
10135SOL    HW242060   4.707   2.295   6.791  1.4300  1.1164  0.4625
10136SOL     OW42061   1.397   9.453   5.235  1.0033 -0.9131  0.3034
10136SOL    HW142062   1.339   9.510   5.293  1.4082 -0.5713  0.3809
10136SOL    HW242063   1.362   9.360   5.233  0.4334 -0.7031  0.3219
10137SOL     OW42064   4.445   3.908   5.073  0.3586  0.4067 -0.0469
10137SOL    HW142065   4.540   3.926   5.099  0.1724  3.4495 -1.3028
10137SOL    HW242066   4.384   3.949   5.140 -0.0975 -0.5871  0.1563
10138SOL     OW42067   3.164   6.360   4.019 -0.2182  0.5795  0.6193
10138SOL    HW142068   3.169   6.265   3.987  0.6164  1.0169 -0.5732
10138SOL    HW242069   3.196   6.365   4.113 -0.3938 -0.3395  0.7369
10139SOL     OW42070   1.026   6.064   1.479 -0.0892  0.3597  0.7653
10139SOL    HW142071   1.105   6.124   1.466 -0.0471  0.3612  1.0264
10139SOL    HW242072   1.023   6.033   1.574 -0.5452  0.5566  0.8130
10140SOL     OW42073   3.594   0.835   2.711 -0.2436  0.1495 -0.6769
10140SOL    HW142074   3.546   0.906   2.762 -1.5458  0.4168 -2.2439
10140SOL    HW242075   3.528   0.769   2.674  0.5886  0.4565 -2.7521
10141SOL     OW42076   9.862   1.013   3.289 -0.0063  0.4318 -0.0686
10141SOL    HW142077   9.941   0.983   3.343 -1.8984  0.5327  2.8845
10141SOL    HW242078   9.850   0.951   3.211  1.9908 -0.5516  0.3549
10142SOL     OW42079   5.718   1.857   4.726 -0.2880 -0.1148 -0.1813
10142SOL    HW142080   5.663   1.779   4.697 -1.3542  0.9387 -1.0608
10142SOL    HW242081   5.737   1.915   4.647 -0.8733  1.3391  0.7220
10143SOL     OW42082   2.140   9.557   5.629 -0.5114 -0.4896  0.3004
10143SOL    HW142083   2.174   9.546   5.535  0.7033  0.9234  0.5545
10143SOL    HW242084   2.217   9.548   5.693 -1.1284 -0.2423  1.0824
10144SOL     OW42085   1.228   9.794   7.656 -0.2369 -0.3625  0.1680
10144SOL    HW142086   1.212   9.879   7.706 -1.3756  0.3764 -1.3891
10144SOL    HW242087   1.251   9.815   7.561  2.5214 -1.7174  0.4857
10145SOL     OW42088   3.975   0.707   5.033  0.1509 -0.7026  0.5596
10145SOL    HW142089   3.947   0.642   4.962  0.5949  2.8047 -3.0162
10145SOL    HW242090   4.075   0.711   5.037  0.1366  0.9698 -0.4589
10146SOL     OW42091   8.549   6.791   4.876  0.1105  0.3098  0.0882
10146SOL    HW142092   8.542   6.753   4.968  1.8498  1.3038  0.6615
10146SOL    HW242093   8.569   6.889   4.882  0.3030  0.3690 -1.3425
10147SOL     OW42094   8.114   0.248   7.485  0.3608 -0.9098 -0.4619
10147SOL    HW142095   8.202   0.218   7.521 -0.0249 -1.2410  0.1855
10147SOL    HW242096   8.105   0.347   7.498  0.1433 -1.0595  0.4994
10148SOL     OW42097   0.281   8.212   6.907  0.1716 -0.3706 -0.1692
10148SOL    HW142098   0.295   8.262   6.992  0.6457 -0.5719 -0.1317
10148SOL    HW242099   0.331   8.257   6.833 -1.6063  0.8160 -0.7130
10149SOL     OW42100   5.905   0.794   5.915 -0.1839  0.6946 -0.1690
10149SOL    HW142101   5.968   0.843   5.975  0.7397 -0.4490 -0.1808
10149SOL    HW242102   5.891   0.701   5.950 -2.7304  1.2696  0.4475
10150SOL     OW42103   3.613   0.765   3.897 -0.4056 -0.0777  0.2696
10150SOL    HW142104   3.581   0.671   3.901  0.8994 -0.7011 -2.5542
10150SOL    HW242105   3.589   0.812   3.982 -0.4304 -3.1412  2.0363
10151SOL     OW42106   2.287   4.130   9.477 -0.0072 -0.0432  0.1773
10151SOL    HW142107   2.365   4.070   9.495  0.4646  0.6182  0.3404
10151SOL    HW242108   2.230   4.090   9.405  0.2035 -0.7767  0.4093
10152SOL     OW42109   2.949   3.455   9.984  0.2133 -0.0953 -0.2316
10152SOL    HW142110   2.857   3.442   9.946  0.3349  0.6749 -0.8071
10152SOL    HW242111   2.946   3.439  10.083 -0.5944  0.1316 -0.2088
10153SOL     OW42112   8.289   3.145   0.868 -0.1778  0.0208  0.0069
10153SOL    HW142113   8.204   3.123   0.916  0.6058  0.8169  1.8329
10153SOL    HW242114   8.271   3.154   0.770 -2.2408  0.4417  0.4016
10154SOL     OW42115   2.035   4.109   9.800  0.3668  0.0054  0.2304
10154SOL    HW142116   1.976   4.176   9.845  1.4252  0.5335  0.8343
10154SOL    HW242117   2.102   4.074   9.865  0.8290 -0.4751 -0.4976
10155SOL     OW42118   8.783   9.914   3.641 -0.2146 -0.6116  0.0863
10155SOL    HW142119   8.744   9.931   3.551 -0.5268  0.0106  0.3356
10155SOL    HW242120   8.881   9.896   3.632  0.2177  1.7211 -0.1650
10156SOL     OW42121   1.092   9.062   3.642 -0.5808 -0.2834 -0.3726
10156SOL    HW142122   1.167   9.108   3.689 -0.3634 -0.3231 -0.6786
10156SOL    HW242123   1.130   8.993   3.579 -0.8474  0.0913 -0.9519
10157SOL     OW42124   3.444   8.453   5.120  0.1120  0.0686 -0.4435
10157SOL    HW142125   3.520   8.404   5.077  1.0944  0.2052  1.0640
10157SOL    HW242126   3.481   8.521   5.183 -1.2746 -0.2149  0.6983
10158SOL     OW42127   6.432   1.576   3.633 -0.0883 -0.0156  0.0693
10158SOL    HW142128   6.475   1.528   3.556  0.7926  0.4586  0.2584
10158SOL    HW242129   6.335   1.551   3.638 -0.5360  1.1742 -2.1452
10159SOL     OW42130   4.077   1.574   0.115  0.2434  0.0908 -0.3442
10159SOL    HW142131   4.024   1.578   0.199  0.1859 -0.7799 -0.3409
10159SOL    HW242132   4.046   1.498   0.058  0.4779  0.4875 -1.0227
10160SOL     OW42133   1.087   6.714   5.141 -0.1589  0.5390  0.0349
10160SOL    HW142134   1.026   6.733   5.218  0.0387 -0.1465  0.3663
10160SOL    HW242135   1.057   6.767   5.061 -1.8560 -0.6238 -0.1294
10161SOL     OW42136   8.637   7.249   7.722  0.5641 -0.2891  0.2819
10161SOL    HW142137   8.562   7.202   7.770 -1.6985  1.2603 -1.6283
10161SOL    HW242138   8.657   7.335   7.769 -1.2023  0.9071 -1.0456
10162SOL     OW42139   1.768   8.921   7.412  0.6311 -0.1240 -0.0324
10162SOL    HW142140   1.691   8.887   7.357  0.7819 -1.4545  0.5560
10162SOL    HW242141   1.803   9.005   7.372 -0.4879 -0.0505 -0.8846
10163SOL     OW42142   5.275   7.185   4.623  0.1966  0.5526 -0.7216
10163SOL    HW142143   5.338   7.243   4.675  0.5385  0.8461 -1.4639
10163SOL    HW242144   5.283   7.206   4.526 -1.8632  1.3832 -0.7244
10164SOL     OW42145   9.319   1.817   6.260 -0.1309  0.6052 -0.4351
10164SOL    HW142146   9.363   1.855   6.178  0.3631  0.2737 -0.3263
10164SOL    HW242147   9.389   1.780   6.321 -0.5968 -0.5084 -0.5557
10165SOL     OW42148   8.949   8.089   4.795  0.4262  0.7897  0.2738
10165SOL    HW142149   8.919   8.128   4.708 -0.8647  0.0210  0.3616
10165SOL    HW242150   8.997   8.158   4.848 -0.5705  1.8381 -0.1815
10166SOL     OW42151   5.117   2.534   6.686  0.3212  0.8798  0.2800
10166SOL    HW142152   5.143   2.492   6.599  1.4493  0.7797  0.6563
10166SOL    HW242153   5.036   2.488   6.723 -0.6383  1.4434 -1.0985
10167SOL     OW42154   9.578   0.637   6.730 -0.0982 -0.6533 -0.7580
10167SOL    HW142155   9.632   0.613   6.810 -0.0314  1.3022 -0.1881
10167SOL    HW242156   9.639   0.670   6.657 -0.2361 -1.5409 -1.2733
10168SOL     OW42157   8.869   6.049   7.155  0.5359  1.0890 -0.6513
10168SOL    HW142158   8.796   6.094   7.207 -0.5678 -0.7785 -0.5300
10168SOL    HW242159   8.829   5.982   7.093  2.0820  0.9733 -1.5482
10169SOL     OW42160   7.102   4.138   1.100 -0.1682 -0.0099  0.5525
10169SOL    HW142161   7.073   4.223   1.144  1.2914  0.1494  1.2588
10169SOL    HW242162   7.202   4.139   1.089  0.1358 -2.5464  2.6048
10170SOL     OW42163   8.728   6.618   2.898  0.4180 -0.4610  0.2888
10170SOL    HW142164   8.756   6.692   2.960  2.7333 -1.4454  0.4616
10170SOL    HW242165   8.662   6.560   2.944 -2.4871  2.2201 -0.3150
10171SOL     OW42166   6.423   1.979   0.675 -0.3142 -0.1785  0.5716
10171SOL    HW142167   6.375   1.899   0.709  0.2771 -0.9466 -0.3727
10171SOL    HW242168   6.518   1.978   0.708 -0.4190  0.3594  0.9037
10172SOL     OW42169   8.828   7.051   8.205  0.0404 -1.0516  0.4284
10172SOL    HW142170   8.739   7.014   8.179 -1.8315  2.8449  0.9833
10172SOL    HW242171   8.858   7.008   8.290 -1.3277 -2.3829  0.2633
10173SOL     OW42172   3.815   9.528   5.655  0.1576 -0.1295 -0.2931
10173SOL    HW142173   3.803   9.528   5.555  1.4856  1.4044 -0.4527
10173SOL    HW242174   3.850   9.616   5.685 -4.0875  0.8937  2.0243
10174SOL     OW42175   8.115   5.919   6.872 -0.0277 -0.8213  0.3488
10174SOL    HW142176   8.134   5.996   6.932 -2.0828  0.1991 -0.2739
10174SOL    HW242177   8.131   5.833   6.922 -0.1994  0.0072  1.8629
10175SOL     OW42178   3.629   4.641   0.153 -0.0730 -0.7294 -0.2318
10175SOL    HW142179   3.541   4.652   0.107  0.9870 -0.9600 -2.3334
10175SOL    HW242180   3.702   4.679   0.097  0.9801  1.4159  2.4437
10176SOL     OW42181   9.095   6.156   6.075 -0.3093  0.0114 -0.3431
10176SOL    HW142182   9.144   6.092   6.015  0.8300  1.2198 -0.7273
10176SOL    HW242183   9.140   6.159   6.164  1.7067  2.6996 -1.3457
10177SOL     OW42184   8.909   9.003   3.257 -0.0928 -0.1212 -0.5367
10177SOL    HW142185   9.008   8.996   3.269  0.1155  1.4779 -1.1620
10177SOL    HW242186   8.866   8.915   3.276  1.7514 -1.6196 -3.0712
10178SOL     OW42187   8.828   8.298   0.303 -0.0017  0.2028 -0.5963
10178SOL    HW142188   8.811   8.277   0.400  0.2213  0.3117 -0.5335
10178SOL    HW242189   8.742   8.289   0.252  0.0448 -0.6674 -0.5341
10179SOL     OW42190   8.778   8.923   6.871 -0.0229  0.1627  1.2050
10179SOL    HW142191   8.878   8.929   6.866 -0.1353  2.9284  1.3564
10179SOL    HW242192   8.750   8.827   6.877  2.5556 -0.7033 -0.0410
10180SOL     OW42193   0.695   2.619   3.745 -0.2275 -0.2852 -0.3841
10180SOL    HW142194   0.693   2.549   3.674 -0.9518 -1.4234  0.7342
10180SOL    HW242195   0.789   2.650   3.760 -0.3220  1.6301 -3.4156
10181SOL     OW42196   2.834   2.324   5.815 -0.2864  0.3311 -0.1166
10181SOL    HW142197   2.894   2.387   5.864  0.9455 -0.3684 -0.7046
10181SOL    HW242198   2.772   2.279   5.879  2.1502 -1.5070  1.0080
10182SOL     OW42199   3.518   5.795   1.315 -0.0488  0.1553  0.4174
10182SOL    HW142200   3.427   5.773   1.282 -0.4972  1.3287  0.8209
10182SOL    HW242201   3.585   5.781   1.243 -0.5103 -1.0318  0.2232
10183SOL     OW42202   9.563   4.426   3.023 -0.2542  0.4160 -0.4508
10183SOL    HW142203   9.539   4.466   2.935  2.4086  1.8654 -0.5765
10183SOL    HW242204   9.549   4.494   3.096 -1.5529 -0.4641  0.1327
10184SOL     OW42205   4.165   7.974   1.133 -0.0305  0.1867  0.6521
10184SOL    HW142206   4.111   8.048   1.094 -0.3512 -0.0358  0.6723
10184SOL    HW242207   4.225   7.935   1.062  0.2273  0.5441  0.6727
10185SOL     OW42208   5.505   2.643   5.786 -0.4072  0.3353 -0.6542
10185SOL    HW142209   5.536   2.731   5.750  0.5247  0.5878  0.7194
10185SOL    HW242210   5.405   2.643   5.789 -0.4167  2.7298  2.4844
10186SOL     OW42211   4.127   1.628   7.513 -0.6063  0.1416  0.5606
10186SOL    HW142212   4.217   1.596   7.486 -0.4184  0.1577  1.1606
10186SOL    HW242213   4.136   1.701   7.581 -1.0681  0.0486  0.7276
10187SOL     OW42214   3.631   9.942   1.530  0.0022  0.5619 -0.2017
10187SOL    HW142215   3.558   9.880   1.558  0.4683 -1.1338 -2.5987
10187SOL    HW242216   3.716   9.916   1.577 -0.2979  0.7933  0.4768
10188SOL     OW42217   9.618   3.851   0.700  0.1730 -0.0969  0.3709
10188SOL    HW142218   9.673   3.928   0.667  1.3485 -1.0235  0.1265
10188SOL    HW242219   9.546   3.885   0.761  0.0900  1.2858 -0.4754
10189SOL     OW42220   9.779   7.660   7.021  0.3760  0.2891  0.4276
10189SOL    HW142221   9.791   7.727   6.949  0.6597 -0.8376 -0.5904
10189SOL    HW242222   9.799   7.702   7.110  0.7676  1.4663 -0.2117
10190SOL     OW42223   4.250   0.906   0.744 -0.0679 -0.0324  0.3278
10190SOL    HW142224   4.252   0.847   0.663  2.0234 -0.3844  0.6306
10190SOL    HW242225   4.159   0.900   0.786 -1.6582  1.1679 -2.7145
10191SOL     OW42226   3.939   9.726   7.531 -0.2891 -0.4019 -0.5716
10191SOL    HW142227   3.911   9.749   7.624  0.0741  0.8453 -0.7559
10191SOL    HW242228   4.039   9.719   7.528 -0.1607  1.4832 -1.2716
10192SOL     OW42229   3.092   8.352   0.827 -0.2995  0.0334  0.4438
10192SOL    HW142230   3.186   8.345   0.859  0.8962  2.5198 -2.1796
10192SOL    HW242231   3.089   8.332   0.729 -2.1362  1.8413  0.0879
10193SOL     OW42232   8.756   8.196   3.912 -0.0758 -0.3564 -0.2929
10193SOL    HW142233   8.718   8.138   3.839 -0.8787  0.6014 -0.6454
10193SOL    HW242234   8.790   8.281   3.872  1.2376 -0.6317  0.2063
10194SOL     OW42235   3.436   0.322   0.060 -0.0423  0.4334  0.4497
10194SOL    HW142236   3.387   0.259  -0.000 -1.1408  0.6019  1.1465
10194SOL    HW242237   3.440   0.284   0.152  3.4942 -0.8034 -0.1396
10195SOL     OW42238   1.680   7.253   5.179  0.0049  0.1032 -0.0361
10195SOL    HW142239   1.647   7.300   5.097 -0.4576 -0.8398 -0.3947
10195SOL    HW242240   1.767   7.293   5.207  1.5940 -1.4387 -2.6280
10196SOL     OW42241   0.970   1.940   4.601 -0.0059 -0.1657 -0.1476
10196SOL    HW142242   0.925   1.852   4.586 -0.8305  0.4074 -1.0625
10196SOL    HW242243   0.905   2.014   4.584  0.6538  0.6162  0.7315
10197SOL     OW42244   9.058   8.862   1.223 -0.3229 -0.7002  0.3311
10197SOL    HW142245   9.121   8.785   1.241 -2.2348 -2.3283  0.2504
10197SOL    HW242246   8.966   8.837   1.254 -1.5647  0.4829 -2.2634
10198SOL     OW42247   3.165   7.649   2.195  0.7903 -0.4625 -0.6397
10198SOL    HW142248   3.162   7.749   2.201  1.4007 -0.5983  2.9015
10198SOL    HW242249   3.246   7.615   2.242 -1.2705 -2.7955  1.3993
10199SOL     OW42250   4.149   7.637   2.134 -0.4487 -0.9322 -0.3860
10199SOL    HW142251   4.117   7.722   2.175 -1.1002  0.2031 -3.1469
10199SOL    HW242252   4.073   7.572   2.130 -1.0717 -0.1144 -2.1373
10200SOL     OW42253   0.744   3.831   0.960  0.6019 -0.3441  0.0714
10200SOL    HW142254   0.770   3.823   1.056 -2.6940  0.3318  1.0767
10200SOL    HW242255   0.737   3.928   0.935 -2.2217 -0.4758  0.2360
10201SOL     OW42256   4.287   6.753   1.697 -0.6647  0.3975  0.4399
10201SOL    HW142257   4.276   6.766   1.598  0.3437  0.0426  0.2749
10201SOL    HW242258   4.279   6.656   1.718 -1.9209  0.5821  0.8514
10202SOL     OW42259   4.509   9.275   2.953 -0.5205  0.1157 -0.0792
10202SOL    HW142260   4.411   9.252   2.951 -0.4579 -0.1902  0.3399
10202SOL    HW242261   4.519   9.374   2.948 -0.8780  0.1833  0.4105
10203SOL     OW42262   1.433   1.827   0.343  0.2058 -1.2265  0.3756
10203SOL    HW142263   1.366   1.802   0.273 -0.7947  3.7990 -0.7141
10203SOL    HW242264   1.526   1.816   0.306 -0.2995  0.7145 -1.5761
10204SOL     OW42265   8.966   6.135   0.871 -0.0729  0.3277  0.0032
10204SOL    HW142266   9.031   6.064   0.844  0.5157  1.1703 -0.8456
10204SOL    HW242267   8.996   6.177   0.957 -0.8631 -0.9872  0.9410
10205SOL     OW42268   6.386   2.476   2.767 -0.5600  0.3531 -0.0923
10205SOL    HW142269   6.354   2.570   2.781  1.1577  1.0665 -0.9130
10205SOL    HW242270   6.469   2.476   2.711 -0.6137 -1.6663 -0.2188
10206SOL     OW42271   1.423   4.699   1.950  0.3536 -0.0391  0.1632
10206SOL    HW142272   1.361   4.707   2.028  1.4221  0.2889  0.9906
10206SOL    HW242273   1.371   4.673   1.869 -0.4793 -2.4915  1.4212
10207SOL     OW42274   3.987   1.971   4.821  0.0175 -0.1651 -0.3094
10207SOL    HW142275   4.039   2.029   4.885  0.6371 -0.4438 -0.5604
10207SOL    HW242276   3.918   2.027   4.776  0.7875  0.4544 -0.7462
10208SOL     OW42277   5.382   2.421   0.756 -0.1884 -0.0430 -0.0542
10208SOL    HW142278   5.305   2.362   0.780  0.0187 -0.1197  0.4248
10208SOL    HW242279   5.383   2.502   0.815 -1.0380  0.9323 -1.3399
10209SOL     OW42280   8.247   9.658   0.818  0.0244 -0.3357  0.0860
10209SOL    HW142281   8.333   9.672   0.768 -0.2209  0.6674 -0.0725
10209SOL    HW242282   8.234   9.733   0.883 -0.8198 -0.3843 -0.0237
10210SOL     OW42283   3.110   9.342   1.533  0.2047  0.8650  0.2526
10210SOL    HW142284   3.024   9.391   1.521  0.2184  0.4390 -1.7564
10210SOL    HW242285   3.096   9.266   1.597 -0.3498  2.0858  1.6268
10211SOL     OW42286   7.643   3.898   2.049 -0.6534 -0.5694  0.1404
10211SOL    HW142287   7.629   3.800   2.034 -0.2363 -0.4539 -1.0460
10211SOL    HW242288   7.565   3.949   2.013 -0.6081 -0.4279  0.2437
10212SOL     OW42289   9.312   1.230   3.559  0.4701 -0.6022  0.7585
10212SOL    HW142290   9.379   1.290   3.515  0.2817 -0.4440  0.6894
10212SOL    HW242291   9.334   1.135   3.536 -0.7508 -0.4278 -1.2904
10213SOL     OW42292   7.911   7.485   1.140 -0.1763  0.2724  0.1349
10213SOL    HW142293   7.816   7.454   1.137 -0.2893  0.7819 -2.1494
10213SOL    HW242294   7.919   7.559   1.207 -0.9640 -1.0852  1.7671
10214SOL     OW42295   7.805   0.245   3.575  0.2640 -0.4680  0.7195
10214SOL    HW142296   7.886   0.226   3.631 -0.3893 -0.3544  1.7007
10214SOL    HW242297   7.769   0.160   3.538  0.7447 -0.5350  0.4024
10215SOL     OW42298   3.363   7.001   4.769  0.0636  0.7278 -0.0226
10215SOL    HW142299   3.437   7.036   4.711 -0.9082  0.6183 -1.3504
10215SOL    HW242300   3.309   6.935   4.718  0.6932 -1.2889  1.8436
10216SOL     OW42301   9.316   6.670   1.345  0.6605  0.4175  0.1700
10216SOL    HW142302   9.324   6.716   1.434 -2.4498  1.0292  0.1881
10216SOL    HW242303   9.332   6.737   1.273  1.3521  0.3424  0.2542
10217SOL     OW42304   0.519   6.592   1.751  0.0823  0.2228 -0.5180
10217SOL    HW142305   0.529   6.597   1.850  1.6883 -1.9124 -0.5238
10217SOL    HW242306   0.477   6.505   1.726 -2.9745  1.9134 -1.6059
10218SOL     OW42307   9.360   3.707   5.359  0.4681 -0.1135 -0.0654
10218SOL    HW142308   9.281   3.763   5.338 -0.6321 -2.2524 -1.9062
10218SOL    HW242309   9.435   3.730   5.297 -0.2424 -1.1703 -1.3434
10219SOL     OW42310   4.485   3.714   2.949 -0.4563 -0.5064 -0.1703
10219SOL    HW142311   4.432   3.655   2.888 -1.4562 -0.5608  0.7270
10219SOL    HW242312   4.437   3.723   3.036  0.4068  0.4632  0.2166
10220SOL     OW42313   4.152   0.140   1.235 -0.1737 -0.5238  0.8223
10220SOL    HW142314   4.115   0.135   1.328  0.2343 -0.1239  1.0074
10220SOL    HW242315   4.194   0.052   1.211 -0.9295 -0.8657  0.7419
10221SOL     OW42316   0.862   1.872   5.282  0.1374  0.6676  0.0253
10221SOL    HW142317   0.857   1.939   5.356  0.7671  2.0195 -1.1281
10221SOL    HW242318   0.865   1.919   5.194 -2.4036 -0.9506 -0.9833
10222SOL     OW42319   9.175   8.414   4.654  0.6350 -0.0380 -0.1472
10222SOL    HW142320   9.168   8.412   4.754 -0.8457 -1.3726 -0.2604
10222SOL    HW242321   9.084   8.409   4.614  1.2439  0.1099 -1.5728
10223SOL     OW42322   7.038   3.702   0.543 -0.3291 -0.0872 -0.3192
10223SOL    HW142323   6.941   3.722   0.557  0.4120  1.6218  3.0010
10223SOL    HW242324   7.064   3.727   0.450 -3.0422 -0.5635 -1.2586
10224SOL     OW42325   7.532   3.964   3.539 -0.1257  0.2953 -0.1810
10224SOL    HW142326   7.588   3.947   3.620 -0.7755 -0.2710  0.1557
10224SOL    HW242327   7.554   3.896   3.469  0.2497  0.6238 -0.3800
10225SOL     OW42328   1.489   4.229   7.474 -0.6946  0.3979 -0.3739
10225SOL    HW142329   1.563   4.180   7.519 -1.7629  0.4638  1.5617
10225SOL    HW242330   1.488   4.209   7.376  0.8602 -0.8679 -0.1349
10226SOL     OW42331   7.226   3.534   2.365 -0.2669 -0.9314 -0.4162
10226SOL    HW142332   7.161   3.610   2.356  1.2193  0.2400 -1.4928
10226SOL    HW242333   7.278   3.545   2.449  0.8360 -0.0445 -1.2063
10227SOL     OW42334   4.084   6.684   1.078 -0.4649 -0.0049  1.0056
10227SOL    HW142335   4.112   6.607   1.020 -0.8168 -0.2925  1.2071
10227SOL    HW242336   4.151   6.698   1.151  0.1304  0.5456  0.3612
10228SOL     OW42337   5.274   8.554   6.041  0.1219  0.3498 -0.2795
10228SOL    HW142338   5.214   8.556   5.961  0.0534  0.8644 -0.2198
10228SOL    HW242339   5.368   8.574   6.013  0.0667  0.7175 -0.2074
10229SOL     OW42340   8.372   5.395   0.744  0.4169  0.7649  0.0231
10229SOL    HW142341   8.291   5.447   0.717  0.7783  2.1254  1.5056
10229SOL    HW242342   8.454   5.447   0.720  0.8784 -0.6159 -1.4907
10230SOL     OW42343   1.264   8.530   4.292 -0.1595  0.0992 -0.1769
10230SOL    HW142344   1.309   8.520   4.203 -0.3671  0.9052 -0.3725
10230SOL    HW242345   1.193   8.460   4.301  0.1250 -0.2320 -0.4842
10231SOL     OW42346   4.309   9.206   2.045  0.2027  0.0325 -0.1251
10231SOL    HW142347   4.363   9.123   2.049  0.7943  0.3975 -0.4316
10231SOL    HW242348   4.345   9.273   2.111 -1.7975 -0.8375  1.9182
10232SOL     OW42349   9.240   5.520   2.222  0.9056  0.2209  0.0383
10232SOL    HW142350   9.270   5.500   2.128 -0.3848  0.2382 -0.3859
10232SOL    HW242351   9.160   5.464   2.244  1.5116 -0.1573  1.3251
10233SOL     OW42352   4.748   2.863   6.680 -0.1276 -0.5521  0.6239
10233SOL    HW142353   4.795   2.913   6.752 -0.3517  1.0045 -0.2961
10233SOL    HW242354   4.802   2.866   6.596 -2.1387  1.8635 -0.6492
10234SOL     OW42355   0.694   0.719   1.695  0.5281  0.1557 -0.5515
10234SOL    HW142356   0.759   0.711   1.771  2.1823  1.5306 -1.7819
10234SOL    HW242357   0.609   0.758   1.729  0.6099 -0.9123  0.9422
10235SOL     OW42358   5.763   0.994   6.187 -0.4290  0.0814  0.9274
10235SOL    HW142359   5.667   0.967   6.184 -0.3648 -0.0145 -1.9271
10235SOL    HW242360   5.804   0.982   6.096  1.0716  4.4868  0.9295
10236SOL     OW42361   8.640   1.554   2.281 -0.0295 -0.1949  0.1121
10236SOL    HW142362   8.675   1.524   2.192 -0.4255  0.8786 -0.4220
10236SOL    HW242363   8.689   1.636   2.310 -0.0897 -0.3830  0.7529
10237SOL     OW42364   3.094   4.552   0.209 -0.3703  0.0325  0.0249
10237SOL    HW142365   3.181   4.565   0.256 -0.7626 -1.1260  1.0988
10237SOL    HW242366   3.080   4.626   0.143  1.2893  0.3826  0.0424
10238SOL     OW42367   1.543   7.418   3.408 -0.2862  0.0983  0.4394
10238SOL    HW142368   1.550   7.505   3.360  0.5670 -1.4794 -2.4030
10238SOL    HW242369   1.634   7.390   3.439 -0.2073 -0.8611 -0.6433
10239SOL     OW42370   2.769   1.506   3.201  0.2808  0.1291  0.1905
10239SOL    HW142371   2.757   1.407   3.208 -1.5912  0.3153 -0.1369
10239SOL    HW242372   2.817   1.539   3.282 -0.3306 -0.8770  0.9877
10240SOL     OW42373   8.066   4.232   4.698 -0.2199  0.5695  0.0259
10240SOL    HW142374   8.024   4.164   4.637  0.5476  0.7487 -0.7156
10240SOL    HW242375   8.161   4.206   4.716  0.2110  1.6807 -0.6250
10241SOL     OW42376   1.619   8.167   4.304 -0.6080  0.4224  0.2843
10241SOL    HW142377   1.636   8.099   4.376  0.4529 -0.2188 -0.5502
10241SOL    HW242378   1.697   8.229   4.298 -0.1811 -0.2330 -1.0710
10242SOL     OW42379   2.611   7.060   0.561  0.2562 -0.3697  0.0430
10242SOL    HW142380   2.694   7.067   0.616  0.3523 -3.2357  0.2984
10242SOL    HW242381   2.580   7.152   0.537  3.7946  0.7785 -0.5313
10243SOL     OW42382   9.420   9.893   3.999 -0.2442  0.1804  0.0345
10243SOL    HW142383   9.339   9.930   4.044  0.2151  0.2713  0.7886
10243SOL    HW242384   9.492   9.962   3.997  1.4258 -1.3499  3.5137
10244SOL     OW42385   8.395   3.037   7.078 -0.1317 -0.4114  0.2111
10244SOL    HW142386   8.484   3.081   7.090 -0.6360  0.9133 -0.7999
10244SOL    HW242387   8.337   3.095   7.021 -1.0225 -2.1124 -0.6485
10245SOL     OW42388   2.915   2.758   7.171 -0.2567  0.0744  0.3184
10245SOL    HW142389   2.897   2.731   7.266 -1.6636 -0.5259 -0.1161
10245SOL    HW242390   2.860   2.838   7.148 -0.9754 -0.6297 -0.4263
10246SOL     OW42391   5.118   9.908   5.935  1.0513 -0.0748 -0.5755
10246SOL    HW142392   5.200   9.853   5.950  0.2233 -0.9040  1.1319
10246SOL    HW242393   5.049   9.852   5.888  0.4155 -0.3418  0.6474
10247SOL     OW42394   9.509   0.339   5.051  0.0672  0.3448  0.3645
10247SOL    HW142395   9.536   0.253   5.094  0.7459  0.1468 -0.4301
10247SOL    HW242396   9.487   0.322   4.955  0.1642  1.0455  0.2144
10248SOL     OW42397   7.609   6.523   4.345 -0.4006  0.8515 -0.2127
10248SOL    HW142398   7.541   6.460   4.382  0.1419 -0.2406 -1.0386
10248SOL    HW242399   7.660   6.565   4.419  1.5596 -2.2685  0.3008
10249SOL     OW42400   3.638   0.023   7.368  0.1545  0.2931  0.4958
10249SOL    HW142401   3.692   0.108   7.376  0.5532  0.2482 -1.4709
10249SOL    HW242402   3.700  -0.054   7.354 -0.3152 -0.0333  0.2169
10250SOL     OW42403   7.295   2.357   5.911  0.0419 -0.0219  0.2510
10250SOL    HW142404   7.261   2.269   5.877 -0.3005  0.4293 -0.5783
10250SOL    HW242405   7.309   2.420   5.835 -0.4629  0.9144  0.9209
10251SOL     OW42406   9.545   2.500   4.136  0.2586  0.5346  0.5882
10251SOL    HW142407   9.559   2.455   4.224 -1.0788  0.0025  0.5446
10251SOL    HW242408   9.472   2.568   4.144  0.1272  0.4833 -0.1053
10252SOL     OW42409   6.137   0.117   3.209  0.3667  0.1632 -0.1279
10252SOL    HW142410   6.070   0.157   3.270 -0.5133 -1.2255 -0.1540
10252SOL    HW242411   6.108   0.128   3.114  0.2457 -0.3179 -0.1476
10253SOL     OW42412   5.734   7.943   2.493 -0.8539 -0.4068 -0.3376
10253SOL    HW142413   5.788   7.863   2.465 -1.0814 -0.4948 -0.5286
10253SOL    HW242414   5.677   7.918   2.572  1.2627  0.4055  1.4679
10254SOL     OW42415   9.759   9.213   7.026  0.6832 -0.2147 -0.2636
10254SOL    HW142416   9.852   9.228   7.060  0.8701 -1.7239 -0.0559
10254SOL    HW242417   9.716   9.140   7.079 -0.1484 -0.4173 -1.2112
10255SOL     OW42418   4.398   0.794   0.930 -0.4083  0.0043  0.0919
10255SOL    HW142419   4.356   0.828   0.846 -0.5404 -0.3994 -0.0031
10255SOL    HW242420   4.488   0.756   0.910 -0.3243  0.1589  0.1751
10256SOL     OW42421   7.498   3.918   1.635 -0.3482  0.4464 -0.2367
10256SOL    HW142422   7.471   3.854   1.562 -0.1907  0.4520 -0.2990
10256SOL    HW242423   7.589   3.893   1.668 -0.4752  0.3621  0.0501
10257SOL     OW42424   8.130   6.479   7.879 -0.2775 -0.1704 -0.4464
10257SOL    HW142425   8.125   6.405   7.813  0.2499  0.1966 -0.9038
10257SOL    HW242426   8.104   6.445   7.970 -2.7616 -0.2442 -1.1630
10258SOL     OW42427   8.025   1.128   4.565  0.0594 -0.1237  0.0024
10258SOL    HW142428   7.947   1.116   4.625 -0.1123 -2.1009 -0.5596
10258SOL    HW242429   8.109   1.105   4.614  0.0901 -0.0453 -0.0124
10259SOL     OW42430   6.837   1.116   7.600  0.2576  0.8905  0.1227
10259SOL    HW142431   6.798   1.138   7.511  0.2721 -0.6902 -0.2884
10259SOL    HW242432   6.774   1.144   7.673 -0.9308 -0.1607 -0.4821
10260SOL     OW42433   7.496   0.553   4.307 -0.0286 -0.2903 -0.0680
10260SOL    HW142434   7.525   0.464   4.343 -0.2738 -0.5729 -0.5620
10260SOL    HW242435   7.405   0.544   4.266  0.5598 -0.1409 -1.4224
10261SOL     OW42436   0.697   2.153   5.042  0.5451 -0.0051  0.1980
10261SOL    HW142437   0.722   2.246   5.018  1.9487 -0.4132  0.0290
10261SOL    HW242438   0.751   2.088   4.988 -1.8285 -0.9307 -1.1230
10262SOL     OW42439   8.442   2.153   4.849 -0.5485 -0.0660 -0.3833
10262SOL    HW142440   8.468   2.143   4.945 -0.5869  0.6009 -0.2980
10262SOL    HW242441   8.440   2.250   4.825 -0.3424 -0.2348 -1.1139
10263SOL     OW42442   8.936   7.020   1.181  0.2474  0.0385  0.2804
10263SOL    HW142443   8.849   7.025   1.132  0.3923 -2.2006 -0.2830
10263SOL    HW242444   9.011   7.036   1.117  0.3621 -1.2279  0.0723
10264SOL     OW42445   1.177   3.423   6.049  0.6790  0.0144  0.3647
10264SOL    HW142446   1.206   3.460   5.960  0.9494  1.0114  0.8621
10264SOL    HW242447   1.145   3.498   6.107  1.7406 -0.4493  1.5826
10265SOL     OW42448   0.379   1.060   3.931  0.5637 -0.3251  0.3642
10265SOL    HW142449   0.469   1.014   3.929  1.7340  1.8982  1.0282
10265SOL    HW242450   0.327   1.027   4.010  2.1231  0.8027  1.9016
10266SOL     OW42451   3.636   7.361   1.714  0.0720 -0.0438 -0.3595
10266SOL    HW142452   3.703   7.288   1.700  0.7106  0.6200 -0.8133
10266SOL    HW242453   3.557   7.325   1.763  1.6113 -0.3695  1.9285
10267SOL     OW42454   6.598   3.402   0.784 -0.2485 -0.2813  0.7328
10267SOL    HW142455   6.546   3.335   0.730  1.5132 -0.0946 -1.2487
10267SOL    HW242456   6.657   3.354   0.848  0.4922 -0.6189 -0.1946
10268SOL     OW42457   8.987   5.084   2.356  0.3705  0.0623 -0.3279
10268SOL    HW142458   9.061   5.024   2.387 -0.8892 -1.7861 -0.8270
10268SOL    HW242459   8.944   5.127   2.436 -0.7295 -2.1265  0.2809
10269SOL     OW42460   8.872   6.123   2.120  0.2065 -0.0229  0.1156
10269SOL    HW142461   8.933   6.094   2.046  0.3362  0.4307  0.0478
10269SOL    HW242462   8.927   6.156   2.197  0.0511  0.2408  0.1142
10270SOL     OW42463   6.653   1.530   6.525  0.6274  0.1460 -0.5139
10270SOL    HW142464   6.628   1.473   6.604 -0.6910  0.8267 -0.4079
10270SOL    HW242465   6.747   1.562   6.536  0.7122 -0.3814  0.4157
10271SOL     OW42466   1.597   8.898   2.155  0.0427  0.4342  0.0174
10271SOL    HW142467   1.690   8.933   2.151  0.8456 -1.5020  1.1929
10271SOL    HW242468   1.576   8.850   2.070  0.3694  0.2344  0.0495
10272SOL     OW42469   0.389   4.317   6.001  0.3132 -0.1891 -0.2303
10272SOL    HW142470   0.400   4.217   6.006  0.8163 -0.1178  0.1614
10272SOL    HW242471   0.468   4.361   6.044  0.0226  0.3791 -0.2769
10273SOL     OW42472   0.990   1.042   2.783  0.2026 -0.0968  0.5174
10273SOL    HW142473   1.006   0.960   2.839  0.7032 -0.8273 -0.6661
10273SOL    HW242474   1.047   1.117   2.817  0.9031 -0.6870  0.6630
10274SOL     OW42475   5.916   1.247   7.610  0.2196 -0.9598 -0.2049
10274SOL    HW142476   5.966   1.160   7.609  0.7924 -0.6367 -0.2158
10274SOL    HW242477   5.980   1.322   7.590 -0.3363 -0.5718 -0.5391
10275SOL     OW42478   4.544   9.710   5.545 -0.3827 -0.3455  0.6252
10275SOL    HW142479   4.604   9.744   5.472 -0.0728 -1.3495  0.4091
10275SOL    HW242480   4.481   9.783   5.572  0.2767  0.4061  0.1716
10276SOL     OW42481   2.157   5.365   0.450  0.6460 -0.0756  0.5310
10276SOL    HW142482   2.089   5.435   0.470 -0.2964 -0.7778 -0.2264
10276SOL    HW242483   2.135   5.319   0.364  1.1562 -1.4197  1.1013
10277SOL     OW42484   6.106   4.231   1.249 -0.1876  0.3283 -0.1221
10277SOL    HW142485   6.028   4.239   1.311 -0.3583 -0.1500 -0.2753
10277SOL    HW242486   6.115   4.315   1.195 -1.2047 -0.0174 -0.8301
10278SOL     OW42487   1.356   0.002   6.984 -0.1433  0.6147 -0.4333
10278SOL    HW142488   1.433   0.037   6.930  0.0239  0.3794 -0.3459
10278SOL    HW242489   1.382  -0.002   7.080  0.7959 -2.4128 -0.7812
10279SOL     OW42490   3.112   2.948   5.387  0.0184  0.2118 -0.2060
10279SOL    HW142491   3.097   2.881   5.460 -0.7587 -0.8947 -1.3443
10279SOL    HW242492   3.031   2.950   5.328 -0.1846  2.5797  0.1178
10280SOL     OW42493   9.824   8.483   0.036  0.1934  0.7218 -0.2642
10280SOL    HW142494   9.856   8.405   0.088  0.6337 -1.5754 -3.7892
10280SOL    HW242495   9.734   8.512   0.070  0.2811 -0.9396  1.4233
10281SOL     OW42496   3.644   0.821   6.544  0.6190 -0.2816  0.3997
10281SOL    HW142497   3.574   0.750   6.541 -0.2057  0.5731 -2.0619
10281SOL    HW242498   3.617   0.891   6.610 -0.6033 -0.2411 -0.1227
10282SOL     OW42499   6.747   6.973   6.796  0.0759 -0.1794 -0.1427
10282SOL    HW142500   6.742   6.883   6.752  0.3185 -0.6463  0.7732
10282SOL    HW242501   6.664   7.024   6.774  1.1145  0.4034 -2.8402
10283SOL     OW42502   0.685   8.322   1.201 -0.3306 -0.1465 -0.2697
10283SOL    HW142503   0.722   8.316   1.294  0.3125 -1.5788 -0.6171
10283SOL    HW242504   0.589   8.352   1.206  0.2539  1.6356  0.7336
10284SOL     OW42505   7.625   2.681   0.946  0.6592 -0.2589  0.6928
10284SOL    HW142506   7.570   2.642   1.020 -0.6646 -0.7320 -0.5104
10284SOL    HW242507   7.625   2.781   0.952 -1.1300 -0.2223  0.1472
10285SOL     OW42508   1.127   4.357   4.981  0.1372  0.5429  0.1814
10285SOL    HW142509   1.078   4.349   4.894  0.3875  2.5589 -0.1915
10285SOL    HW242510   1.203   4.422   4.970  1.0944 -0.3342  1.5182
10286SOL     OW42511   9.405   2.854   3.070  0.0854  0.6209 -0.2403
10286SOL    HW142512   9.451   2.915   3.006  0.8085  0.1965 -0.1375
10286SOL    HW242513   9.471   2.787   3.105 -0.1905  1.1322  1.2878
10287SOL     OW42514   0.464   0.760   5.226 -0.4565 -0.1986 -0.2693
10287SOL    HW142515   0.486   0.744   5.323  1.9485 -0.4295 -0.8193
10287SOL    HW242516   0.511   0.692   5.170 -3.0634 -1.0176 -1.5317
10288SOL     OW42517   1.327   2.820   0.879  0.2669  0.2672 -0.0553
10288SOL    HW142518   1.337   2.910   0.921  2.6581  0.0502 -0.0934
10288SOL    HW242519   1.315   2.831   0.780 -0.5520  0.5719  0.0721
10289SOL     OW42520   1.819   4.969   7.243 -0.1044 -0.6365  0.2987
10289SOL    HW142521   1.725   4.952   7.269 -0.1894 -1.2795 -0.4082
10289SOL    HW242522   1.881   4.915   7.301 -0.1026  0.6795  1.5412
10290SOL     OW42523   6.211   4.566   0.507 -0.3794 -0.0461  0.0907
10290SOL    HW142524   6.128   4.593   0.556  0.5616  0.0051  1.6960
10290SOL    HW242525   6.250   4.484   0.550  1.8336  1.4413  1.0591
10291SOL     OW42526   7.202   4.489   3.376  0.2891 -0.4585 -0.5334
10291SOL    HW142527   7.287   4.540   3.385  0.9588 -1.2991 -1.9303
10291SOL    HW242528   7.189   4.461   3.281 -2.1245  0.6208 -0.5573
10292SOL     OW42529   9.692   3.577   7.222  0.4538  0.4798 -0.1950
10292SOL    HW142530   9.755   3.499   7.222 -0.8291 -0.5712  0.7552
10292SOL    HW242531   9.612   3.555   7.167  1.0789  1.9756 -1.7442
10293SOL     OW42532   2.329   6.671   1.242 -0.5658  0.4039 -0.1357
10293SOL    HW142533   2.271   6.604   1.288 -0.8197  0.2713 -0.6415
10293SOL    HW242534   2.377   6.726   1.310 -1.5595  0.7505  0.2898
10294SOL     OW42535   8.780   9.358   6.202 -0.0341 -1.0555  0.3946
10294SOL    HW142536   8.808   9.263   6.220 -1.4766 -1.3955  0.8792
10294SOL    HW242537   8.701   9.381   6.258 -0.7389 -0.1065 -0.9629
10295SOL     OW42538   9.140   7.011   7.770 -0.0695  0.0733 -0.7534
10295SOL    HW142539   9.222   7.018   7.826 -0.8771 -0.2015  0.4672
10295SOL    HW242540   9.139   6.923   7.722 -0.4790 -0.6333  0.5446
10296SOL     OW42541   9.940   6.673   4.306 -0.7649 -0.6732  0.4104
10296SOL    HW142542  10.038   6.669   4.327 -0.8168  0.6526  0.9854
10296SOL    HW242543   9.890   6.614   4.370 -0.3137 -1.6959 -0.1626
10297SOL     OW42544   1.936   9.888   3.301 -0.1834 -0.4933  0.8397
10297SOL    HW142545   1.941   9.805   3.356  0.6299 -0.4382  0.8601
10297SOL    HW242546   1.998   9.881   3.223 -1.5112 -0.6611 -0.2067
10298SOL     OW42547   9.385   6.518   4.422  0.2341 -0.0622 -0.6747
10298SOL    HW142548   9.329   6.599   4.404 -0.9598 -0.8272 -0.4175
10298SOL    HW242549   9.478   6.547   4.445 -0.3535  1.2762  0.1037
10299SOL     OW42550   0.917   2.852   4.646  0.2633  0.2025 -0.0461
10299SOL    HW142551   0.869   2.892   4.568 -1.8213 -0.7813  0.6940
10299SOL    HW242552   0.873   2.765   4.671  2.5699 -0.8319  0.5356
10300SOL     OW42553   1.806   5.101   0.661 -0.1012 -0.2106  0.2412
10300SOL    HW142554   1.885   5.084   0.602  0.7171  0.8744  1.0037
10300SOL    HW242555   1.770   5.014   0.694  2.1057 -0.6473  1.5885
10301SOL     OW42556   2.586   7.263   2.534  0.2603  0.3408 -0.3622
10301SOL    HW142557   2.683   7.244   2.546 -0.3458 -3.2659 -0.7355
10301SOL    HW242558   2.547   7.198   2.470 -2.5603  1.3549  0.2654
10302SOL     OW42559   3.461   8.090   0.735 -0.6463 -1.1935  0.2988
10302SOL    HW142560   3.388   8.022   0.740 -2.4773  0.6198 -0.9240
10302SOL    HW242561   3.507   8.083   0.647  0.4236 -2.0644  0.9092
10303SOL     OW42562   0.352   8.436   5.779  0.2113 -0.0819  0.2524
10303SOL    HW142563   0.446   8.426   5.814  0.5933 -0.3227 -0.8467
10303SOL    HW242564   0.326   8.353   5.730 -0.1885  0.4297 -0.3890
10304SOL     OW42565   2.498   2.026   5.634 -0.2139  0.0932 -0.2791
10304SOL    HW142566   2.433   2.101   5.626 -0.9435 -0.4393  0.5938
10304SOL    HW242567   2.451   1.939   5.619  0.3724 -0.2715 -0.0246
10305SOL     OW42568   3.651   8.802   0.880 -0.0782  0.2145  0.1086
10305SOL    HW142569   3.570   8.809   0.938  0.8899  0.2597  1.4813
10305SOL    HW242570   3.669   8.706   0.859  0.2809  0.0985  0.9237
10306SOL     OW42571   9.103   9.146   3.804 -0.2290 -0.5270 -0.4822
10306SOL    HW142572   9.163   9.124   3.881 -2.6847  0.7345  1.8677
10306SOL    HW242573   9.057   9.063   3.772 -0.3388 -0.8157  0.4229
10307SOL     OW42574   2.298   3.762   0.544 -0.6788 -0.0985 -0.5772
10307SOL    HW142575   2.303   3.847   0.595  0.9168 -0.3140 -0.3349
10307SOL    HW242576   2.266   3.780   0.451 -2.4205  0.4575  0.1295
10308SOL     OW42577   9.535   4.517   7.518  0.4020  0.0221 -0.1247
10308SOL    HW142578   9.614   4.507   7.578 -0.2977  1.7953  1.1340
10308SOL    HW242579   9.522   4.433   7.466  3.0419 -0.3235 -0.2733
10309SOL     OW42580   0.101   0.072   2.616 -0.0661  0.2613 -0.2453
10309SOL    HW142581   0.056   0.035   2.698 -1.0483  0.7128 -0.5716
10309SOL    HW242582   0.144  -0.003   2.566  1.1911  0.0767  1.0650
10310SOL     OW42583   4.955   8.209   2.843 -0.6235  0.0310 -0.5505
10310SOL    HW142584   4.885   8.141   2.865 -2.2617  2.0635  0.6611
10310SOL    HW242585   4.919   8.274   2.776  0.3725  0.6844 -0.4671
10311SOL     OW42586   5.824   2.195   6.102  0.2236 -0.6358  0.0613
10311SOL    HW142587   5.849   2.106   6.063  0.5614 -1.4128  1.9889
10311SOL    HW242588   5.787   2.182   6.194  0.9432  1.2818  0.6595
10312SOL     OW42589   6.779   2.288   3.708  0.4616 -0.7259  0.6346
10312SOL    HW142590   6.722   2.206   3.702 -1.4510  0.4447  2.3129
10312SOL    HW242591   6.873   2.265   3.683 -0.3306 -3.1117 -0.2761
10313SOL     OW42592   9.732   7.803   5.836 -0.8162  0.5400 -0.4147
10313SOL    HW142593   9.817   7.757   5.812 -0.5897  0.2580  0.9366
10313SOL    HW242594   9.751   7.881   5.895 -1.3578  1.3755 -1.3268
10314SOL     OW42595   1.016   2.577   2.514  0.1334 -0.3684 -0.4573
10314SOL    HW142596   0.995   2.573   2.611 -0.5163  0.3085 -0.5670
10314SOL    HW242597   0.952   2.521   2.462 -1.3963  1.6122 -0.7800
10315SOL     OW42598   7.363   0.677   0.621 -0.0207  0.6368 -0.3389
10315SOL    HW142599   7.400   0.742   0.555 -0.5434  2.8510  1.4676
10315SOL    HW242600   7.340   0.726   0.706 -0.3533 -1.9399  1.0939
10316SOL     OW42601   0.495   5.040   7.870  0.1781 -0.2716 -0.3796
10316SOL    HW142602   0.552   5.094   7.932  0.1874 -0.8799  0.1573
10316SOL    HW242603   0.490   4.946   7.904  0.7116 -0.7719 -1.6585
10317SOL     OW42604   1.466   5.529   5.560 -0.2251  0.1722  0.2796
10317SOL    HW142605   1.422   5.450   5.518 -0.6786  0.2281  0.6453
10317SOL    HW242606   1.550   5.500   5.606  1.0097  0.3279 -1.8218
10318SOL     OW42607   2.937   8.279   4.384  0.0542 -0.4969  0.3212
10318SOL    HW142608   2.891   8.192   4.402  0.2813 -0.1511  2.6619
10318SOL    HW242609   3.030   8.261   4.350  0.2325 -1.1890  1.1578
10319SOL     OW42610   3.555   3.777   4.733  0.4183 -0.3257 -0.5691
10319SOL    HW142611   3.606   3.703   4.689  0.8689  0.3065 -1.1083
10319SOL    HW242612   3.457   3.761   4.721  0.4411 -1.7626  0.8242
10320SOL     OW42613   1.748   0.595   2.260  0.3032  0.2685  0.6719
10320SOL    HW142614   1.684   0.596   2.182  0.6783  1.0046  0.3740
10320SOL    HW242615   1.798   0.508   2.259 -0.2372 -0.0510  0.5385
10321SOL     OW42616   6.189   0.895   3.038  0.2612 -0.3511  0.1092
10321SOL    HW142617   6.235   0.869   2.953  3.1544 -0.8297  1.7441
10321SOL    HW242618   6.099   0.933   3.017  1.2347  0.2826 -3.1977
10322SOL     OW42619   4.223   4.485   5.798  0.4168 -0.3340 -0.0920
10322SOL    HW142620   4.142   4.440   5.760  1.7157 -2.0312 -0.9204
10322SOL    HW242621   4.279   4.417   5.845  1.4249  0.8118  0.3709
10323SOL     OW42622   3.521   8.783   5.007 -0.2025 -0.2635  0.0457
10323SOL    HW142623   3.584   8.732   4.948  1.3905 -0.6894  2.0533
10323SOL    HW242624   3.427   8.764   4.979  0.3222 -4.6043  0.9224
10324SOL     OW42625   9.279   3.373   4.129  0.7013  0.3533  0.1585
10324SOL    HW142626   9.339   3.447   4.159  1.0914 -0.3354  1.0754
10324SOL    HW242627   9.300   3.290   4.180  0.3803 -0.4440 -0.9890
10325SOL     OW42628   3.985   5.178   6.653  0.6561  0.5615 -0.0454
10325SOL    HW142629   4.004   5.134   6.566 -0.0488 -2.8862  1.4604
10325SOL    HW242630   3.887   5.197   6.659  0.5679  0.0056  0.3256
10326SOL     OW42631   6.335   0.171   7.345 -0.7326  0.1420  0.0141
10326SOL    HW142632   6.328   0.071   7.346  2.6226 -0.1561 -0.0054
10326SOL    HW242633   6.337   0.205   7.439  1.7802 -0.1833  0.1193
10327SOL     OW42634   2.678   9.838   7.700 -0.2995 -0.2372 -0.4661
10327SOL    HW142635   2.628   9.896   7.636  1.9986  0.4257 -1.7285
10327SOL    HW242636   2.613   9.791   7.760 -2.4949 -0.4255 -2.8741
10328SOL     OW42637   1.367   3.782   4.936 -0.2304  0.1584 -0.3721
10328SOL    HW142638   1.420   3.823   4.861  1.7808  0.4316  1.1762
10328SOL    HW242639   1.408   3.806   5.023 -1.9333 -1.0754  0.7988
10329SOL     OW42640   7.989   3.495   4.085  0.1334  0.2214 -0.5676
10329SOL    HW142641   7.993   3.579   4.139  2.1626 -0.0461 -0.2620
10329SOL    HW242642   7.905   3.446   4.106 -1.1784  2.2458 -0.8890
10330SOL     OW42643   3.332   3.589   3.993  0.2128  0.3411 -0.2543
10330SOL    HW142644   3.302   3.501   4.029  0.2154  0.2668 -0.4376
10330SOL    HW242645   3.370   3.644   4.068 -1.4434  0.8934  0.2014
10331SOL     OW42646   0.392   4.608   2.623  0.1779  0.0084  0.3133
10331SOL    HW142647   0.354   4.519   2.649  0.2583  0.6447  2.6766
10331SOL    HW242648   0.434   4.600   2.532 -1.0453 -1.9970 -0.1313
10332SOL     OW42649   0.175   0.187   6.883  0.2501  0.0337 -0.1119
10332SOL    HW142650   0.087   0.171   6.838 -1.1533  4.0958  0.9648
10332SOL    HW242651   0.225   0.259   6.835  1.5498 -0.0075  1.1519
10333SOL     OW42652   4.535   5.856   0.133 -0.2892  0.3200  0.4064
10333SOL    HW142653   4.542   5.793   0.056  0.5573  0.5409  0.3016
10333SOL    HW242654   4.458   5.918   0.119 -1.8417 -1.3988  1.0278
10334SOL     OW42655   4.715   9.682   1.023 -0.0042  0.5720  0.8949
10334SOL    HW142656   4.746   9.757   1.082 -1.7471  2.5681 -0.6063
10334SOL    HW242657   4.662   9.720   0.947  1.7411 -1.9542 -1.6866
10335SOL     OW42658   7.152   5.975   1.838 -0.1799  0.0160 -0.3152
10335SOL    HW142659   7.167   5.878   1.819 -2.5996 -0.5293  0.3827
10335SOL    HW242660   7.227   6.028   1.798  0.6812 -2.0333 -1.5500
10336SOL     OW42661   8.607   1.415   1.382 -0.8040 -0.4369 -0.2516
10336SOL    HW142662   8.530   1.469   1.417 -0.3271 -0.2805  0.5681
10336SOL    HW242663   8.612   1.328   1.430  0.8196  0.4421  1.2256
10337SOL     OW42664   2.339   2.281   0.800 -0.1098 -0.1779 -0.2216
10337SOL    HW142665   2.307   2.194   0.761 -3.1134  0.6310  0.2824
10337SOL    HW242666   2.379   2.337   0.728 -0.3878 -1.0115 -1.0313
10338SOL     OW42667   3.639   0.468   1.025  0.0198  0.1395 -0.4487
10338SOL    HW142668   3.654   0.480   0.927  0.7377  2.8540 -0.0408
10338SOL    HW242669   3.696   0.532   1.076 -1.3344 -0.2941  1.7005
10339SOL     OW42670   4.397   4.644   7.462 -0.1650  0.0875  0.4400
10339SOL    HW142671   4.343   4.614   7.541 -0.1691 -2.0337 -0.3439
10339SOL    HW242672   4.433   4.736   7.480 -0.5950 -0.1386  2.6841
10340SOL     OW42673   8.260   4.353   3.512 -0.5026 -0.9443 -0.2097
10340SOL    HW142674   8.343   4.383   3.557  0.4277 -1.4128 -1.5730
10340SOL    HW242675   8.209   4.433   3.479 -0.7932 -0.6437  0.9726
10341SOL     OW42676   8.566   0.722   0.736  0.3258 -0.5384 -0.4708
10341SOL    HW142677   8.569   0.628   0.703  1.5603 -0.6271 -0.1080
10341SOL    HW242678   8.481   0.737   0.787 -1.7230 -0.3750 -3.7543
10342SOL     OW42679   1.974   4.825   7.058 -0.3100  0.5562 -0.4428
10342SOL    HW142680   1.972   4.821   6.958 -2.3734  0.7314 -0.4239
10342SOL    HW242681   1.956   4.918   7.089  1.2077  0.6883  0.0974
10343SOL     OW42682   2.246   6.578   6.563 -0.2023 -0.1223 -0.1450
10343SOL    HW142683   2.230   6.483   6.538  0.6657  0.0023 -1.1809
10343SOL    HW242684   2.318   6.583   6.632 -1.8828 -0.3818  1.6905
10344SOL     OW42685   8.028   6.950   1.210  0.5145  0.1453  0.1020
10344SOL    HW142686   8.012   7.048   1.195  0.0395  0.0306 -0.1489
10344SOL    HW242687   7.944   6.907   1.243  0.7744 -0.1430  0.3945
10345SOL     OW42688   9.736   2.674   3.560  0.0664 -0.0679  0.1463
10345SOL    HW142689   9.822   2.718   3.585  0.6155 -2.3276  2.4811
10345SOL    HW242690   9.675   2.670   3.639 -1.8018  0.5716 -1.2042
10346SOL     OW42691   9.093   9.500   1.584  0.0072 -0.1857 -0.3449
10346SOL    HW142692   9.065   9.418   1.535 -0.4024 -0.5516  0.4975
10346SOL    HW242693   9.016   9.535   1.639  0.5749 -0.0074  0.3489
10347SOL     OW42694   9.798   3.469   4.486  0.2089  0.3265  0.2730
10347SOL    HW142695   9.801   3.388   4.545  0.2919  1.0025  1.2016
10347SOL    HW242696   9.859   3.539   4.522 -1.1492  1.4423  0.4384
10348SOL     OW42697   3.271   7.038   9.842 -0.2401  0.3118 -0.1630
10348SOL    HW142698   3.342   6.980   9.803 -1.2949  0.0544 -1.7512
10348SOL    HW242699   3.304   7.132   9.848  0.5792  0.0138  0.0386
10349SOL     OW42700   3.517   7.135   6.792 -0.0003 -0.0693 -0.2609
10349SOL    HW142701   3.483   7.228   6.807 -4.3377 -1.7740  1.2118
10349SOL    HW242702   3.573   7.133   6.709 -0.8597  3.6067 -1.0155
10350SOL     OW42703   2.701   0.667   0.933 -0.1876 -0.3390 -0.1425
10350SOL    HW142704   2.694   0.765   0.914  0.7951 -0.5128 -1.5193
10350SOL    HW242705   2.706   0.652   1.031  0.8783  1.0889  0.0449
10351SOL     OW42706   1.372   4.303   4.002  0.3742 -0.1797 -0.1457
10351SOL    HW142707   1.360   4.367   3.926  0.6521  0.2126  0.1379
10351SOL    HW242708   1.364   4.209   3.969  1.0029 -0.0187 -0.7491
10352SOL     OW42709   3.557   9.780   4.138 -0.3562 -0.1297  0.5434
10352SOL    HW142710   3.606   9.839   4.202  1.9605  0.4148 -1.6688
10352SOL    HW242711   3.615   9.702   4.114 -0.9126  0.0318 -1.4077
10353SOL     OW42712   2.667   9.959   2.332  0.3509  0.0373  0.4340
10353SOL    HW142713   2.595  10.019   2.369 -0.4583 -0.3700 -0.4675
10353SOL    HW242714   2.749   9.966   2.389 -0.5547  0.1692  1.7272
10354SOL     OW42715   1.689   2.886   2.092  0.3094 -0.4243  0.8153
10354SOL    HW142716   1.646   2.891   2.002 -1.5889 -0.2148  1.7069
10354SOL    HW242717   1.764   2.952   2.097 -1.0708  1.2231  0.1743
10355SOL     OW42718   8.002   5.239   3.628 -0.0774  0.9326 -0.1549
10355SOL    HW142719   8.081   5.235   3.566  0.8309  0.7013  0.9816
10355SOL    HW242720   7.956   5.327   3.616  0.2594  1.0117 -0.9498
10356SOL     OW42721   3.551   5.652   2.449 -0.0522 -0.1246  0.1875
10356SOL    HW142722   3.452   5.641   2.462 -0.0966  0.2365  0.1487
10356SOL    HW242723   3.577   5.747   2.468  0.3523 -0.3183  0.6101
10357SOL     OW42724   2.764   5.248   3.800 -0.2157  0.2788 -0.2302
10357SOL    HW142725   2.730   5.167   3.848 -0.7414 -0.8773 -2.4537
10357SOL    HW242726   2.691   5.286   3.744  0.6508  1.0032 -0.8761
10358SOL     OW42727   4.078   3.296   4.683 -0.0852  0.2039  0.0723
10358SOL    HW142728   4.019   3.361   4.634 -0.6903 -0.9078 -0.7033
10358SOL    HW242729   4.051   3.202   4.659  1.5769 -0.3278  0.2125
10359SOL     OW42730   0.161   5.168   1.926 -0.5854  0.4298  0.4011
10359SOL    HW142731   0.165   5.264   1.956  1.5584  0.5021 -0.0098
10359SOL    HW242732   0.156   5.165   1.826  1.2129  0.1277  0.2967
10360SOL     OW42733   3.014   3.870   6.799  0.3251  0.3298  0.9954
10360SOL    HW142734   3.030   3.885   6.702  0.7541 -1.2966  0.7934
10360SOL    HW242735   2.918   3.847   6.814  0.1190  1.2317  1.0350
10361SOL     OW42736   4.226   6.103   2.691  0.0265  0.2432 -0.0632
10361SOL    HW142737   4.291   6.174   2.719 -0.1611  0.1495  0.6141
10361SOL    HW242738   4.254   6.066   2.603 -0.1026  1.4478 -0.6304
10362SOL     OW42739   8.601   5.498   2.529 -0.1661  0.2726 -0.6066
10362SOL    HW142740   8.617   5.476   2.625 -0.0547  0.3752 -0.6023
10362SOL    HW242741   8.686   5.526   2.486 -0.2855  0.5680 -0.6478
10363SOL     OW42742   8.291   1.327   1.613 -0.9353  0.2359 -0.1535
10363SOL    HW142743   8.379   1.304   1.655  0.1442  0.9538 -1.9682
10363SOL    HW242744   8.231   1.246   1.615  0.6562 -0.9897 -1.1357
10364SOL     OW42745   0.451   1.194   6.309 -0.4839 -0.0186  0.1215
10364SOL    HW142746   0.490   1.102   6.304 -2.0541 -0.7539  0.9848
10364SOL    HW242747   0.367   1.192   6.364 -0.6754  1.8842 -0.0598
10365SOL     OW42748   1.063   2.834   0.466  0.1877  0.8189  0.2492
10365SOL    HW142749   1.013   2.798   0.545 -0.3106 -0.8071 -0.7874
10365SOL    HW242750   1.007   2.902   0.418 -0.8106 -0.5496 -0.5523
10366SOL     OW42751   6.306   5.137   1.553  0.9769 -0.1415 -0.3714
10366SOL    HW142752   6.385   5.078   1.540  0.4969 -0.8590 -0.0672
10366SOL    HW242753   6.226   5.082   1.579  0.6191  0.6732  0.3106
10367SOL     OW42754   1.239   4.559   6.821 -0.1893 -0.3586  0.0873
10367SOL    HW142755   1.231   4.532   6.724 -0.3628  0.2529 -0.0718
10367SOL    HW242756   1.159   4.525   6.871  0.5202 -1.7788  0.2843
10368SOL     OW42757   7.836   7.804   7.349  0.6355 -0.1346 -0.0712
10368SOL    HW142758   7.776   7.724   7.351  0.1233  0.1663 -2.1616
10368SOL    HW242759   7.928   7.778   7.377  0.0252 -1.0358  1.1340
10369SOL     OW42760   9.058   4.117   6.850 -0.1843 -0.3258 -0.6400
10369SOL    HW142761   8.979   4.153   6.801  0.3591 -0.1957 -1.4328
10369SOL    HW242762   9.140   4.127   6.793  0.2785 -1.1340 -0.1227
10370SOL     OW42763   7.572   6.680   6.930  0.0045 -0.2736  0.1490
10370SOL    HW142764   7.514   6.762   6.926 -1.8170 -1.5707 -0.6812
10370SOL    HW242765   7.659   6.699   6.885 -0.4544  1.1566 -0.1718
10371SOL     OW42766   6.493   2.100   3.894 -0.1194  0.5419  0.0017
10371SOL    HW142767   6.507   2.007   3.928  2.5396  0.2537 -1.7209
10371SOL    HW242768   6.528   2.107   3.801  0.5234  3.5020  0.4111
10372SOL     OW42769   7.504   3.382   6.037  0.2272  0.5767 -0.5265
10372SOL    HW142770   7.576   3.447   6.060  0.2256  0.3308  0.1727
10372SOL    HW242771   7.539   3.316   5.971  0.3482  1.0358 -0.9319
10373SOL     OW42772   6.690   0.827   5.061 -0.6434 -0.2476  0.2158
10373SOL    HW142773   6.780   0.811   5.020 -0.4095  2.0114 -0.2468
10373SOL    HW242774   6.701   0.847   5.159 -0.7566 -1.0606  0.3979
10374SOL     OW42775   8.593   4.590   0.570  0.0656 -0.2615 -0.1176
10374SOL    HW142776   8.682   4.544   0.567  0.7907  1.0966  0.2316
10374SOL    HW242777   8.607   4.689   0.579 -1.4923 -0.1273  0.9558
10375SOL     OW42778   6.897   5.009   0.800 -0.4857  0.5142 -0.4732
10375SOL    HW142779   6.911   4.911   0.819 -4.2900  0.0403  0.2536
10375SOL    HW242780   6.894   5.023   0.701  1.1109  0.0797 -0.5955
10376SOL     OW42781   9.179   0.919   4.003 -0.2282 -0.2794  0.6772
10376SOL    HW142782   9.085   0.904   4.033 -1.0662  3.9381  0.4848
10376SOL    HW242783   9.229   0.970   4.073  1.4932 -1.1768  0.1333
10377SOL     OW42784   9.763   8.196   0.265 -0.4429  0.3781 -0.5861
10377SOL    HW142785   9.817   8.278   0.284  1.2077 -0.8062  0.0634
10377SOL    HW242786   9.826   8.119   0.249 -1.9493 -1.2358  1.0601
10378SOL     OW42787   0.977   3.889   2.096 -0.5693  0.2666  0.1784
10378SOL    HW142788   0.897   3.896   2.036 -0.1395  0.3278 -0.3944
10378SOL    HW242789   1.048   3.837   2.050 -0.1560  0.4944  0.5594
10379SOL     OW42790   4.624   0.288   6.109 -0.2195  0.1233  0.3186
10379SOL    HW142791   4.586   0.270   6.018 -0.8739  0.6374  0.4920
10379SOL    HW242792   4.550   0.307   6.173  0.4007  2.7240  0.3116
10380SOL     OW42793   9.929   9.889   0.156  0.1047  0.6112  0.0845
10380SOL    HW142794   9.969   9.918   0.243 -0.9852  0.3334  0.6829
10380SOL    HW242795   9.997   9.838   0.104  0.2846 -0.5570  1.4381
10381SOL     OW42796   3.004   7.052   4.531  0.2936 -0.3098 -0.2847
10381SOL    HW142797   2.928   7.106   4.497 -0.0367 -1.0035 -0.6679
10381SOL    HW242798   2.993   7.036   4.629 -1.2168 -2.2576 -0.7432
10382SOL     OW42799   0.201   9.079   2.094 -0.0028  0.3978  0.7809
10382SOL    HW142800   0.129   9.009   2.089  0.2065  0.2105  0.4041
10382SOL    HW242801   0.185   9.137   2.174 -0.8064  0.6085  0.4719
10383SOL     OW42802   9.912   5.613   3.022  0.4112 -1.2144  0.0143
10383SOL    HW142803   9.931   5.524   3.064  0.4794 -0.2722  2.0656
10383SOL    HW242804   9.996   5.667   3.017  0.6651 -1.7736 -2.5712
10384SOL     OW42805   9.482   4.656   4.254 -0.3577  0.0872 -0.0042
10384SOL    HW142806   9.535   4.588   4.305  0.9788  0.0553 -1.4297
10384SOL    HW242807   9.459   4.732   4.315  0.5480 -0.3198  0.8623
10385SOL     OW42808   4.906   7.096   3.751  0.0420 -0.3566 -0.1943
10385SOL    HW142809   4.967   7.054   3.818  2.7223  1.0670 -1.6661
10385SOL    HW242810   4.839   7.153   3.798 -0.7069 -2.5633  1.5067
10386SOL     OW42811   2.059   6.384   7.242 -0.6838  0.0552 -0.4103
10386SOL    HW142812   2.131   6.326   7.204 -1.0409  0.8492 -2.3329
10386SOL    HW242813   2.097   6.475   7.260 -1.2063  0.4865 -1.4640
10387SOL     OW42814   1.459   4.517   3.373  0.6544  0.3704 -0.1006
10387SOL    HW142815   1.380   4.572   3.347  1.2830  1.1816 -0.3397
10387SOL    HW242816   1.430   4.424   3.396 -0.3375  0.6177 -0.3477
10388SOL     OW42817   4.526   8.123   7.035 -0.7414  0.1071 -0.1416
10388SOL    HW142818   4.592   8.100   7.106  0.0531  2.0422 -0.2262
10388SOL    HW242819   4.436   8.136   7.076 -0.2503  1.4017  0.5642
10389SOL     OW42820   1.887   9.394   9.978 -0.5575 -0.2251 -0.1730
10389SOL    HW142821   1.857   9.350  10.063  1.1103 -0.2667  0.4165
10389SOL    HW242822   1.943   9.329   9.925  0.4557  0.5866 -0.1232
10390SOL     OW42823   0.466   3.022   2.942 -0.3628 -0.0603  0.1592
10390SOL    HW142824   0.548   3.069   2.909 -1.3173  1.1154 -0.6003
10390SOL    HW242825   0.489   2.929   2.970  1.2548  0.3187  0.1243
10391SOL     OW42826   3.069   9.586   6.187  0.1851  0.4122 -0.6237
10391SOL    HW142827   3.016   9.669   6.175 -1.2928 -0.2505  1.1155
10391SOL    HW242828   3.166   9.607   6.176 -0.1673  2.3614 -0.2174
10392SOL     OW42829   2.653   5.527   2.681 -0.1126 -1.1624 -0.3064
10392SOL    HW142830   2.753   5.529   2.688 -0.2020 -1.3067  1.1426
10392SOL    HW242831   2.626   5.552   2.588  1.2613 -0.8511 -0.6393
10393SOL     OW42832   8.533   3.948   5.160 -0.1522  0.1492 -0.6974
10393SOL    HW142833   8.559   3.940   5.064 -1.1427  1.9907 -1.1368
10393SOL    HW242834   8.451   3.893   5.177 -0.1520  0.0703 -0.9577
10394SOL     OW42835   2.086   3.971   2.961  0.3144  0.0612 -0.8664
10394SOL    HW142836   2.122   4.034   3.029  1.6190 -1.1891 -0.3838
10394SOL    HW242837   2.083   3.878   2.999 -2.7816  0.0050 -1.1169
10395SOL     OW42838   4.641   4.828   3.747 -0.2937 -0.7259  0.2383
10395SOL    HW142839   4.674   4.739   3.778  0.0226 -0.3371  1.0273
10395SOL    HW242840   4.675   4.846   3.654  0.3009 -1.0720  0.3854
10396SOL     OW42841   3.435   6.207   2.708  0.5858 -0.1413 -0.0105
10396SOL    HW142842   3.411   6.276   2.776 -0.0217 -1.4070  1.0942
10396SOL    HW242843   3.533   6.213   2.688  0.2367  2.0703 -1.1362
10397SOL     OW42844   7.837   5.154   2.290  0.0054 -0.2292 -0.3779
10397SOL    HW142845   7.930   5.191   2.302 -0.6280  0.8454  1.5602
10397SOL    HW242846   7.811   5.105   2.373 -0.7655 -1.4523 -1.3398
10398SOL     OW42847   6.740   2.907   1.813  0.7516  0.1454 -0.0488
10398SOL    HW142848   6.727   3.002   1.842  2.5459  0.7023 -0.9835
10398SOL    HW242849   6.746   2.849   1.894  1.9715  1.1678  0.6151
10399SOL     OW42850   9.022   5.222   6.750 -0.2283  0.2523 -0.0796
10399SOL    HW142851   9.064   5.178   6.671  0.4562 -0.3627  0.6137
10399SOL    HW242852   8.936   5.175   6.773 -1.2410  1.4074 -1.3948
10400SOL     OW42853   4.528   2.940   2.018  0.4407  0.0847 -0.0843
10400SOL    HW142854   4.539   2.848   2.055 -0.8872 -0.1996 -0.3833
10400SOL    HW242855   4.611   2.967   1.969 -0.8060 -2.7055 -3.8782
10401SOL     OW42856   6.403   2.261   4.910  0.4558 -0.1946  0.4778
10401SOL    HW142857   6.314   2.221   4.889  0.4181 -0.2656  0.7712
10401SOL    HW242858   6.437   2.311   4.830 -0.4536  0.9425  0.7926
10402SOL     OW42859   1.536   7.063   5.751  0.5344  0.0933 -0.2628
10402SOL    HW142860   1.611   6.998   5.765  0.7313  0.4762  0.4794
10402SOL    HW242861   1.514   7.108   5.838  0.2930  0.9066 -0.7421
10403SOL     OW42862   5.145   8.264   1.582  0.2315 -0.3113  0.4804
10403SOL    HW142863   5.213   8.294   1.648  2.3593 -4.0524  0.1663
10403SOL    HW242864   5.063   8.232   1.630  1.2151 -1.7125  1.2508
10404SOL     OW42865   7.671   2.540   2.874  0.3674 -0.2010  0.6041
10404SOL    HW142866   7.732   2.614   2.902  0.1617 -0.1028  0.7992
10404SOL    HW242867   7.584   2.550   2.922  0.6084 -1.0055  1.2215
10405SOL     OW42868   9.627   3.804   6.685 -1.0735 -0.1236 -0.1675
10405SOL    HW142869   9.662   3.867   6.754  0.6064 -1.3975  0.1839
10405SOL    HW242870   9.598   3.856   6.604 -0.0984  1.1275  0.2736
10406SOL     OW42871   8.514   4.770   1.509  0.0704 -0.3880  0.1597
10406SOL    HW142872   8.516   4.836   1.583  2.0903 -1.3848  1.0108
10406SOL    HW242873   8.420   4.735   1.498 -0.1735 -0.4845  2.4481
10407SOL     OW42874   4.837   6.297   3.174 -0.0219  0.1647  0.0144
10407SOL    HW142875   4.924   6.260   3.206 -0.2758  0.1889  0.7536
10407SOL    HW242876   4.836   6.396   3.186 -0.3892  0.0933  0.6032
10408SOL     OW42877   8.384   5.009   5.772  0.4827  0.0409 -0.0722
10408SOL    HW142878   8.334   5.003   5.685  4.0395  2.0718 -2.4260
10408SOL    HW242879   8.350   5.086   5.825  0.3238  0.7079 -1.1217
10409SOL     OW42880   3.335   1.719   2.659 -0.6347  0.4134  0.7613
10409SOL    HW142881   3.337   1.791   2.729 -1.1098 -1.1091  2.3869
10409SOL    HW242882   3.330   1.629   2.704 -1.6221 -0.5671 -1.2496
10410SOL     OW42883   6.617   7.023   3.747 -0.0720 -0.3170  0.0701
10410SOL    HW142884   6.544   7.091   3.734  0.3834  0.0922 -0.3435
10410SOL    HW242885   6.654   6.997   3.658  0.6329 -0.1452  0.3078
10411SOL     OW42886   3.732   0.268   3.024 -0.6125 -0.1569 -0.4826
10411SOL    HW142887   3.696   0.197   2.964 -0.8008  0.3828 -1.0103
10411SOL    HW242888   3.829   0.252   3.041 -0.5791 -0.3564 -0.8692
10412SOL     OW42889   3.281   0.426   5.979  0.4048  0.1777  0.0999
10412SOL    HW142890   3.216   0.480   5.926  1.4213  0.6641 -0.6636
10412SOL    HW242891   3.248   0.416   6.073 -0.3944  1.0805 -0.0824
10413SOL     OW42892   2.249   0.500   2.600  0.3292 -0.5583 -0.1979
10413SOL    HW142893   2.279   0.441   2.675 -0.2427 -1.0000 -0.3046
10413SOL    HW242894   2.199   0.445   2.533  1.3763 -0.2854 -1.2200
10414SOL     OW42895   9.642   6.365   0.689 -0.5283  0.4932 -0.4691
10414SOL    HW142896   9.741   6.355   0.675 -0.8133 -1.0403 -1.5622
10414SOL    HW242897   9.620   6.344   0.784  0.0938 -0.1797 -0.4605
10415SOL     OW42898   3.574   9.872   2.698  0.0262 -0.5966  0.0374
10415SOL    HW142899   3.569   9.782   2.742  2.0381  0.5392  2.7150
10415SOL    HW242900   3.551   9.943   2.764 -0.3502  0.9485 -1.7262
10416SOL     OW42901   4.792   8.021   1.549  0.5146  0.5968 -0.3227
10416SOL    HW142902   4.821   7.990   1.458  1.6121  1.1109 -0.1508
10416SOL    HW242903   4.860   8.084   1.586 -0.8705  1.9322  0.0302
10417SOL     OW42904   1.067   9.206   5.997  0.1937 -0.7689  0.0839
10417SOL    HW142905   0.981   9.159   6.015 -0.6164  0.7706  0.2331
10417SOL    HW242906   1.076   9.222   5.899 -0.8683  1.3030  0.3135
10418SOL     OW42907   1.286   2.408   5.101 -0.5903  0.1222  0.0036
10418SOL    HW142908   1.209   2.466   5.074 -0.8470 -0.2755 -0.1367
10418SOL    HW242909   1.360   2.465   5.136  0.3856  0.8233 -3.0163
10419SOL     OW42910   7.096   0.270   2.860  0.2430  0.1707 -0.6006
10419SOL    HW142911   7.046   0.356   2.875 -0.0549  0.0603 -0.9415
10419SOL    HW242912   7.078   0.238   2.767  1.1440  0.2537 -0.8013
10420SOL     OW42913   1.086   8.731   6.621  0.5614 -0.1939  0.5587
10420SOL    HW142914   1.109   8.656   6.559  1.5745 -0.4715  1.2642
10420SOL    HW242915   1.156   8.739   6.692 -0.9251 -0.3284  2.0757
10421SOL     OW42916   1.268   4.424   2.261  0.4762  0.1440  0.1137
10421SOL    HW142917   1.330   4.350   2.288 -0.6796 -1.5261 -1.5996
10421SOL    HW242918   1.193   4.431   2.327 -0.1820 -1.2149 -0.4561
10422SOL     OW42919   2.052   8.013   1.167  0.0657  0.1051 -0.3217
10422SOL    HW142920   2.019   8.099   1.126  0.1082 -0.4585 -1.5361
10422SOL    HW242921   2.128   7.977   1.113  0.6134 -0.2564  0.6822
10423SOL     OW42922   7.047   7.724   4.993  0.6525 -0.0578 -0.1630
10423SOL    HW142923   7.015   7.819   5.001 -1.3799 -0.7967  0.9392
10423SOL    HW242924   7.028   7.690   4.901  0.6303  0.3472 -0.3099
10424SOL     OW42925   9.930   4.702   7.046 -0.0855  0.4301  0.3597
10424SOL    HW142926   9.832   4.699   7.064 -0.2312 -0.0447 -0.5196
10424SOL    HW242927   9.978   4.646   7.113 -0.5026 -0.2156  0.1141
10425SOL     OW42928   9.171   7.647   5.252  0.0172  0.3578 -0.1692
10425SOL    HW142929   9.266   7.645   5.222 -0.0560  0.0156 -0.3796
10425SOL    HW242930   9.154   7.572   5.316  0.6648  2.1905  2.2540
10426SOL     OW42931   0.685   9.517   2.564 -0.1745 -0.9091  0.1092
10426SOL    HW142932   0.658   9.475   2.477 -1.8026  1.9334 -0.8557
10426SOL    HW242933   0.603   9.530   2.620  0.4485 -0.0859  0.8330
10427SOL     OW42934   3.497   2.010   6.124 -0.3417  0.3671  0.7675
10427SOL    HW142935   3.470   1.994   6.030  1.8152  1.3880 -0.0740
10427SOL    HW242936   3.462   2.099   6.154  0.0670  0.6260  0.4821
10428SOL     OW42937   2.247   4.116   5.035  0.1105 -0.3595 -0.0504
10428SOL    HW142938   2.175   4.185   5.019 -0.0304 -0.0018  1.9910
10428SOL    HW242939   2.336   4.162   5.041  0.0281 -0.3503  1.2209
10429SOL     OW42940   8.165   9.810   7.966 -0.1386 -0.1518 -0.4107
10429SOL    HW142941   8.100   9.830   8.039 -0.9551  1.0947 -1.4717
10429SOL    HW242942   8.143   9.721   7.926  1.0543 -1.4170  1.6387
10430SOL     OW42943   7.244   9.759   3.640 -0.6298 -0.0131 -0.5355
10430SOL    HW142944   7.269   9.662   3.639  1.2924  0.4574 -1.8810
10430SOL    HW242945   7.316   9.811   3.686 -1.2856  0.8571 -0.4868
10431SOL     OW42946   3.518   2.739   0.212 -1.1220  0.4165 -0.1509
10431SOL    HW142947   3.421   2.716   0.208 -1.1773  0.6900 -0.3768
10431SOL    HW242948   3.543   2.760   0.307 -1.5301  1.3982 -0.2492
10432SOL     OW42949   7.820   5.126   7.327  0.2787 -0.2050  0.1253
10432SOL    HW142950   7.777   5.138   7.416 -3.3281  1.1465 -1.6783
10432SOL    HW242951   7.803   5.034   7.293 -0.0081 -0.1016 -0.0086
10433SOL     OW42952   8.738   6.001   5.006  0.5590  0.3804 -0.1005
10433SOL    HW142953   8.793   6.064   4.951  0.6963  0.0392 -0.3546
10433SOL    HW242954   8.772   5.908   4.994  1.8395  0.5354  2.0577
10434SOL     OW42955   5.438   7.381   1.808 -0.0415  0.1738  0.1959
10434SOL    HW142956   5.376   7.390   1.730 -0.9008  1.8427  1.0228
10434SOL    HW242957   5.418   7.296   1.857 -1.3393  0.4317  0.1449
10435SOL     OW42958   0.100   7.384   4.117  0.1210 -0.0262  0.0585
10435SOL    HW142959   0.175   7.319   4.113  2.4356  2.5145  0.5095
10435SOL    HW242960   0.136   7.476   4.136 -3.2396  0.9879  2.0786
10436SOL     OW42961   5.275   1.943   5.503  0.0141 -0.1043 -0.0143
10436SOL    HW142962   5.202   1.972   5.441  0.4796 -0.3979 -0.7010
10436SOL    HW242963   5.363   1.979   5.471  0.8709 -3.5651 -1.8359
10437SOL     OW42964   8.904   8.412   4.567 -0.1509  0.3220  0.0705
10437SOL    HW142965   8.877   8.325   4.527 -1.2860  0.9634 -0.6041
10437SOL    HW242966   8.839   8.437   4.639 -0.8737  1.4278 -0.9242
10438SOL     OW42967   9.443   3.755   2.890  0.2201 -0.6818  0.4974
10438SOL    HW142968   9.384   3.714   2.959 -1.5818 -0.6738 -0.9967
10438SOL    HW242969   9.389   3.815   2.831  2.3970  2.1734  1.2984
10439SOL     OW42970   8.735   5.932   6.641  0.0546 -0.0368  0.3329
10439SOL    HW142971   8.796   5.854   6.654  1.7212  0.9612 -1.2534
10439SOL    HW242972   8.774   6.013   6.684 -2.4690 -0.3680  3.4293
10440SOL     OW42973   0.828   1.158   3.189 -0.5622 -0.0313 -0.0670
10440SOL    HW142974   0.923   1.175   3.163 -0.2635  0.7971  1.5305
10440SOL    HW242975   0.775   1.136   3.107 -0.1177  4.6637 -1.7421
10441SOL     OW42976   7.187   4.958   2.660  0.0748 -0.1660  0.1705
10441SOL    HW142977   7.216   4.884   2.721  0.8113  2.0542  2.6158
10441SOL    HW242978   7.105   5.002   2.697 -1.0756 -0.4757 -1.8929
10442SOL     OW42979   9.647   4.801   1.340 -0.2436 -0.1147 -0.2357
10442SOL    HW142980   9.556   4.784   1.301 -1.4353  3.0410  0.9548
10442SOL    HW242981   9.692   4.875   1.290  0.8136 -0.2711  0.4606
10443SOL     OW42982   2.726   5.050   2.767 -0.0140 -0.0513 -0.3267
10443SOL    HW142983   2.635   5.054   2.724  0.9881 -0.7756 -2.6240
10443SOL    HW242984   2.767   5.141   2.767 -1.1338  0.4790  1.6711
10444SOL     OW42985   6.168   3.401   1.323  0.3215 -0.0858 -0.2838
10444SOL    HW142986   6.163   3.309   1.361 -1.4185 -0.0438 -0.3631
10444SOL    HW242987   6.224   3.459   1.383  0.9529 -1.0436  0.0597
10445SOL     OW42988   9.154   1.599   4.710  0.5222  0.5284 -0.5715
10445SOL    HW142989   9.156   1.681   4.653  0.5208 -0.4392 -2.0002
10445SOL    HW242990   9.059   1.572   4.726  0.5327  0.5601 -0.4634
10446SOL     OW42991   1.249   0.518   1.078 -0.3305 -0.4223  0.5429
10446SOL    HW142992   1.188   0.476   1.145 -1.8636  1.2053  0.1953
10446SOL    HW242993   1.267   0.452   1.005  0.1033 -1.6718  1.7688
10447SOL     OW42994   3.035   2.336   7.188 -0.5843  0.3589 -0.8330
10447SOL    HW142995   3.118   2.281   7.178  0.0408  0.6678  2.1661
10447SOL    HW242996   2.978   2.326   7.106  1.6727 -1.0705 -2.2811
10448SOL     OW42997   7.087   6.864   5.251 -0.1300  0.2167 -0.5686
10448SOL    HW142998   7.115   6.882   5.156  2.4386 -0.9226 -0.0732
10448SOL    HW242999   7.158   6.897   5.313 -0.6942 -1.2273  0.8617
10449SOL     OW43000   3.957   4.366   5.743 -0.3796  0.3624  0.0535
10449SOL    HW143001   3.908   4.418   5.813 -0.7272 -1.2897  1.0501
10449SOL    HW243002   3.911   4.376   5.655  0.0663  2.4618  0.0217
10450SOL     OW43003   3.533   9.794   6.329 -0.4016 -0.2064 -0.5228
10450SOL    HW143004   3.611   9.846   6.293 -1.6055  1.0456 -1.3936
10450SOL    HW243005   3.500   9.838   6.413 -0.0766 -0.8359 -0.0583
10451SOL     OW43006   4.497   5.207   2.133 -0.1014 -0.2627 -0.0397
10451SOL    HW143007   4.510   5.220   2.231  1.7640 -1.4620 -0.1011
10451SOL    HW243008   4.418   5.148   2.117 -0.3221 -0.1847  0.7326
10452SOL     OW43009   0.136   4.773   0.271  0.0941  0.4437  0.7300
10452SOL    HW143010   0.218   4.735   0.314 -0.1416  1.0636  1.7339
10452SOL    HW243011   0.057   4.715   0.293 -0.5562  2.3225  3.5797
10453SOL     OW43012   8.626   4.862   0.563 -0.2753  0.4817 -0.1455
10453SOL    HW143013   8.682   4.876   0.482 -1.4781 -1.1182 -1.2727
10453SOL    HW243014   8.554   4.932   0.566 -0.7501  0.0418 -0.9384
10454SOL     OW43015   3.111   1.785   2.489 -0.4587 -0.2708  0.4202
10454SOL    HW143016   3.073   1.871   2.524  0.1434  0.5377 -0.8925
10454SOL    HW243017   3.204   1.773   2.523 -0.5563 -0.4358  0.6353
10455SOL     OW43018   4.190   2.513   0.112 -0.5974  0.0006  0.5803
10455SOL    HW143019   4.157   2.504   0.018 -1.4990 -0.3402  0.9240
10455SOL    HW243020   4.290   2.507   0.113 -0.5304  0.8950 -0.4540
10456SOL     OW43021   2.006   4.914   3.663  0.1007 -0.3868  0.2977
10456SOL    HW143022   2.044   4.827   3.632 -1.9943 -0.8086 -1.2264
10456SOL    HW243023   2.059   4.989   3.624  1.2545 -0.9593  0.7356
10457SOL     OW43024   2.271   8.910   4.334 -0.2543 -0.0171  0.1589
10457SOL    HW143025   2.356   8.862   4.355 -1.2493 -1.1206  1.8225
10457SOL    HW243026   2.267   8.996   4.384 -1.5232 -1.4929  2.7295
10458SOL     OW43027   0.906   1.854   0.893 -0.2589 -0.4641 -0.0230
10458SOL    HW143028   0.844   1.792   0.845 -1.2670  1.2973 -1.0371
10458SOL    HW243029   1.000   1.819   0.887 -0.7211 -1.5091 -1.1949
10459SOL     OW43030   0.591   4.554   6.667  0.6237 -0.5230  0.0342
10459SOL    HW143031   0.552   4.485   6.605  0.4030 -1.3616  1.0981
10459SOL    HW243032   0.518   4.602   6.715  0.7875  0.2937 -0.5215
10460SOL     OW43033   2.299   5.177   4.522 -0.0660  0.0340  0.1267
10460SOL    HW143034   2.391   5.216   4.517 -0.1638  0.2668  0.1807
10460SOL    HW243035   2.268   5.153   4.430 -0.3388  0.8446  0.0011
10461SOL     OW43036   5.017   1.380   5.754 -0.9308 -0.6243  0.2721
10461SOL    HW143037   5.049   1.362   5.847 -1.1329  1.6570  0.8074
10461SOL    HW243038   5.032   1.298   5.698  1.2355 -1.2898  1.7366
10462SOL     OW43039   1.317   6.025   3.042 -0.2680 -0.0176 -0.7598
10462SOL    HW143040   1.275   6.063   2.959 -0.7025  2.1378  0.4167
10462SOL    HW243041   1.391   6.084   3.072 -0.0059 -0.8774  0.3004
10463SOL     OW43042   0.811   9.078   3.559 -0.1149 -0.1087  0.1298
10463SOL    HW143043   0.896   9.031   3.535  0.2791  0.2257  0.8499
10463SOL    HW243044   0.827   9.139   3.637 -0.8070  0.6252 -0.2924
10464SOL     OW43045   3.529   0.703   7.127 -0.0211 -0.1378 -0.0629
10464SOL    HW143046   3.502   0.752   7.209 -2.3960  0.3119 -1.0915
10464SOL    HW243047   3.606   0.750   7.084  0.9474 -0.1286  1.6344
10465SOL     OW43048   6.384   1.486   5.570  0.6685  0.3024  0.0936
10465SOL    HW143049   6.476   1.505   5.535  1.0427 -0.3430  0.7281
10465SOL    HW243050   6.351   1.565   5.621  1.2164  0.2055  0.5985
10466SOL     OW43051   1.768   1.582   0.461  0.3487 -0.0907  0.4200
10466SOL    HW143052   1.717   1.496   0.458 -1.0556  0.6780  1.3256
10466SOL    HW243053   1.721   1.650   0.404  0.3697  0.6142  1.2334
10467SOL     OW43054   0.308   5.162   4.251  0.5531  0.1211  0.2725
10467SOL    HW143055   0.221   5.115   4.235  0.9474 -0.2909 -0.6507
10467SOL    HW243056   0.370   5.103   4.302  0.3990  0.3120  0.6860
10468SOL     OW43057   3.550   8.285   3.835  0.5018 -0.1269 -0.1395
10468SOL    HW143058   3.529   8.377   3.870 -0.6604  0.2614 -1.7575
10468SOL    HW243059   3.474   8.223   3.857 -1.0181  0.5109 -3.2538
10469SOL     OW43060   8.185   8.861   5.621  0.3758  0.3103 -0.0785
10469SOL    HW143061   8.155   8.844   5.715  0.7519  1.8285  0.3389
10469SOL    HW243062   8.273   8.817   5.605 -0.0876 -0.6640  0.0026
10470SOL     OW43063   3.172   3.254   3.885 -0.3231  0.2781  0.9494
10470SOL    HW143064   3.132   3.179   3.832 -0.3196 -0.2066  1.6310
10470SOL    HW243065   3.199   3.328   3.822  1.0147 -0.8913  0.0982
10471SOL     OW43066   5.419   6.480   1.544  0.6354  0.1370 -0.1447
10471SOL    HW143067   5.443   6.545   1.616  1.4282 -0.0299 -0.2477
10471SOL    HW243068   5.445   6.387   1.573 -0.0572 -0.0764 -0.1918
10472SOL     OW43069   9.806   5.501   0.057 -0.0140  0.0168  0.6588
10472SOL    HW143070   9.756   5.422   0.024  0.1124  0.9330 -1.8154
10472SOL    HW243071   9.753   5.584   0.039 -0.0508  0.5391  3.0155
10473SOL     OW43072   7.644   3.325   1.255  0.5043  0.5150  0.5030
10473SOL    HW143073   7.579   3.273   1.200  1.4079  0.3020 -0.3848
10473SOL    HW243074   7.599   3.358   1.338  0.0812 -2.1729  1.3681
10474SOL     OW43075   8.904   2.999   4.307  0.1164  0.7661 -0.0288
10474SOL    HW143076   8.944   2.917   4.348 -1.6960 -0.3397 -0.4025
10474SOL    HW243077   8.928   3.003   4.210  1.6135  1.5953  0.3636
10475SOL     OW43078   0.122   1.390   5.878  0.1099 -0.5828 -0.1693
10475SOL    HW143079   0.123   1.389   5.778 -2.1081  1.3737 -0.2419
10475SOL    HW243080   0.119   1.296   5.912 -0.7238 -1.2193 -1.9596
10476SOL     OW43081   2.036   4.249   1.320 -0.3793 -0.1897 -0.4385
10476SOL    HW143082   2.118   4.300   1.344 -0.4428 -0.9167  1.4778
10476SOL    HW243083   2.007   4.194   1.399 -3.5183  1.1742 -0.5663
10477SOL     OW43084   1.314   2.565   4.411  0.0590 -0.2640 -0.0096
10477SOL    HW143085   1.243   2.594   4.346 -1.8153 -0.7101  1.7807
10477SOL    HW243086   1.355   2.646   4.453  1.7912  0.0604 -2.2157
10478SOL     OW43087   0.322   3.579   7.047 -0.1514 -0.3091  0.3635
10478SOL    HW143088   0.292   3.510   6.982 -1.7442 -0.2325  0.9873
10478SOL    HW243089   0.348   3.535   7.133  0.2391 -0.2599  0.2704
10479SOL     OW43090   8.015   7.109   6.693  0.4691  0.7161  0.5911
10479SOL    HW143091   8.036   7.088   6.789 -3.0298  2.4404  1.8240
10479SOL    HW243092   7.939   7.053   6.662  1.3403  0.4407 -1.1084
10480SOL     OW43093   9.301   9.045   6.368  0.0900  0.1186  0.0291
10480SOL    HW143094   9.231   9.045   6.297 -0.0423 -0.2810  0.1610
10480SOL    HW243095   9.384   9.089   6.333  0.1563 -0.4367 -0.4990
10481SOL     OW43096   9.086   2.977   0.785  0.1388  0.0899 -0.0414
10481SOL    HW143097   9.145   2.902   0.755 -0.4388  0.0171 -0.9952
10481SOL    HW243098   9.005   2.940   0.829  0.0855  0.1658 -0.0742
10482SOL     OW43099   3.289   7.456   4.150 -0.3298 -0.4948  1.2277
10482SOL    HW143100   3.281   7.393   4.227  0.1408 -0.4713  1.3021
10482SOL    HW243101   3.362   7.522   4.169  1.1468 -1.7148 -0.0894
10483SOL     OW43102   0.003   3.857   7.069 -0.4034 -0.0037  0.5542
10483SOL    HW143103  -0.087   3.884   7.103 -0.6513 -0.0344 -0.0770
10483SOL    HW243104   0.052   3.807   7.141 -1.5099 -1.3898  0.3786
10484SOL     OW43105   9.776   3.482   4.829 -0.2071  0.3021 -0.1104
10484SOL    HW143106   9.842   3.454   4.898 -1.1917 -0.2338  0.6192
10484SOL    HW243107   9.752   3.578   4.844 -0.1660  0.2834  0.0792
10485SOL     OW43108   3.373   5.578   4.407  0.2582 -0.3683  0.3787
10485SOL    HW143109   3.273   5.579   4.406  0.2509 -0.5765  0.8009
10485SOL    HW243110   3.406   5.506   4.346  0.1464 -0.4165  0.3744
10486SOL     OW43111   2.701   0.941   6.748  0.1589  0.1456 -0.5681
10486SOL    HW143112   2.687   0.878   6.824  0.7861 -1.3685 -1.6661
10486SOL    HW243113   2.681   1.034   6.777 -0.6624 -0.5400  1.1340
10487SOL     OW43114   2.500   6.052   4.190 -0.2819 -0.1145  0.2622
10487SOL    HW143115   2.526   6.010   4.103  0.8272  0.8586  0.1010
10487SOL    HW243116   2.549   6.139   4.201  0.3464 -0.6873  2.2913
10488SOL     OW43117   7.914   3.769   2.258  0.2591  0.3868 -0.2322
10488SOL    HW143118   7.983   3.716   2.209 -0.8261 -3.0994  1.8821
10488SOL    HW243119   7.824   3.752   2.218 -0.0018  1.2505 -0.0216
10489SOL     OW43120   6.234   0.291   6.048 -0.3503  0.2490 -0.5251
10489SOL    HW143121   6.175   0.239   6.110 -1.3355  1.0385 -0.7930
10489SOL    HW243122   6.213   0.266   5.954  2.9688 -2.9252 -0.5080
10490SOL     OW43123   0.899   6.685   6.507 -0.0749  0.2869  0.2766
10490SOL    HW143124   0.836   6.733   6.569 -0.0211  0.3536  0.2803
10490SOL    HW243125   0.914   6.740   6.425 -0.9748 -0.2809 -0.2755
10491SOL     OW43126   9.540   0.301   7.118  0.4551  0.0526 -0.0613
10491SOL    HW143127   9.544   0.310   7.019 -0.1610 -0.0466 -0.0986
10491SOL    HW243128   9.447   0.321   7.149  0.5436 -0.3454  0.4512
10492SOL     OW43129   2.801   9.608   2.318  0.0706  0.1494  0.0959
10492SOL    HW143130   2.773   9.665   2.241  0.9407  0.2305 -0.1698
10492SOL    HW243131   2.752   9.636   2.401 -0.3202  0.5443 -0.2686
10493SOL     OW43132   9.123   6.688   7.007 -0.0453  0.4609 -0.6351
10493SOL    HW143133   9.137   6.647   6.917  2.2206 -0.2398  0.0080
10493SOL    HW243134   9.122   6.616   7.077 -2.4732  0.9247 -0.1328
10494SOL     OW43135   7.113   9.082   3.630 -0.1103  0.3559  0.5131
10494SOL    HW143136   7.149   9.139   3.556  0.4463  0.3783  0.7997
10494SOL    HW243137   7.022   9.115   3.657 -0.5856 -0.0355 -0.5882
10495SOL     OW43138   8.626   3.844   3.878 -0.0693 -0.4380 -0.4760
10495SOL    HW143139   8.530   3.819   3.885 -0.0574 -0.4933 -0.5120
10495SOL    HW243140   8.668   3.845   3.970  0.1093 -1.2613 -0.5493
10496SOL     OW43141   9.761   7.784   3.096  0.2273  0.4319 -0.3165
10496SOL    HW143142   9.709   7.705   3.064  0.5139  0.6711 -1.4104
10496SOL    HW243143   9.838   7.753   3.151 -0.6025  0.0356  0.6277
10497SOL     OW43144   4.257   7.776   2.795 -0.0939 -0.2615  0.5180
10497SOL    HW143145   4.295   7.861   2.757  2.4591 -0.4319  2.5240
10497SOL    HW243146   4.276   7.700   2.733  0.8123  0.0670  0.3805
10498SOL     OW43147   8.741   0.712   0.440  0.5108 -0.5167  0.2545
10498SOL    HW143148   8.730   0.810   0.429 -2.0753 -0.7693  0.0934
10498SOL    HW243149   8.812   0.692   0.507  1.3772  1.4349 -0.0717
10499SOL     OW43150   0.228   8.635   5.176  0.6940 -0.4492 -0.3458
10499SOL    HW143151   0.234   8.711   5.242 -0.6026 -1.5018  1.0289
10499SOL    HW243152   0.305   8.572   5.191  2.4710  1.1783 -2.3011
10500SOL     OW43153   5.884   0.976   2.990  0.2194 -0.0666 -0.6283
10500SOL    HW143154   5.912   1.057   2.939  2.6838 -1.6648 -1.8956
10500SOL    HW243155   5.899   0.991   3.087 -0.0175  1.2409 -0.7804
10501SOL     OW43156   5.589   7.447   4.993 -0.1645 -0.0393  0.3002
10501SOL    HW143157   5.574   7.430   5.090  0.7890  0.1517  0.4811
10501SOL    HW243158   5.686   7.435   4.971 -0.4809 -0.7428 -0.7569
10502SOL     OW43159   6.373   9.680   5.550 -0.5160  0.1377 -0.3756
10502SOL    HW143160   6.311   9.735   5.605  0.0686  0.7980 -0.3621
10502SOL    HW243161   6.353   9.694   5.453 -0.0471  0.7853 -0.3898
10503SOL     OW43162   2.185   4.437   1.676 -0.0076 -0.4626  0.5207
10503SOL    HW143163   2.194   4.507   1.747  0.9639 -1.5474  1.4885
10503SOL    HW243164   2.249   4.362   1.695  0.7349 -0.4625 -1.8781
10504SOL     OW43165   1.000   6.831   7.062 -0.5678 -0.3981  0.1092
10504SOL    HW143166   1.033   6.737   7.066  1.5635  0.2872 -0.3273
10504SOL    HW243167   0.984   6.857   6.967  0.4801  0.1819  0.0745
10505SOL     OW43168   1.570   6.743   2.344 -0.5574  0.1513  0.1333
10505SOL    HW143169   1.526   6.654   2.349 -1.9613  0.9091  2.6480
10505SOL    HW243170   1.519   6.803   2.282 -0.2966 -0.4353 -0.6437
10506SOL     OW43171   5.976   2.497   1.981  0.0910 -0.0902  0.5061
10506SOL    HW143172   5.984   2.403   1.948 -0.7412  0.5768 -1.6901
10506SOL    HW243173   5.910   2.501   2.056  3.0054 -1.8550  3.3062
10507SOL     OW43174   4.980   9.794   8.157  0.2287 -0.4358 -0.0917
10507SOL    HW143175   5.059   9.804   8.096  3.4709  0.6517  4.0993
10507SOL    HW243176   4.970   9.697   8.182  1.8399 -0.2536  1.3355
10508SOL     OW43177   9.919   9.611   4.317  0.4266 -0.1991  0.1792
10508SOL    HW143178   9.924   9.690   4.379  1.1908 -0.6077  0.6516
10508SOL    HW243179   9.856   9.631   4.242  1.9013  1.5358 -0.6456
10509SOL     OW43180   7.774   3.079   6.653 -0.2951  0.0834 -0.1608
10509SOL    HW143181   7.805   3.065   6.747  1.2855  1.2193 -0.4842
10509SOL    HW243182   7.748   3.175   6.642  1.2444  0.3937 -1.3332
10510SOL     OW43183   3.170   1.171   1.233 -0.1607  0.4597  0.2593
10510SOL    HW143184   3.099   1.241   1.225 -1.4268 -0.8184 -0.1768
10510SOL    HW243185   3.126   1.081   1.239  1.4208 -0.2775  0.9336
10511SOL     OW43186   8.669   6.445   1.609  0.3137  0.1940 -0.2633
10511SOL    HW143187   8.654   6.424   1.512 -0.3076  0.1366 -0.1576
10511SOL    HW243188   8.710   6.366   1.654 -0.7636 -0.3232 -0.1618
10512SOL     OW43189   2.949   5.027   3.052  0.2316 -0.2144  0.5754
10512SOL    HW143190   2.993   4.986   3.133 -0.4836 -2.3686 -0.0896
10512SOL    HW243191   2.882   5.095   3.081  1.3771  0.4563  1.7169
10513SOL     OW43192   1.908   8.394   3.606 -0.1227  0.0068  0.1433
10513SOL    HW143193   1.991   8.338   3.603 -0.9601 -1.2602  0.2944
10513SOL    HW243194   1.871   8.403   3.513  2.1594  3.6417 -0.5281
10514SOL     OW43195   1.809   4.385   0.868  0.3763 -0.4511  0.1977
10514SOL    HW143196   1.810   4.406   0.965  0.8794  3.8221 -0.6131
10514SOL    HW243197   1.739   4.441   0.822  1.0145 -1.4401 -2.0822
10515SOL     OW43198   0.730   1.327   1.947 -0.1521 -0.6659  0.6446
10515SOL    HW143199   0.636   1.293   1.940 -0.5615  0.1527  2.0479
10515SOL    HW243200   0.787   1.257   1.989 -0.6608 -0.2536  2.0538
10516SOL     OW43201   8.816   9.205   5.229  0.0238 -0.3597 -0.0619
10516SOL    HW143202   8.838   9.293   5.271  0.2843 -0.1777 -0.5717
10516SOL    HW243203   8.839   9.208   5.132 -0.1429 -0.9308 -0.1218
10517SOL     OW43204   3.183   3.345   7.857 -0.4734  0.3797 -0.2062
10517SOL    HW143205   3.181   3.320   7.760 -0.5520  1.5726 -0.5151
10517SOL    HW243206   3.231   3.273   7.909  0.0195 -0.0176 -1.1991
10518SOL     OW43207   1.423   0.189   5.414 -0.1080  0.3142  0.0328
10518SOL    HW143208   1.361   0.169   5.489 -1.0417 -0.9481 -1.0715
10518SOL    HW243209   1.394   0.141   5.332  2.8058 -1.0054 -0.2946
10519SOL     OW43210   1.646   3.431   1.518 -0.2646 -0.1118 -0.4060
10519SOL    HW143211   1.717   3.458   1.453 -1.2043  1.5602 -0.7675
10519SOL    HW243212   1.602   3.513   1.555 -1.5709 -1.1176  0.2960
10520SOL     OW43213   4.052   4.201   4.057  0.3758  0.1950 -0.7410
10520SOL    HW143214   4.098   4.113   4.055  1.4006  0.6059  2.1049
10520SOL    HW243215   4.100   4.265   3.997  0.9837 -0.5333 -1.0399
10521SOL     OW43216   8.095   6.916   8.513  0.1112  0.2170  0.3625
10521SOL    HW143217   8.121   6.918   8.610  0.8672 -1.2374  0.1954
10521SOL    HW243218   8.105   6.823   8.477 -0.6000  0.6539 -0.9988
10522SOL     OW43219   3.562   8.655   5.258  0.1386  0.0952  0.1028
10522SOL    HW143220   3.562   8.721   5.183 -0.2166  0.9532  0.8568
10522SOL    HW243221   3.647   8.663   5.309 -0.2999  0.6061  0.7546
10523SOL     OW43222   8.369   1.218   6.582  0.4485  0.3894 -0.0314
10523SOL    HW143223   8.314   1.178   6.656  1.1060  0.1425  0.3245
10523SOL    HW243224   8.349   1.316   6.576 -1.1011  0.0449 -0.8500
10524SOL     OW43225   0.090   5.393   4.540 -0.2393  0.5148 -0.0507
10524SOL    HW143226   0.047   5.454   4.473 -0.2017  1.6327  0.9233
10524SOL    HW243227   0.019   5.350   4.596 -0.1902  0.8102  0.2377
10525SOL     OW43228   0.783   5.555   0.792 -0.5453  0.8307  0.5647
10525SOL    HW143229   0.710   5.506   0.840 -1.1194 -0.5289 -1.6380
10525SOL    HW243230   0.787   5.649   0.826 -2.3475  0.5132  1.7537
10526SOL     OW43231   8.911   1.715   3.049 -0.3162  0.0895 -0.0346
10526SOL    HW143232   8.877   1.629   3.087 -0.4246 -0.3487 -1.0991
10526SOL    HW243233   8.834   1.777   3.033 -0.3752 -0.0743 -0.3925
10527SOL     OW43234   7.709   6.257   6.484 -0.1283 -0.1409 -0.0515
10527SOL    HW143235   7.750   6.326   6.424 -0.0474 -0.2573 -0.1301
10527SOL    HW243236   7.751   6.168   6.466 -0.6147 -0.3131 -0.3270
10528SOL     OW43237   8.720   6.246   0.441 -0.1600 -0.5474 -0.1579
10528SOL    HW143238   8.739   6.151   0.418 -0.1394 -1.0941  2.0198
10528SOL    HW243239   8.643   6.280   0.386  0.0995 -1.6810 -1.2262
10529SOL     OW43240   5.890   6.335   0.975 -0.5756  0.2911 -0.3564
10529SOL    HW143241   5.908   6.361   1.070 -0.2622  1.8143 -0.8180
10529SOL    HW243242   5.953   6.262   0.947 -1.3845 -0.9198  0.9239
10530SOL     OW43243   6.184   8.698   5.392 -0.0114 -0.2083 -0.4859
10530SOL    HW143244   6.192   8.762   5.315  0.4688 -1.6312 -1.6339
10530SOL    HW243245   6.273   8.657   5.411  0.2832  1.5268  2.0797
10531SOL     OW43246   6.931   1.351   2.791 -0.0363 -0.4433 -0.2499
10531SOL    HW143247   7.026   1.370   2.766 -0.4373  0.6390 -0.9887
10531SOL    HW243248   6.928   1.308   2.881  1.1394 -0.2805 -0.1281
10532SOL     OW43249   1.088   4.928   5.253  0.2855  0.2335 -0.0304
10532SOL    HW143250   1.154   4.872   5.201  1.7783  0.1324  1.9062
10532SOL    HW243251   1.116   5.024   5.249 -1.4128  0.6857 -2.0567
10533SOL     OW43252   4.161   2.604   4.746 -0.2106  0.3783  1.0995
10533SOL    HW143253   4.086   2.568   4.692  0.5118  0.0196  0.3255
10533SOL    HW243254   4.226   2.652   4.687  1.4144 -1.3955  1.3606
10534SOL     OW43255   8.871   9.176   5.950  0.0073 -0.3262  0.3168
10534SOL    HW143256   8.771   9.178   5.945 -0.1377 -0.2134  2.7403
10534SOL    HW243257   8.899   9.105   6.014  1.3653  1.5667  1.8736
10535SOL     OW43258   7.361   9.216   4.549  0.2179  0.2503  0.5562
10535SOL    HW143259   7.373   9.203   4.647  0.1886 -0.6943  0.4457
10535SOL    HW243260   7.311   9.300   4.532 -0.1024  0.2294  1.3725
10536SOL     OW43261   6.370   8.901   6.412 -0.3333 -0.2061 -0.5152
10536SOL    HW143262   6.271   8.886   6.412 -0.4615  0.6137  0.2823
10536SOL    HW243263   6.390   8.994   6.379  0.1443 -0.2073 -0.2365
10537SOL     OW43264   1.809   0.086   4.960  0.4409 -0.1520  0.3813
10537SOL    HW143265   1.882   0.096   5.028 -0.3153  1.3976  1.0061
10537SOL    HW243266   1.726   0.053   5.005  0.0131  0.6356  0.1909
10538SOL     OW43267   1.277   8.168   5.988  0.3769 -0.3470  0.0017
10538SOL    HW143268   1.345   8.096   6.007  1.2441  0.8017  1.4191
10538SOL    HW243269   1.324   8.251   5.958 -0.5104  0.0474 -0.3135
10539SOL     OW43270   0.903   9.386   9.978 -0.4944 -0.4300 -0.3165
10539SOL    HW143271   0.990   9.394   9.929 -1.2841  0.2282 -1.6240
10539SOL    HW243272   0.913   9.317  10.051  0.6284 -1.5875 -1.5286
10540SOL     OW43273   7.290   3.563   3.688 -0.4708 -0.8312  0.1048
10540SOL    HW143274   7.274   3.474   3.729 -1.8723 -0.3709  0.5834
10540SOL    HW243275   7.362   3.611   3.738  2.3683 -2.8217 -1.9083
10541SOL     OW43276   7.424   7.241   8.012 -0.3201 -0.0265  0.5295
10541SOL    HW143277   7.367   7.250   7.930  1.7617  0.1714 -0.9654
10541SOL    HW243278   7.496   7.311   8.010  1.3412 -1.6611  1.1775
10542SOL     OW43279   4.947   3.138   7.070 -0.3435 -0.0137 -0.5716
10542SOL    HW143280   4.978   3.095   7.154 -3.8994 -0.1819  0.7365
10542SOL    HW243281   4.953   3.237   7.079 -1.1141 -0.0216  0.0548
10543SOL     OW43282   8.574   5.345   6.588 -0.4057  0.5498  0.4120
10543SOL    HW143283   8.479   5.375   6.577  0.2247  2.2497 -0.3990
10543SOL    HW243284   8.579   5.246   6.571 -2.1201  0.3276  1.0412
10544SOL     OW43285   9.385   2.378   1.084 -0.4786  0.1372 -0.6980
10544SOL    HW143286   9.357   2.400   1.178  0.5534  0.5338 -0.4773
10544SOL    HW243287   9.462   2.436   1.058  0.4781 -1.3135 -1.1151
10545SOL     OW43288   4.630   9.035   4.912  0.0253  0.8697 -0.1744
10545SOL    HW143289   4.639   8.936   4.902  1.0010  1.0370 -1.0489
10545SOL    HW243290   4.533   9.059   4.921 -0.1303 -0.2629  1.2422
10546SOL     OW43291   4.003   5.014   5.727  0.4352 -0.1391  0.0593
10546SOL    HW143292   4.063   4.935   5.715 -0.9987 -1.1350 -0.7848
10546SOL    HW243293   3.934   4.994   5.797  0.4248  0.5808  0.2604
10547SOL     OW43294   2.914   6.431   3.913  0.7233 -0.1808 -0.4922
10547SOL    HW143295   2.903   6.369   3.835 -1.9019  0.1128 -0.4137
10547SOL    HW243296   2.988   6.398   3.972 -0.4507 -3.1197 -0.5777
10548SOL     OW43297   3.011   2.780   1.720  0.2492  0.3908  0.2313
10548SOL    HW143298   2.945   2.720   1.675 -1.1863  2.9923 -1.1766
10548SOL    HW243299   3.097   2.779   1.668  0.5723 -1.1324  0.7466
10549SOL     OW43300   2.814   2.545   4.440  0.0035  0.6621  0.3014
10549SOL    HW143301   2.761   2.507   4.517  0.2147 -0.9236 -0.3205
10549SOL    HW243302   2.781   2.637   4.420 -4.1507 -1.0847 -1.5340
10550SOL     OW43303   1.665   2.591   3.589 -0.3123  0.5003 -0.1774
10550SOL    HW143304   1.592   2.561   3.650  1.6575 -1.2736  1.4020
10550SOL    HW243305   1.694   2.515   3.532  0.9475  0.9044 -0.0878
10551SOL     OW43306   3.732   9.347   7.853  0.0213  0.0350 -0.5943
10551SOL    HW143307   3.684   9.274   7.901  1.3509 -2.0416 -2.3064
10551SOL    HW243308   3.796   9.392   7.915 -0.4209 -0.5899  0.3293
10552SOL     OW43309   8.004   8.518   7.869  0.3896 -0.1284  0.5827
10552SOL    HW143310   8.099   8.532   7.841  0.5526  0.2022  1.2868
10552SOL    HW243311   7.957   8.462   7.801 -0.0291  3.1091 -1.9236
10553SOL     OW43312   7.865   1.461   1.201 -0.2568  0.1053  0.4499
10553SOL    HW143313   7.948   1.509   1.174  0.3095 -0.8980  0.3614
10553SOL    HW243314   7.820   1.425   1.119 -0.2563 -0.1842  0.5770
10554SOL     OW43315   0.821   1.016   2.581  0.5440 -0.0622  0.0735
10554SOL    HW143316   0.897   1.031   2.645 -0.7387  1.7253  1.2160
10554SOL    HW243317   0.813   0.918   2.563  0.6192 -0.6945  3.0982
10555SOL     OW43318   0.028   4.327   1.895  0.1567  0.7320  0.0447
10555SOL    HW143319  -0.005   4.406   1.844 -1.8794  0.2967  0.6389
10555SOL    HW243320  -0.033   4.309   1.973  3.3681  1.6006  2.8910
10556SOL     OW43321   8.660   7.069   5.150  0.1298 -0.0383 -0.6714
10556SOL    HW143322   8.709   7.096   5.233 -1.6091  1.7326 -0.1726
10556SOL    HW243323   8.725   7.058   5.075  1.7171 -1.5307  0.8599
10557SOL     OW43324   9.940   3.676   6.341 -0.2631  0.0840  0.2188
10557SOL    HW143325   9.848   3.685   6.378  0.2951  1.3812  1.3118
10557SOL    HW243326   9.956   3.580   6.317 -1.1397 -0.5516  2.0295
10558SOL     OW43327   5.891   9.197   5.253  0.2922 -0.0492 -0.1996
10558SOL    HW143328   5.978   9.225   5.294  0.2814 -0.7190  0.2745
10558SOL    HW243329   5.819   9.200   5.322  0.6111 -2.8875  0.2765
10559SOL     OW43330   8.555   2.490   2.887 -0.7120  0.3415  0.9063
10559SOL    HW143331   8.517   2.418   2.944  0.2460  0.6703  1.9744
10559SOL    HW243332   8.576   2.570   2.944  2.1803 -0.0595  0.4846
10560SOL     OW43333   5.435   8.696   2.663 -1.0590 -0.5033 -0.2847
10560SOL    HW143334   5.340   8.706   2.693 -0.2839  0.1296  2.0499
10560SOL    HW243335   5.469   8.606   2.690 -1.1247 -0.8848 -1.4779
10561SOL     OW43336   9.913   3.188   6.164 -0.2822 -0.2908  0.5450
10561SOL    HW143337   9.815   3.170   6.172 -0.0632 -2.3770 -1.0658
10561SOL    HW243338   9.962   3.137   6.235 -0.1807 -1.2478 -0.1956
10562SOL     OW43339   8.950   9.524   1.839  0.6125 -0.4936  0.3391
10562SOL    HW143340   9.045   9.494   1.850  0.2920 -0.7832  2.5511
10562SOL    HW243341   8.888   9.451   1.869 -0.3056 -0.2039 -0.8157
10563SOL     OW43342   8.568   7.363   6.380 -0.2638 -0.3242  0.6202
10563SOL    HW143343   8.616   7.399   6.300  1.1466 -0.8306  1.2405
10563SOL    HW243344   8.545   7.267   6.365  0.5350 -0.5876  1.0632
10564SOL     OW43345   1.973   7.209   5.759  0.0630 -0.4508  0.0356
10564SOL    HW143346   1.955   7.294   5.710 -1.1148 -1.3123 -1.0444
10564SOL    HW243347   1.888   7.173   5.797  0.6904 -0.7170  1.2156
10565SOL     OW43348   8.706   9.364   6.946 -0.5650  0.2828  0.3353
10565SOL    HW143349   8.628   9.421   6.971 -1.2470 -0.0739 -0.9456
10565SOL    HW243350   8.771   9.418   6.893  0.3937  0.7587  1.9528
10566SOL     OW43351   6.065   1.972   1.679  0.0019  0.5742 -0.1561
10566SOL    HW143352   6.089   2.069   1.675 -0.5825  0.6945 -0.8992
10566SOL    HW243353   6.062   1.943   1.775 -0.5191  1.4688  0.1152
10567SOL     OW43354   3.286   5.879   2.372  0.5019 -0.7815  0.2837
10567SOL    HW143355   3.274   5.782   2.393 -0.4140 -0.7544 -0.0774
10567SOL    HW243356   3.356   5.890   2.301 -0.2672 -1.2717 -0.5537
10568SOL     OW43357   9.375   1.892   3.242  0.4742  0.9716  0.3116
10568SOL    HW143358   9.448   1.830   3.212  1.2929  1.9838  0.1875
10568SOL    HW243359   9.331   1.855   3.323  0.3709 -0.2137 -0.2759
10569SOL     OW43360   8.693   1.169   3.117 -0.9727  0.9638  0.2220
10569SOL    HW143361   8.679   1.232   3.194 -0.1620  0.3837  0.8439
10569SOL    HW243362   8.629   1.093   3.125 -1.3540  1.2549 -0.0524
10570SOL     OW43363   6.061   1.483   7.548 -0.0056 -0.2416  0.6496
10570SOL    HW143364   6.029   1.454   7.458 -0.9295 -1.3538  1.3332
10570SOL    HW243365   6.077   1.582   7.547 -1.3800 -0.0102 -0.3290
10571SOL     OW43366   3.491   6.101   2.055  0.0190 -0.5569  0.4408
10571SOL    HW143367   3.414   6.134   2.001  0.1664  1.6822  1.5691
10571SOL    HW243368   3.575   6.147   2.026  0.2439  0.0217  1.9566
10572SOL     OW43369   1.374   7.717   5.853 -0.3177 -0.1059  0.1037
10572SOL    HW143370   1.395   7.694   5.758  0.4349 -1.5612  0.5933
10572SOL    HW243371   1.396   7.638   5.911  0.3189  1.1762  1.6190
10573SOL     OW43372   4.734   5.347   5.545 -0.1097 -0.6752  0.1923
10573SOL    HW143373   4.783   5.267   5.580  0.3429 -0.9510 -1.0839
10573SOL    HW243374   4.799   5.420   5.526 -0.1392 -1.1635 -1.8439
10574SOL     OW43375   9.513   4.987   0.554  0.6064  0.2919 -0.1057
10574SOL    HW143376   9.499   5.031   0.466  0.3198 -0.5254 -0.4759
10574SOL    HW243377   9.606   4.951   0.558  0.6466  0.4031 -0.0424
10575SOL     OW43378   6.574   1.439   6.785 -0.4662  0.2654  0.6951
10575SOL    HW143379   6.657   1.402   6.825 -1.3439 -1.0760  1.3037
10575SOL    HW243380   6.516   1.477   6.857 -0.5944  0.7983  0.3217
10576SOL     OW43381   2.656   0.633   1.879  0.0409 -0.2439  0.7349
10576SOL    HW143382   2.691   0.598   1.966 -1.4154  0.4277  1.6160
10576SOL    HW243383   2.595   0.710   1.897  0.3070  0.3694 -0.9442
10577SOL     OW43384   0.256   9.829   4.644 -0.2267 -0.0327 -0.3711
10577SOL    HW143385   0.317   9.850   4.720 -0.8789  1.3613 -0.2178
10577SOL    HW243386   0.252   9.729   4.630  2.7792 -0.1102 -0.9836
10578SOL     OW43387   2.414   2.447   6.929 -0.5355 -0.3168 -0.3679
10578SOL    HW143388   2.350   2.373   6.908 -0.6657 -0.7587  1.5498
10578SOL    HW243389   2.365   2.534   6.930 -0.9264 -0.5398  0.1328
10579SOL     OW43390   7.649   8.359   3.116  0.5219  0.1331  0.2204
10579SOL    HW143391   7.747   8.372   3.129  0.3865 -0.6180  2.2479
10579SOL    HW243392   7.600   8.398   3.194 -0.7853  0.2186 -0.6182
10580SOL     OW43393   1.929   0.148   3.341 -0.1333  0.5353 -0.5681
10580SOL    HW143394   1.976   0.183   3.260 -2.2742  2.2246 -1.1331
10580SOL    HW243395   1.948   0.050   3.351  2.9383  1.0266 -1.1093
10581SOL     OW43396   1.732   6.649   6.342  0.7966 -0.3650  0.3543
10581SOL    HW143397   1.759   6.569   6.395 -1.1967 -1.8286 -0.7804
10581SOL    HW243398   1.670   6.706   6.397 -1.0620 -1.7472 -0.2401
10582SOL     OW43399   8.395   8.137   1.537  0.5208  0.6050  0.4023
10582SOL    HW143400   8.328   8.118   1.465 -1.6637  2.9580  1.7354
10582SOL    HW243401   8.423   8.051   1.580 -1.2280 -0.4728 -0.5435
10583SOL     OW43402   5.641   1.660   1.677  0.1698 -0.9077 -0.2459
10583SOL    HW143403   5.550   1.652   1.638  0.8044 -0.1839 -1.9240
10583SOL    HW243404   5.698   1.585   1.645  1.1249  0.5212 -1.9753
10584SOL     OW43405   1.282   8.477   5.448 -0.3022 -0.3002 -0.0174
10584SOL    HW143406   1.302   8.521   5.361 -2.2772  0.3051 -0.1920
10584SOL    HW243407   1.332   8.523   5.521  0.4950 -0.1044 -0.6840
10585SOL     OW43408   2.941   1.373   5.004  0.3471 -0.6351  0.0018
10585SOL    HW143409   2.909   1.300   5.064  1.5796 -1.3427 -0.1751
10585SOL    HW243410   3.033   1.401   5.032  0.0089  0.6368 -0.1332
10586SOL     OW43411   5.385   0.465   7.447  0.2937  0.3042 -0.1380
10586SOL    HW143412   5.349   0.396   7.510 -0.4677  1.1910  0.4058
10586SOL    HW243413   5.437   0.533   7.498  0.9851  0.1770 -0.6673
10587SOL     OW43414   5.091   7.098   2.108  0.7325 -0.0724 -0.1769
10587SOL    HW143415   5.135   7.043   2.179 -0.1357 -0.7816 -0.1648
10587SOL    HW243416   5.018   7.153   2.149  0.9996  0.3917 -0.3313
10588SOL     OW43417   4.282   5.289   2.357  0.2352  0.3608  0.5640
10588SOL    HW143418   4.182   5.293   2.366  0.3119 -1.6415  2.8066
10588SOL    HW243419   4.310   5.195   2.342  1.8028  0.9583 -0.3914
10589SOL     OW43420   2.005   5.775   4.425  0.1824  0.1854  0.8813
10589SOL    HW143421   2.000   5.763   4.524  0.8521 -1.9421  0.6808
10589SOL    HW243422   2.100   5.792   4.398  0.1268 -0.0302  0.5405
10590SOL     OW43423   1.298   5.915   5.876 -0.4976 -0.2168  0.3254
10590SOL    HW143424   1.314   5.848   5.804  1.1948  0.8505 -0.3194
10590SOL    HW243425   1.358   5.897   5.954 -2.6851 -1.6799  1.7360
10591SOL     OW43426   0.895   7.445   3.690  0.1446  0.1728 -0.3272
10591SOL    HW143427   0.818   7.431   3.628  0.4875  0.4703 -0.8252
10591SOL    HW243428   0.862   7.486   3.775 -0.3605 -0.4546 -0.2243
10592SOL     OW43429   1.463   6.771   7.224  0.5616 -0.1101  0.8229
10592SOL    HW143430   1.404   6.704   7.268  0.8482 -0.1527  1.1397
10592SOL    HW243431   1.433   6.784   7.129 -0.8907  0.9830  1.4066
10593SOL     OW43432   8.506   0.529   7.808 -0.3813 -0.1213  0.2364
10593SOL    HW143433   8.600   0.561   7.797 -0.2777  0.6701  3.0293
10593SOL    HW243434   8.444   0.607   7.807 -0.7604 -0.4115  0.7987
10594SOL     OW43435   2.634   4.422   0.557  0.2856 -0.2026  0.0153
10594SOL    HW143436   2.715   4.435   0.614  0.1970  0.4578 -0.0008
10594SOL    HW243437   2.552   4.426   0.614  0.2687 -1.0388  0.0565
10595SOL     OW43438   5.240   3.467   5.032  0.6906  0.3452 -0.3009
10595SOL    HW143439   5.143   3.471   5.009  0.6628  0.8478 -0.1136
10595SOL    HW243440   5.264   3.547   5.088  1.1004 -0.0377  0.0710
10596SOL     OW43441   4.292   3.726   3.153 -0.0087  0.2002 -0.6386
10596SOL    HW143442   4.252   3.655   3.210 -0.7968  0.1947 -1.1955
10596SOL    HW243443   4.220   3.773   3.103  0.6456  0.3994 -1.4040
10597SOL     OW43444   3.082   6.430   3.102 -0.4307 -0.4076  0.0513
10597SOL    HW143445   2.999   6.427   3.158 -0.1502  0.1160  0.4993
10597SOL    HW243446   3.116   6.337   3.088 -0.4501 -0.5422  0.8433
10598SOL     OW43447   4.110   7.199   2.176 -0.6514  0.1407 -0.1021
10598SOL    HW143448   4.196   7.165   2.138  0.0140  0.6998  0.8685
10598SOL    HW243449   4.036   7.137   2.152  0.3703 -1.4721  0.7988
10599SOL     OW43450   7.567   9.121   6.907  0.6483  0.2168 -0.0842
10599SOL    HW143451   7.571   9.207   6.857  0.6396  0.9155  1.0960
10599SOL    HW243452   7.654   9.106   6.954  1.9399 -2.1449 -3.0682
10600SOL     OW43453   8.511   2.862   3.964 -0.2991 -0.6350 -0.0516
10600SOL    HW143454   8.508   2.959   3.937 -1.9452 -0.8562 -0.7325
10600SOL    HW243455   8.604   2.827   3.952 -0.0620  0.4119 -1.4629
10601SOL     OW43456   2.614   9.934   3.164 -0.2299  0.3813 -0.1871
10601SOL    HW143457   2.623   9.927   3.064  0.6966  0.5924 -0.1183
10601SOL    HW243458   2.701   9.961   3.204 -0.1092 -1.4668  0.8617
10602SOL     OW43459   5.338   2.349   4.882 -0.4237 -0.7647 -0.4171
10602SOL    HW143460   5.297   2.411   4.815  0.2233 -1.2126 -1.2267
10602SOL    HW243461   5.377   2.270   4.835 -2.0234 -2.2456  0.6831
10603SOL     OW43462   7.963   1.259   1.804  0.5327  0.0977 -0.1024
10603SOL    HW143463   8.014   1.194   1.748  1.4740  0.4059  0.3723
10603SOL    HW243464   7.961   1.348   1.758 -0.9361 -0.3135 -0.8500
10604SOL     OW43465   9.696   0.911   2.543 -0.3632  0.6324 -0.1004
10604SOL    HW143466   9.613   0.938   2.494  0.1066  1.7664 -0.3025
10604SOL    HW243467   9.699   0.812   2.554 -0.6238  0.4026 -2.0719
10605SOL     OW43468   8.593   1.574   5.707 -0.4357  0.3415 -0.5792
10605SOL    HW143469   8.624   1.492   5.658  0.2306 -0.1088  0.5638
10605SOL    HW243470   8.621   1.656   5.657  3.7146 -0.0169  0.9801
10606SOL     OW43471   2.862   6.984   6.850  0.4377 -0.2387 -0.2368
10606SOL    HW143472   2.801   6.951   6.922  1.5381 -0.1966  0.7245
10606SOL    HW243473   2.825   7.067   6.810 -0.4111 -0.5149 -0.0351
10607SOL     OW43474   8.799   6.838   5.610 -0.5271 -0.4097 -0.2854
10607SOL    HW143475   8.855   6.832   5.692  0.7589 -0.4563 -1.1540
10607SOL    HW243476   8.760   6.930   5.602  0.6550  0.0867 -0.4624
10608SOL     OW43477   3.051   5.439   1.932  0.1625 -0.3319 -0.8509
10608SOL    HW143478   2.989   5.410   1.858 -0.3497 -0.0995 -0.5134
10608SOL    HW243479   3.098   5.523   1.905  0.0589 -0.3089 -0.9607
10609SOL     OW43480   1.470   4.364   1.692  0.0557  0.1886  0.3584
10609SOL    HW143481   1.386   4.315   1.713  0.4140 -0.5119  0.1631
10609SOL    HW243482   1.484   4.365   1.593  0.1052  0.6050  0.3655
10610SOL     OW43483   1.946   3.302   6.176 -0.1423  0.8736  0.4319
10610SOL    HW143484   1.855   3.342   6.182 -0.2330  0.4788  1.7614
10610SOL    HW243485   1.962   3.242   6.254  0.6532 -0.3185 -0.6145
10611SOL     OW43486   3.467   6.414   4.803 -0.3129 -0.7090  0.7215
10611SOL    HW143487   3.464   6.365   4.890  1.3464  0.3283  1.3963
10611SOL    HW243488   3.393   6.383   4.744 -1.8854 -0.9344  2.7786
10612SOL     OW43489   6.534   3.692   1.441  0.5603  0.6825 -0.0557
10612SOL    HW143490   6.627   3.687   1.478 -0.8092 -0.0462  3.5033
10612SOL    HW243491   6.502   3.786   1.447  0.1977  0.4953  1.0352
10613SOL     OW43492   6.116   9.848   4.564 -0.5032 -0.3750  0.3977
10613SOL    HW143493   6.096   9.810   4.473 -0.7667 -0.7236  0.5973
10613SOL    HW243494   6.200   9.902   4.560 -0.2948 -0.7211  0.0381
10614SOL     OW43495   5.189   6.279   0.132 -0.0145  0.3106  0.0042
10614SOL    HW143496   5.246   6.200   0.154 -0.1010  0.3681  0.4249
10614SOL    HW243497   5.122   6.295   0.204  0.9895  1.6718  0.6739
10615SOL     OW43498   7.972   2.799   0.635 -0.1366  0.6382  0.2717
10615SOL    HW143499   7.967   2.784   0.734 -0.0175  2.2219  0.5345
10615SOL    HW243500   7.988   2.896   0.617  1.7869  0.0866 -1.2463
10616SOL     OW43501   8.331   8.589   7.881  0.8010 -0.1314 -0.4264
10616SOL    HW143502   8.393   8.513   7.901  0.5211 -0.6302 -1.4408
10616SOL    HW243503   8.379   8.658   7.826  0.8208  0.0649 -0.1640
10617SOL     OW43504   7.920   6.874   1.518  1.0314 -0.3590 -0.4173
10617SOL    HW143505   7.882   6.950   1.465  1.2047  0.5779  0.7822
10617SOL    HW243506   7.867   6.861   1.602  1.9224 -0.5638  0.1247
10618SOL     OW43507   0.547   3.515   5.675  0.0857 -0.3048  0.2248
10618SOL    HW143508   0.504   3.426   5.668 -1.0379  0.0728  1.9201
10618SOL    HW243509   0.590   3.539   5.588  0.5460 -2.5583 -0.1844
10619SOL     OW43510   0.126   9.227   3.316  0.0279 -0.8085 -0.1223
10619SOL    HW143511   0.144   9.281   3.398 -0.6672 -0.5672 -0.1262
10619SOL    HW243512   0.145   9.130   3.334  0.9982 -0.6116 -0.0299
10620SOL     OW43513   8.343   1.056   6.207 -0.4578 -0.2057  0.3132
10620SOL    HW143514   8.404   1.131   6.232  0.4920 -0.8742  0.0196
10620SOL    HW243515   8.279   1.087   6.136  2.1157 -0.5623 -2.2814
10621SOL     OW43516   5.335   3.404   6.154  0.3002 -0.0654 -0.0092
10621SOL    HW143517   5.397   3.359   6.090 -0.2387  0.4199 -0.8803
10621SOL    HW243518   5.316   3.496   6.122 -0.0011  0.1695  0.8433
10622SOL     OW43519   0.581   3.706   6.648  0.1809  0.3028 -0.0185
10622SOL    HW143520   0.568   3.729   6.745 -1.1839 -0.2344 -0.0708
10622SOL    HW243521   0.609   3.610   6.640 -0.8894  0.0116 -0.2372
10623SOL     OW43522   9.854   6.421   3.994  0.3734  0.1502  0.3054
10623SOL    HW143523   9.901   6.357   3.933  0.3244  0.6391 -0.2549
10623SOL    HW243524   9.873   6.515   3.964  0.6507  0.4034  1.2733
10624SOL     OW43525   8.903   8.708   6.289 -0.4084 -0.0055  0.1423
10624SOL    HW143526   8.823   8.747   6.334  0.3392  0.5300  1.0303
10624SOL    HW243527   8.878   8.622   6.244 -1.6945  0.6648 -0.4414
10625SOL     OW43528   6.809   3.700   1.539 -0.0304 -0.0564 -0.1683
10625SOL    HW143529   6.799   3.606   1.572  0.5507 -0.4084 -0.9842
10625SOL    HW243530   6.823   3.761   1.617 -0.1175 -0.6877  0.3470
10626SOL     OW43531   7.937   8.605   2.185 -0.4604  0.7964  0.0129
10626SOL    HW143532   8.028   8.568   2.167 -0.4893  1.1748 -0.9571
10626SOL    HW243533   7.900   8.565   2.269 -0.4232 -1.2276 -0.9086
10627SOL     OW43534   0.292   0.447   6.886  0.2416 -0.2178  0.1911
10627SOL    HW143535   0.304   0.431   6.984  0.2284  0.2613  0.2732
10627SOL    HW243536   0.361   0.395   6.835  0.2629 -0.4512  0.4521
10628SOL     OW43537   5.046   9.814   4.574 -0.4976 -0.4571 -0.4234
10628SOL    HW143538   5.093   9.767   4.650  0.3481  0.6857 -0.2386
10628SOL    HW243539   5.067   9.767   4.488 -0.5739 -1.1052 -0.0907
10629SOL     OW43540   7.162   3.461   3.437 -0.0886  0.1421 -0.8169
10629SOL    HW143541   7.179   3.510   3.522  0.9717 -0.4716 -0.6640
10629SOL    HW243542   7.214   3.375   3.437  0.8974  0.7136 -2.6112
10630SOL     OW43543   1.057   4.082   6.140  0.2088  0.2491  0.0266
10630SOL    HW143544   1.143   4.130   6.125  0.5494 -0.3947 -0.0629
10630SOL    HW243545   0.981   4.148   6.137  0.4618  0.4692 -2.2394
10631SOL     OW43546   2.629   8.366   2.563  0.2306  0.8208 -0.3935
10631SOL    HW143547   2.586   8.378   2.474 -1.9490  1.1729  0.6599
10631SOL    HW243548   2.583   8.425   2.630  2.1479  0.9387  0.8666
10632SOL     OW43549   3.044   4.037   6.076 -0.4644 -0.2972 -0.0496
10632SOL    HW143550   2.996   3.992   6.152 -1.4017  0.7632  0.0012
10632SOL    HW243551   2.978   4.067   6.008  0.2930 -0.3509 -0.8145
10633SOL     OW43552   7.057   7.000   1.939 -0.3545  0.4229  0.1980
10633SOL    HW143553   7.077   7.094   1.914 -1.2339  0.3438 -0.8011
10633SOL    HW243554   7.057   6.942   1.857  2.9446 -0.9713  1.0929
10634SOL     OW43555   1.544   3.008   6.634 -0.0455 -0.5807  0.1934
10634SOL    HW143556   1.552   2.921   6.585 -0.2604 -1.0433  0.9714
10634SOL    HW243557   1.484   3.070   6.584  0.5550 -0.6725 -0.6517
10635SOL     OW43558   0.713   8.317   1.495  0.0177 -0.0776  0.2797
10635SOL    HW143559   0.693   8.222   1.519 -2.3395  0.2318 -0.3245
10635SOL    HW243560   0.649   8.378   1.542 -0.9792  0.9375 -2.3151
10636SOL     OW43561   2.894   9.514   5.953  0.1448  0.3099 -0.0380
10636SOL    HW143562   2.957   9.543   6.024 -1.2835  0.6724  1.1137
10636SOL    HW243563   2.824   9.454   5.993 -1.3960  1.5199 -0.8560
10637SOL     OW43564   4.106   1.004   6.506 -0.1309  0.4206  0.3305
10637SOL    HW143565   4.201   1.016   6.534 -0.5294  1.6332  1.2509
10637SOL    HW243566   4.101   0.992   6.407  0.9272  1.0647  0.1898
10638SOL     OW43567   0.691   1.857   1.274  0.0329  0.2438  0.2607
10638SOL    HW143568   0.666   1.938   1.221 -2.0229  0.0710  0.9447
10638SOL    HW243569   0.714   1.783   1.211 -1.4258  0.3434 -0.4171
10639SOL     OW43570   3.703   9.964   3.925  0.4219 -0.1928  0.0542
10639SOL    HW143571   3.612   9.996   3.954  0.8109 -1.1064  2.3415
10639SOL    HW243572   3.697   9.869   3.896  0.3731  0.1975 -1.2375
10640SOL     OW43573   8.509   3.273   2.306 -0.5317  0.1404  0.8732
10640SOL    HW143574   8.432   3.304   2.250  0.8138  1.1241 -0.4816
10640SOL    HW243575   8.561   3.352   2.337  2.3916 -0.6173 -1.8391
10641SOL     OW43576   0.809   6.406   2.892  0.4151 -0.3812  0.1235
10641SOL    HW143577   0.758   6.389   2.807  1.8480  0.3548 -0.9042
10641SOL    HW243578   0.805   6.504   2.914  1.4856 -0.2968 -0.0384
10642SOL     OW43579   2.362   5.199   6.010 -0.0046 -0.2337 -0.1363
10642SOL    HW143580   2.383   5.175   5.915 -1.1703 -1.7611 -0.0236
10642SOL    HW243581   2.448   5.212   6.060  0.6576 -1.6356 -0.8612
10643SOL     OW43582   9.346   2.774   0.785 -0.2020 -0.2794 -0.5563
10643SOL    HW143583   9.275   2.704   0.774  1.0739 -1.5549 -0.7297
10643SOL    HW243584   9.433   2.731   0.809  0.5678  1.2617 -0.5074
10644SOL     OW43585   6.187   1.724   6.581  0.1502  0.1317  0.0072
10644SOL    HW143586   6.164   1.752   6.487  2.4210 -1.5274 -1.0925
10644SOL    HW243587   6.193   1.625   6.585  3.2596  0.3268  1.1222
10645SOL     OW43588   9.568   3.552   6.695 -0.3490 -0.7208 -0.5132
10645SOL    HW143589   9.649   3.494   6.677 -0.5801 -1.5981  1.2018
10645SOL    HW243590   9.597   3.648   6.700  0.5817 -1.0216  0.0597
10646SOL     OW43591   4.164   8.569   3.070 -0.0858  0.2466 -0.5191
10646SOL    HW143592   4.249   8.543   3.115  0.1191 -0.8687 -1.5262
10646SOL    HW243593   4.180   8.649   3.013  0.7260 -0.9968 -2.0711
10647SOL     OW43594   8.621   4.209   0.342  0.3345  1.2328  1.1794
10647SOL    HW143595   8.545   4.147   0.319 -0.5609  2.5929  0.3945
10647SOL    HW243596   8.672   4.171   0.419 -0.2307 -0.4568  0.7527
10648SOL     OW43597   3.510   5.151   6.185  0.4192  0.1083 -0.4395
10648SOL    HW143598   3.563   5.096   6.251 -0.8009  0.7699  1.1198
10648SOL    HW243599   3.415   5.121   6.187  0.2381  0.6296 -1.3899
10649SOL     OW43600   9.148   4.830   5.323  0.1591  0.2350 -0.4967
10649SOL    HW143601   9.190   4.748   5.283 -0.9994 -0.2324 -0.7908
10649SOL    HW243602   9.215   4.904   5.328  0.6278 -0.0608 -2.2706
10650SOL     OW43603   2.318   3.259   1.394 -0.3562  0.1937  0.1679
10650SOL    HW143604   2.342   3.163   1.381  0.8059  0.3571  0.9863
10650SOL    HW243605   2.246   3.267   1.463 -1.4849 -0.1877 -0.9647
10651SOL     OW43606   1.573   2.093   5.925 -0.0685  0.2282 -0.0047
10651SOL    HW143607   1.531   2.085   6.015 -1.1157  0.4417 -0.4692
10651SOL    HW243608   1.637   2.170   5.924 -2.2338  2.0711 -0.2825
10652SOL     OW43609   1.855   6.729   4.859  0.3327  1.3223  0.2419
10652SOL    HW143610   1.756   6.717   4.848 -0.0738  3.7900  0.8206
10652SOL    HW243611   1.896   6.644   4.891 -1.7136  0.4454  0.5977
10653SOL     OW43612   8.841   9.093   7.477  0.3437  0.2436 -0.3523
10653SOL    HW143613   8.865   9.008   7.430 -1.2038  0.1190 -0.9781
10653SOL    HW243614   8.742   9.106   7.471  0.1473  0.4492  2.5031
10654SOL     OW43615   5.310   7.727   3.891 -0.4963  0.6760  0.3158
10654SOL    HW143616   5.283   7.644   3.841 -0.1265  2.1156 -2.3397
10654SOL    HW243617   5.407   7.745   3.877 -0.3469  1.0384  1.7001
10655SOL     OW43618   3.388   3.494   4.866 -0.5020 -0.5156  0.5162
10655SOL    HW143619   3.362   3.398   4.877  0.1274 -0.5105  2.2346
10655SOL    HW243620   3.322   3.552   4.913 -1.0218 -0.0776 -0.7316
10656SOL     OW43621   7.281   0.043   6.861 -0.2646 -0.3940  0.1195
10656SOL    HW143622   7.223  -0.025   6.816 -0.3196 -0.4185  0.2278
10656SOL    HW243623   7.345  -0.003   6.922 -1.0565 -0.2702  1.0497
10657SOL     OW43624   0.740   4.514   1.455 -0.0931  0.3049 -0.3601
10657SOL    HW143625   0.652   4.549   1.423  0.2159  1.9469  0.4983
10657SOL    HW243626   0.728   4.467   1.542 -0.0275  1.2609  0.1815
10658SOL     OW43627   1.299   7.224   0.247 -0.3137  1.1857  0.0228
10658SOL    HW143628   1.309   7.322   0.265  0.8036  0.9252  0.8825
10658SOL    HW243629   1.373   7.194   0.187 -0.1422  0.6908  0.4839
10659SOL     OW43630   4.482   0.744   4.226 -0.3135 -0.5378  0.3023
10659SOL    HW143631   4.433   0.829   4.244 -0.2752 -0.7002  1.1860
10659SOL    HW243632   4.558   0.734   4.290 -0.2218 -1.1552  0.1045
10660SOL     OW43633   4.945   8.291   3.821 -0.3165  0.4528 -0.8707
10660SOL    HW143634   4.977   8.348   3.746 -0.5916 -0.0490 -1.3764
10660SOL    HW243635   4.921   8.200   3.786  1.1118 -0.3155  0.1033
10661SOL     OW43636   1.131   3.085   3.553  0.2565 -0.3994 -0.2475
10661SOL    HW143637   1.110   3.153   3.482 -0.5729 -1.3744 -0.9449
10661SOL    HW243638   1.217   3.040   3.532  0.9067  0.5627  0.3193
10662SOL     OW43639   2.479   7.167   4.715  0.3018 -0.7026  0.2455
10662SOL    HW143640   2.484   7.201   4.809  0.3925  0.0340 -0.0182
10662SOL    HW243641   2.390   7.189   4.676  0.0720 -1.4792  0.3333
10663SOL     OW43642   8.232   6.610   2.344 -0.2624  0.0714  0.5469
10663SOL    HW143643   8.229   6.667   2.425  1.4872  0.2947  0.4668
10663SOL    HW243644   8.215   6.666   2.262  0.7301  0.3553  0.5299
10664SOL     OW43645   0.442   2.093   3.732 -0.2810 -0.1939  0.3212
10664SOL    HW143646   0.521   2.066   3.787  0.1132 -1.6271 -0.9021
10664SOL    HW243647   0.395   2.010   3.699 -0.9493  0.6398 -0.8487
10665SOL     OW43648   4.018   6.949   0.178  0.4952 -0.0558  0.1603
10665SOL    HW143649   4.029   6.953   0.079 -0.1771  0.4810  0.1040
10665SOL    HW243650   4.004   6.855   0.207  0.7205 -0.2163 -0.2455
10666SOL     OW43651   7.720   6.347   5.208 -0.3117  0.2462  0.0115
10666SOL    HW143652   7.706   6.254   5.243 -0.6565  0.0233 -0.6937
10666SOL    HW243653   7.753   6.341   5.113  0.5442  0.8311  0.2698
10667SOL     OW43654   1.142   7.237   0.481 -0.3185  0.1348 -0.5077
10667SOL    HW143655   1.057   7.190   0.504 -0.3804  0.5140  0.0409
10667SOL    HW243656   1.187   7.189   0.405  1.2069 -2.6997  2.0653
10668SOL     OW43657   5.280   4.240   0.753  0.8852  0.3998 -0.2906
10668SOL    HW143658   5.291   4.279   0.661 -0.0814  1.6227  0.0877
10668SOL    HW243659   5.218   4.162   0.749  0.7223  0.5475 -0.6531
10669SOL     OW43660   6.722   1.804   3.060 -0.6916 -0.4168  0.4261
10669SOL    HW143661   6.771   1.888   3.083 -1.0676 -0.0702 -0.0365
10669SOL    HW243662   6.778   1.725   3.084  0.2663 -0.0200 -0.5066
10670SOL     OW43663   3.828   9.583   1.495  0.6079 -0.0949 -0.6985
10670SOL    HW143664   3.753   9.531   1.538 -1.6612  2.9714 -0.7671
10670SOL    HW243665   3.886   9.622   1.566 -0.2970  0.9327 -0.5094
10671SOL     OW43666   8.145   9.399   6.419 -0.1348  0.2399 -0.2422
10671SOL    HW143667   8.065   9.365   6.469 -0.9729  2.5824  0.1077
10671SOL    HW243668   8.212   9.434   6.484 -0.1043  0.9333 -0.6374
10672SOL     OW43669   2.186   4.095   3.204 -0.0448  0.1788 -0.2571
10672SOL    HW143670   2.221   4.186   3.227  0.1005  0.5971 -2.0477
10672SOL    HW243671   2.251   4.025   3.236 -0.7731  0.6100  2.2700
10673SOL     OW43672   0.801   8.841   9.999 -0.1960  0.2863 -0.3872
10673SOL    HW143673   0.703   8.843   9.980  0.1183  0.1201 -2.0252
10673SOL    HW243674   0.826   8.921  10.054 -1.4516 -0.3045  1.0758
10674SOL     OW43675   7.595   6.509   0.620  0.1087  0.1180 -0.3341
10674SOL    HW143676   7.595   6.467   0.529 -0.3532  0.9965 -0.7450
10674SOL    HW243677   7.542   6.452   0.683 -0.8830  0.2936 -0.9979
10675SOL     OW43678   1.324   3.499   1.522  0.1280  0.9777 -0.0981
10675SOL    HW143679   1.232   3.461   1.506  0.6360 -1.1868  1.8156
10675SOL    HW243680   1.322   3.560   1.601  1.0664 -2.2499  2.5192
10676SOL     OW43681   6.712   0.114   8.221  0.1642 -0.1696 -0.0323
10676SOL    HW143682   6.616   0.086   8.212  1.2551 -3.4384 -1.9418
10676SOL    HW243683   6.739   0.167   8.141  0.1856  0.1324  0.1724
10677SOL     OW43684   4.454   5.445   5.509  0.0403  0.2826  0.0933
10677SOL    HW143685   4.551   5.439   5.532 -0.2351 -1.2188  0.9565
10677SOL    HW243686   4.436   5.389   5.428 -0.0134  1.0699 -0.4526
10678SOL     OW43687   6.231   9.439   4.905 -0.3222  0.0994  0.1347
10678SOL    HW143688   6.298   9.460   4.976 -0.7748  0.0392  0.5767
10678SOL    HW243689   6.260   9.481   4.819  1.0065 -1.0627 -0.0117
10679SOL     OW43690   7.279   1.149   6.789 -0.4763  0.0199 -0.0563
10679SOL    HW143691   7.313   1.076   6.848 -0.2835 -0.4214 -0.7190
10679SOL    HW243692   7.354   1.185   6.733 -0.8098 -0.0247 -0.5331
10680SOL     OW43693   8.744   8.104   5.847  0.0192  0.2500 -0.0850
10680SOL    HW143694   8.697   8.170   5.788  1.0141 -0.4946 -1.7562
10680SOL    HW243695   8.831   8.079   5.805 -0.3135 -2.0909  0.5626
10681SOL     OW43696   8.847   4.823   7.363  0.4577  0.6727 -0.3232
10681SOL    HW143697   8.902   4.842   7.444 -0.1744  1.1993 -0.0076
10681SOL    HW243698   8.899   4.846   7.281  2.3914 -3.1073 -0.2171
10682SOL     OW43699   7.070   0.403   6.996  0.2043  0.2214 -0.0947
10682SOL    HW143700   7.100   0.308   6.992  0.2818  0.2674 -0.7813
10682SOL    HW243701   6.979   0.408   7.035 -0.2602 -0.2518 -1.0857
10683SOL     OW43702   7.626   8.011   2.255 -0.3000 -0.2637 -0.1688
10683SOL    HW143703   7.585   8.102   2.253  0.1197 -0.0813 -0.6330
10683SOL    HW243704   7.629   7.978   2.349 -0.1479  0.3386  0.0409
10684SOL     OW43705   3.929   6.005   3.021 -0.3567  0.2805 -0.1529
10684SOL    HW143706   3.897   5.978   2.931  0.7771  0.5334 -0.6419
10684SOL    HW243707   3.925   5.926   3.083 -1.1276  0.1095 -0.4196
10685SOL     OW43708   9.038   3.629   2.008  0.1691 -0.5402 -0.0457
10685SOL    HW143709   8.963   3.685   2.044 -0.4278 -1.5110  0.2513
10685SOL    HW243710   9.119   3.686   1.994 -0.7196  0.5784 -0.6654
10686SOL     OW43711   2.431   6.433   2.449 -0.3853 -0.1251  0.0890
10686SOL    HW143712   2.441   6.395   2.357  0.4974 -1.4127  0.7090
10686SOL    HW243713   2.519   6.468   2.480  0.0457 -2.5323  1.6671
10687SOL     OW43714   8.459   0.337   4.083 -0.5757 -0.1035  0.0255
10687SOL    HW143715   8.362   0.359   4.069 -0.9668 -0.7525  1.5942
10687SOL    HW243716   8.494   0.289   4.003 -2.0167 -1.3394  0.1087
10688SOL     OW43717   2.049   7.781   7.384 -0.1272 -0.4848 -0.5992
10688SOL    HW143718   2.143   7.803   7.357  0.1932  0.6094  1.2965
10688SOL    HW243719   1.986   7.841   7.334  0.2998 -0.0427 -0.6205
10689SOL     OW43720   7.646   3.469   2.887 -0.4403  0.3841  0.2811
10689SOL    HW143721   7.658   3.375   2.855  0.2107  0.2402  0.9429
10689SOL    HW243722   7.700   3.483   2.970 -1.1745  1.1072  0.6371
10690SOL     OW43723   8.677   8.204   0.917  0.7997  0.0023  0.2912
10690SOL    HW143724   8.747   8.269   0.887  1.4434 -0.0063  1.7308
10690SOL    HW243725   8.592   8.223   0.869  0.9315  2.0309  0.8070
10691SOL     OW43726   1.582   0.671   4.510 -0.6439  0.7910 -0.3527
10691SOL    HW143727   1.517   0.645   4.439 -0.7264  2.1745 -0.7995
10691SOL    HW243728   1.554   0.631   4.597 -1.3848  0.3317 -0.7986
10692SOL     OW43729   6.083   7.682   6.598  0.2270  0.1046 -0.9155
10692SOL    HW143730   6.126   7.755   6.653  3.0075 -1.0310 -1.4867
10692SOL    HW243731   6.035   7.619   6.659  2.0231 -0.3109  0.1092
10693SOL     OW43732   9.286   8.577  10.043  0.3191 -0.3622 -0.0811
10693SOL    HW143733   9.258   8.558  10.137  0.9520 -1.4774 -0.1124
10693SOL    HW243734   9.240   8.514   9.981  0.7588 -0.3582 -0.4138
10694SOL     OW43735   2.902   9.250   0.346 -0.2459 -0.2336 -0.1462
10694SOL    HW143736   2.811   9.230   0.384 -0.3424 -0.7508 -0.6543
10694SOL    HW243737   2.912   9.205   0.258 -0.7058  2.4292 -1.6181
10695SOL     OW43738   2.256   9.008   5.625 -0.3607  0.4194  0.1425
10695SOL    HW143739   2.332   8.968   5.574 -0.7960 -1.6543  1.0567
10695SOL    HW243740   2.290   9.049   5.709  0.2005  2.7750 -1.1981
10696SOL     OW43741   0.916   5.196   3.155  0.6134  0.2127 -0.1607
10696SOL    HW143742   0.851   5.120   3.149  0.4563  0.4812 -2.1404
10696SOL    HW243743   0.956   5.198   3.246 -0.5773 -1.2629  0.4171
10697SOL     OW43744   5.679   9.541   2.512  0.2779  0.8712 -0.2133
10697SOL    HW143745   5.722   9.478   2.447 -2.5286  0.6415 -1.9214
10697SOL    HW243746   5.603   9.587   2.468 -1.5282  0.9326  2.8586
10698SOL     OW43747   2.444   8.140   1.405 -0.2894  0.1831 -0.5377
10698SOL    HW143748   2.494   8.162   1.488  0.8297  1.1159 -1.4328
10698SOL    HW243749   2.347   8.161   1.418  0.2526  2.7158 -0.2626
10699SOL     OW43750   4.088   3.172   1.947  0.0896 -0.3290 -0.7068
10699SOL    HW143751   4.180   3.139   1.928  0.9541  1.0599  0.8762
10699SOL    HW243752   4.054   3.131   2.032 -0.0726  0.4252 -0.3990
10700SOL     OW43753   1.520   7.448   5.868 -0.4218  0.0741 -0.3629
10700SOL    HW143754   1.494   7.481   5.778  0.8764  1.8606 -0.1090
10700SOL    HW243755   1.601   7.497   5.900 -0.7224 -0.6944  1.6817
10701SOL     OW43756   4.329   4.058   3.192 -0.3769  0.5881  0.1177
10701SOL    HW143757   4.382   4.030   3.272 -1.1601  0.3537  0.5632
10701SOL    HW243758   4.233   4.067   3.218 -0.7054  0.0685 -0.8992
10702SOL     OW43759   7.048   6.682   3.554  0.3879  0.3215  0.0587
10702SOL    HW143760   6.972   6.744   3.573 -0.1007 -0.4022  0.4866
10702SOL    HW243761   7.100   6.666   3.638 -0.1544 -0.7253  0.2080
10703SOL     OW43762   2.772   7.209   3.992 -0.2134  0.2030 -0.0555
10703SOL    HW143763   2.815   7.120   3.979 -0.2360  0.2637 -0.5722
10703SOL    HW243764   2.830   7.266   4.049  1.0390  0.7373 -1.8309
10704SOL     OW43765   1.618   2.802   0.820 -0.1196  0.4228 -0.2148
10704SOL    HW143766   1.526   2.828   0.850 -0.0567 -0.5588  0.8849
10704SOL    HW243767   1.685   2.867   0.857 -0.4123  1.4651 -1.4862
10705SOL     OW43768   1.367   4.329   7.089 -0.3046  0.8470 -0.4550
10705SOL    HW143769   1.446   4.390   7.098  0.8857 -0.6068 -0.8957
10705SOL    HW243770   1.380   4.248   7.146 -0.0342 -0.8567 -2.8338
10706SOL     OW43771   2.417   5.573   5.805 -0.0587 -0.4174 -0.0009
10706SOL    HW143772   2.389   5.531   5.719  0.0699 -0.4274 -0.0373
10706SOL    HW243773   2.446   5.667   5.788  2.1817 -1.1283 -0.3417
10707SOL     OW43774   9.040   5.916   6.734  0.0170 -0.2226 -0.4931
10707SOL    HW143775   9.101   5.921   6.813  0.5758 -0.5441 -0.8932
10707SOL    HW243776   8.997   6.005   6.719 -0.4802 -0.2925  0.4683
10708SOL     OW43777   2.059   3.162   0.357 -0.2843  0.1805  0.0321
10708SOL    HW143778   2.127   3.189   0.288  1.3753  0.0706  1.5823
10708SOL    HW243779   2.073   3.066   0.381 -0.8468  0.2219  0.5227
10709SOL     OW43780   9.272   9.847   0.622  0.0926  0.3933 -0.7099
10709SOL    HW143781   9.295   9.861   0.526 -0.3857  0.6584 -0.7883
10709SOL    HW243782   9.302   9.756   0.651  0.0276  0.2230 -1.1747
10710SOL     OW43783   1.537   0.636   0.038  0.2511 -0.0027  0.0705
10710SOL    HW143784   1.554   0.734   0.025 -0.5749  0.3062  1.2265
10710SOL    HW243785   1.449   0.612  -0.004  0.0805 -0.0865  0.4762
10711SOL     OW43786   8.320   9.504   2.734 -0.1206 -0.2216  0.3035
10711SOL    HW143787   8.342   9.409   2.755  1.1337 -0.0248 -0.0776
10711SOL    HW243788   8.383   9.539   2.664 -1.9108  0.2487 -1.1215
10712SOL     OW43789   6.997   3.435   1.673 -0.3805 -0.5955 -0.2568
10712SOL    HW143790   6.906   3.473   1.686  0.3518  0.5306  1.8711
10712SOL    HW243791   7.039   3.474   1.591 -1.6845 -0.9258 -1.0978
10713SOL     OW43792   8.571   1.423   4.126 -0.0728 -0.3154  0.3725
10713SOL    HW143793   8.475   1.414   4.100  0.2915  0.9967 -1.5566
10713SOL    HW243794   8.579   1.486   4.204 -0.6597  0.6760 -0.3626
10714SOL     OW43795   9.980   9.513   4.830 -0.3845  0.1674  0.3202
10714SOL    HW143796   9.897   9.562   4.856  0.0465  0.9262  0.2891
10714SOL    HW243797   9.992   9.517   4.730 -0.2023  0.2418  0.3442
10715SOL     OW43798   1.354   8.274   4.473  0.0272  0.3138  0.3464
10715SOL    HW143799   1.335   8.355   4.418  0.0342 -0.1241 -0.3012
10715SOL    HW243800   1.452   8.254   4.470 -0.0482 -0.0167  0.0940
10716SOL     OW43801   4.339   0.304   2.558 -0.3354  0.1380 -0.0372
10716SOL    HW143802   4.353   0.213   2.518  2.8484  1.2845 -1.6956
10716SOL    HW243803   4.420   0.361   2.542 -1.0049  2.3150  3.6856
10717SOL     OW43804   8.057   0.737   1.370 -0.1860 -0.5602  0.0373
10717SOL    HW143805   8.074   0.674   1.446 -1.6188 -2.4500 -1.1843
10717SOL    HW243806   8.130   0.729   1.303 -1.7488 -2.9319 -1.4216
10718SOL     OW43807   4.896   9.204   8.228 -0.0725 -0.6725 -0.0260
10718SOL    HW143808   4.917   9.204   8.130 -1.8363  0.2889 -0.4303
10718SOL    HW243809   4.846   9.288   8.250  1.0932 -0.4541  1.8803
10719SOL     OW43810   1.307   6.562   7.339  0.2264 -0.7136  0.2446
10719SOL    HW143811   1.382   6.501   7.366  1.1504 -0.5698 -1.9302
10719SOL    HW243812   1.267   6.529   7.254  0.0438  1.1415 -0.3916
10720SOL     OW43813   2.203   9.830   2.425  0.2345 -0.4899  0.6322
10720SOL    HW143814   2.206   9.792   2.333  2.5011 -1.4012  1.0482
10720SOL    HW243815   2.143   9.775   2.482  0.2389 -0.9774  0.1635
10721SOL     OW43816   7.478   7.854   6.804 -0.6990 -0.0092  0.0143
10721SOL    HW143817   7.529   7.815   6.881 -1.3795 -0.5637  0.1885
10721SOL    HW243818   7.413   7.786   6.769 -3.1990  1.5350  1.4822
10722SOL     OW43819   6.092   8.282   3.259 -0.0045 -0.2096  0.1297
10722SOL    HW143820   6.172   8.222   3.252  0.9665  0.9809  0.7891
10722SOL    HW243821   6.075   8.325   3.170 -0.4976 -1.1793 -0.2555
10723SOL     OW43822   4.737   3.616   6.536 -0.0721  0.7756  0.3813
10723SOL    HW143823   4.661   3.638   6.598  1.3632  0.3955  2.3342
10723SOL    HW243824   4.746   3.517   6.529 -0.4697  0.8171 -0.7601
10724SOL     OW43825   9.948   3.000   3.317 -0.4551  0.2133  0.9285
10724SOL    HW143826   9.888   2.920   3.310 -2.5700  1.7821  0.7254
10724SOL    HW243827   9.985   3.022   3.227 -1.0103  0.3192  0.7249
10725SOL     OW43828   1.434   5.853   7.005 -0.1345 -0.4202  0.1627
10725SOL    HW143829   1.353   5.808   6.968 -0.1263 -0.1305 -0.2048
10725SOL    HW243830   1.514   5.794   6.989 -0.4089 -1.1580  1.3920
10726SOL     OW43831   0.947   7.242   0.094  0.5822 -0.2357 -0.4103
10726SOL    HW143832   0.921   7.338   0.101 -0.6702 -0.5764 -0.4076
10726SOL    HW243833   1.036   7.235   0.048 -0.1118  0.8115 -1.9413
10727SOL     OW43834   2.239   9.163   4.417 -0.0741 -0.6792  0.2521
10727SOL    HW143835   2.139   9.166   4.417 -0.0873 -1.0455  0.6624
10727SOL    HW243836   2.274   9.235   4.477 -0.0518  0.4676 -1.1203
10728SOL     OW43837   6.523   8.927   7.682 -0.7445  0.5883  0.0466
10728SOL    HW143838   6.485   9.003   7.630 -0.3192  0.3756 -0.5796
10728SOL    HW243839   6.549   8.853   7.620  0.9431  0.8325  0.4457
10729SOL     OW43840   4.862   9.680   6.785  0.5464  0.1587  0.2302
10729SOL    HW143841   4.936   9.747   6.777  1.5253 -0.7033  1.9136
10729SOL    HW243842   4.851   9.633   6.698  0.6911  1.6242 -0.5975
10730SOL     OW43843   8.710   1.319   2.721 -0.1292  0.4860 -0.4381
10730SOL    HW143844   8.654   1.381   2.666 -0.6061  1.5640  1.2059
10730SOL    HW243845   8.662   1.300   2.807  1.4548  0.3898  0.4381
10731SOL     OW43846   6.010   1.294   1.164 -0.0400 -0.7968  0.7142
10731SOL    HW143847   6.104   1.289   1.196  0.2337  0.7978  0.2319
10731SOL    HW243848   5.957   1.353   1.226 -0.1913  0.0275 -0.1908
10732SOL     OW43849   3.931   6.053   7.227 -0.2364 -0.3376  0.0430
10732SOL    HW143850   3.954   5.959   7.203 -0.5525 -0.5124  0.4204
10732SOL    HW243851   3.926   6.108   7.144  0.3072 -0.5714 -0.1515
10733SOL     OW43852   7.843   8.355   7.685 -0.8257 -0.3311  0.3033
10733SOL    HW143853   7.872   8.422   7.617  0.9333 -0.5738  0.7746
10733SOL    HW243854   7.844   8.263   7.645 -1.4963 -0.2710  0.1559
10734SOL     OW43855   3.250   6.664   6.756  0.6395 -0.0818  0.6955
10734SOL    HW143856   3.286   6.753   6.727  0.1557  0.3942  1.5020
10734SOL    HW243857   3.152   6.662   6.741  0.3124  0.3312  2.6054
10735SOL     OW43858   6.821   9.042   5.556 -0.2315 -0.8368  0.4916
10735SOL    HW143859   6.895   8.987   5.593 -1.3817 -1.6360  1.6350
10735SOL    HW243860   6.786   9.103   5.627 -0.0457  0.2270 -0.3094
10736SOL     OW43861   3.063   2.636   6.423  0.7870  0.1644  0.4469
10736SOL    HW143862   3.110   2.572   6.485  0.0173  0.5029  1.3917
10736SOL    HW243863   2.980   2.669   6.467 -1.8629 -2.5565 -2.2471
10737SOL     OW43864   5.609   7.638   7.149  0.8489 -0.1921 -0.2551
10737SOL    HW143865   5.567   7.718   7.107 -1.1053  0.5184  2.9457
10737SOL    HW243866   5.558   7.556   7.121 -0.7079  0.3195  1.0329
10738SOL     OW43867   6.541   0.514   5.893  0.7271  0.0332  0.2525
10738SOL    HW143868   6.547   0.465   5.805 -0.6106  0.3941 -0.0580
10738SOL    HW243869   6.577   0.606   5.882 -1.0538  0.6763 -0.4032
10739SOL     OW43870   9.357   6.653   5.579 -0.0788 -0.0983 -0.1915
10739SOL    HW143871   9.375   6.582   5.647  0.0312 -0.3504 -0.4851
10739SOL    HW243872   9.443   6.694   5.550 -0.1773  0.4835  0.3287
10740SOL     OW43873   5.449   0.581   7.207 -0.6918  0.6994  0.1891
10740SOL    HW143874   5.409   0.539   7.288 -0.6552 -0.2004 -0.2580
10740SOL    HW243875   5.451   0.515   7.133  2.0486  0.5507  0.3353
10741SOL     OW43876   4.785   3.060   5.592 -0.2289 -0.0392 -0.3298
10741SOL    HW143877   4.732   3.139   5.562 -0.8473 -1.3707 -2.8981
10741SOL    HW243878   4.830   3.081   5.679 -1.2258  2.7296 -0.4298
10742SOL     OW43879   4.605   6.714   1.538 -0.1334  0.4802  0.6262
10742SOL    HW143880   4.697   6.727   1.576  0.2833  1.5344 -0.6759
10742SOL    HW243881   4.576   6.799   1.494 -2.4849  0.7143  2.5842
10743SOL     OW43882   8.979   1.135   7.194 -0.0048  0.2001 -0.5112
10743SOL    HW143883   8.947   1.168   7.105 -2.3264  0.8797  0.5490
10743SOL    HW243884   8.954   1.039   7.205  0.4550  0.0611 -0.6598
10744SOL     OW43885   7.867   3.773   2.697  0.0765 -0.0308  0.2266
10744SOL    HW143886   7.821   3.707   2.637 -0.1859 -2.2046  2.7638
10744SOL    HW243887   7.902   3.848   2.641 -1.6047 -1.1380 -2.4593
10745SOL     OW43888   8.521   1.046   1.120 -0.5850  0.3800 -0.3960
10745SOL    HW143889   8.454   0.994   1.067 -1.2643  1.1017 -0.2518
10745SOL    HW243890   8.610   1.002   1.113 -0.8230  0.0588 -1.5313
10746SOL     OW43891   0.039   7.709   5.550  0.2601 -0.9254  0.5044
10746SOL    HW143892  -0.003   7.800   5.552  2.4584  0.1171 -0.0938
10746SOL    HW243893  -0.010   7.652   5.484 -1.0717 -0.1773  0.8132
10747SOL     OW43894   7.933   6.436   1.638 -0.0680  0.2734  0.4272
10747SOL    HW143895   7.836   6.446   1.660  0.1111  0.2043  1.2883
10747SOL    HW243896   7.955   6.493   1.559 -0.5636  1.1987  0.9446
10748SOL     OW43897   7.010   4.623   2.143 -0.0357  0.2019 -0.5363
10748SOL    HW143898   6.953   4.705   2.131 -0.4098 -0.2759 -2.1407
10748SOL    HW243899   7.105   4.646   2.124 -0.2537  0.0916 -1.8228
10749SOL     OW43900   5.228   5.667   1.054  0.0714  0.1935 -0.0089
10749SOL    HW143901   5.298   5.613   1.008 -0.3459  1.1086 -1.7657
10749SOL    HW243902   5.191   5.615   1.131  1.3984 -1.0210 -0.1705
10750SOL     OW43903   9.462   8.298   7.160 -0.7007  0.1621 -0.2957
10750SOL    HW143904   9.392   8.240   7.202 -0.0419 -1.7425 -1.7329
10750SOL    HW243905   9.428   8.332   7.072  0.1738 -0.8253 -1.0317
10751SOL     OW43906   7.031   5.181   1.339 -0.4165  0.3213 -0.3409
10751SOL    HW143907   7.108   5.202   1.278 -0.4163  0.8235 -0.1677
10751SOL    HW243908   7.021   5.082   1.346 -0.0396  0.2545 -0.6856
10752SOL     OW43909   8.030   0.953   6.221  0.1099  0.3671  0.5476
10752SOL    HW143910   7.948   0.905   6.254  0.9400 -2.4092 -1.2049
10752SOL    HW243911   8.099   0.953   6.293 -0.1810 -0.3899  0.8346
10753SOL     OW43912   2.332   2.614   5.869  0.3080  0.0523  0.3312
10753SOL    HW143913   2.412   2.592   5.814 -1.0671  0.4969 -1.8774
10753SOL    HW243914   2.283   2.530   5.892 -1.2501  0.1600 -2.4458
10754SOL     OW43915   1.895   5.234   7.211 -0.0378  0.7107 -0.2610
10754SOL    HW143916   1.857   5.141   7.216 -0.3645  0.7107 -2.4215
10754SOL    HW243917   1.874   5.274   7.122  2.4338  1.8689 -0.3631
10755SOL     OW43918   5.054   5.513   2.487  0.3602 -0.1978  0.0246
10755SOL    HW143919   5.149   5.481   2.481  0.4507 -0.2455  1.6379
10755SOL    HW243920   5.011   5.475   2.568 -1.0155 -0.0635 -0.6270
10756SOL     OW43921   1.429   6.699   4.229  0.3763  0.3658  0.4927
10756SOL    HW143922   1.459   6.614   4.273  2.6918  0.6494 -0.4712
10756SOL    HW243923   1.423   6.685   4.130  0.0043  1.1230  0.4062
10757SOL     OW43924   3.339   9.492   7.732 -0.3414 -0.5451  0.5686
10757SOL    HW143925   3.404   9.566   7.715  0.1196 -0.7884  1.2504
10757SOL    HW243926   3.259   9.504   7.673  0.9283 -1.0334 -1.3276
10758SOL     OW43927   4.409   6.062   2.433  0.3556 -0.2571  0.6955
10758SOL    HW143928   4.484   6.048   2.368 -0.7541 -2.2660 -0.1668
10758SOL    HW243929   4.410   5.991   2.502 -1.0573 -0.6005  0.3860
10759SOL     OW43930   4.127   6.391   1.997 -0.1836  0.2728  1.0451
10759SOL    HW143931   4.074   6.310   1.969 -0.4327  0.5001  0.8521
10759SOL    HW243932   4.065   6.469   2.007  0.2480  0.7654 -0.0650
10760SOL     OW43933   0.181   8.350   2.850  0.3039  0.8662 -0.1356
10760SOL    HW143934   0.211   8.271   2.796  1.1578  0.2429  1.2150
10760SOL    HW243935   0.105   8.395   2.804  0.4783 -0.1334 -1.4407
10761SOL     OW43936   8.972   0.094   0.031 -0.6034 -0.2121  0.2917
10761SOL    HW143937   9.005   0.187   0.046  0.4938 -0.4571 -0.5526
10761SOL    HW243938   8.874   0.091   0.048 -0.7383  1.2138 -0.1385
10762SOL     OW43939   5.887   1.469   1.330  0.3067  0.1297  1.0216
10762SOL    HW143940   5.792   1.501   1.336 -0.3420 -0.9791 -2.3589
10762SOL    HW243941   5.949   1.546   1.339 -1.0306  1.3597 -0.0515
10763SOL     OW43942   0.517   3.981   7.239  0.0368 -0.6142 -0.0341
10763SOL    HW143943   0.448   3.997   7.169 -2.0878 -1.5469  1.7754
10763SOL    HW243944   0.483   3.914   7.305  2.2022 -0.2150  1.5641
10764SOL     OW43945   4.090   8.682   3.640  0.1087 -0.2544 -0.2170
10764SOL    HW143946   4.123   8.704   3.732 -0.9891  0.7196 -0.0352
10764SOL    HW243947   3.993   8.658   3.644 -0.5744  2.1550 -1.4103
10765SOL     OW43948   9.830   9.065   5.383  0.4071  0.0086  0.0254
10765SOL    HW143949   9.776   8.989   5.421  1.8430 -0.6299  0.8162
10765SOL    HW243950   9.785   9.100   5.301 -0.7705 -1.0738  0.2003
10766SOL     OW43951   4.140   7.123   0.348  0.2142 -0.2608  0.1921
10766SOL    HW143952   4.090   7.062   0.287 -0.0447 -0.0818  0.2247
10766SOL    HW243953   4.197   7.069   0.410 -0.0433 -0.4695  0.2463
10767SOL     OW43954   3.496   9.557   0.332 -0.8028 -0.1344  0.4814
10767SOL    HW143955   3.447   9.641   0.355 -2.9786 -1.8145  2.1322
10767SOL    HW243956   3.576   9.548   0.391 -0.0530  1.1976 -0.3052
10768SOL     OW43957   0.735   1.531   5.717 -0.4482 -0.0844 -0.3449
10768SOL    HW143958   0.831   1.525   5.692 -0.8342 -1.7531 -1.4796
10768SOL    HW243959   0.710   1.627   5.732  1.4977  0.3036  0.4733
10769SOL     OW43960   2.173   7.114   6.040 -0.1096  0.1528 -0.0410
10769SOL    HW143961   2.206   7.128   5.947  2.1881  0.7537  0.8213
10769SOL    HW243962   2.112   7.189   6.066 -0.6441  0.0528 -1.0267
10770SOL     OW43963   7.191   6.972   4.122  0.2648  0.5118 -0.3115
10770SOL    HW143964   7.214   6.920   4.204 -1.1394  0.6860  0.1995
10770SOL    HW243965   7.207   6.915   4.041 -1.3303 -0.7767  0.2402
10771SOL     OW43966   5.936   0.192   7.300  0.4720 -0.2830  0.0960
10771SOL    HW143967   6.016   0.206   7.241  0.3983  0.6433  0.1983
10771SOL    HW243968   5.889   0.280   7.313  0.6061 -0.4407  1.7052
10772SOL     OW43969   1.890   4.502   0.513 -0.2270  0.6996 -0.1857
10772SOL    HW143970   1.798   4.465   0.509  0.6375 -1.3765 -1.2821
10772SOL    HW243971   1.921   4.526   0.421  2.1373 -3.2734 -0.5374
10773SOL     OW43972   9.221   3.082   2.940 -0.5201  0.0152 -0.2196
10773SOL    HW143973   9.297   3.143   2.920  0.0975 -0.0269  1.8258
10773SOL    HW243974   9.213   3.071   3.040 -2.5003 -0.8576 -0.4561
10774SOL     OW43975   0.660   4.201   3.028 -0.3520 -0.5164  0.1019
10774SOL    HW143976   0.705   4.112   3.024 -1.7869 -1.2296 -0.4922
10774SOL    HW243977   0.594   4.203   3.103  0.8540  0.6189  1.1475
10775SOL     OW43978   4.295   2.954   6.077 -0.0288  0.3110  0.4096
10775SOL    HW143979   4.272   3.003   6.161  0.2555  1.2099 -0.0253
10775SOL    HW243980   4.213   2.913   6.038 -0.1723 -0.0467  1.0930
10776SOL     OW43981   1.154   0.228   4.595 -0.2136 -0.6258 -0.3621
10776SOL    HW143982   1.235   0.280   4.623 -0.7779 -0.8643  1.7734
10776SOL    HW243983   1.178   0.166   4.520  2.0087 -2.0191  1.4743
10777SOL     OW43984   2.865   1.782   2.078 -0.4893 -0.2305  0.2487
10777SOL    HW143985   2.798   1.766   2.150 -1.2051 -0.4430 -0.4492
10777SOL    HW243986   2.832   1.742   1.992  1.2172 -1.6256  0.2244
10778SOL     OW43987   1.286   7.436   2.793  0.2927  0.2426 -0.2591
10778SOL    HW143988   1.276   7.443   2.892  2.4025  1.6450 -0.1050
10778SOL    HW243989   1.348   7.361   2.771  1.9193  1.5821 -0.3527
10779SOL     OW43990   4.263   3.948   0.344 -0.2564 -0.0069 -0.4357
10779SOL    HW143991   4.347   3.907   0.308  0.1504  0.4570 -0.0226
10779SOL    HW243992   4.184   3.906   0.300  0.1332 -1.5483  0.3394
10780SOL     OW43993   3.064   6.910   3.018 -0.4348  0.0591 -0.0525
10780SOL    HW143994   2.970   6.913   3.053 -0.5621 -1.5096 -0.2475
10780SOL    HW243995   3.091   6.815   3.002  1.1113  0.5105 -0.2154
10781SOL     OW43996   1.160   5.647   3.064  0.6669  0.1956 -0.6328
10781SOL    HW143997   1.067   5.681   3.077  0.9713  1.4404 -1.6091
10781SOL    HW243998   1.169   5.610   2.971  0.6442 -1.5753  0.0598
10782SOL     OW43999   8.672   8.918   4.811 -0.1960 -0.3316  0.3617
10782SOL    HW144000   8.719   8.832   4.828  0.0876  0.2038  2.4934
10782SOL    HW244001   8.694   8.951   4.719 -1.9007 -3.4732 -1.2312
10783SOL     OW44002   6.665   2.725   3.714  0.1218 -0.3255 -0.2241
10783SOL    HW144003   6.694   2.820   3.698  0.1708 -0.3077 -0.0357
10783SOL    HW244004   6.732   2.663   3.675 -0.1854 -0.2826 -0.8321
10784SOL     OW44005   3.317   4.546   4.929  0.3891  0.1968  0.0478
10784SOL    HW144006   3.257   4.611   4.976  0.8078  0.0263  0.8289
10784SOL    HW244007   3.319   4.566   4.831 -0.0110  0.9359  0.1906
10785SOL     OW44008   2.106   5.059   2.549 -0.3075  0.4363 -0.6582
10785SOL    HW144009   2.169   5.129   2.582  1.6368 -0.3945 -2.4766
10785SOL    HW244010   2.132   4.970   2.586  0.1700 -0.0507 -2.1238
10786SOL     OW44011   3.139   2.595   2.325 -0.5133 -0.6808 -0.1939
10786SOL    HW144012   3.167   2.626   2.416  0.0612 -1.0807 -0.2337
10786SOL    HW244013   3.220   2.577   2.270 -0.7435  3.4135 -2.1212
10787SOL     OW44014   4.643   5.159   7.365  0.0982  0.0568  0.2904
10787SOL    HW144015   4.664   5.221   7.290  0.7537 -0.0865  0.3512
10787SOL    HW244016   4.561   5.190   7.413 -0.8714 -0.3610 -1.0600
10788SOL     OW44017   6.605   1.770   4.110 -0.1353 -0.1707 -0.0496
10788SOL    HW144018   6.631   1.851   4.057 -0.3437  0.1674  0.3575
10788SOL    HW244019   6.562   1.703   4.050  1.3581 -0.6011 -0.6830
10789SOL     OW44020   4.445   4.404   1.383 -0.1456 -0.2402  0.0633
10789SOL    HW144021   4.524   4.395   1.323 -0.5318  0.5894 -0.5779
10789SOL    HW244022   4.400   4.315   1.392 -0.8230 -0.1234 -1.9042
10790SOL     OW44023   9.680   0.475   1.604 -0.0281  0.2469  0.0294
10790SOL    HW144024   9.668   0.549   1.537 -1.6581  0.4833  0.5595
10790SOL    HW244025   9.696   0.389   1.556 -0.7223  0.4984 -0.6727
10791SOL     OW44026   6.558   0.681   3.960  0.2303 -0.7079  0.2864
10791SOL    HW144027   6.594   0.678   3.867 -0.1064  0.6921  0.1054
10791SOL    HW244028   6.499   0.761   3.971  0.2412 -0.8754  1.6954
10792SOL     OW44029   9.224   4.981   1.491 -0.4887 -0.4973 -0.4008
10792SOL    HW144030   9.235   5.038   1.410  2.0192 -0.7169 -0.2361
10792SOL    HW244031   9.185   5.036   1.565  2.2136  1.1230 -0.1388
10793SOL     OW44032   5.200   8.261   5.468 -0.5410  0.1489 -0.7749
10793SOL    HW144033   5.186   8.188   5.402 -1.3193 -0.5946  0.1970
10793SOL    HW244034   5.111   8.288   5.506 -0.2293  1.3805 -0.8862
10794SOL     OW44035   8.263   8.068   4.461  0.2989 -0.2938 -0.2008
10794SOL    HW144036   8.195   8.076   4.388  2.3918  1.0671 -2.0468
10794SOL    HW244037   8.328   7.996   4.438  1.1366  0.3345  0.1889
10795SOL     OW44038   3.789   9.972   6.812 -0.5040  0.0206  0.0434
10795SOL    HW144039   3.721  10.045   6.802 -1.4586 -0.7566  0.8630
10795SOL    HW244040   3.747   9.884   6.790  0.5015 -0.3641 -0.3842
10796SOL     OW44041   5.609   9.517   4.268 -0.7366 -0.0136  0.8526
10796SOL    HW144042   5.515   9.541   4.295 -0.8115 -0.3401  0.8866
10796SOL    HW244043   5.663   9.600   4.258 -0.8890  0.1467  1.3566
10797SOL     OW44044   9.228   2.865   5.921  0.4599 -0.4375  0.0760
10797SOL    HW144045   9.144   2.820   5.891  1.1076 -1.9996  0.5859
10797SOL    HW244046   9.228   2.874   6.020 -0.2087  1.7982 -0.1064
10798SOL     OW44047   8.675   9.722   8.081 -1.1634 -0.1635  0.5364
10798SOL    HW144048   8.577   9.704   8.073 -0.6221 -2.2846 -2.0718
10798SOL    HW244049   8.725   9.635   8.086  0.6432  0.8599  0.9835
10799SOL     OW44050   1.674   5.956   2.265  0.6092  0.3732 -0.0632
10799SOL    HW144051   1.722   5.869   2.258 -0.4377 -0.2085 -0.1990
10799SOL    HW244052   1.698   6.014   2.186  1.4377  0.2847  0.1197
10800SOL     OW44053   1.578   6.520   7.097 -0.0367  0.0124 -0.1742
10800SOL    HW144054   1.651   6.453   7.079  0.2476 -0.1880  1.6467
10800SOL    HW244055   1.595   6.564   7.185 -0.5981  2.0156 -1.0453
10801SOL     OW44056   1.416   8.477   6.481  0.0938 -0.2932 -0.6019
10801SOL    HW144057   1.493   8.530   6.444 -0.3122 -1.2765 -2.9614
10801SOL    HW244058   1.330   8.523   6.459 -0.1461 -0.8259 -0.7859
10802SOL     OW44059   8.396   6.763   4.644 -0.1603 -0.1730 -0.0063
10802SOL    HW144060   8.458   6.778   4.721 -3.3750  1.7887  2.3574
10802SOL    HW244061   8.410   6.834   4.575 -0.9721  1.3810  1.3826
10803SOL     OW44062   5.968   9.272   4.223 -0.1361 -0.1235 -0.0844
10803SOL    HW144063   5.974   9.195   4.160  2.4035  0.9293 -1.1765
10803SOL    HW244064   5.969   9.358   4.172  2.2392  0.7434  1.3536
10804SOL     OW44065   3.535   9.035   2.993 -0.4944 -0.1683  0.0698
10804SOL    HW144066   3.536   8.970   2.917  0.2784  0.5720 -0.5563
10804SOL    HW244067   3.480   8.997   3.068 -1.6296 -0.7097 -1.0113
10805SOL     OW44068   0.829   4.038   7.770 -0.4886  0.1472  0.1390
10805SOL    HW144069   0.814   3.943   7.797 -1.3641 -0.5525 -2.7391
10805SOL    HW244070   0.894   4.041   7.694  0.0908  1.9100  0.6855
10806SOL     OW44071   3.534   9.957   5.952 -0.0900 -0.2074  0.1384
10806SOL    HW144072   3.473  10.023   5.996 -0.3983 -0.0424 -0.5266
10806SOL    HW244073   3.599   9.922   6.019 -0.2741  0.3642  0.6248
10807SOL     OW44074   0.333   8.110   4.786 -0.2859  0.2873  0.2874
10807SOL    HW144075   0.329   8.137   4.690 -1.4165  1.0553  0.5437
10807SOL    HW244076   0.262   8.158   4.838  1.2096  0.9648  1.7785
10808SOL     OW44077   3.498   3.621   5.603 -0.4439 -0.1532 -0.6675
10808SOL    HW144078   3.496   3.585   5.510 -2.3780 -0.0815 -0.6760
10808SOL    HW244079   3.415   3.593   5.652 -0.3649  1.3917  0.4078
10809SOL     OW44080   9.353   7.861   3.277  0.2520  0.6445 -0.2506
10809SOL    HW144081   9.372   7.783   3.337 -0.7029  0.5488 -0.0600
10809SOL    HW244082   9.369   7.946   3.326 -1.7419  0.5810  0.5759
10810SOL     OW44083   8.664   3.792   3.116  0.3196  0.6571  0.0306
10810SOL    HW144084   8.617   3.790   3.204  0.5638 -0.5390  0.1452
10810SOL    HW244085   8.720   3.710   3.106 -0.9306 -0.0063 -1.8959
10811SOL     OW44086   5.340   0.476   6.160  0.4237  0.3001  0.1393
10811SOL    HW144087   5.278   0.554   6.166  1.3636  0.9408  1.8342
10811SOL    HW244088   5.367   0.448   6.253  1.3889 -1.0072 -0.5216
10812SOL     OW44089   4.797   1.294   1.763 -0.2160 -0.0059  0.2688
10812SOL    HW144090   4.884   1.284   1.810  0.0056 -0.6334 -0.2521
10812SOL    HW244091   4.812   1.291   1.664 -0.7323  0.7327  0.1611
10813SOL     OW44092   7.755   8.898   7.356 -0.4540  0.0196 -0.0204
10813SOL    HW144093   7.837   8.955   7.367  0.7355 -1.2362 -1.9906
10813SOL    HW244094   7.727   8.900   7.260 -2.6078  0.2215  0.5923
10814SOL     OW44095   4.239   9.297   3.022  0.1249 -0.3135  0.7722
10814SOL    HW144096   4.167   9.246   3.071 -1.9618  1.3075 -0.4959
10814SOL    HW244097   4.275   9.368   3.082  0.2190 -0.7384  1.2190
10815SOL     OW44098   1.341   6.568   4.819 -1.0070  0.0108  0.1558
10815SOL    HW144099   1.276   6.644   4.814 -0.8523  0.0566 -1.5195
10815SOL    HW244100   1.434   6.602   4.805 -0.9725 -0.5206 -0.9830
10816SOL     OW44101   8.425   4.322   6.004  0.8035 -0.1660 -0.3866
10816SOL    HW144102   8.356   4.366   6.060  0.0980 -2.3668  0.5185
10816SOL    HW244103   8.507   4.380   6.000 -0.7737  2.0915 -0.8402
10817SOL     OW44104   2.815   5.137   3.439  0.0656  0.0472  0.4874
10817SOL    HW144105   2.845   5.042   3.439  2.3695  0.7589  1.1007
10817SOL    HW244106   2.721   5.142   3.475  0.0319 -1.9343  0.7467
10818SOL     OW44107   3.707   4.171   2.407 -0.3007 -0.1170  0.1381
10818SOL    HW144108   3.737   4.081   2.439 -0.1864 -0.4368 -0.8668
10818SOL    HW244109   3.612   4.166   2.377 -0.2406  0.0630 -0.0819
10819SOL     OW44110   4.059   5.432   1.462  0.5109 -0.1937 -0.0159
10819SOL    HW144111   4.114   5.370   1.405 -1.1541 -1.6392 -0.1168
10819SOL    HW244112   3.974   5.386   1.488  0.1524  1.3464  1.6300
10820SOL     OW44113   3.201   0.650   7.096  0.1774 -0.0915  0.4318
10820SOL    HW144114   3.124   0.637   7.034  0.2132  0.3384  0.2954
10820SOL    HW244115   3.201   0.745   7.129  1.4615  0.3101 -0.6745
10821SOL     OW44116   1.173   6.714   6.808  0.3459  0.2406  0.0031
10821SOL    HW144117   1.091   6.772   6.801 -0.2769 -0.4299  1.6287
10821SOL    HW244118   1.220   6.713   6.719 -0.6828  1.6841 -0.5800
10822SOL     OW44119   6.672   7.327   2.246  0.3600 -0.3586 -0.0608
10822SOL    HW144120   6.752   7.345   2.189 -0.4540  2.4246 -0.3964
10822SOL    HW244121   6.660   7.402   2.311 -2.3754 -0.3880 -0.4810
10823SOL     OW44122   2.462   8.831   2.862  0.3961 -0.1569  0.3044
10823SOL    HW144123   2.385   8.850   2.924 -0.7498  0.4462 -1.2887
10823SOL    HW244124   2.523   8.910   2.860 -0.9789  0.8858 -1.3722
10824SOL     OW44125   4.663   8.825   2.046  0.0410 -0.0062 -0.0080
10824SOL    HW144126   4.709   8.900   2.095  0.4258 -0.3074  0.0931
10824SOL    HW244127   4.624   8.762   2.112  0.9725 -0.6674 -0.0786
10825SOL     OW44128   0.254   2.294   1.715  0.3444  0.2241  0.1102
10825SOL    HW144129   0.231   2.211   1.664  2.2306 -1.0401  1.2790
10825SOL    HW244130   0.348   2.289   1.749  0.3375  2.6284  0.6346
10826SOL     OW44131   0.995   5.142   4.311 -0.0698  0.0342 -0.1803
10826SOL    HW144132   1.035   5.124   4.401  0.0918  0.5652 -0.1454
10826SOL    HW244133   0.964   5.056   4.271  1.4805 -0.4496 -0.3865
10827SOL     OW44134   3.824   3.020   4.923 -0.7642 -0.1384  0.0161
10827SOL    HW144135   3.775   2.935   4.902  0.0609 -0.1706 -1.8247
10827SOL    HW244136   3.867   3.011   5.013 -0.0080 -2.0131 -0.5035
10828SOL     OW44137   8.896   3.664   2.683  0.1401 -0.1327 -0.1305
10828SOL    HW144138   8.850   3.751   2.663  2.3642  1.0224 -0.3785
10828SOL    HW244139   8.943   3.671   2.771  1.1499 -0.7509 -0.6164
10829SOL     OW44140   0.797   3.132   2.548  0.0129 -0.1952  0.4834
10829SOL    HW144141   0.839   3.066   2.610  0.2559  2.3456  3.1152
10829SOL    HW244142   0.700   3.141   2.571 -0.0821  0.1633 -0.0581
10830SOL     OW44143   3.281   7.402   0.736  0.2305  0.1278  0.7838
10830SOL    HW144144   3.298   7.417   0.834  0.6561  1.8397  0.4697
10830SOL    HW244145   3.368   7.388   0.689  0.1070  0.2635  0.5136
10831SOL     OW44146   8.397   8.950   7.999 -0.0874 -0.4579  0.5019
10831SOL    HW144147   8.302   8.980   8.002  0.1195  0.3395 -0.7425
10831SOL    HW244148   8.407   8.877   7.932  0.0504 -1.0028  1.1150
10832SOL     OW44149   9.749   6.862   4.605  0.1021  0.4294  0.3366
10832SOL    HW144150   9.770   6.868   4.702  1.2194 -1.0036  0.1960
10832SOL    HW244151   9.822   6.906   4.552  1.1044 -1.6086  0.0018
10833SOL     OW44152   2.676   2.167   7.665 -0.1215 -0.0097  0.6228
10833SOL    HW144153   2.759   2.214   7.697  0.2561  0.5516 -1.1261
10833SOL    HW244154   2.669   2.078   7.710  1.9406 -0.4554  0.1055
10834SOL     OW44155   1.058   9.359   6.877 -0.2900  0.7481  0.2031
10834SOL    HW144156   0.975   9.384   6.927  0.1003  0.8957  0.7869
10834SOL    HW244157   1.135   9.413   6.911  0.2583 -0.1529  0.4201
10835SOL     OW44158   7.869   6.741   8.196 -0.1666  0.0381  0.3320
10835SOL    HW144159   7.967   6.736   8.173 -0.0823  2.1502  0.0619
10835SOL    HW244160   7.857   6.796   8.279 -1.2019  0.6692 -0.2290
10836SOL     OW44161   8.566   6.226   6.537 -0.4015  0.0830  0.0474
10836SOL    HW144162   8.559   6.126   6.536 -2.1009  0.1937 -0.2747
10836SOL    HW244163   8.566   6.260   6.443  1.6677  0.2973  0.1155
10837SOL     OW44164   5.233   8.459   4.698  0.2230 -0.4474 -0.4360
10837SOL    HW144165   5.157   8.492   4.642 -0.8771 -0.2756  1.1284
10837SOL    HW244166   5.263   8.370   4.664 -0.5422 -0.4291 -1.1871
10838SOL     OW44167   2.107   2.677   2.383  0.1413 -0.6224 -0.2269
10838SOL    HW144168   2.206   2.662   2.380  0.2468 -0.3137  1.2518
10838SOL    HW244169   2.084   2.759   2.332  0.8017 -0.0068  0.4581
10839SOL     OW44170   5.377   6.363   9.940 -0.7771  0.0366  0.1127
10839SOL    HW144171   5.456   6.308   9.913 -0.2065  0.2150  1.3885
10839SOL    HW244172   5.391   6.458   9.912 -1.2538 -0.2272 -1.0653
10840SOL     OW44173   2.559   6.720   0.429  0.7066  0.5069  0.0641
10840SOL    HW144174   2.638   6.743   0.486 -0.4872  0.8032  1.6291
10840SOL    HW244175   2.480   6.774   0.458 -0.9146 -2.0614  0.6201
10841SOL     OW44176   1.599   8.842   7.222 -0.1279  0.0438  0.0450
10841SOL    HW144177   1.637   8.928   7.189  0.1591 -0.1968 -0.2436
10841SOL    HW244178   1.618   8.769   7.157 -1.1155 -0.0700 -0.1264
10842SOL     OW44179   2.854   9.171   2.075  0.2725  0.3778  0.2301
10842SOL    HW144180   2.815   9.247   2.022  1.3404  1.1005  0.4874
10842SOL    HW244181   2.861   9.197   2.171  0.9830  0.0835  0.2579
10843SOL     OW44182   4.004   0.028   5.148  0.1648  0.5832 -0.0898
10843SOL    HW144183   4.074   0.099   5.154  0.6207  0.2077 -0.9107
10843SOL    HW244184   3.987   0.007   5.052 -1.5873  1.1769  0.0715
10844SOL     OW44185   2.139   9.815   5.320 -0.1115  0.3854  0.2038
10844SOL    HW144186   2.215   9.813   5.384 -0.1089 -0.1140  0.1846
10844SOL    HW244187   2.173   9.800   5.227 -0.1903  0.4967  0.1567
10845SOL     OW44188   2.875   2.568   5.603 -0.4038  0.7411  0.3075
10845SOL    HW144189   2.778   2.560   5.579  0.1435  1.6364 -2.3195
10845SOL    HW244190   2.918   2.477   5.599 -0.8148  0.5554  0.0877
10846SOL     OW44191   6.170   1.238   4.550  0.1083  0.2106  0.4799
10846SOL    HW144192   6.167   1.239   4.450 -0.4866 -0.5545  0.4887
10846SOL    HW244193   6.265   1.228   4.580  0.2277 -0.1406 -0.0114
10847SOL     OW44194   7.246   2.401   0.926 -0.0903 -0.3407 -0.2652
10847SOL    HW144195   7.238   2.428   0.830  0.5176 -2.2184 -0.8828
10847SOL    HW244196   7.277   2.306   0.931  0.5081 -0.0660  1.8076
10848SOL     OW44197   8.266   0.585   6.236 -0.0375  0.3891  0.6509
10848SOL    HW144198   8.222   0.657   6.182  1.8715 -0.2274 -1.8023
10848SOL    HW244199   8.210   0.503   6.234  0.2861  0.2037 -0.8542
10849SOL     OW44200   5.209   3.410   0.344 -0.5619 -0.1783 -0.0733
10849SOL    HW144201   5.196   3.502   0.308 -1.3505 -0.3041 -0.1191
10849SOL    HW244202   5.125   3.379   0.390 -0.9185 -1.5398 -1.5895
10850SOL     OW44203   1.143   4.114   6.565  0.3512 -0.2042 -0.5741
10850SOL    HW144204   1.201   4.041   6.531  0.2427 -0.2362 -0.6913
10850SOL    HW244205   1.199   4.184   6.610  0.1876 -2.0907  2.7512
10851SOL     OW44206   1.356   0.748   5.363 -0.4348 -0.0970  0.0228
10851SOL    HW144207   1.325   0.841   5.344 -0.1061 -0.3436 -1.8994
10851SOL    HW244208   1.288   0.700   5.418 -0.8773  1.0862  0.5131
10852SOL     OW44209   3.311   6.603   5.416  0.0605  0.0097 -0.1672
10852SOL    HW144210   3.237   6.544   5.384 -1.7107  0.9360  2.0605
10852SOL    HW244211   3.296   6.697   5.386  0.2049  0.2465  0.4831
10853SOL     OW44212   7.469   1.744   4.128  0.0621 -0.0577 -0.3666
10853SOL    HW144213   7.403   1.669   4.120 -0.0482  0.0531 -0.4864
10853SOL    HW244214   7.559   1.712   4.099 -0.1581  0.0964 -1.2493
10854SOL     OW44215   2.706   8.213   1.292 -0.8222  0.3781  0.0263
10854SOL    HW144216   2.718   8.283   1.222  0.2605 -0.2434 -0.4294
10854SOL    HW244217   2.609   8.195   1.306 -1.0487  0.0112 -1.8364
10855SOL     OW44218   1.849   4.441   5.248 -0.5404  0.0353  0.4203
10855SOL    HW144219   1.880   4.473   5.338 -0.4842 -0.8948  0.7299
10855SOL    HW244220   1.839   4.342   5.249 -0.5829  0.0244 -0.5914
10856SOL     OW44221   2.114   9.676   1.460  0.2215 -0.3302  0.4299
10856SOL    HW144222   2.065   9.728   1.530  2.1523  0.6904  1.0528
10856SOL    HW244223   2.101   9.720   1.371  2.0903  1.4450  0.9958
10857SOL     OW44224   2.372   9.593   0.342 -0.1786  0.2430  0.1952
10857SOL    HW144225   2.365   9.595   0.242  0.0265  1.2880  0.1970
10857SOL    HW244226   2.284   9.620   0.381 -0.4211 -0.6973  0.3020
10858SOL     OW44227   0.462   1.255   1.878  0.4933  0.1953  0.1126
10858SOL    HW144228   0.446   1.251   1.780  1.5810 -0.1224 -0.0595
10858SOL    HW244229   0.399   1.194   1.926  0.1610  0.1342 -0.4055
10859SOL     OW44230   5.994   9.898   5.969  0.6712 -0.1403  0.1875
10859SOL    HW144231   5.924   9.970   5.963 -0.4768 -1.3647 -1.6542
10859SOL    HW244232   5.950   9.812   5.995  1.4031 -1.0581 -1.5927
10860SOL     OW44233   3.162   7.747   0.365 -0.2090 -0.1389 -0.4589
10860SOL    HW144234   3.081   7.789   0.406  0.6877  1.6947 -0.5377
10860SOL    HW244235   3.220   7.710   0.438 -0.5958 -0.5353 -0.3444
10861SOL     OW44236   3.991   2.556   2.805  0.0868 -0.5619 -0.0021
10861SOL    HW144237   4.021   2.529   2.713  0.6359  0.5197 -0.1486
10861SOL    HW244238   4.042   2.502   2.873  0.9499 -0.1247 -0.2974
10862SOL     OW44239   8.790   4.208   4.611  1.1048  0.1103  0.9777
10862SOL    HW144240   8.737   4.135   4.569 -0.1080  2.0118 -0.8782
10862SOL    HW244241   8.885   4.202   4.581  1.0494 -0.7729  0.9612
10863SOL     OW44242   7.992   0.614   5.755 -0.1522 -0.1937 -0.0794
10863SOL    HW144243   7.996   0.710   5.728 -1.3879 -0.2560 -0.4984
10863SOL    HW244244   8.084   0.575   5.753  0.5770  1.3602  1.4736
10864SOL     OW44245   9.054   0.859   4.536 -0.3250  0.5491  0.1500
10864SOL    HW144246   9.008   0.939   4.576  0.4570  0.1768  1.8489
10864SOL    HW244247   9.141   0.887   4.496 -0.6412  0.7545 -0.4002
10865SOL     OW44248   0.956   7.246   1.349 -0.1690  0.2735  0.0304
10865SOL    HW144249   1.015   7.198   1.284  0.7615  1.2155  0.1683
10865SOL    HW244250   0.964   7.344   1.336 -3.4588  0.3960 -1.4570
10866SOL     OW44251   6.214   8.132   4.201 -0.1022  0.1075 -0.3380
10866SOL    HW144252   6.181   8.207   4.258  0.3025  1.2939 -1.6509
10866SOL    HW244253   6.139   8.097   4.145  0.5760  2.1534 -2.5980
10867SOL     OW44254   3.495   5.907   0.511  0.2088 -0.5938  0.6378
10867SOL    HW144255   3.472   5.843   0.584 -1.4925 -0.7971 -0.0354
10867SOL    HW244256   3.420   5.973   0.500  1.1916  0.4659  0.1940
10868SOL     OW44257   0.134   3.289   0.887  0.1668  0.0816  0.8778
10868SOL    HW144258   0.039   3.264   0.868  0.2226  0.1886  0.4668
10868SOL    HW244259   0.152   3.275   0.985 -0.8917  2.1326  1.3882
10869SOL     OW44260   1.434   3.301   2.854 -0.2899  0.1239 -0.0622
10869SOL    HW144261   1.415   3.389   2.813 -1.2706 -0.8444 -1.7295
10869SOL    HW244262   1.524   3.303   2.898  0.3512  1.4608 -1.4099
10870SOL     OW44263   3.588   5.860   7.143 -0.3362  0.1002 -0.3064
10870SOL    HW144264   3.620   5.805   7.220  0.4460  0.8260 -0.1013
10870SOL    HW244265   3.665   5.881   7.082 -0.4713  1.5837  0.0081
10871SOL     OW44266   1.722   8.742   5.059 -0.0808 -0.1720  0.0782
10871SOL    HW144267   1.755   8.809   4.992 -0.8403  0.3721  0.2377
10871SOL    HW244268   1.652   8.685   5.017  1.2580 -1.5257 -0.3500
10872SOL     OW44269   1.408   3.365   1.276  0.1344  0.3112  0.0513
10872SOL    HW144270   1.400   3.407   1.366  1.7085  1.5888 -0.3912
10872SOL    HW244271   1.477   3.292   1.279 -0.3828 -0.1817  0.0661
10873SOL     OW44272   0.686   0.769   3.428  0.2837 -0.0176  0.5417
10873SOL    HW144273   0.731   0.716   3.357 -1.6045  1.1198 -1.6012
10873SOL    HW244274   0.711   0.866   3.418 -1.6734  0.4604  0.0230
10874SOL     OW44275   7.300   1.189   1.638  0.5861 -0.6218  0.0072
10874SOL    HW144276   7.285   1.120   1.709  0.5575  0.0938  0.6870
10874SOL    HW244277   7.308   1.143   1.549  2.8549 -1.7175  0.7322
10875SOL     OW44278   3.771   8.675   4.233  0.7486  0.7128 -0.2154
10875SOL    HW144279   3.827   8.687   4.315  0.4604 -0.6734  0.1918
10875SOL    HW244280   3.730   8.584   4.233  1.3865  0.3860 -2.2861
10876SOL     OW44281   3.333   1.047   5.979  0.0979  0.1785 -0.0629
10876SOL    HW144282   3.275   1.012   5.906  1.5598  0.2164 -1.2704
10876SOL    HW244283   3.276   1.089   6.050 -1.4483 -1.5689 -0.2497
10877SOL     OW44284   4.792   5.497   1.820  0.1020 -0.3268 -0.4564
10877SOL    HW144285   4.733   5.473   1.897 -0.8815 -0.8103 -1.3549
10877SOL    HW244286   4.753   5.462   1.735  1.2242  0.1261 -1.1784
10878SOL     OW44287   1.375   0.853   6.039  1.2243 -0.1943  0.0743
10878SOL    HW144288   1.279   0.880   6.043  1.8839  2.6846 -2.0061
10878SOL    HW244289   1.391   0.798   5.957  1.5518  0.1366 -0.0821
10879SOL     OW44290   3.833   1.073   0.895  0.1690 -0.7395 -0.1638
10879SOL    HW144291   3.877   1.052   0.808  0.5663 -1.9916  0.3275
10879SOL    HW244292   3.861   1.164   0.925  1.1112 -0.8557 -0.6737
10880SOL     OW44293   4.005   3.973   4.376  0.2947 -0.3074  0.4388
10880SOL    HW144294   3.939   4.023   4.320 -1.0259 -0.8099  1.5085
10880SOL    HW244295   4.017   3.881   4.339 -0.1427 -0.4468  0.6338
10881SOL     OW44296   5.236   8.963   5.990 -0.4260  0.3112  0.0750
10881SOL    HW144297   5.245   8.973   6.089  1.8396  2.4784 -0.2920
10881SOL    HW244298   5.261   8.870   5.964  0.4870  0.1706  1.3779
10882SOL     OW44299   5.218   5.153   1.985  0.1406 -0.5095  0.7843
10882SOL    HW144300   5.129   5.181   1.949  0.7496 -1.8418 -1.8624
10882SOL    HW244301   5.218   5.163   2.084 -2.2936  1.3493  0.6483
10883SOL     OW44302   7.572   6.494   4.966 -0.2637 -0.0348  0.0644
10883SOL    HW144303   7.608   6.468   5.056  2.2721 -1.3876 -1.2890
10883SOL    HW244304   7.507   6.425   4.935  1.7885 -1.6757 -0.7840
10884SOL     OW44305   0.537   4.810   0.768 -0.2541 -0.4543 -0.7334
10884SOL    HW144306   0.572   4.765   0.686 -0.8758 -1.5189 -0.4205
10884SOL    HW244307   0.485   4.745   0.823 -0.5674  0.4658  0.0877
10885SOL     OW44308   9.421   4.388   5.045  0.0884 -0.0366 -0.2503
10885SOL    HW144309   9.322   4.376   5.045  0.0242  0.3390 -1.5000
10885SOL    HW244310   9.465   4.307   5.007  0.3527 -0.7468  1.5384
10886SOL     OW44311   2.807   2.103   7.396 -0.4135 -0.2955  0.1746
10886SOL    HW144312   2.810   2.138   7.490  0.2028  0.4402 -0.1193
10886SOL    HW244313   2.712   2.081   7.372 -0.8580  1.5121  0.2317
10887SOL     OW44314   1.359   2.131   6.522 -0.4520  0.2375 -0.4159
10887SOL    HW144315   1.405   2.156   6.607 -0.4940  0.3786 -0.4358
10887SOL    HW244316   1.411   2.057   6.477  0.1801  0.9283 -0.8308
10888SOL     OW44317   7.343   0.494   7.040  0.2255  0.1673 -0.2163
10888SOL    HW144318   7.256   0.448   7.021 -1.1583  1.8936  1.6419
10888SOL    HW244319   7.361   0.562   6.970  1.1008 -1.5268 -1.6841
10889SOL     OW44320   1.564   4.022   3.683 -0.6393 -0.2420  0.0822
10889SOL    HW144321   1.606   3.934   3.708 -1.9178 -0.7452  0.5126
10889SOL    HW244322   1.490   4.006   3.618 -1.0987  0.4942  0.4251
10890SOL     OW44323   3.541   5.848   1.836 -0.1043  0.4135  0.4234
10890SOL    HW144324   3.484   5.848   1.754 -2.0796 -0.5019  1.7701
10890SOL    HW244325   3.502   5.786   1.905  1.7042  0.8922  1.9385
10891SOL     OW44326   2.647   4.730   5.880  0.2371  0.1329 -0.2272
10891SOL    HW144327   2.567   4.674   5.904  1.0164 -0.5278  0.8339
10891SOL    HW244328   2.629   4.825   5.905 -0.1789 -0.0256  0.0884
10892SOL     OW44329   6.964   2.900   4.808  0.5122 -0.0321  0.3155
10892SOL    HW144330   6.991   2.815   4.763 -1.0518 -0.9657  1.0994
10892SOL    HW244331   6.865   2.901   4.821  0.5036  1.9554  0.2481
10893SOL     OW44332   1.539   8.395   6.053 -0.2692 -0.0244 -0.7084
10893SOL    HW144333   1.500   8.415   5.963  1.1706 -0.6082 -1.4823
10893SOL    HW244334   1.631   8.358   6.042 -0.1557 -0.3046  1.0067
10894SOL     OW44335   2.330   0.350   0.707  0.7142  0.2868 -0.1556
10894SOL    HW144336   2.343   0.444   0.738 -1.4516  1.2445 -2.0329
10894SOL    HW244337   2.251   0.310   0.753  1.7578 -0.7186  0.8018
10895SOL     OW44338   0.069   2.464   0.739  0.0917 -0.3946  0.1593
10895SOL    HW144339  -0.008   2.527   0.731 -0.1485 -0.7699 -0.5278
10895SOL    HW244340   0.143   2.508   0.790  0.3009  0.8063 -1.1530
10896SOL     OW44341   1.832   6.308   0.402  0.2938 -0.3431  0.0093
10896SOL    HW144342   1.924   6.284   0.372  0.6530  1.7518 -0.5966
10896SOL    HW244343   1.837   6.370   0.479 -0.6114  0.1305 -0.3091
10897SOL     OW44344   9.493   6.483   2.219 -0.4467 -0.2197  0.5977
10897SOL    HW144345   9.512   6.433   2.303 -2.1349  1.2236  1.8656
10897SOL    HW244346   9.532   6.575   2.226  2.0336 -1.0313 -1.4384
10898SOL     OW44347   1.900   7.444   5.612 -0.2926 -0.0043  0.3813
10898SOL    HW144348   1.971   7.456   5.542 -1.2990  0.2179 -0.6204
10898SOL    HW244349   1.837   7.372   5.584 -0.9082  0.3269  0.8832
10899SOL     OW44350   3.504   0.973   6.169  0.2172  0.1539 -0.0822
10899SOL    HW144351   3.561   0.891   6.163 -2.5648 -1.8945  0.2932
10899SOL    HW244352   3.469   0.996   6.079 -0.3444 -0.0945  0.0671
10900SOL     OW44353   7.740   6.926   4.898 -0.7385  0.1232  0.6792
10900SOL    HW144354   7.753   6.830   4.923 -0.1062  0.0694  0.1508
10900SOL    HW244355   7.814   6.955   4.838 -0.9518  0.9331  0.8066
10901SOL     OW44356   8.281   0.554   3.855  0.1178  0.3540 -0.1857
10901SOL    HW144357   8.379   0.574   3.851  0.1482  0.1076 -0.6596
10901SOL    HW244358   8.262   0.495   3.933  0.5272 -0.6487 -0.8456
10902SOL     OW44359   0.751   6.629   7.818 -0.0956 -0.4850  0.3343
10902SOL    HW144360   0.736   6.717   7.772  3.2842 -0.6269 -1.1939
10902SOL    HW244361   0.688   6.562   7.781 -2.0576  1.0444  0.8157
10903SOL     OW44362   1.034   4.424   5.907  0.0277 -0.3454 -0.7841
10903SOL    HW144363   1.071   4.468   5.988 -3.8206 -0.0255  0.9367
10903SOL    HW244364   1.070   4.331   5.899  2.6941  0.6203 -0.4114
10904SOL     OW44365   3.693   1.560   4.050  0.5161  0.1786 -0.1617
10904SOL    HW144366   3.696   1.462   4.033  0.1771  0.0490  0.5171
10904SOL    HW244367   3.695   1.577   4.149 -1.4123  0.7770 -0.2085
10905SOL     OW44368   0.056   6.503   2.576  0.1666  0.0041  0.2874
10905SOL    HW144369   0.142   6.502   2.627  0.6269  0.3605 -0.4694
10905SOL    HW244370   0.014   6.413   2.578  0.9208 -0.3527  0.0493
10906SOL     OW44371   2.528   0.651   4.103 -0.4825  0.2226  0.3264
10906SOL    HW144372   2.429   0.663   4.094 -0.8386 -0.7955  2.4962
10906SOL    HW244373   2.554   0.561   4.067 -0.0931  1.1595 -1.7599
10907SOL     OW44374   3.050   6.325   6.309 -0.4067 -0.6714 -0.1985
10907SOL    HW144375   3.102   6.370   6.382 -0.8519 -0.1064 -0.2256
10907SOL    HW244376   3.037   6.228   6.332  3.7752 -1.7016 -1.8916
10908SOL     OW44377   8.446   1.853   0.316 -0.5699  0.8112 -0.4845
10908SOL    HW144378   8.452   1.754   0.315  1.1815  0.9078 -0.3535
10908SOL    HW244379   8.429   1.885   0.409  1.2859  0.7590 -0.1191
10909SOL     OW44380   9.686   9.508   5.814  0.0360  0.2124 -0.3530
10909SOL    HW144381   9.596   9.552   5.819 -0.2403 -0.3000 -0.7710
10909SOL    HW244382   9.683   9.435   5.746  0.5662 -0.2713  0.1379
10910SOL     OW44383   1.989   3.944   3.335 -0.0560  0.2549  0.1482
10910SOL    HW144384   1.916   3.959   3.269  0.9361  2.3395 -0.5273
10910SOL    HW244385   2.071   3.995   3.307  0.8776 -0.0824  2.1516
10911SOL     OW44386   1.196   5.236   5.114  0.1439 -0.4571  0.2686
10911SOL    HW144387   1.126   5.181   5.067  1.3803 -0.3052 -1.8534
10911SOL    HW244388   1.152   5.301   5.176 -1.7943  1.1465 -2.6284
10912SOL     OW44389   0.509   5.420   5.094 -0.0327 -0.3324  0.0823
10912SOL    HW144390   0.536   5.460   5.007  2.0674 -1.0217  0.3710
10912SOL    HW244391   0.505   5.492   5.164 -0.9693  0.1013 -0.4155
10913SOL     OW44392   0.964   8.744   4.387 -0.8989 -0.3875  0.1266
10913SOL    HW144393   0.969   8.708   4.294 -1.0260  0.6199 -0.2784
10913SOL    HW244394   0.868   8.757   4.412 -0.8332  2.2182 -0.7567
10914SOL     OW44395   0.395   6.635   4.967 -0.2772  0.2029  0.4083
10914SOL    HW144396   0.316   6.578   4.990  0.2351 -0.0101  1.7158
10914SOL    HW244397   0.477   6.597   5.011  0.9556 -0.7723 -2.6042
10915SOL     OW44398   5.980   2.766   0.450 -0.1421 -0.5859  0.0967
10915SOL    HW144399   5.943   2.675   0.430 -0.6860 -0.6060  1.1779
10915SOL    HW244400   5.924   2.836   0.405 -0.2975 -0.7297  0.0685
10916SOL     OW44401   3.223   2.951   7.751 -0.3677 -0.2065 -0.6516
10916SOL    HW144402   3.144   2.907   7.708  0.4592 -2.2836 -0.1193
10916SOL    HW244403   3.259   3.022   7.691 -1.9594 -0.0150 -1.3872
10917SOL     OW44404   4.048   3.795   3.027  0.0415 -0.1546 -0.3947
10917SOL    HW144405   4.008   3.808   2.936 -0.7174 -2.4215 -0.4156
10917SOL    HW244406   3.989   3.839   3.095 -0.8438 -0.7634 -0.7450
10918SOL     OW44407   9.748   6.788   6.457 -0.0953  0.0384  0.8118
10918SOL    HW144408   9.842   6.814   6.436 -0.2281  0.8964  1.2633
10918SOL    HW244409   9.746   6.728   6.537  0.2145 -1.4297 -0.2491
10919SOL     OW44410   8.448   0.113   2.755 -0.4990 -0.4498  0.1896
10919SOL    HW144411   8.386   0.076   2.686 -1.2022 -1.3054  1.2604
10919SOL    HW244412   8.471   0.042   2.821  1.3550 -0.0344  0.0135
10920SOL     OW44413   4.402   5.280   3.161 -0.0140  0.1301  0.3855
10920SOL    HW144414   4.443   5.269   3.071 -1.1826 -2.0061  0.0814
10920SOL    HW244415   4.372   5.375   3.174  0.6463  0.5618 -1.2556
10921SOL     OW44416   1.556   4.547   0.912 -0.0210  0.1624 -0.2656
10921SOL    HW144417   1.570   4.590   0.823 -0.4919 -0.6225 -0.7335
10921SOL    HW244418   1.496   4.468   0.901 -1.0987  0.7876  0.9481
10922SOL     OW44419   4.147   8.781   0.636 -0.5331 -0.3357  0.3124
10922SOL    HW144420   4.189   8.691   0.646 -0.6269 -0.2227  1.8323
10922SOL    HW244421   4.057   8.781   0.679 -0.4485  0.5357  0.4927
10923SOL     OW44422   2.577   7.853   6.110  0.3008 -0.6457  0.7020
10923SOL    HW144423   2.527   7.940   6.103  0.3506 -0.7139 -0.8235
10923SOL    HW244424   2.535   7.786   6.048  0.2011 -1.7543  1.9383
10924SOL     OW44425   5.972   3.411   2.004  0.0544 -0.6133  0.0451
10924SOL    HW144426   5.959   3.316   1.979 -0.3414 -1.0480  1.8303
10924SOL    HW244427   6.015   3.460   1.928 -0.5990 -1.9841 -1.2288
10925SOL     OW44428   4.153   7.647   0.805 -0.4222 -0.1859  0.6246
10925SOL    HW144429   4.112   7.600   0.727  0.9308  1.2059 -0.9737
10925SOL    HW244430   4.151   7.588   0.885 -1.8105 -1.6510 -0.4657
10926SOL     OW44431   1.201   8.409   3.900  0.4746  0.4354  0.7246
10926SOL    HW144432   1.255   8.464   3.964 -0.7335  0.5157  1.6996
10926SOL    HW244433   1.251   8.398   3.814  1.6207  1.3037  1.2740
10927SOL     OW44434   3.832   5.202   6.187 -0.4522 -0.2724 -0.1412
10927SOL    HW144435   3.858   5.107   6.175  2.0682  0.4377 -0.7525
10927SOL    HW244436   3.885   5.241   6.263 -2.0581  0.4410  0.6458
10928SOL     OW44437   8.020   9.890   4.304 -0.2420 -0.3466  0.1089
10928SOL    HW144438   8.096   9.946   4.337 -0.3916 -0.1605  0.1386
10928SOL    HW244439   8.045   9.849   4.216 -0.2554  0.0273 -0.0712
10929SOL     OW44440   6.430   9.994   5.817 -0.2791 -0.1071  0.3332
10929SOL    HW144441   6.426  10.028   5.912  0.8551 -2.6073  1.3146
10929SOL    HW244442   6.358   9.926   5.803 -0.8520  0.7186 -0.8233
10930SOL     OW44443   3.401   6.208   3.524  0.7342 -0.1480  0.3494
10930SOL    HW144444   3.381   6.182   3.429 -0.9101 -0.3344  0.7342
10930SOL    HW244445   3.363   6.299   3.542  1.6328  0.1805  0.6463
10931SOL     OW44446   8.729   3.197   2.780  0.8378 -0.1920  0.3391
10931SOL    HW144447   8.795   3.169   2.849 -1.3251 -3.1212  1.3586
10931SOL    HW244448   8.700   3.116   2.728  0.0010  1.4546 -1.8083
10932SOL     OW44449   1.587   2.829   7.041 -0.3217 -0.2769  0.0651
10932SOL    HW144450   1.533   2.913   7.031  0.1846 -0.0256 -0.5791
10932SOL    HW244451   1.598   2.809   7.138 -1.6937 -0.4122  0.2106
10933SOL     OW44452   9.689   7.160   4.083  0.2386  0.0707 -0.0975
10933SOL    HW144453   9.724   7.134   4.173 -1.0453 -0.5309  0.2454
10933SOL    HW244454   9.706   7.086   4.018  1.3268  0.5804 -0.3942
10934SOL     OW44455   4.073   0.023   0.793 -0.1706 -0.1792  0.0760
10934SOL    HW144456   4.024   0.051   0.711  1.3829 -1.2181 -1.2198
10934SOL    HW244457   4.134   0.096   0.823  0.2944 -0.3394 -0.4926
10935SOL     OW44458   7.707   5.802   5.334  0.5527  0.1008 -0.3675
10935SOL    HW144459   7.710   5.716   5.282  0.5416  0.7344 -1.4337
10935SOL    HW244460   7.612   5.830   5.347  0.5409 -0.2712  0.3574
10936SOL     OW44461   1.523   2.653   6.115 -0.4090  0.3885  0.5901
10936SOL    HW144462   1.602   2.613   6.070 -1.4635 -0.8153 -0.2143
10936SOL    HW244463   1.465   2.581   6.153 -2.4598  1.0834 -1.1016
10937SOL     OW44464   1.024   2.992   5.810 -0.0257  0.1659 -0.1842
10937SOL    HW144465   0.930   3.004   5.843  0.5163 -0.6618  1.7281
10937SOL    HW244466   1.031   2.904   5.762  0.0136 -0.2666  0.6042
10938SOL     OW44467   5.229   9.333   8.108  0.7112  0.1706 -0.5583
10938SOL    HW144468   5.325   9.354   8.122  0.5818 -0.2206  1.0478
10938SOL    HW244469   5.220   9.244   8.063  1.0799 -0.9310  1.4791
10939SOL     OW44470   1.865   5.749   2.159  0.0278 -1.0371  0.2561
10939SOL    HW144471   1.818   5.681   2.103  1.3863 -1.8242  0.0406
10939SOL    HW244472   1.855   5.726   2.255  1.0035 -1.9100  0.1582
10940SOL     OW44473   0.181   5.765   2.283  0.3095  0.8259 -0.6098
10940SOL    HW144474   0.098   5.710   2.289  0.7303  0.3198  0.8183
10940SOL    HW244475   0.221   5.755   2.192 -0.6100  0.2290 -0.9541
10941SOL     OW44476   3.278   8.421   5.795  0.2413 -0.0039  0.3299
10941SOL    HW144477   3.321   8.450   5.881  0.2163  0.2412  0.2623
10941SOL    HW244478   3.333   8.348   5.754  1.2443  1.0950 -0.3251
10942SOL     OW44479   2.512   3.486   5.283  0.5734  0.0356 -0.5148
10942SOL    HW144480   2.554   3.455   5.198  0.9463 -0.6445 -0.0890
10942SOL    HW244481   2.418   3.452   5.287  0.5238  0.1497 -0.6997
10943SOL     OW44482   7.975   1.900   4.350  0.3935 -0.4158 -0.2411
10943SOL    HW144483   8.066   1.862   4.369  0.2872  0.0817  1.3598
10943SOL    HW244484   7.969   1.927   4.254  0.1088 -5.4526 -1.7629
10944SOL     OW44485   4.918   0.619   6.254 -0.0313 -0.2359  0.0448
10944SOL    HW144486   4.894   0.585   6.345 -4.2556 -0.9633 -1.2365
10944SOL    HW244487   4.903   0.547   6.186  2.6187  0.4452 -1.3117
10945SOL     OW44488   6.856   4.559   9.975  0.2785  0.0623  0.1130
10945SOL    HW144489   6.852   4.623  10.053  1.2589 -0.7024  0.8005
10945SOL    HW244490   6.789   4.486   9.989 -0.0598  0.3210 -0.1311
10946SOL     OW44491   8.264   6.289   0.887  0.4496 -0.4048 -0.3553
10946SOL    HW144492   8.339   6.272   0.822 -1.1317  0.7654 -2.5335
10946SOL    HW244493   8.293   6.358   0.953  0.6236  1.6269 -2.4654
10947SOL     OW44494   9.822   4.167   2.591  0.1388 -0.5731 -0.0444
10947SOL    HW144495   9.793   4.121   2.674 -1.0624  0.1106 -0.0646
10947SOL    HW244496   9.909   4.215   2.607 -0.1170 -0.4003  0.8318
10948SOL     OW44497   9.257   9.579   2.873  0.1516 -0.2040  0.1895
10948SOL    HW144498   9.270   9.584   2.972  1.0684  0.1691  0.0623
10948SOL    HW244499   9.312   9.651   2.829  1.3673 -1.6627 -0.7158
10949SOL     OW44500   0.990   8.030   3.500  0.4486 -0.3081 -0.3668
10949SOL    HW144501   1.024   7.938   3.518  0.3619 -0.2481  0.1112
10949SOL    HW244502   1.045   8.096   3.551 -0.5497 -0.2367  0.6307
10950SOL     OW44503   2.057   5.682   3.672  0.2115 -0.5859 -0.5679
10950SOL    HW144504   1.976   5.733   3.702  1.7742  1.3485  0.5109
10950SOL    HW244505   2.111   5.739   3.611  0.8429 -1.8125 -1.1636
10951SOL     OW44506   9.515   4.384   6.556 -0.1125  0.0252  0.3898
10951SOL    HW144507   9.570   4.301   6.550  1.0856  0.7669  1.0888
10951SOL    HW244508   9.548   4.451   6.489 -0.6357  0.2037  0.3043
10952SOL     OW44509   1.754   5.295   4.955  0.4926 -0.2329  0.0540
10952SOL    HW144510   1.753   5.236   4.874 -1.0489 -1.2948  0.8258
10952SOL    HW244511   1.663   5.296   4.997  1.2653  0.3158  1.7603
10953SOL     OW44512   0.859   5.626   7.013 -0.3019 -0.2003  0.3052
10953SOL    HW144513   0.833   5.622   6.916 -2.0012  0.4613  0.7048
10953SOL    HW244514   0.776   5.638   7.068  0.6144 -1.0260  1.8739
10954SOL     OW44515   3.052   9.564   2.393 -0.3934 -0.0965  0.4458
10954SOL    HW144516   3.118   9.623   2.346  0.3444 -0.1594  1.3758
10954SOL    HW244517   2.961   9.576   2.354 -0.2675  1.7367  0.6992
10955SOL     OW44518   7.703   6.166   4.575  0.2878  0.2401 -0.0235
10955SOL    HW144519   7.735   6.172   4.670  0.4646 -0.2463 -0.0492
10955SOL    HW244520   7.721   6.074   4.540  0.9040  0.6439 -0.7796
10956SOL     OW44521   0.307   5.045   6.432  0.1732 -0.3992  0.0401
10956SOL    HW144522   0.369   5.099   6.488  0.9130 -0.5164 -0.6584
10956SOL    HW244523   0.247   4.991   6.491  0.1137  0.4081  0.7288
10957SOL     OW44524   7.642   3.793   5.088  0.2039 -0.4170 -0.3808
10957SOL    HW144525   7.675   3.795   4.994  0.1631 -1.7597 -0.4276
10957SOL    HW244526   7.646   3.700   5.124  1.1311  0.2337  1.2759
10958SOL     OW44527   9.881   5.800   7.608 -0.1302 -0.0437 -0.0165
10958SOL    HW144528   9.943   5.861   7.558  0.0720 -0.9185 -0.8644
10958SOL    HW244529   9.924   5.710   7.618 -0.6942 -0.2475  0.6162
10959SOL     OW44530   9.120   4.424   6.822  0.5236 -0.3481  0.2625
10959SOL    HW144531   9.027   4.424   6.859  0.1848  1.1217 -0.5359
10959SOL    HW244532   9.170   4.345   6.858  0.0857  0.7455  3.4699
10960SOL     OW44533   2.567   1.664   7.447 -0.3423 -0.1253  0.2606
10960SOL    HW144534   2.532   1.571   7.459  0.3705 -0.7697 -2.3461
10960SOL    HW244535   2.586   1.680   7.350 -0.5883  2.7973  0.6634
10961SOL     OW44536   8.865   7.696   1.682  0.3867 -0.5515 -0.0431
10961SOL    HW144537   8.932   7.687   1.608  1.2143 -0.0757  0.6374
10961SOL    HW244538   8.819   7.785   1.675  0.7574 -0.3331  0.2423
10962SOL     OW44539   0.207   9.939   0.663 -0.0006 -0.0644  0.7356
10962SOL    HW144540   0.204   9.848   0.621  0.4225  0.3908 -0.2953
10962SOL    HW244541   0.118   9.960   0.703 -0.1070 -0.9259  0.9651
10963SOL     OW44542   7.039   9.855   6.953  0.1874  0.2436 -0.0185
10963SOL    HW144543   6.956   9.812   6.988  0.4709 -1.2467 -1.1255
10963SOL    HW244544   7.110   9.853   7.023  0.2126 -1.1478 -0.0703
10964SOL     OW44545   1.545   3.760   5.827 -0.6389 -0.5784 -0.7755
10964SOL    HW144546   1.544   3.775   5.926  0.9470 -1.9488 -0.5325
10964SOL    HW244547   1.638   3.772   5.792 -1.1555 -0.2875 -2.0860
10965SOL     OW44548   7.277   6.814   7.819 -0.2545 -0.5543 -0.3495
10965SOL    HW144549   7.332   6.733   7.842 -1.4151 -1.1818  0.2393
10965SOL    HW244550   7.245   6.807   7.725  0.6680 -0.1767 -0.7044
10966SOL     OW44551   7.808   3.005   1.116 -0.4319 -0.5183  0.3890
10966SOL    HW144552   7.848   2.913   1.122 -0.3763 -0.5454 -0.3740
10966SOL    HW244553   7.856   3.066   1.179 -2.1227 -1.6043  2.8151
10967SOL     OW44554   1.958   3.130   1.341 -0.0028  0.5793  0.5890
10967SOL    HW144555   2.013   3.207   1.374  0.0643  0.5241  0.6059
10967SOL    HW244556   1.904   3.159   1.262 -0.2717  0.7493  0.8352
10968SOL     OW44557   2.497   6.573   0.724 -0.0941  0.1331  0.6407
10968SOL    HW144558   2.435   6.495   0.713 -2.0151  1.6379  0.4939
10968SOL    HW244559   2.450   6.657   0.698  1.5927  1.4885  1.8327
10969SOL     OW44560   4.626   3.078   2.241 -0.8218  0.0131  0.0232
10969SOL    HW144561   4.639   3.005   2.308 -0.8881  1.7731  1.9988
10969SOL    HW244562   4.592   3.039   2.156  1.1088 -2.5189  0.3429
10970SOL     OW44563   4.716   3.811   5.787  0.1093  0.1450 -0.0824
10970SOL    HW144564   4.640   3.770   5.837 -0.5511 -0.7947 -1.8182
10970SOL    HW244565   4.680   3.873   5.717  0.9674  0.3027 -0.3901
10971SOL     OW44566   3.740   7.946   6.094 -0.1894  0.0099 -0.1609
10971SOL    HW144567   3.770   7.933   6.188 -0.9667 -0.9165 -0.0381
10971SOL    HW244568   3.803   8.008   6.047  0.7892 -0.3657  0.6541
10972SOL     OW44569   5.230   6.231   2.109  0.4872  0.3408  0.1647
10972SOL    HW144570   5.217   6.195   2.016 -0.3297 -0.1679  0.4714
10972SOL    HW244571   5.224   6.331   2.106  0.0605  0.3073 -0.2732
10973SOL     OW44572   0.113   1.549   6.101  0.0359 -0.7351  0.1676
10973SOL    HW144573   0.117   1.473   6.037  1.8595  0.3898 -1.0808
10973SOL    HW244574   0.159   1.628   6.062 -0.2647  0.4783  2.2040
10974SOL     OW44575   6.846   3.469   2.056  0.4215 -0.7423  0.3829
10974SOL    HW144576   6.863   3.430   2.147  1.3360  0.1483  0.6026
10974SOL    HW244577   6.908   3.427   1.990  2.3231  1.2189  0.8557
10975SOL     OW44578   8.649   4.146   3.922  0.0032  0.7855 -0.0583
10975SOL    HW144579   8.648   4.046   3.920 -0.3978  0.7905 -2.0542
10975SOL    HW244580   8.740   4.179   3.947 -0.8086 -0.0414  4.3459
10976SOL     OW44581   0.691   3.695   2.164  0.2550 -0.2554  0.0877
10976SOL    HW144582   0.624   3.672   2.235 -0.0195 -0.6844 -0.3042
10976SOL    HW244583   0.687   3.793   2.145  0.9671  0.0192  1.3038
10977SOL     OW44584   8.258   4.540   4.678  0.0847 -0.5231 -0.0701
10977SOL    HW144585   8.185   4.554   4.745 -0.3444  3.1095 -1.1620
10977SOL    HW244586   8.223   4.560   4.586  2.7700  2.8064 -0.4438
10978SOL     OW44587   4.394   4.659   6.333 -0.2171  0.0174 -0.0811
10978SOL    HW144588   4.385   4.584   6.267 -1.3901  1.0339 -1.0885
10978SOL    HW244589   4.434   4.738   6.289 -1.1820  0.7700  0.3775
10979SOL     OW44590   0.462   2.874   0.727 -0.2471 -0.3104  0.5540
10979SOL    HW144591   0.519   2.818   0.787  0.3271  0.1706  0.4642
10979SOL    HW244592   0.506   2.884   0.638  0.2602  1.2686  0.9492
10980SOL     OW44593   8.460   1.226   3.881  0.6823  0.1191 -0.1261
10980SOL    HW144594   8.456   1.326   3.878  0.9381  0.1427  0.3059
10980SOL    HW244595   8.544   1.195   3.836  0.7073  0.1097 -0.0743
10981SOL     OW44596   6.461   2.417   3.618  0.3290 -0.1107 -0.1886
10981SOL    HW144597   6.553   2.402   3.655  0.1206  0.9885  0.7759
10981SOL    HW244598   6.412   2.482   3.676 -1.2476 -1.0921 -0.3905
10982SOL     OW44599   9.850   4.671   3.983 -0.2015  0.1058  0.0123
10982SOL    HW144600   9.759   4.712   3.981 -0.4128 -0.3679 -0.4063
10982SOL    HW244601   9.841   4.571   3.978  0.2828 -0.0167  1.5635
10983SOL     OW44602   3.640   0.887   0.842 -0.3823 -0.5017  0.1257
10983SOL    HW144603   3.722   0.936   0.873  0.9832 -2.4414 -0.3835
10983SOL    HW244604   3.570   0.954   0.817  0.9861  1.1901  0.6759
10984SOL     OW44605   7.835   6.856   7.958 -0.2852  0.0705 -0.9522
10984SOL    HW144606   7.813   6.954   7.956 -0.2390  0.0848 -0.8094
10984SOL    HW244607   7.833   6.824   8.053 -1.6570 -0.3792 -1.1253
10985SOL     OW44608   8.909   4.087   5.925  0.0460 -0.5556  0.1145
10985SOL    HW144609   8.935   4.069   5.830 -0.1184 -0.3017  0.0197
10985SOL    HW244610   8.910   4.186   5.941  1.0554 -0.6399  0.6566
10986SOL     OW44611   8.524   2.885   2.886  0.2867 -0.0519 -0.0573
10986SOL    HW144612   8.533   2.841   2.796  0.9211 -0.2282  0.0899
10986SOL    HW244613   8.457   2.959   2.880  1.7371  1.1859 -1.1504
10987SOL     OW44614   1.958   2.464   0.295 -0.4172 -0.7847  0.0865
10987SOL    HW144615   1.987   2.558   0.276 -1.1574 -0.6433 -0.3505
10987SOL    HW244616   1.862   2.464   0.322  0.0495 -1.2201  1.8082
10988SOL     OW44617   3.105   4.554   6.160 -0.2142 -0.5375  0.3203
10988SOL    HW144618   3.029   4.584   6.103 -0.3007 -2.4301 -0.6002
10988SOL    HW244619   3.177   4.624   6.160 -1.9462  1.2954  1.2564
10989SOL     OW44620   1.130   7.109   3.292 -0.1978 -0.0480  0.4689
10989SOL    HW144621   1.031   7.116   3.299 -0.0088  2.4142  1.3377
10989SOL    HW244622   1.163   7.033   3.348 -1.5665 -0.7375  0.3440
10990SOL     OW44623   4.945   7.588   5.316  0.0615 -0.0182 -0.2524
10990SOL    HW144624   4.891   7.592   5.400 -0.4103  1.2386 -0.6012
10990SOL    HW244625   4.886   7.565   5.239 -0.1917  2.4056 -0.8037
10991SOL     OW44626   0.295   9.433   7.270 -0.2219 -0.0339 -0.1282
10991SOL    HW144627   0.317   9.447   7.174 -1.5445  0.8825 -0.3133
10991SOL    HW244628   0.214   9.375   7.277  2.0057 -3.2027  0.5328
10992SOL     OW44629   4.355   1.258   0.115  0.6798  0.2259 -0.1845
10992SOL    HW144630   4.367   1.167   0.076  2.6530  0.0098  0.8382
10992SOL    HW244631   4.409   1.324   0.062  0.7646  0.4803  0.2163
10993SOL     OW44632   4.002   3.774   5.989 -0.3754  0.3946  0.3149
10993SOL    HW144633   3.966   3.834   5.918  0.7057  1.7039  0.8583
10993SOL    HW244634   3.940   3.696   6.001 -2.6962  2.2344  0.7429
10994SOL     OW44635   1.965   8.226   0.998  0.0864  0.1358 -0.3781
10994SOL    HW144636   2.031   8.261   0.931  1.1650 -1.5551 -0.2134
10994SOL    HW244637   1.930   8.303   1.053  2.6708  0.9537  0.2111
10995SOL     OW44638   7.957   1.210   5.457 -0.1790  0.1072 -0.2429
10995SOL    HW144639   7.894   1.282   5.487 -0.4637 -0.4123  0.4095
10995SOL    HW244640   8.024   1.193   5.530 -0.0971 -0.2708 -0.4072
10996SOL     OW44641   4.446   9.274   3.713 -0.6065 -0.0240 -0.2412
10996SOL    HW144642   4.407   9.187   3.744  1.9023 -1.5298 -1.1349
10996SOL    HW244643   4.546   9.264   3.705 -0.4206  2.6085 -1.4518
10997SOL     OW44644   1.307   1.924   3.759  0.8434 -0.2702 -0.5141
10997SOL    HW144645   1.380   1.962   3.817  0.1824 -1.6319  1.2682
10997SOL    HW244646   1.277   1.836   3.796 -2.7535  0.9381 -0.2924
10998SOL     OW44647   8.710   6.731   6.842 -0.2046 -0.4869 -0.1200
10998SOL    HW144648   8.678   6.826   6.848 -0.1089 -0.3979 -0.9348
10998SOL    HW244649   8.773   6.722   6.765  1.7445 -0.6613  1.4412
10999SOL     OW44650   6.722   3.814   2.545  0.2521 -0.3581 -0.6642
10999SOL    HW144651   6.724   3.858   2.456 -1.0007 -0.1919 -0.6211
10999SOL    HW244652   6.710   3.715   2.533  2.8685 -0.6798 -0.7548
11000SOL     OW44653   4.233   7.742   3.310 -0.7264 -0.3419  0.0654
11000SOL    HW144654   4.216   7.784   3.221  0.7420 -1.2173 -0.6473
11000SOL    HW244655   4.180   7.789   3.380 -1.4606  0.7171 -1.1899
11001SOL     OW44656   4.608   8.182   1.708  0.2208  1.0527 -0.1434
11001SOL    HW144657   4.669   8.119   1.660 -0.4932 -0.1443  0.4924
11001SOL    HW244658   4.611   8.163   1.806 -0.2865  1.7657  0.0153
11002SOL     OW44659   8.619   4.115   6.536 -0.2302  0.3299  0.1773
11002SOL    HW144660   8.660   4.115   6.627  0.5093 -2.1688 -0.1186
11002SOL    HW244661   8.586   4.023   6.515 -0.3827  0.8869 -2.0865
11003SOL     OW44662   1.300   2.120   0.930 -0.4830  0.4821 -0.3728
11003SOL    HW144663   1.285   2.213   0.895 -1.5835  0.6481  0.4796
11003SOL    HW244664   1.388   2.117   0.978 -0.1103  0.8969 -1.0274
11004SOL     OW44665   6.825   8.816   3.324  0.3335 -0.5121 -0.2957
11004SOL    HW144666   6.917   8.819   3.284  0.1019  1.4373 -0.7375
11004SOL    HW244667   6.828   8.766   3.410  1.9461  0.0700  0.0019
11005SOL     OW44668   8.316   3.994   3.730  0.7815  0.0527  0.4143
11005SOL    HW144669   8.228   3.985   3.683  1.2014  0.3143 -0.4342
11005SOL    HW244670   8.352   3.903   3.751 -0.8291 -0.0452  2.9489
11006SOL     OW44671   0.200   4.877   6.628  0.0333  0.0090  0.1139
11006SOL    HW144672   0.107   4.859   6.596  0.2009  0.0889 -0.4230
11006SOL    HW244673   0.199   4.891   6.727 -0.3167 -1.4743  0.3347
11007SOL     OW44674   0.242   4.462   7.084  0.0749  0.1754  0.5546
11007SOL    HW144675   0.256   4.425   6.992  1.1859 -1.0154  1.1906
11007SOL    HW244676   0.290   4.549   7.092 -0.0432  0.2941 -0.0017
11008SOL     OW44677   5.960   8.376   2.300  0.0631  0.0556 -0.4505
11008SOL    HW144678   6.000   8.407   2.386  0.9125 -0.1417 -0.7699
11008SOL    HW244679   6.009   8.418   2.224  1.1271 -1.9152 -0.8929
11009SOL     OW44680   3.382   1.001   2.862  0.0256  0.3930  0.6358
11009SOL    HW144681   3.454   0.989   2.931  0.0245 -0.9863  0.4027
11009SOL    HW244682   3.397   1.088   2.814  0.5324  0.9402  1.7689
11010SOL     OW44683   8.388   7.686   2.622 -0.0875  0.3519 -0.4016
11010SOL    HW144684   8.453   7.759   2.643 -2.0925  2.4397 -1.2374
11010SOL    HW244685   8.335   7.665   2.704 -0.0494  0.4050 -0.3624
11011SOL     OW44686   7.608   5.821   0.497 -0.5014 -0.7026 -0.0860
11011SOL    HW144687   7.527   5.862   0.538  0.4133  0.9144  0.1364
11011SOL    HW244688   7.671   5.791   0.569  0.4292  0.7728 -0.2665
11012SOL     OW44689   5.218   2.811   0.641 -0.4045 -0.2064 -0.0126
11012SOL    HW144690   5.192   2.851   0.553 -0.2161 -0.3885 -0.1529
11012SOL    HW244691   5.273   2.729   0.625  0.7112  0.4727  0.2806
11013SOL     OW44692   5.740   5.258   2.053  0.1534 -0.2768 -0.1496
11013SOL    HW144693   5.686   5.317   1.993  0.1855 -0.3239 -0.2244
11013SOL    HW244694   5.785   5.314   2.122 -1.2873 -0.3986  0.9248
11014SOL     OW44695   3.351   7.089   2.708  0.3176  0.7090 -0.3897
11014SOL    HW144696   3.266   7.093   2.762 -0.3466  0.6407 -1.4274
11014SOL    HW244697   3.352   7.164   2.643  0.1830 -0.3899 -1.6726
11015SOL     OW44698   6.267   0.507   0.641  0.0832  0.4122 -0.0545
11015SOL    HW144699   6.255   0.429   0.579 -2.8066  0.9437 -0.2466
11015SOL    HW244700   6.273   0.474   0.736 -1.5710 -0.0539 -0.0945
11016SOL     OW44701   7.660   7.491   5.715 -0.0912 -0.6866 -0.0286
11016SOL    HW144702   7.569   7.518   5.746  0.4557  0.7975  0.3295
11016SOL    HW244703   7.660   7.479   5.616 -0.3351  0.7541 -0.2097
11017SOL     OW44704   8.139   8.272   5.346  0.1688 -0.2718 -0.2929
11017SOL    HW144705   8.146   8.372   5.356 -0.8241 -0.1662 -0.5939
11017SOL    HW244706   8.043   8.244   5.355  0.4245 -1.1863 -0.3507
11018SOL     OW44707   3.824   2.096   1.310  0.0132 -0.2348  0.3120
11018SOL    HW144708   3.807   2.028   1.239  2.5460  1.7030 -2.3129
11018SOL    HW244709   3.859   2.051   1.392 -0.7005 -2.3129 -0.4864
11019SOL     OW44710   7.045   8.269   6.523 -0.0900  0.2799  0.8160
11019SOL    HW144711   6.972   8.322   6.567 -0.3049  1.1709 -0.6017
11019SOL    HW244712   7.099   8.328   6.464  0.7215 -0.7357  0.5220
11020SOL     OW44713   5.928   1.891   4.923 -0.0007 -0.3119  0.4389
11020SOL    HW144714   5.899   1.927   5.012 -1.9875 -4.6137  1.6589
11020SOL    HW244715   5.858   1.908   4.855  0.3144  0.5842  0.3368
11021SOL     OW44716   1.510   9.687   0.675  0.1495  0.1221 -0.4084
11021SOL    HW144717   1.565   9.605   0.656 -1.2025 -0.4419 -1.9846
11021SOL    HW244718   1.430   9.662   0.728 -0.3911  0.3738 -1.0951
11022SOL     OW44719   6.005   0.727   2.650  0.1195  0.5725 -0.5369
11022SOL    HW144720   6.073   0.685   2.710 -1.2183  0.7701  1.1609
11022SOL    HW244721   5.943   0.783   2.704 -0.0303  2.2168 -2.3742
11023SOL     OW44722   8.451   8.183   3.027  0.3744 -0.3123 -0.0187
11023SOL    HW144723   8.481   8.262   2.973 -1.5672 -0.5749 -1.5548
11023SOL    HW244724   8.529   8.124   3.046  1.7593  1.7382  0.7479
11024SOL     OW44725   5.355   2.022   6.700 -0.0596 -0.0078  0.4867
11024SOL    HW144726   5.361   1.946   6.765 -0.0147 -0.4015  0.0240
11024SOL    HW244727   5.260   2.036   6.672  0.3466 -2.3087 -2.2604
11025SOL     OW44728   3.522   6.940   0.035 -0.4220 -0.2012 -0.0117
11025SOL    HW144729   3.512   6.859   0.094 -0.5908 -0.1729 -0.0023
11025SOL    HW244730   3.432   6.969   0.003 -0.3042 -0.3742 -0.4995
11026SOL     OW44731   9.692   3.194   0.216  0.3776 -0.2065  0.3564
11026SOL    HW144732   9.675   3.126   0.287 -0.9833 -0.6044 -0.3310
11026SOL    HW244733   9.724   3.279   0.258 -2.6763  0.3493  1.7075
11027SOL     OW44734   1.971   9.136   1.866 -0.2643 -0.2023  0.1855
11027SOL    HW144735   1.878   9.167   1.846  0.0599 -0.0199 -1.0723
11027SOL    HW244736   2.035   9.211   1.849  0.2612 -0.7657 -0.3221
11028SOL     OW44737   8.488   3.691   1.015  0.6095 -0.5072 -0.7417
11028SOL    HW144738   8.394   3.662   1.001  0.4193 -0.6370  0.7800
11028SOL    HW244739   8.499   3.786   0.985 -0.0084 -0.4722 -0.8540
11029SOL     OW44740   5.659   8.859   5.866 -0.0254 -0.1392  0.1879
11029SOL    HW144741   5.563   8.848   5.841  0.1649 -1.3798 -0.0293
11029SOL    HW244742   5.668   8.927   5.939 -1.0492  0.0994  0.0881
11030SOL     OW44743   8.776   5.265   3.340 -0.6675 -0.0539 -0.1302
11030SOL    HW144744   8.792   5.296   3.246  0.5629 -2.3426 -0.7193
11030SOL    HW244745   8.709   5.325   3.384  0.9288  2.8326 -1.4763
11031SOL     OW44746   3.810   5.643   2.634  0.1149  0.1832 -0.0759
11031SOL    HW144747   3.856   5.713   2.579 -0.0792 -1.0198 -1.8378
11031SOL    HW244748   3.753   5.586   2.574 -0.1092 -1.1759  1.3884
11032SOL     OW44749   8.797   1.745   4.511  0.0226  0.5093  0.4041
11032SOL    HW144750   8.873   1.759   4.447 -0.2956  0.6034  0.0513
11032SOL    HW244751   8.712   1.778   4.470 -0.4227 -0.7611  0.3088
11033SOL     OW44752   0.154   8.252   6.205  0.2210 -0.0277 -0.3661
11033SOL    HW144753   0.059   8.270   6.180  0.3299 -1.7544 -2.1180
11033SOL    HW244754   0.181   8.312   6.280 -1.7692  1.5724 -0.9022
11034SOL     OW44755   1.204   0.460   2.278  0.7253 -0.1507 -0.1923
11034SOL    HW144756   1.131   0.435   2.215  0.8255  0.9455 -0.7611
11034SOL    HW244757   1.272   0.515   2.230  1.7030 -0.7843  0.4417
11035SOL     OW44758   4.606   0.181   5.365  0.1157 -0.1194 -0.1432
11035SOL    HW144759   4.669   0.246   5.322 -0.4832 -0.4578 -1.5602
11035SOL    HW244760   4.515   0.191   5.325 -0.0912 -1.5284 -0.0484
11036SOL     OW44761   3.284   8.391   6.085 -0.4848  0.1115 -0.1728
11036SOL    HW144762   3.206   8.332   6.069 -1.2991  1.3682 -0.9438
11036SOL    HW244763   3.261   8.485   6.059  2.1157  0.0694 -3.0442
11037SOL     OW44764   9.325   6.531   7.348 -0.0918 -0.5071  0.4085
11037SOL    HW144765   9.385   6.536   7.427 -0.1292  0.0028  0.4072
11037SOL    HW244766   9.377   6.499   7.269  0.9145  2.6359 -0.2895
11038SOL     OW44767   0.095   2.884   0.851 -0.3603 -0.2990 -0.5897
11038SOL    HW144768   0.120   2.787   0.855  1.9854  0.2512 -0.8444
11038SOL    HW244769   0.163   2.937   0.902 -2.6113  1.0517  1.0748
11039SOL     OW44770   3.788   4.132   1.221  0.5130  0.0206  0.2872
11039SOL    HW144771   3.756   4.223   1.247  0.2161 -0.2589  0.8992
11039SOL    HW244772   3.788   4.071   1.301  0.5356 -0.5685 -0.1527
11040SOL     OW44773   8.059   5.400   2.830 -0.1232 -0.4091  0.1342
11040SOL    HW144774   8.089   5.344   2.753  1.2192  0.3023  0.1217
11040SOL    HW244775   8.004   5.477   2.797 -3.2495 -2.5106  0.2745
11041SOL     OW44776   1.061   5.988   4.622  0.1264 -0.6494 -0.2401
11041SOL    HW144777   1.020   6.069   4.578  2.5593  0.6802 -0.1451
11041SOL    HW244778   1.112   6.016   4.702  1.2692 -2.2682 -0.3803
11042SOL     OW44779   3.460   6.221   5.029  0.3284 -0.4184 -0.7771
11042SOL    HW144780   3.397   6.147   5.054  0.2925  0.2026  1.0141
11042SOL    HW244781   3.554   6.192   5.048  0.2696  0.2208  0.5170
11043SOL     OW44782   1.055   3.417   9.904  0.1218 -0.2251  0.0581
11043SOL    HW144783   0.961   3.385   9.910  0.2144 -0.4795  0.1678
11043SOL    HW244784   1.116   3.350   9.946  0.3267  0.0660  0.2314
11044SOL     OW44785   3.913   4.163   5.233  0.0637  0.3553  0.1863
11044SOL    HW144786   3.848   4.189   5.162 -0.0278  0.6467  0.3772
11044SOL    HW244787   3.990   4.115   5.192  1.5715  3.2837 -0.5254
11045SOL     OW44788   3.884   3.624   6.272  0.1373  0.5790 -0.0701
11045SOL    HW144789   3.801   3.678   6.287  0.1955  0.8507 -0.7094
11045SOL    HW244790   3.893   3.604   6.175 -0.1701 -1.0470  0.2204
11046SOL     OW44791   7.890   7.060   4.547  0.3976  0.3969  0.1500
11046SOL    HW144792   7.799   7.076   4.508 -1.2042 -1.8371  2.7726
11046SOL    HW244793   7.947   7.012   4.482 -1.7742 -2.0816  0.0028
11047SOL     OW44794   7.374   3.918   3.797 -0.0493 -0.0190  0.1502
11047SOL    HW144795   7.395   3.820   3.801  1.4456  0.3615  2.3350
11047SOL    HW244796   7.370   3.947   3.701  3.0488 -1.5031 -0.5119
11048SOL     OW44797   7.635   8.342   5.017  0.5000  0.1301  0.4533
11048SOL    HW144798   7.594   8.277   4.954  2.5361 -1.2807  0.5351
11048SOL    HW244799   7.621   8.435   4.983 -1.7444 -0.3777 -0.0688
11049SOL     OW44800   6.654   2.096   1.815  0.1445  0.5220  0.2769
11049SOL    HW144801   6.746   2.096   1.775 -0.7411  1.9989 -1.8438
11049SOL    HW244802   6.599   2.024   1.773 -0.5278  1.5158 -0.5646
11050SOL     OW44803   3.661   9.005   2.405 -0.0397  0.5179  0.0513
11050SOL    HW144804   3.704   9.095   2.416 -0.7284  0.8287  0.2023
11050SOL    HW244805   3.672   8.973   2.311  0.3778  0.6689  0.0488
11051SOL     OW44806   2.868   1.167   1.974  0.3776 -0.5869 -0.0761
11051SOL    HW144807   2.962   1.201   1.982 -0.0906  0.5260  0.6322
11051SOL    HW244808   2.808   1.240   1.944 -0.7298 -0.6299  2.0051
11052SOL     OW44809   3.459   2.156   6.755  0.3655  0.4422 -0.5657
11052SOL    HW144810   3.472   2.188   6.662  0.9690 -1.0842 -1.0311
11052SOL    HW244811   3.509   2.070   6.768  0.3285  0.6477  1.1743
11053SOL     OW44812   4.741   3.987   2.792 -0.3753  0.3832 -0.1952
11053SOL    HW144813   4.683   4.002   2.712 -1.0147 -0.9070  0.0048
11053SOL    HW244814   4.717   4.054   2.863 -2.3172 -0.7093  0.2345
11054SOL     OW44815   0.517   6.998   4.171  0.6828  0.0416  0.2968
11054SOL    HW144816   0.489   7.046   4.088 -0.4877 -0.4139  0.4286
11054SOL    HW244817   0.440   6.992   4.234  1.5165  0.2218  1.3454
11055SOL     OW44818   0.414   9.713   1.007 -0.1108 -0.1595 -0.0002
11055SOL    HW144819   0.492   9.743   1.062 -0.6603 -0.4416  0.9448
11055SOL    HW244820   0.372   9.792   0.963  0.1763  0.1019  0.1909
11056SOL     OW44821   6.735   1.048   4.578  0.0703  0.2028 -0.1336
11056SOL    HW144822   6.751   0.953   4.550 -1.3207 -0.8539  2.4894
11056SOL    HW244823   6.823   1.096   4.582  0.7191 -0.7468 -2.1421
11057SOL     OW44824   2.014   6.854   2.331 -0.0316  0.2952 -0.4036
11057SOL    HW144825   1.923   6.836   2.293 -0.2003  0.8270 -0.2589
11057SOL    HW244826   2.050   6.939   2.292  0.1760  0.3684 -0.0570
11058SOL     OW44827   8.591   9.508   6.350 -0.5567 -0.2522  0.2153
11058SOL    HW144828   8.533   9.481   6.427 -1.3531  1.9929  0.4499
11058SOL    HW244829   8.535   9.516   6.268 -0.0781 -0.6598 -0.1536
11059SOL     OW44830   4.906   8.575   3.441 -0.0965  0.1407  0.1635
11059SOL    HW144831   4.828   8.638   3.448 -0.8112 -0.7312  0.2087
11059SOL    HW244832   4.886   8.506   3.371  0.3986 -0.4186  0.5732
11060SOL     OW44833   7.672   0.130   5.700  0.0357 -0.1394  0.2853
11060SOL    HW144834   7.641   0.086   5.784  1.8127  0.8503  1.4927
11060SOL    HW244835   7.762   0.170   5.715  0.6825 -0.5446 -2.2983
11061SOL     OW44836   9.105   6.883   5.362  0.3350  0.4037  0.9211
11061SOL    HW144837   9.018   6.848   5.326  0.6300 -1.0057  1.5599
11061SOL    HW244838   9.137   6.957   5.303  0.7973 -1.8453 -1.7433
11062SOL     OW44839   7.277   1.008   3.485 -0.5302 -0.5383  0.4465
11062SOL    HW144840   7.345   0.972   3.421 -0.6917 -0.7205  0.3788
11062SOL    HW244841   7.230   1.085   3.444 -0.5686 -0.5969  0.3811
11063SOL     OW44842   0.050   6.970   8.055 -0.2020 -1.0733  0.2122
11063SOL    HW144843  -0.025   6.903   8.052  0.4331 -1.8150  0.5235
11063SOL    HW244844   0.047   7.019   8.142 -0.4605 -0.9439  0.1304
11064SOL     OW44845   3.461   3.324   7.150  0.1081  0.2291 -0.1238
11064SOL    HW144846   3.548   3.356   7.112  0.1462 -2.3630 -2.3410
11064SOL    HW244847   3.479   3.268   7.231  0.6444 -1.7334 -1.5795
11065SOL     OW44848   6.668   2.382   4.386  0.1715 -0.6291  0.5469
11065SOL    HW144849   6.661   2.289   4.423 -1.0235 -0.3766  0.9931
11065SOL    HW244850   6.735   2.434   4.438  0.4250 -1.0760  0.6687
11066SOL     OW44851   0.393   4.152   9.833 -0.7821  0.4757 -0.2205
11066SOL    HW144852   0.469   4.214   9.813 -0.3919 -0.2275 -0.9286
11066SOL    HW244853   0.317   4.204   9.871 -0.9381  1.5951 -2.0276
11067SOL     OW44854   2.048   3.781  10.019  0.1494 -0.2560  0.2330
11067SOL    HW144855   2.115   3.707  10.009  2.3868  1.7534 -0.0800
11067SOL    HW244856   2.063   3.849   9.948 -1.3791  0.8857  0.9793
11068SOL     OW44857   2.834   4.265   6.470  0.3922  0.0683 -0.3568
11068SOL    HW144858   2.861   4.310   6.556 -0.5294  0.8208 -0.4473
11068SOL    HW244859   2.900   4.287   6.399  1.1425 -0.5283  0.1554
11069SOL     OW44860   4.908   0.152   4.132 -0.1867 -0.1500  0.3997
11069SOL    HW144861   4.849   0.220   4.088 -1.6090 -2.0583 -0.7218
11069SOL    HW244862   5.003   0.177   4.117 -0.6782  2.0524  0.7484
11070SOL     OW44863   1.980   6.576   0.400 -0.3735 -0.0068 -0.1734
11070SOL    HW144864   2.030   6.490   0.410  2.2897  1.4994 -0.0805
11070SOL    HW244865   1.971   6.619   0.490  0.4610  0.9455 -0.5277
11071SOL     OW44866   0.592   6.464   1.352  0.1671 -0.3248  0.4276
11071SOL    HW144867   0.545   6.479   1.265  1.1330  0.1077 -0.0277
11071SOL    HW244868   0.601   6.550   1.401 -0.4388 -0.5797  0.9891
11072SOL     OW44869   7.180   0.043   5.176 -0.0149  0.3177 -0.0673
11072SOL    HW144870   7.176   0.131   5.225  2.3910  1.1249 -1.2673
11072SOL    HW244871   7.190   0.060   5.078 -1.6968 -1.3251 -0.5592
11073SOL     OW44872   0.335   5.244   2.963  0.8017  0.2901 -0.4423
11073SOL    HW144873   0.267   5.260   2.891 -0.2490 -0.5869  0.3390
11073SOL    HW244874   0.426   5.266   2.928  0.2201  0.6182 -1.7896
11074SOL     OW44875   8.143   2.850   3.862 -0.5093 -0.6242  0.1359
11074SOL    HW144876   8.106   2.933   3.904  1.9852 -0.5570  2.4225
11074SOL    HW244877   8.219   2.874   3.801  1.8359 -1.2709  2.6658
11075SOL     OW44878   0.909   4.884   5.651  0.2571 -0.7303  0.4066
11075SOL    HW144879   0.877   4.815   5.716  0.8504 -0.0274  1.4589
11075SOL    HW244880   0.844   4.891   5.575  0.7816 -3.2655 -0.3205
11076SOL     OW44881   3.462   7.912   6.125  0.1016  0.0459  0.0301
11076SOL    HW144882   3.454   7.837   6.190 -1.2365 -1.4696 -1.8113
11076SOL    HW244883   3.559   7.933   6.110  0.5446 -2.0086 -0.1714
11077SOL     OW44884   6.076   8.419   2.992  0.0369 -0.1890 -0.2209
11077SOL    HW144885   6.105   8.392   2.900 -0.1306 -0.0309 -0.3208
11077SOL    HW244886   5.998   8.481   2.985  0.1070 -0.0727  0.0248
11078SOL     OW44887   9.802   8.163   4.989 -1.0617  0.1703  0.4690
11078SOL    HW144888   9.780   8.183   4.894 -0.6787 -2.8880 -0.3006
11078SOL    HW244889   9.876   8.223   5.019 -0.7571  0.7348 -1.3322
11079SOL     OW44890   9.547   0.129   5.222  0.0034  0.0156  0.5765
11079SOL    HW144891   9.447   0.129   5.235  0.1049  0.0224  1.3449
11079SOL    HW244892   9.592   0.131   5.311  0.6930  0.3549  0.2216
11080SOL     OW44893   9.306   8.525   6.215  0.7987 -0.3597  0.5138
11080SOL    HW144894   9.377   8.527   6.144 -1.3498  0.8077 -1.6809
11080SOL    HW244895   9.263   8.435   6.216  1.0404 -0.4762  0.5615
11081SOL     OW44896   1.457   3.687   9.861  0.0303 -0.1780 -0.1124
11081SOL    HW144897   1.419   3.648   9.777 -1.4641 -1.2878  1.0433
11081SOL    HW244898   1.502   3.616   9.914  1.0617  0.5369 -0.0158
11082SOL     OW44899   3.180   5.907   4.860 -0.2725  0.3872  1.0069
11082SOL    HW144900   3.152   5.819   4.898 -0.0640 -0.3801 -0.5712
11082SOL    HW244901   3.129   5.925   4.776  0.0742  1.5314  1.0306
11083SOL     OW44902   0.872   4.071   3.594  0.0039  0.0094  0.6193
11083SOL    HW144903   0.875   3.971   3.595 -1.6773 -0.0568  1.5196
11083SOL    HW244904   0.831   4.104   3.679 -1.4382  1.3582 -0.5582
11084SOL     OW44905   2.422   1.365   0.806  0.0103  0.1336 -0.2125
11084SOL    HW144906   2.361   1.342   0.730  0.9329 -1.4235 -0.4951
11084SOL    HW244907   2.374   1.425   0.870 -2.5777 -2.7146  0.6380
11085SOL     OW44908   7.020   8.196   2.176 -0.1838 -0.4991  0.3152
11085SOL    HW144909   6.924   8.171   2.165 -0.0909 -0.1824 -1.3261
11085SOL    HW244910   7.031   8.294   2.161  0.3336 -0.4604  0.9301
11086SOL     OW44911   4.892   7.061   1.907 -0.0880 -0.4821  0.1768
11086SOL    HW144912   4.815   7.023   1.958 -0.6356  0.3345 -0.0283
11086SOL    HW244913   4.974   7.058   1.964 -0.3701 -0.9344  0.5626
11087SOL     OW44914   9.459   3.207   2.765  0.6120  0.3700 -0.2189
11087SOL    HW144915   9.488   3.196   2.670  2.4807  1.5265  0.1937
11087SOL    HW244916   9.477   3.300   2.796  2.0990 -0.5856  1.9393
11088SOL     OW44917   9.021   9.629   1.274  0.3784  0.4395 -0.1604
11088SOL    HW144918   9.065   9.558   1.219 -1.4429  0.6294 -1.9133
11088SOL    HW244919   9.062   9.631   1.365  0.5469 -2.7640 -0.1219
11089SOL     OW44920   0.405   6.740   0.897  0.3578 -0.0858 -0.7559
11089SOL    HW144921   0.399   6.840   0.904 -2.3915 -0.2136 -0.9885
11089SOL    HW244922   0.317   6.699   0.921  1.2769 -2.4318 -1.2869
11090SOL     OW44923   1.699   5.304   4.017 -0.6657 -0.0718 -0.1529
11090SOL    HW144924   1.651   5.287   4.103 -1.0319 -0.5293 -0.4481
11090SOL    HW244925   1.692   5.401   3.994 -1.0249 -0.0474  0.0560
11091SOL     OW44926   6.548   9.231   3.674  0.2329 -0.4058 -0.5725
11091SOL    HW144927   6.629   9.285   3.698  0.4050 -0.6951 -0.5044
11091SOL    HW244928   6.560   9.191   3.584  0.6888 -1.4599 -0.0494
11092SOL     OW44929   2.315   5.154   6.567  0.3549  0.1048 -0.2804
11092SOL    HW144930   2.321   5.094   6.487 -1.0433 -0.4280  0.0025
11092SOL    HW244931   2.239   5.218   6.554  1.5017  1.4879 -0.3453
11093SOL     OW44932   0.722   5.313   1.695  0.7960  0.2882 -0.4874
11093SOL    HW144933   0.626   5.298   1.671  0.5006  0.8752  0.3301
11093SOL    HW244934   0.779   5.252   1.640  0.0292  0.6420 -1.7133
11094SOL     OW44935   1.880   7.096   2.473 -0.5301  0.5685 -0.0230
11094SOL    HW144936   1.869   7.080   2.375  1.4033 -0.7055 -0.0772
11094SOL    HW244937   1.971   7.134   2.490  0.4870 -2.3949  1.5613
11095SOL     OW44938   7.738   8.056   2.024  0.6771 -0.1088 -0.2859
11095SOL    HW144939   7.706   8.033   2.116  1.0241  0.6897  0.0366
11095SOL    HW244940   7.721   8.152   2.005  0.2393 -0.3620 -1.2204
11096SOL     OW44941   0.847   3.755   4.514  0.7198 -0.3154 -0.2267
11096SOL    HW144942   0.819   3.779   4.421 -2.6949 -3.2050 -0.0627
11096SOL    HW244943   0.903   3.673   4.512 -0.4022 -1.1075  0.3367
11097SOL     OW44944   8.708   0.130   2.585  0.5572  0.2486 -0.0304
11097SOL    HW144945   8.660   0.090   2.663 -0.1232  0.3707 -0.3809
11097SOL    HW244946   8.641   0.162   2.518  1.0218  3.0166  0.7352
11098SOL     OW44947   3.328   3.856   3.474  0.4400  0.7912  0.5246
11098SOL    HW144948   3.274   3.773   3.493  3.9481 -1.8344 -0.4468
11098SOL    HW244949   3.331   3.872   3.375  1.4370  0.8639  0.5588
11099SOL     OW44950   7.615   0.400   2.003  0.4583  0.1560  0.2609
11099SOL    HW144951   7.645   0.355   2.087  0.9131 -0.4352 -0.2060
11099SOL    HW244952   7.679   0.472   1.978 -0.3222  1.1256  1.0614
11100SOL     OW44953   2.759   3.708   3.232 -0.6071  0.0328 -0.5410
11100SOL    HW144954   2.699   3.766   3.176 -0.0656  0.9746 -0.1672
11100SOL    HW244955   2.813   3.766   3.293 -0.1297 -0.8875 -0.0805
11101SOL     OW44956   3.349   9.166   6.502 -0.2048 -0.9225  0.2925
11101SOL    HW144957   3.363   9.258   6.466  0.0695 -0.4266  1.6291
11101SOL    HW244958   3.252   9.141   6.494 -0.1225 -0.8812 -0.8909
11102SOL     OW44959   3.646   2.686   2.935 -0.9744 -0.5953 -0.3936
11102SOL    HW144960   3.591   2.759   2.975 -1.1499 -1.0521  0.2109
11102SOL    HW244961   3.654   2.700   2.836 -1.4860 -0.0761 -0.3607
11103SOL     OW44962   9.288   3.203   3.457  0.1818  0.0241  0.2320
11103SOL    HW144963   9.244   3.170   3.541  1.0867  1.5358  1.3142
11103SOL    HW244964   9.381   3.233   3.478 -0.2431  2.2349 -0.9334
11104SOL     OW44965   2.494   6.374   6.089 -0.6053 -0.6971  0.0295
11104SOL    HW144966   2.520   6.466   6.118  0.0805 -0.9521  0.2340
11104SOL    HW244967   2.422   6.339   6.149 -0.0372 -0.7540  0.6773
11105SOL     OW44968   9.282   9.605   4.491  0.1212  0.4515 -0.4651
11105SOL    HW144969   9.299   9.662   4.411  0.1747  3.2032  1.4239
11105SOL    HW244970   9.344   9.633   4.565 -0.6008 -1.3641  0.8515
11106SOL     OW44971   1.195   5.476   3.544  0.4865  0.1237 -0.3172
11106SOL    HW144972   1.294   5.461   3.550  0.6947  0.7913 -2.0093
11106SOL    HW244973   1.176   5.554   3.485 -1.0974 -0.6630 -0.8758
11107SOL     OW44974   3.212   5.907   7.217  0.6319 -0.4888  0.6484
11107SOL    HW144975   3.262   5.989   7.188 -1.3314  1.3435  2.2601
11107SOL    HW244976   3.125   5.901   7.167  0.1391 -0.8132  1.5262
11108SOL     OW44977   5.585   3.681   1.081  0.1013 -0.0956  0.6017
11108SOL    HW144978   5.567   3.756   1.016 -0.0027  1.2616  2.1688
11108SOL    HW244979   5.682   3.654   1.074  0.0765 -0.0100 -0.1604
11109SOL     OW44980   2.427   3.523   5.901  0.2137  0.0536 -0.2740
11109SOL    HW144981   2.374   3.445   5.936 -0.0056  0.3204 -0.0130
11109SOL    HW244982   2.402   3.539   5.806 -0.7917  0.7096  0.0996
11110SOL     OW44983   2.529   9.032   6.858 -0.1961  0.2737  0.3857
11110SOL    HW144984   2.544   9.127   6.831 -0.9272  0.4219  0.4969
11110SOL    HW244985   2.606   8.976   6.827 -0.5679  0.6037 -1.1481
11111SOL     OW44986   3.475   5.335   4.542  0.1588  0.0942 -0.2972
11111SOL    HW144987   3.558   5.321   4.488  0.5621  1.6126 -0.0742
11111SOL    HW244988   3.423   5.411   4.504 -1.2561 -1.0051 -0.5726
11112SOL     OW44989   1.758   6.362   6.380  0.2457 -0.1016 -0.1362
11112SOL    HW144990   1.778   6.264   6.375 -0.1423 -0.1127 -1.5774
11112SOL    HW244991   1.708   6.391   6.299 -0.6217  1.0822  0.7927
11113SOL     OW44992   2.607   6.630   1.408 -0.0277  0.0121 -0.0417
11113SOL    HW144993   2.675   6.591   1.346  0.7000  0.2961  0.5841
11113SOL    HW244994   2.643   6.712   1.451  0.0139 -0.9897  1.8740
11114SOL     OW44995   0.431   3.869   6.193  0.3159  0.1412 -0.1470
11114SOL    HW144996   0.445   3.871   6.292 -1.1492  1.4138  0.0470
11114SOL    HW244997   0.513   3.832   6.149  1.7629  1.4400  1.3948
11115SOL     OW44998   8.190   4.125   4.157  0.0431 -0.1962 -0.1908
11115SOL    HW144999   8.176   4.051   4.091  0.8521  1.0503 -1.7959
11115SOL    HW245000   8.284   4.158   4.151 -0.5236  1.5073 -0.0851
11116SOL     OW45001   1.283   6.088   4.824  0.3214 -0.6237  0.0633
11116SOL    HW145002   1.312   6.173   4.780 -0.1909 -1.0858 -1.1961
11116SOL    HW245003   1.363   6.031   4.842  0.7432  0.4139  1.5598
11117SOL     OW45004   8.950   8.615   4.362  0.1580 -0.0341  0.5269
11117SOL    HW145005   8.872   8.675   4.343 -0.1782 -1.0477 -1.5197
11117SOL    HW245006   8.934   8.564   4.447 -1.3002 -0.0261  0.2684
11118SOL     OW45007   2.260   6.361   4.609 -0.2119  0.1383 -0.0424
11118SOL    HW145008   2.302   6.340   4.697  1.8923 -0.4479 -1.1488
11118SOL    HW245009   2.211   6.281   4.575  1.1455 -0.4844 -0.5776
11119SOL     OW45010   5.227   2.772   1.748  1.0791 -0.3677 -1.0808
11119SOL    HW145011   5.313   2.730   1.721  0.3006 -1.8832 -1.2143
11119SOL    HW245012   5.151   2.730   1.697  0.2690  1.0456 -1.0717
11120SOL     OW45013   4.037   0.993   5.818 -0.0587  0.4217 -0.2266
11120SOL    HW145014   3.960   1.030   5.869  1.5153  0.8961  1.8791
11120SOL    HW245015   4.054   0.899   5.847 -0.8996 -0.2597 -1.9146
11121SOL     OW45016   9.678   2.392   4.947 -0.0597 -0.1585  0.1410
11121SOL    HW145017   9.616   2.462   4.912 -1.7062 -2.3301 -1.4891
11121SOL    HW245018   9.717   2.341   4.870  1.2331 -0.8910  1.2733
11122SOL     OW45019   3.108   8.446   2.919 -0.1794  0.6054 -0.2137
11122SOL    HW145020   3.118   8.539   2.952  0.1343  0.6110 -0.3240
11122SOL    HW245021   3.130   8.442   2.821  1.8859  0.0348  0.2482
11123SOL     OW45022   9.215   8.808   1.626  0.5743 -0.3273  0.0389
11123SOL    HW145023   9.235   8.869   1.550 -0.3313  0.0840  0.1250
11123SOL    HW245024   9.134   8.752   1.604  2.0907 -2.3586 -0.5399
11124SOL     OW45025   4.193   5.227   3.338 -0.2138 -0.4710  0.3698
11124SOL    HW145026   4.281   5.237   3.291 -0.3125 -1.5164 -0.0474
11124SOL    HW245027   4.134   5.166   3.286 -1.1310  0.0756  0.7440
11125SOL     OW45028   1.883   0.247   1.512 -0.3295 -0.0733  0.9733
11125SOL    HW145029   1.906   0.192   1.431 -0.1435 -0.4912  1.3106
11125SOL    HW245030   1.946   0.225   1.586  0.0671  0.9735  0.9466
11126SOL     OW45031   4.055   9.522   5.026 -0.0137 -0.3876 -0.7613
11126SOL    HW145032   4.092   9.496   4.937 -1.0995 -0.0567 -1.3257
11126SOL    HW245033   3.996   9.602   5.016 -1.9280 -1.6644 -0.1513
11127SOL     OW45034   9.102   8.337   4.919  0.1157  0.3842  0.1992
11127SOL    HW145035   9.024   8.369   4.972  1.2085  0.2571  1.9349
11127SOL    HW245036   9.185   8.345   4.975  1.1085 -0.9084 -1.0679
11128SOL     OW45037   8.894   4.152   4.022 -0.1609  0.0178 -0.1294
11128SOL    HW145038   8.986   4.172   3.991  0.2199 -0.7101  0.5020
11128SOL    HW245039   8.898   4.109   4.113 -1.1033 -0.2152 -0.1886
11129SOL     OW45040   3.925   4.325   2.543 -0.4064 -0.2515 -0.7034
11129SOL    HW145041   3.911   4.398   2.609 -0.1530  0.4994 -1.4644
11129SOL    HW245042   3.847   4.321   2.480 -1.3573 -1.9542  0.5576
11130SOL     OW45043   9.460   5.891   5.769 -0.4735  0.0269 -0.2559
11130SOL    HW145044   9.537   5.934   5.724 -1.7593  0.9753 -1.5952
11130SOL    HW245045   9.480   5.879   5.866  0.6736  1.8692 -0.2457
11131SOL     OW45046   8.877   4.939   6.294 -0.5274  0.2493  0.3336
11131SOL    HW145047   8.835   5.027   6.317  0.7519  0.8080  0.6128
11131SOL    HW245048   8.886   4.931   6.194  0.0397  0.7790  0.3366
11132SOL     OW45049   8.272   7.353   7.622 -0.0506 -0.3777 -0.2914
11132SOL    HW145050   8.238   7.391   7.536  0.2619  1.3395  0.3273
11132SOL    HW245051   8.352   7.295   7.604  1.3744  1.7454 -0.9445
11133SOL     OW45052   0.420   2.138   0.415  0.1075 -0.5044 -0.2003
11133SOL    HW145053   0.429   2.150   0.514  2.1913 -1.8702 -0.1828
11133SOL    HW245054   0.346   2.074   0.395  0.8883 -1.6695  0.5861
11134SOL     OW45055   2.864   2.506   7.637  1.1285 -0.0228  0.3864
11134SOL    HW145056   2.919   2.434   7.678  0.1167  0.2780  2.3132
11134SOL    HW245057   2.769   2.498   7.668 -0.2969 -1.3353 -3.8762
11135SOL     OW45058   0.038   0.706   2.518 -0.0051 -0.1009 -0.3966
11135SOL    HW145059   0.073   0.767   2.589  1.1042  0.2274 -1.2160
11135SOL    HW245060  -0.061   0.719   2.509  0.2202  1.5876 -0.5724
11136SOL     OW45061   3.494   3.800   6.695 -0.0166 -0.5971  0.1853
11136SOL    HW145062   3.496   3.858   6.776  1.3992 -0.2527 -0.0721
11136SOL    HW245063   3.588   3.788   6.661 -0.5510 -1.0978 -1.1341
11137SOL     OW45064   2.565   7.621   5.732 -0.4425 -0.1344  0.2812
11137SOL    HW145065   2.521   7.699   5.686 -0.3905  0.4986  1.2855
11137SOL    HW245066   2.496   7.552   5.752 -0.7809  0.3530  0.8192
11138SOL     OW45067   4.335   3.597   5.095  0.1961  0.3014 -0.9438
11138SOL    HW145068   4.395   3.660   5.145 -0.6362  0.0342  0.4218
11138SOL    HW245069   4.292   3.645   5.018 -2.2246  2.0840  1.4294
11139SOL     OW45070   1.220   9.230   1.021 -0.4802 -0.3158  0.5593
11139SOL    HW145071   1.300   9.170   1.010 -0.4647 -0.8546  3.2532
11139SOL    HW245072   1.217   9.265   1.114 -1.9867  1.7963 -0.2296
11140SOL     OW45073   1.471   9.197   6.764 -0.3269 -0.3836 -0.0015
11140SOL    HW145074   1.556   9.249   6.763  0.4918 -1.6649  1.2586
11140SOL    HW245075   1.482   9.113   6.711 -0.3841 -1.2034  1.2833
11141SOL     OW45076   0.348   2.406   6.243  0.1059  0.2946  0.5699
11141SOL    HW145077   0.249   2.407   6.258 -0.2687 -0.6763 -1.6585
11141SOL    HW245078   0.393   2.452   6.319 -1.9615 -0.4616  2.3262
11142SOL     OW45079   7.363   6.941   7.415 -0.1777  0.2601  0.3412
11142SOL    HW145080   7.347   7.035   7.386 -0.4449  0.4779  1.1603
11142SOL    HW245081   7.459   6.929   7.439  0.2258 -0.1649 -1.4815
11143SOL     OW45082   1.311   4.219   6.786  0.1846 -0.2075  0.1952
11143SOL    HW145083   1.298   4.283   6.863  0.4848  0.8068 -0.5831
11143SOL    HW245084   1.408   4.215   6.763  0.0023  0.1523 -0.6749
11144SOL     OW45085   9.792   7.366   2.280  0.6260 -0.4966  0.0689
11144SOL    HW145086   9.713   7.401   2.331  1.3593  2.6425 -0.9045
11144SOL    HW245087   9.768   7.359   2.184  1.1581 -0.7399 -0.0456
11145SOL     OW45088   6.020   8.860   7.807  0.1158  0.4332  0.2686
11145SOL    HW145089   6.068   8.877   7.720  0.7888 -0.2061  0.5168
11145SOL    HW245090   6.000   8.763   7.816 -2.5419  0.8457 -0.5117
11146SOL     OW45091   1.651   1.782   3.022  0.1127 -0.2871  0.4515
11146SOL    HW145092   1.692   1.840   3.093  4.2372 -1.9482 -0.4341
11146SOL    HW245093   1.631   1.838   2.942  1.0440  0.5376  0.7708
11147SOL     OW45094   4.909   7.839   7.076  0.1439 -0.3901  0.0668
11147SOL    HW145095   4.911   7.797   7.166  0.0129 -0.1296  0.1923
11147SOL    HW245096   4.864   7.929   7.082  0.5773 -0.1542 -0.1577
11148SOL     OW45097   8.701   8.830   5.673  0.7773  0.3476  0.5657
11148SOL    HW145098   8.793   8.813   5.707  1.4751  0.8856 -1.0229
11148SOL    HW245099   8.693   8.925   5.643  1.5053 -1.0470 -4.5830
11149SOL     OW45100   5.491   0.227   1.530 -0.1551  0.9534  0.7350
11149SOL    HW145101   5.517   0.283   1.452  0.1234 -1.0611 -0.6535
11149SOL    HW245102   5.565   0.226   1.597 -0.0346  1.9753  0.6173
11150SOL     OW45103   9.985   0.381   5.699  0.5002 -0.1639 -0.4591
11150SOL    HW145104  10.078   0.411   5.721  0.0517  0.7221  0.2773
11150SOL    HW245105   9.934   0.458   5.660  0.0160 -0.5942 -0.6735
11151SOL     OW45106   5.142   9.768   0.913 -0.0222  0.1961 -0.0113
11151SOL    HW145107   5.240   9.767   0.936  0.0174  0.0436 -0.1924
11151SOL    HW245108   5.103   9.856   0.941  0.3173  0.5282 -0.5749
11152SOL     OW45109   6.775   2.549   3.363 -0.2377 -0.0393 -0.3448
11152SOL    HW145110   6.815   2.584   3.449  1.5521 -0.0643 -1.1460
11152SOL    HW245111   6.769   2.450   3.367 -0.9390  0.0155  0.0737
11153SOL     OW45112   9.070   7.349   6.587  0.1797 -0.1877 -0.1741
11153SOL    HW145113   9.045   7.286   6.660 -0.3864 -0.7262 -0.8340
11153SOL    HW245114   9.013   7.431   6.593 -1.1584 -1.0274 -1.1307
11154SOL     OW45115   3.797   0.746   4.641 -0.4462 -0.4596  0.6860
11154SOL    HW145116   3.773   0.650   4.652 -0.6205 -0.4111  0.7227
11154SOL    HW245117   3.744   0.802   4.705 -1.4915 -0.1801 -0.4042
11155SOL     OW45118   0.021   2.278   3.086 -0.0120  0.4154 -0.4656
11155SOL    HW145119   0.100   2.329   3.052  0.6901  0.0741  0.6207
11155SOL    HW245120  -0.063   2.322   3.055  0.5873  1.8103 -0.1635
11156SOL     OW45121   6.652   7.483   2.681  0.3219  0.1692 -0.2703
11156SOL    HW145122   6.565   7.486   2.731  2.1604 -2.4124  3.2764
11156SOL    HW245123   6.712   7.555   2.715  0.6971 -0.0360 -0.5011
11157SOL     OW45124   9.583   5.324   7.165  0.9043 -0.2954 -0.4275
11157SOL    HW145125   9.642   5.330   7.245  0.5417  1.7037 -0.2849
11157SOL    HW245126   9.639   5.316   7.083  1.3281 -0.3400 -0.1334
11158SOL     OW45127   2.114   1.883   3.110 -0.0483 -0.3339  0.4242
11158SOL    HW145128   2.112   1.902   3.208  0.8725 -0.0949  0.4079
11158SOL    HW245129   2.207   1.899   3.075 -0.5183  0.2081 -0.6098
11159SOL     OW45130   1.949   0.615   6.333  0.3020  0.1892 -0.1941
11159SOL    HW145131   1.993   0.558   6.402 -0.2139 -0.2352 -0.2065
11159SOL    HW245132   1.851   0.596   6.332  0.0446  1.4616  0.1652
11160SOL     OW45133   7.967   1.163   0.384 -0.0135  0.1957  0.1782
11160SOL    HW145134   7.997   1.077   0.343 -1.4670  0.2546 -1.0869
11160SOL    HW245135   8.016   1.179   0.470  1.5431 -0.9998 -0.4796
11161SOL     OW45136   5.124   3.406   0.873 -0.0397  0.3052 -0.3277
11161SOL    HW145137   5.041   3.397   0.928  0.4437  0.8695  0.5085
11161SOL    HW245138   5.100   3.439   0.782 -0.8706 -0.8224 -0.5342
11162SOL     OW45139   8.715   7.711   3.453  0.5208  0.6891  0.4382
11162SOL    HW145140   8.678   7.626   3.488 -0.2531 -0.0162 -1.9871
11162SOL    HW245141   8.811   7.721   3.481 -0.0723  0.2158  2.7248
11163SOL     OW45142   3.379   2.066   4.883 -0.0461 -0.4745 -0.0901
11163SOL    HW145143   3.402   1.970   4.865  3.0734  0.3452 -0.8031
11163SOL    HW245144   3.377   2.082   4.981  0.6002 -1.0491  0.0235
11164SOL     OW45145   9.122   6.269   5.392 -0.7635 -0.4809  0.7582
11164SOL    HW145146   9.112   6.348   5.453 -0.5653 -1.8913  2.6496
11164SOL    HW245147   9.219   6.249   5.380 -0.8568 -1.8602  2.1768
11165SOL     OW45148   0.627   4.940   3.904 -0.7128 -0.3030 -0.3111
11165SOL    HW145149   0.721   4.972   3.914 -0.6900 -0.2133 -0.8055
11165SOL    HW245150   0.564   5.016   3.917 -0.7679 -0.5802  1.1322
11166SOL     OW45151   7.202   8.565   5.417 -0.5446 -0.4444 -0.0907
11166SOL    HW145152   7.288   8.524   5.390  0.8308  1.9958  0.4392
11166SOL    HW245153   7.138   8.562   5.340  1.6002  1.9025 -2.0421
11167SOL     OW45154   3.996   9.159   0.863  0.6726 -0.0066  0.0354
11167SOL    HW145155   3.903   9.159   0.900  0.9273  1.7526  0.7538
11167SOL    HW245156   3.993   9.164   0.763 -0.0132  1.3235  0.1109
11168SOL     OW45157   2.829   5.449   5.054  0.4194  0.0136 -0.0091
11168SOL    HW145158   2.871   5.369   5.097  1.7078  1.3164  1.2195
11168SOL    HW245159   2.736   5.460   5.088  0.1072 -1.1451 -0.4455
11169SOL     OW45160   9.456   9.297   5.886  0.4078  0.4818 -0.2815
11169SOL    HW145161   9.507   9.223   5.930  0.3820  1.0993  0.8257
11169SOL    HW245162   9.453   9.283   5.788 -0.1576 -1.3384 -0.0082
11170SOL     OW45163   9.259   6.199   1.842  0.2177  0.0230  0.0354
11170SOL    HW145164   9.324   6.213   1.916  0.1730 -0.9588  0.2652
11170SOL    HW245165   9.189   6.134   1.871 -1.0461  1.2720 -0.1011
11171SOL     OW45166   1.915   4.765   6.803  0.2750 -0.1703 -0.0817
11171SOL    HW145167   1.827   4.717   6.807 -0.9804  1.8462 -1.9771
11171SOL    HW245168   1.949   4.765   6.709  1.8370 -0.1063  0.4689
11172SOL     OW45169   5.708   9.975   6.443  0.3718  0.0958 -0.8670
11172SOL    HW145170   5.650   9.981   6.524  2.0066  1.1288  0.2867
11172SOL    HW245171   5.778   9.905   6.457  1.0899  0.7564 -1.0886
11173SOL     OW45172   6.437   9.248   7.872  0.4154  0.8928 -0.8021
11173SOL    HW145173   6.375   9.169   7.867 -0.2533  1.3234  0.3907
11173SOL    HW245174   6.532   9.215   7.877  0.0397  0.0528  1.8049
11174SOL     OW45175   2.905   9.855   2.822  0.0319  0.0046  0.3189
11174SOL    HW145176   2.909   9.955   2.813  0.8441 -0.1344 -0.9805
11174SOL    HW245177   2.913   9.813   2.732 -0.1894 -1.2486  0.8727
11175SOL     OW45178   9.240   2.594   6.705  0.5466  0.1802  0.6190
11175SOL    HW145179   9.159   2.629   6.753  0.1059  0.6646 -0.4418
11175SOL    HW245180   9.263   2.504   6.740 -0.9702 -0.3243  0.3717
11176SOL     OW45181   1.857   8.831   6.798 -0.1462 -0.2670  0.0640
11176SOL    HW145182   1.807   8.917   6.784 -3.4634 -2.2659 -0.7794
11176SOL    HW245183   1.898   8.832   6.890 -2.1062  1.2780  0.9694
11177SOL     OW45184   3.338   2.060   0.384  0.3186  0.2809  0.1949
11177SOL    HW145185   3.403   2.100   0.320  0.8077 -1.2187 -0.2723
11177SOL    HW245186   3.362   1.964   0.400 -0.8104  0.1682  1.3001
11178SOL     OW45187   4.626   6.637   3.847  0.1173 -0.6344  0.4281
11178SOL    HW145188   4.694   6.658   3.776  0.6958  0.1231  1.1984
11178SOL    HW245189   4.548   6.589   3.805  0.6817 -0.6523 -0.6266
11179SOL     OW45190   1.006   8.512   0.437  0.1771  0.2553 -0.1909
11179SOL    HW145191   1.012   8.598   0.388 -1.8435  0.7858  0.4137
11179SOL    HW245192   1.005   8.530   0.536  1.0707 -0.5558 -0.0315
11180SOL     OW45193   2.385   0.134   7.601 -0.7702 -0.1269 -0.1170
11180SOL    HW145194   2.455   0.187   7.648 -0.3843 -0.7353 -0.0052
11180SOL    HW245195   2.310   0.113   7.665  0.0855 -1.5692  0.4403
11181SOL     OW45196   4.737   3.630   1.144 -0.5724  0.5946 -0.5021
11181SOL    HW145197   4.692   3.578   1.216 -2.1406  0.5889 -1.4557
11181SOL    HW245198   4.836   3.624   1.155 -0.7699 -0.8008  0.6487
11182SOL     OW45199   9.551   8.124   4.536 -0.2470  0.1822 -0.1580
11182SOL    HW145200   9.616   8.090   4.604  1.8541  2.0549 -1.1415
11182SOL    HW245201   9.468   8.155   4.581  2.3607  4.3831  2.0335
11183SOL     OW45202   4.387   9.879   4.071  0.0182  0.2797 -0.5844
11183SOL    HW145203   4.348   9.948   4.009 -0.7242  0.2424 -0.1693
11183SOL    HW245204   4.481   9.860   4.044 -0.2585  0.3513 -1.6259
11184SOL     OW45205   8.043   0.708   4.581 -0.2909  0.2790  0.3444
11184SOL    HW145206   7.962   0.751   4.541 -0.6986 -0.9286 -0.1500
11184SOL    HW245207   8.015   0.626   4.631  0.5796  0.1296  0.5862
11185SOL     OW45208   0.427   7.316   3.727 -0.1521  0.5502 -0.5136
11185SOL    HW145209   0.327   7.311   3.723 -0.0801 -1.7238  0.0728
11185SOL    HW245210   0.454   7.408   3.754 -2.1325  0.7729  0.8131
11186SOL     OW45211   6.881   5.706   1.319 -0.0225 -0.2141 -0.4998
11186SOL    HW145212   6.871   5.608   1.309  1.3485 -0.3212 -0.9441
11186SOL    HW245213   6.924   5.726   1.407 -1.0809  0.0442 -0.0333
11187SOL     OW45214   2.928   4.143   7.200  0.1821 -0.1227  0.3767
11187SOL    HW145215   2.888   4.168   7.287 -0.8299 -1.6440  0.3654
11187SOL    HW245216   2.906   4.048   7.179 -0.1536  0.4207 -1.8555
11188SOL     OW45217   4.970   0.421   2.704 -0.2061  0.5976 -0.1754
11188SOL    HW145218   4.921   0.463   2.627  0.2721  0.3816 -0.6019
11188SOL    HW245219   4.946   0.468   2.788 -1.0929  0.5386 -0.3915
11189SOL     OW45220   4.785   3.975   2.290 -0.3662  0.0162  0.0212
11189SOL    HW145221   4.787   4.072   2.268 -2.6856 -0.0152 -0.4830
11189SOL    HW245222   4.858   3.927   2.241 -0.6252  1.1520 -1.4939
11190SOL     OW45223   2.328   4.679   5.787 -0.1131  0.6304 -0.5340
11190SOL    HW145224   2.324   4.680   5.887  0.7338 -0.1892 -0.4792
11190SOL    HW245225   2.238   4.700   5.750 -0.2899  1.5832  0.3944
11191SOL     OW45226   4.372   1.641   3.732  0.2791  0.8117 -0.0539
11191SOL    HW145227   4.355   1.740   3.728 -0.6244  0.7141  1.0193
11191SOL    HW245228   4.465   1.624   3.764  1.4943  1.3361 -3.1359
11192SOL     OW45229   7.957   8.007   3.022 -0.3519 -0.7209 -0.0894
11192SOL    HW145230   7.924   7.913   3.019  0.9982 -1.2240  0.1713
11192SOL    HW245231   8.057   8.007   3.015 -0.2567  0.6265  1.0340
11193SOL     OW45232   3.579   0.501   5.044 -0.1230  0.0106  0.0433
11193SOL    HW145233   3.527   0.452   5.114  0.8301 -1.2878 -0.1361
11193SOL    HW245234   3.646   0.561   5.087 -0.9284  0.7814  0.2527
11194SOL     OW45235   8.077   4.782   0.440 -0.0318 -0.0956  0.1711
11194SOL    HW145236   7.981   4.788   0.411  0.3366 -1.0347 -1.3119
11194SOL    HW245237   8.126   4.863   0.408  0.1140 -0.5850 -0.8743
11195SOL     OW45238   2.079   2.021   5.551  0.4040  0.0993 -0.0128
11195SOL    HW145239   2.124   1.941   5.511 -2.0098 -1.8445  0.9956
11195SOL    HW245240   2.031   2.072   5.480  0.2939 -0.4914 -0.3636
11196SOL     OW45241   0.097   4.673   5.641  0.2862 -0.4207 -0.0367
11196SOL    HW145242   0.097   4.620   5.557  1.9172 -0.2112 -0.1886
11196SOL    HW245243   0.106   4.612   5.720  0.4345 -0.5012 -0.1154
11197SOL     OW45244   3.667   4.343   5.326  0.3362  0.1465 -0.3342
11197SOL    HW145245   3.767   4.340   5.324  0.3949  0.9233  1.0119
11197SOL    HW245246   3.636   4.424   5.276  0.3525 -0.2776 -1.0473
11198SOL     OW45247   4.394   9.562   1.987 -0.1804  0.2031  0.0911
11198SOL    HW145248   4.409   9.477   2.037 -0.5182  0.0208 -0.1183
11198SOL    HW245249   4.319   9.550   1.923  1.4726 -0.1608 -1.8273
11199SOL     OW45250   8.018   7.878   5.986  0.7333 -0.3963  0.1347
11199SOL    HW145251   7.926   7.918   5.979  1.1073  0.4569  0.0099
11199SOL    HW245252   8.018   7.808   6.057  0.4913  1.1067  1.6649
11200SOL     OW45253   0.957   3.748   7.538  0.4363 -0.1092 -0.5990
11200SOL    HW145254   0.861   3.722   7.528  0.3728 -0.6727  1.2303
11200SOL    HW245255   1.015   3.676   7.500  0.1640 -0.7171  0.1232
11201SOL     OW45256   5.886   8.402   7.240  0.0260 -0.7141 -0.1986
11201SOL    HW145257   5.980   8.435   7.247 -0.9554  2.3220 -0.2705
11201SOL    HW245258   5.847   8.391   7.331 -0.0689 -0.3415 -0.1930
11202SOL     OW45259   2.316   7.535   7.139 -0.0612  0.1506 -0.2228
11202SOL    HW145260   2.403   7.525   7.091  0.2375  0.1156  0.3200
11202SOL    HW245261   2.272   7.445   7.148 -0.7971  0.3526 -1.6771
11203SOL     OW45262   0.450   5.183   4.800  0.3599 -0.1670 -0.2392
11203SOL    HW145263   0.400   5.127   4.866 -0.0051  1.1658  0.6193
11203SOL    HW245264   0.391   5.206   4.723  0.2804 -0.3190 -0.2232
11204SOL     OW45265   1.201   0.192   3.076 -0.3445 -0.6161 -0.1394
11204SOL    HW145266   1.139   0.240   3.137  1.8487 -0.0763  1.7635
11204SOL    HW245267   1.242   0.257   3.012  2.1256  0.0479  2.0084
11205SOL     OW45268   5.743   0.106   5.625 -0.6886  0.1957  0.1403
11205SOL    HW145269   5.807   0.157   5.568 -1.8933  1.2079 -0.3515
11205SOL    HW245270   5.651   0.146   5.616 -1.8212 -2.4646 -0.7989
11206SOL     OW45271   3.877   3.885   3.806 -0.0150  0.4485 -0.3137
11206SOL    HW145272   3.911   3.897   3.899 -0.7837 -2.1260  0.3466
11206SOL    HW245273   3.843   3.792   3.795  0.3618  0.6231 -3.2902
11207SOL     OW45274   2.137   4.353   4.125 -0.7807  0.0725  0.7738
11207SOL    HW145275   2.071   4.336   4.198 -1.2983 -2.7076 -0.2676
11207SOL    HW245276   2.161   4.267   4.081 -3.4661  1.9090 -4.8507
11208SOL     OW45277   1.471   6.524   5.386 -0.0683 -0.2426  0.2495
11208SOL    HW145278   1.518   6.477   5.311 -0.1898  0.6309 -0.3866
11208SOL    HW245279   1.529   6.598   5.421 -0.6389  0.3430 -0.0261
11209SOL     OW45280   9.341   9.122   0.116  0.0586  0.0816  0.1536
11209SOL    HW145281   9.343   9.043   0.056 -0.0959  0.3370 -0.1924
11209SOL    HW245282   9.247   9.156   0.123  0.0324 -0.1132  0.7594
11210SOL     OW45283   2.274   1.565   1.970 -0.4268  0.0996 -0.0740
11210SOL    HW145284   2.322   1.490   1.923  0.7056  0.1844  0.9016
11210SOL    HW245285   2.260   1.641   1.907  0.9985  0.1760 -0.3327
11211SOL     OW45286   1.316   0.127   6.684 -0.4202 -0.3184  0.1224
11211SOL    HW145287   1.368   0.051   6.721 -1.5272  0.3921  3.2490
11211SOL    HW245288   1.223   0.097   6.663 -0.2674 -0.3190 -0.5632
11212SOL     OW45289   7.150   9.546   1.567 -0.0246  0.4910  0.5100
11212SOL    HW145290   7.244   9.577   1.585  0.7870 -1.0259 -0.9890
11212SOL    HW245291   7.086   9.612   1.606  1.6531  1.8439  1.0839
11213SOL     OW45292   1.208   6.778   4.678  0.1156 -0.6479 -0.4173
11213SOL    HW145293   1.111   6.782   4.653 -0.2767 -0.1163  1.1596
11213SOL    HW245294   1.263   6.773   4.595 -1.2289 -0.3214 -1.3495
11214SOL     OW45295   3.067   7.862   4.111 -0.1727  0.7618  0.6243
11214SOL    HW145296   3.156   7.874   4.068 -0.2552  1.0451  0.5314
11214SOL    HW245297   2.995   7.878   4.043 -0.2893  0.1016  0.5922
11215SOL     OW45298   1.874   8.141   3.512  0.0969 -0.1544 -0.1271
11215SOL    HW145299   1.800   8.204   3.532 -1.5218 -1.3646 -2.0998
11215SOL    HW245300   1.873   8.066   3.579  0.5940  0.6888  0.8377
11216SOL     OW45301   3.451   3.162   7.987  0.3926  0.1605  0.0378
11216SOL    HW145302   3.454   3.078   8.042  1.6707  0.1006 -0.1104
11216SOL    HW245303   3.543   3.185   7.957 -0.2837  0.2688 -1.9857
11217SOL     OW45304   3.138   9.077   1.309  0.1579 -0.1166  0.3359
11217SOL    HW145305   3.166   9.173   1.307 -0.0218 -0.0661  0.2811
11217SOL    HW245306   3.039   9.070   1.320 -0.0761 -0.2659 -1.7348
11218SOL     OW45307   5.661   0.691   6.648 -0.2271 -0.0637  0.0547
11218SOL    HW145308   5.703   0.604   6.623  0.3888  0.1818  0.2049
11218SOL    HW245309   5.620   0.733   6.567  1.0233  0.3320 -0.3928
11219SOL     OW45310   9.383   0.955   3.253  0.2603 -0.0774 -0.0578
11219SOL    HW145311   9.373   0.959   3.352 -1.8299 -1.2397 -0.1830
11219SOL    HW245312   9.393   1.047   3.217 -0.9027  0.5147  1.0780
11220SOL     OW45313   2.550   0.597   3.053  0.2291 -0.5529  0.1770
11220SOL    HW145314   2.610   0.649   2.992  0.1882 -0.4121  0.2561
11220SOL    HW245315   2.556   0.500   3.031  0.4944 -0.5394  0.1930
11221SOL     OW45316   6.865   3.163   3.526 -0.2301 -0.2122  0.5037
11221SOL    HW145317   6.845   3.256   3.494  0.0413 -0.1828  0.4193
11221SOL    HW245318   6.960   3.157   3.555 -0.0020 -0.7079 -0.3515
11222SOL     OW45319   1.028   0.709   1.274  0.6132  0.1924 -0.1124
11222SOL    HW145320   0.936   0.732   1.305  0.5906 -0.2451  0.1534
11222SOL    HW245321   1.043   0.611   1.284  1.4787  0.4162  0.8289
11223SOL     OW45322   2.067   4.719   3.907 -0.1459  0.1845  0.0621
11223SOL    HW145323   2.096   4.806   3.947 -0.6520 -0.1847  1.2647
11223SOL    HW245324   1.977   4.730   3.864 -0.5138  0.0903  0.8088
11224SOL     OW45325   4.570   2.593   0.382 -0.5300  0.0579 -0.4149
11224SOL    HW145326   4.614   2.553   0.462  1.5805 -0.8690 -2.0017
11224SOL    HW245327   4.502   2.529   0.346  0.1393 -0.4778 -0.7154
11225SOL     OW45328   1.353   0.797   1.773 -0.4288 -0.6162  0.2288
11225SOL    HW145329   1.284   0.742   1.820 -2.2719  0.7918 -0.7489
11225SOL    HW245330   1.404   0.740   1.709 -1.7434 -1.3639 -0.1672
11226SOL     OW45331   9.528   4.551   0.951 -0.0151 -0.3538  0.3572
11226SOL    HW145332   9.604   4.614   0.966 -0.2803 -0.4652  2.3303
11226SOL    HW245333   9.498   4.514   1.039 -2.3382 -0.3309 -0.3902
11227SOL     OW45334   9.196   8.158   6.291  0.5021 -0.4950 -0.0426
11227SOL    HW145335   9.262   8.133   6.362  0.3313  0.7412  0.5717
11227SOL    HW245336   9.243   8.170   6.204  1.0212 -0.0216  0.3031
11228SOL     OW45337   3.681   3.123   6.915  0.0333 -0.0781 -1.1837
11228SOL    HW145338   3.733   3.057   6.861 -0.1754 -1.3134  0.0894
11228SOL    HW245339   3.652   3.080   7.000 -0.0881  1.6784 -0.3235
11229SOL     OW45340   6.049   5.468   2.521 -0.2588 -0.0439 -0.0749
11229SOL    HW145341   6.140   5.469   2.480 -0.6023  2.7667 -0.8601
11229SOL    HW245342   5.997   5.548   2.490 -3.0727 -1.6779  0.2100
11230SOL     OW45343   1.214   2.745   5.282  0.2970  0.3661  0.2397
11230SOL    HW145344   1.203   2.798   5.366  1.5761  1.7954 -0.4591
11230SOL    HW245345   1.124   2.726   5.242 -0.2334  1.0186  1.1105
11231SOL     OW45346   8.378   2.874   0.860 -0.2110 -0.5258 -0.1522
11231SOL    HW145347   8.363   2.972   0.846 -1.1347 -1.0696 -3.3153
11231SOL    HW245348   8.304   2.822   0.817  0.9253 -2.6750  0.3961
11232SOL     OW45349   1.355   6.631   5.089 -0.3128 -0.9597  0.3045
11232SOL    HW145350   1.275   6.662   5.140 -0.8517 -0.9726 -0.5261
11232SOL    HW245351   1.325   6.578   5.010  0.5449 -1.7351  0.5013
11233SOL     OW45352   3.665   6.006   5.119 -0.0310  0.3279  0.1265
11233SOL    HW145353   3.606   5.947   5.065 -1.2228  0.1255  1.6054
11233SOL    HW245354   3.742   5.952   5.154 -0.4617 -0.0748  0.4683
11234SOL     OW45355   4.007   0.709   3.315 -0.5274 -0.2343  0.0414
11234SOL    HW145356   4.048   0.670   3.232 -0.2278 -0.0653  0.1092
11234SOL    HW245357   3.936   0.648   3.348 -0.0434 -0.7427  0.1612
11235SOL     OW45358   1.401   1.226   5.298 -0.4623  0.0202 -0.8259
11235SOL    HW145359   1.390   1.258   5.204  1.8938 -0.5644 -1.3447
11235SOL    HW245360   1.391   1.302   5.361  0.8374  1.0012 -1.7760
11236SOL     OW45361   0.258   6.313   4.662 -0.2298 -0.5800  0.0773
11236SOL    HW145362   0.184   6.266   4.614 -0.3224 -0.0964 -0.2575
11236SOL    HW245363   0.261   6.409   4.634 -1.0645  0.0108  1.9610
11237SOL     OW45364   8.223   9.464   7.582  0.7310 -0.1102 -0.4188
11237SOL    HW145365   8.269   9.375   7.586  0.9919  0.1029  2.7556
11237SOL    HW245366   8.290   9.535   7.560  0.8786 -0.4420 -1.0730
11238SOL     OW45367   3.213   2.867   4.858 -0.3381 -0.6069 -0.0539
11238SOL    HW145368   3.207   2.955   4.810 -0.1718 -0.8395 -0.4955
11238SOL    HW245369   3.255   2.799   4.799  1.0662 -0.5683  0.8760
11239SOL     OW45370   2.477   8.033   6.935 -0.2885 -0.3238  0.4743
11239SOL    HW145371   2.402   8.081   6.890  1.0189  1.0015 -0.3220
11239SOL    HW245372   2.500   7.951   6.883 -0.3608 -0.0668  0.0326
11240SOL     OW45373   8.358   2.767   7.031 -0.2120  0.2547 -0.0933
11240SOL    HW145374   8.403   2.850   7.063 -0.1704 -0.8869  2.9866
11240SOL    HW245375   8.416   2.688   7.049 -1.2243 -0.6891 -0.8640
11241SOL     OW45376   7.091   8.833   5.425  0.1274  0.0586 -0.2675
11241SOL    HW145377   7.118   8.737   5.429 -1.6053 -0.4240 -0.0039
11241SOL    HW245378   7.045   8.858   5.510 -0.0387  0.9399 -0.6121
11242SOL     OW45379   9.850   0.835   2.185 -0.0575 -0.1747 -0.0581
11242SOL    HW145380   9.827   0.932   2.190 -0.3521 -0.1894 -1.0858
11242SOL    HW245381   9.778   0.781   2.228 -0.1037  0.0267  0.1181
11243SOL     OW45382   1.548   8.919   3.807 -0.1326  0.3587 -0.1409
11243SOL    HW145383   1.618   8.867   3.759 -0.1633  0.4885 -0.3271
11243SOL    HW245384   1.567   8.918   3.906  0.8860  1.5196 -0.3078
11244SOL     OW45385   3.529   2.532   3.141  0.6568 -0.2793  0.0172
11244SOL    HW145386   3.545   2.578   3.053 -0.3249 -1.8586 -1.0082
11244SOL    HW245387   3.475   2.592   3.200  0.4406  0.3909 -0.8417
11245SOL     OW45388   4.288   7.162   1.898  0.1902 -0.3620  0.0974
11245SOL    HW145389   4.263   7.258   1.883  0.8380 -0.2486 -0.2459
11245SOL    HW245390   4.355   7.133   1.830 -0.6862 -1.3372 -0.3872
11246SOL     OW45391   2.816   7.978   5.096 -0.3669 -0.1974  0.1327
11246SOL    HW145392   2.844   7.969   5.000  1.6330  1.1339  0.5527
11246SOL    HW245393   2.847   7.898   5.147  0.0124 -0.1478 -0.0166
11247SOL     OW45394   0.643   6.634   5.130 -0.3320 -0.4830 -0.5424
11247SOL    HW145395   0.685   6.724   5.123  2.5005 -1.6912  0.0103
11247SOL    HW245396   0.632   6.610   5.226 -3.1708  0.1562 -0.6646
11248SOL     OW45397   2.657   1.749   0.865  0.1551  0.0766  0.1188
11248SOL    HW145398   2.558   1.756   0.879  0.2038  0.0044  0.5081
11248SOL    HW245399   2.690   1.832   0.821 -0.0455  0.1936  0.1880
11249SOL     OW45400   3.926   0.972   6.208  0.2020  0.0833 -0.1521
11249SOL    HW145401   3.852   0.993   6.272  0.2885  0.9612 -0.3341
11249SOL    HW245402   3.891   0.974   6.115  0.8988  2.5484 -0.3732
11250SOL     OW45403   8.834   8.407   0.809  0.9521 -0.7448  0.8357
11250SOL    HW145404   8.857   8.503   0.800 -0.3985 -0.4802  0.1067
11250SOL    HW245405   8.858   8.358   0.726 -0.0967 -0.6711  0.4837
11251SOL     OW45406   4.551   1.461   0.838 -0.4380 -0.6913 -0.7803
11251SOL    HW145407   4.611   1.389   0.872 -1.3725 -0.6978  0.8766
11251SOL    HW245408   4.492   1.425   0.766 -0.8392 -1.5588 -0.0191
11252SOL     OW45409   0.730   2.342   1.735  0.1227 -0.1808 -0.2584
11252SOL    HW145410   0.640   2.355   1.777  0.7632  0.5079  0.9344
11252SOL    HW245411   0.753   2.245   1.735 -0.3235 -0.2894  0.0541
11253SOL     OW45412   4.977   2.381   0.873  0.2652 -0.1509 -0.2658
11253SOL    HW145413   4.910   2.328   0.823 -0.2040  0.0371  0.1617
11253SOL    HW245414   5.060   2.327   0.886  0.0523 -0.5206 -0.4475
11254SOL     OW45415   2.987   4.922   2.795 -0.2479  0.1687  0.1592
11254SOL    HW145416   2.991   4.951   2.891  0.1413 -0.0299  0.2070
11254SOL    HW245417   2.899   4.948   2.756 -0.9546 -0.9792  0.9678
11255SOL     OW45418   2.343   5.853   3.869  0.0995 -0.2403  0.1505
11255SOL    HW145419   2.300   5.819   3.952 -2.1544 -0.9119 -1.2368
11255SOL    HW245420   2.272   5.875   3.801  1.8903  0.0574 -1.6787
11256SOL     OW45421   0.485   7.585   6.919  0.2119 -0.1586 -0.6417
11256SOL    HW145422   0.506   7.672   6.964  1.3326 -0.4420 -0.5878
11256SOL    HW245423   0.419   7.534   6.975  1.3707 -0.3779  0.5539
11257SOL     OW45424   0.815   6.130   3.857 -0.3926  0.1918 -0.1879
11257SOL    HW145425   0.857   6.107   3.769  0.4153 -3.4920  1.0877
11257SOL    HW245426   0.749   6.060   3.882  0.0161  0.7154  2.5643
11258SOL     OW45427   1.073   8.440   2.479  0.1530  0.8045 -0.1978
11258SOL    HW145428   1.117   8.438   2.389 -1.4171  1.4201 -1.0086
11258SOL    HW245429   1.022   8.355   2.493  0.4316  0.6922  0.1234
11259SOL     OW45430   8.853   5.156   2.625  0.0202 -0.7741  0.4223
11259SOL    HW145431   8.822   5.073   2.672 -5.2244  0.8432  0.1810
11259SOL    HW245432   8.905   5.213   2.689  0.8797 -2.7586  1.5397
11260SOL     OW45433   0.023   7.928   6.485  0.2874 -0.3175 -0.2225
11260SOL    HW145434   0.062   8.015   6.514 -1.1011  0.3502 -0.2873
11260SOL    HW245435  -0.062   7.912   6.535  0.5447 -1.6489 -0.2030
11261SOL     OW45436   3.761   0.953   2.154 -0.0181  0.5896 -1.1153
11261SOL    HW145437   3.848   0.941   2.106 -0.2586 -1.0379 -1.1838
11261SOL    HW245438   3.768   0.915   2.246 -0.0480  2.2892 -0.3914
11262SOL     OW45439   2.587   3.245   7.577 -0.1902 -0.3135  0.1450
11262SOL    HW145440   2.510   3.308   7.566 -0.3928 -0.5725  0.0842
11262SOL    HW245441   2.662   3.275   7.518 -0.0454  0.2525  0.6186
11263SOL     OW45442   8.519   6.020   6.802 -0.5315  0.1082 -0.0936
11263SOL    HW145443   8.545   6.029   6.898  0.0283 -2.2671  0.0222
11263SOL    HW245444   8.596   5.981   6.750 -1.9367 -1.7674 -0.8341
11264SOL     OW45445   2.990   1.879   1.575  0.5132 -0.4435 -0.3065
11264SOL    HW145446   3.014   1.782   1.574 -1.3722 -0.9742  2.0367
11264SOL    HW245447   2.914   1.896   1.512 -0.1576 -0.7692  0.4159
11265SOL     OW45448   0.933   4.860   0.751  0.2704  0.0081 -0.0707
11265SOL    HW145449   0.980   4.912   0.680  2.0933 -3.2794 -1.4042
11265SOL    HW245450   0.836   4.851   0.727 -0.2330  3.2062  0.5195
11266SOL     OW45451   4.962   9.380   6.699  0.2893 -0.4683 -0.2164
11266SOL    HW145452   4.864   9.378   6.718  0.1429 -0.6938 -0.9535
11266SOL    HW245453   4.977   9.418   6.608  0.7872 -1.7322 -0.6776
11267SOL     OW45454   4.068   1.158   4.545 -0.3038 -0.1182 -0.0072
11267SOL    HW145455   4.048   1.092   4.473 -0.6706  0.0204 -0.0284
11267SOL    HW245456   4.034   1.124   4.633  1.1094 -0.8051  0.3052
11268SOL     OW45457   9.540   0.658   0.470  0.9155  0.6632  0.0192
11268SOL    HW145458   9.632   0.675   0.434  1.0071 -0.5092 -0.2997
11268SOL    HW245459   9.492   0.746   0.479  1.5089  1.1495 -1.3054
11269SOL     OW45460   5.575   7.732   4.868  0.0333  0.0517  0.3787
11269SOL    HW145461   5.623   7.644   4.869  0.1461  0.1142  0.6348
11269SOL    HW245462   5.586   7.777   4.957  1.0391  0.9019 -0.1646
11270SOL     OW45463   2.760   1.709   5.848 -0.1944 -0.4478 -0.3947
11270SOL    HW145464   2.687   1.641   5.837 -1.2920  0.3773  1.5645
11270SOL    HW245465   2.758   1.772   5.771 -2.3711  0.3006  0.2318
11271SOL     OW45466   1.056   5.418   4.343 -0.2942 -0.2619 -0.1467
11271SOL    HW145467   1.018   5.463   4.424  1.8492  2.0253 -0.3194
11271SOL    HW245468   1.012   5.330   4.329 -0.7383 -0.6979  3.5019
11272SOL     OW45469   2.722   3.699   1.922 -0.0801 -0.1850 -0.2097
11272SOL    HW145470   2.717   3.726   2.018  1.5439  0.1679 -0.2159
11272SOL    HW245471   2.718   3.600   1.915  0.2464 -0.2321  0.2569
11273SOL     OW45472   7.015   1.264   1.417  0.1638 -0.0155  0.3292
11273SOL    HW145473   7.005   1.183   1.359 -0.3609 -0.2939  0.8024
11273SOL    HW245474   6.942   1.265   1.485  0.7072  0.3754  0.9089
11274SOL     OW45475   6.882   9.064   6.296 -0.3649  0.2383 -0.1893
11274SOL    HW145476   6.853   8.970   6.283  3.3711 -1.0081 -0.0360
11274SOL    HW245477   6.916   9.101   6.210  1.4424  0.2336  0.4958
11275SOL     OW45478   2.051   6.707   3.596 -0.0030  0.5122  0.2208
11275SOL    HW145479   2.035   6.615   3.559  0.1409  0.9546 -0.9436
11275SOL    HW245480   2.065   6.700   3.695 -2.6341 -0.4426  0.5711
11276SOL     OW45481   8.454   3.161   5.797 -0.3964  0.2497  0.3267
11276SOL    HW145482   8.496   3.073   5.774 -0.3724  0.0136  1.2545
11276SOL    HW245483   8.498   3.234   5.745  1.3149  0.0333  1.4220
11277SOL     OW45484   3.803   0.651   6.032 -0.0481  0.0819 -0.7683
11277SOL    HW145485   3.765   0.659   6.125 -0.8593  1.6906 -1.2117
11277SOL    HW245486   3.859   0.569   6.026  3.6074  2.1177  2.4299
11278SOL     OW45487   1.747   7.650   7.498  0.0683 -0.5416  0.2402
11278SOL    HW145488   1.847   7.653   7.504  0.1127 -0.7983 -0.3828
11278SOL    HW245489   1.708   7.711   7.567  0.6552 -0.3302  0.3882
11279SOL     OW45490   0.667   1.754   0.301  0.0034  0.0896 -0.3871
11279SOL    HW145491   0.688   1.846   0.333 -0.5084 -0.1650  0.7440
11279SOL    HW245492   0.746   1.716   0.252  1.2862  0.0858  1.5872
11280SOL     OW45493   1.978   0.615   7.655  0.0301  0.2632 -0.4501
11280SOL    HW145494   1.947   0.539   7.597 -1.6824  0.5707  0.0462
11280SOL    HW245495   1.910   0.633   7.726  1.8929  0.1970  1.4056
11281SOL     OW45496   3.307   5.670   3.840  0.6610 -0.8126  0.0510
11281SOL    HW145497   3.221   5.666   3.890  1.0503  2.3199  1.0702
11281SOL    HW245498   3.289   5.675   3.742 -0.6961  6.0263  0.4435
11282SOL     OW45499   1.471   0.425   5.223 -0.1460  0.5497  0.9866
11282SOL    HW145500   1.484   0.524   5.231 -1.1870  0.5806  2.4102
11282SOL    HW245501   1.509   0.380   5.304 -1.5665 -0.0404  1.3285
11283SOL     OW45502   4.281   0.245   0.841 -0.2216  0.2519  0.4303
11283SOL    HW145503   4.326   0.226   0.929  1.5068 -0.3133 -0.5495
11283SOL    HW245504   4.303   0.337   0.811 -0.9936  0.5233  0.6926
11284SOL     OW45505   7.804   1.137   4.230 -0.1880  0.0093 -0.2533
11284SOL    HW145506   7.774   1.183   4.314  0.2151  0.9122 -0.6033
11284SOL    HW245507   7.888   1.087   4.248 -0.8546 -0.9512  0.2372
11285SOL     OW45508   8.373   1.102   3.495 -0.7518  0.4309 -0.8406
11285SOL    HW145509   8.298   1.074   3.555  0.4793 -0.8927  0.0918
11285SOL    HW245510   8.396   1.027   3.433 -0.3916  0.9502 -1.3420
11286SOL     OW45511   6.988   2.499   1.023  0.0383  0.5903 -0.5145
11286SOL    HW145512   6.943   2.425   1.074 -0.1497  0.7992 -0.3738
11286SOL    HW245513   7.078   2.469   0.994  0.7406  0.9681  1.2119
11287SOL     OW45514   8.087   1.548   0.908 -0.5321  0.0577 -0.1844
11287SOL    HW145515   8.152   1.474   0.893 -1.4139 -0.4944 -1.3173
11287SOL    HW245516   8.092   1.613   0.833 -0.9775  0.2455 -0.0534
11288SOL     OW45517   8.608   6.442   5.609  0.0981  0.4822  0.2672
11288SOL    HW145518   8.704   6.419   5.598 -0.1133  0.0827 -0.8205
11288SOL    HW245519   8.582   6.433   5.705  1.0058  0.0761  0.4768
11289SOL     OW45520   3.150   1.602   1.999  0.1948 -0.8055  0.3404
11289SOL    HW145521   3.096   1.652   2.066  1.3763 -0.8142  1.3130
11289SOL    HW245522   3.157   1.656   1.915  2.0394  1.0284  1.6077
11290SOL     OW45523   9.815   7.983   4.243  0.6017  0.4055 -0.1156
11290SOL    HW145524   9.736   7.953   4.297 -0.6304  1.6635 -1.1758
11290SOL    HW245525   9.818   7.930   4.158  0.2094  1.1424 -0.5976
11291SOL     OW45526   0.012   5.568   4.313  0.0183 -0.2577  0.6579
11291SOL    HW145527   0.075   5.508   4.264 -1.0314 -0.9612  0.1619
11291SOL    HW245528   0.004   5.655   4.264  0.1033 -0.4145  0.3622
11292SOL     OW45529   5.254   7.463   3.842 -0.0003 -0.5172 -0.7385
11292SOL    HW145530   5.271   7.369   3.870  0.2210 -0.7689 -1.6857
11292SOL    HW245531   5.163   7.470   3.801 -0.9736  0.1814  1.4747
11293SOL     OW45532   2.558   4.611   1.367  0.0704  0.6799  0.1593
11293SOL    HW145533   2.595   4.646   1.281 -0.3305  0.2234 -0.2039
11293SOL    HW245534   2.626   4.551   1.410 -0.6965 -1.1667 -1.1305
11294SOL     OW45535   5.514   1.423   4.439  0.3657  0.3649 -0.4187
11294SOL    HW145536   5.426   1.388   4.406 -0.2476  0.4124  1.1204
11294SOL    HW245537   5.547   1.365   4.514  1.0908  0.9929 -0.2423
11295SOL     OW45538   7.816   1.009   2.165  0.4903  0.1416  0.3823
11295SOL    HW145539   7.860   1.079   2.221  0.5570  0.1346  0.3389
11295SOL    HW245540   7.865   1.001   2.078  0.4028  0.1344  0.3332
11296SOL     OW45541   5.520   3.882   2.240  0.2930 -0.2450 -0.8986
11296SOL    HW145542   5.598   3.826   2.269  0.3830 -0.7490 -2.1015
11296SOL    HW245543   5.490   3.939   2.317 -0.5807 -2.8270  0.7798
11297SOL     OW45544   8.174   5.616   5.736 -0.0356 -0.3965  0.1971
11297SOL    HW145545   8.180   5.622   5.637  0.9001 -1.4393  0.1770
11297SOL    HW245546   8.263   5.591   5.774 -0.4815 -0.4358  1.2567
11298SOL     OW45547   6.474   8.365   3.434  0.0719  0.3410 -0.3167
11298SOL    HW145548   6.480   8.391   3.530  1.6161  0.1146 -0.3355
11298SOL    HW245549   6.474   8.447   3.376  2.3264  0.4144 -0.2572
11299SOL     OW45550   1.592   1.488   6.024 -0.2354 -0.5390 -0.1631
11299SOL    HW145551   1.499   1.491   5.988 -0.3948 -0.8743  0.2114
11299SOL    HW245552   1.614   1.393   6.050 -0.9740  0.0706  2.8543
11300SOL     OW45553   8.528   1.916   2.432 -0.1759 -0.5191  0.1156
11300SOL    HW145554   8.556   1.956   2.519 -0.9589  0.3764 -0.0353
11300SOL    HW245555   8.605   1.918   2.368 -0.0600  0.2708  0.2809
11301SOL     OW45556   2.198   8.630   1.140  0.1779  0.1808 -0.2160
11301SOL    HW145557   2.191   8.723   1.103 -0.3537  0.5504  0.7902
11301SOL    HW245558   2.259   8.576   1.083  2.2893  1.7865  0.4596
11302SOL     OW45559   2.281   2.373   1.040 -0.4799  0.1723  0.2898
11302SOL    HW145560   2.350   2.347   1.107 -1.6032 -1.0525  1.0183
11302SOL    HW245561   2.298   2.326   0.954 -1.0530 -1.0870  0.8348
11303SOL     OW45562   0.913   1.044   4.270  0.2955  0.1029  0.5385
11303SOL    HW145563   0.946   1.046   4.176  3.2601  0.0489  1.5151
11303SOL    HW245564   0.896   0.949   4.298 -0.4050  0.1053  0.1271
11304SOL     OW45565   1.898   8.154   6.302 -0.4891  0.4407 -0.2515
11304SOL    HW145566   1.963   8.094   6.349 -0.9140  1.1816  1.3192
11304SOL    HW245567   1.807   8.112   6.302 -0.9901  1.4636  1.6797
11305SOL     OW45568   8.978   4.291   7.128  0.2080 -0.3322 -0.3927
11305SOL    HW145569   9.071   4.268   7.100 -0.0856 -0.8246 -0.9921
11305SOL    HW245570   8.972   4.294   7.228  1.1440  0.8954 -0.3622
11306SOL     OW45571   9.600   0.831   4.571  0.0645  0.1311 -0.0968
11306SOL    HW145572   9.568   0.864   4.660  1.7545  0.0245  0.5640
11306SOL    HW245573   9.647   0.744   4.582  1.8562  0.9828 -0.8392
11307SOL     OW45574   1.368   6.446   0.749 -0.2277  0.4776  0.0977
11307SOL    HW145575   1.450   6.434   0.806 -0.7055 -0.6143  0.5700
11307SOL    HW245576   1.393   6.440   0.653  0.2454  0.1014  0.2432
11308SOL     OW45577   1.057   1.447   6.489  0.0270  0.2380 -0.1609
11308SOL    HW145578   1.094   1.354   6.492 -1.3380 -0.3555 -1.2727
11308SOL    HW245579   1.124   1.508   6.447  0.3338 -0.5499 -0.8287
11309SOL     OW45580   7.089   2.292   5.229 -0.1185  0.5453  0.2163
11309SOL    HW145581   7.016   2.360   5.236 -2.4996 -2.0135  1.1992
11309SOL    HW245582   7.085   2.248   5.139 -0.7596 -0.6338  0.8143
11310SOL     OW45583   5.185   6.917   2.962 -0.0750  0.2718  0.3113
11310SOL    HW145584   5.207   6.865   3.045  0.0947 -1.0420 -0.5423
11310SOL    HW245585   5.249   6.993   2.952  1.9498 -1.4583 -0.2990
11311SOL     OW45586   2.315   3.537   6.448 -0.7411 -0.3434 -0.3602
11311SOL    HW145587   2.408   3.572   6.439 -0.2079 -1.8918 -0.9513
11311SOL    HW245588   2.282   3.556   6.541  0.0757  0.4097 -0.2132
11312SOL     OW45589   4.572   8.800   1.099 -0.2596 -0.5547  0.2118
11312SOL    HW145590   4.652   8.846   1.061 -0.6048 -0.1973 -0.0783
11312SOL    HW245591   4.491   8.821   1.044 -0.6635 -0.4602  0.8315
11313SOL     OW45592   6.166   2.841   2.338  0.2052 -0.6943 -0.0417
11313SOL    HW145593   6.219   2.784   2.401 -1.0698 -1.1339  0.6576
11313SOL    HW245594   6.228   2.898   2.284  1.4437 -1.9317  0.0401
11314SOL     OW45595   7.908   8.791   3.694 -0.1861 -0.1760  0.3433
11314SOL    HW145596   7.892   8.703   3.739  0.7298 -0.4629  0.1216
11314SOL    HW245597   7.970   8.845   3.750  1.1821 -0.6432 -0.6959
11315SOL     OW45598   8.181   6.594   6.822  0.2213  0.5137  0.4087
11315SOL    HW145599   8.142   6.502   6.821  0.6514  0.3113  1.5412
11315SOL    HW245600   8.116   6.658   6.863  0.2172  0.5816  0.2966
11316SOL     OW45601   6.359   9.135   7.130  0.4307 -0.1085 -0.3062
11316SOL    HW145602   6.259   9.132   7.129  0.3784  0.1595  2.5153
11316SOL    HW245603   6.395   9.050   7.167  1.1347  0.9718  1.5849
11317SOL     OW45604   7.699   8.601   7.369 -0.3533 -0.1808  0.2278
11317SOL    HW145605   7.697   8.699   7.348  1.1753 -0.4840 -1.4443
11317SOL    HW245606   7.700   8.549   7.284  3.5543 -1.5248  1.0370
11318SOL     OW45607   2.636   3.395   3.238  0.4972 -0.4855  0.2756
11318SOL    HW145608   2.596   3.308   3.211  0.8731 -0.7795  0.6709
11318SOL    HW245609   2.602   3.421   3.329 -1.7249  1.1000 -0.9419
11319SOL     OW45610   1.796   3.193   4.295 -0.0927 -0.0016 -0.1667
11319SOL    HW145611   1.754   3.241   4.218  0.3875  0.7678  0.0498
11319SOL    HW245612   1.781   3.095   4.284 -1.3499  0.2090 -0.4482
11320SOL     OW45613   8.197   4.035   5.205  0.3783 -0.1034 -0.4904
11320SOL    HW145614   8.271   4.099   5.184 -1.1343  1.6918 -0.4881
11320SOL    HW245615   8.131   4.033   5.129  0.6979 -2.1309 -0.7574
11321SOL     OW45616   2.819   0.800   4.219  0.5375 -0.2315  0.3235
11321SOL    HW145617   2.746   0.732   4.230  0.5860 -0.3145  0.1505
11321SOL    HW245618   2.879   0.772   4.143  0.3257  0.2116 -0.0098
11322SOL     OW45619   3.854   4.031   6.423 -0.3816 -0.0011 -0.2202
11322SOL    HW145620   3.898   4.035   6.333  0.2992 -1.2670  0.0384
11322SOL    HW245621   3.762   4.069   6.417  0.2863  1.4879 -1.0602
11323SOL     OW45622   1.357   7.158   3.002 -0.2836 -0.1559 -0.1654
11323SOL    HW145623   1.383   7.063   2.985 -0.1942  0.1514 -1.8251
11323SOL    HW245624   1.262   7.161   3.033 -0.9657 -0.6382 -2.1334
11324SOL     OW45625   2.616   8.795   5.710 -0.0118  0.0658 -0.0349
11324SOL    HW145626   2.675   8.843   5.776 -0.8407  0.0056  0.7528
11324SOL    HW245627   2.537   8.757   5.758 -0.3031 -0.5097 -0.9690
11325SOL     OW45628   2.276   6.091   6.440 -0.1227  0.0392  0.4264
11325SOL    HW145629   2.224   6.105   6.525  0.8198 -0.7915  1.1639
11325SOL    HW245630   2.223   6.122   6.362 -1.4456 -0.1696  1.2330
11326SOL     OW45631   7.331   1.487   7.883 -0.0666  0.1567 -0.0293
11326SOL    HW145632   7.294   1.523   7.798  0.5899  0.1496 -0.3240
11326SOL    HW245633   7.411   1.540   7.909  1.5386 -1.6976 -1.0120
11327SOL     OW45634   4.219   6.121   4.625  0.3287  0.2079  0.6595
11327SOL    HW145635   4.210   6.024   4.649 -0.0677  0.3286  1.0105
11327SOL    HW245636   4.256   6.171   4.703  2.3392  0.0348 -0.1480
11328SOL     OW45637   2.906   1.040   0.395  0.2012  0.4295  0.3070
11328SOL    HW145638   2.807   1.049   0.387 -0.1552 -2.1655  1.2787
11328SOL    HW245639   2.944   1.122   0.438 -1.6030  1.1383  0.5768
11329SOL     OW45640   2.289   9.304   4.652  0.5006 -0.0112  0.5251
11329SOL    HW145641   2.316   9.397   4.677 -2.0526  0.7162  0.7920
11329SOL    HW245642   2.353   9.238   4.691  1.1587  1.5448  2.1308
11330SOL     OW45643   6.980   4.801   1.201  0.0384 -0.3563 -0.5557
11330SOL    HW145644   6.971   4.830   1.296  2.8682  2.3730 -1.0275
11330SOL    HW245645   6.932   4.714   1.187  0.3960 -1.2947  3.5712
11331SOL     OW45646   0.919   5.423   1.528  0.2036  0.3773 -0.0819
11331SOL    HW145647   0.912   5.482   1.448 -3.1427 -1.1362 -1.0019
11331SOL    HW245648   0.866   5.462   1.603 -1.0856 -0.8000 -0.3401
11332SOL     OW45649   0.994   5.733   4.582  0.0915 -0.0734  0.1402
11332SOL    HW145650   1.019   5.828   4.604 -0.9569  0.1913  0.1979
11332SOL    HW245651   0.908   5.710   4.626  0.5318 -1.1909  0.4392
11333SOL     OW45652   0.098   2.473   2.780  0.2809  0.0283 -0.0826
11333SOL    HW145653   0.143   2.458   2.868  0.4860  0.0914 -0.1773
11333SOL    HW245654   0.129   2.404   2.715 -0.1393 -0.2349 -0.0051
11334SOL     OW45655   8.792   9.562   2.317 -0.2599 -0.0247 -0.1443
11334SOL    HW145656   8.847   9.604   2.390 -1.2281  0.9864  0.0082
11334SOL    HW245657   8.852   9.509   2.257  1.0288  1.8326 -0.5241
11335SOL     OW45658   8.840   3.517   0.801 -0.1337 -0.0013  0.3585
11335SOL    HW145659   8.830   3.576   0.721  1.5997  1.0126  0.8544
11335SOL    HW245660   8.765   3.534   0.864  0.6524  2.1343  0.7626
11336SOL     OW45661   5.639   4.186   0.630  0.4236  0.1248  0.2067
11336SOL    HW145662   5.596   4.222   0.547 -1.0290 -0.1871  0.8077
11336SOL    HW245663   5.697   4.108   0.606 -2.1968 -1.7801 -0.2132
11337SOL     OW45664   8.274   2.907   3.533 -0.0643 -0.0356 -0.1456
11337SOL    HW145665   8.265   2.891   3.434  1.1208 -1.5569 -0.0197
11337SOL    HW245666   8.366   2.940   3.553  0.1396 -1.0246  0.5977
11338SOL     OW45667   0.846   4.261   7.518 -0.3066 -0.4474 -0.9767
11338SOL    HW145668   0.901   4.311   7.585  0.6569 -3.0602  0.2833
11338SOL    HW245669   0.865   4.295   7.426  1.1179  0.7090 -0.2684
11339SOL     OW45670   6.208   0.595   2.784 -0.2646 -0.9160 -0.5438
11339SOL    HW145671   6.252   0.573   2.871 -0.8866 -1.7394 -0.4390
11339SOL    HW245672   6.207   0.514   2.725  0.7055 -0.2006 -1.5598
11340SOL     OW45673   0.797   6.917   5.536 -0.2431  0.1884 -0.3125
11340SOL    HW145674   0.724   6.966   5.488 -0.6479 -0.6965 -0.6074
11340SOL    HW245675   0.762   6.830   5.569  0.6007 -0.1091 -0.1899
11341SOL     OW45676   4.729   0.088   2.851  0.0580  0.0116 -0.3094
11341SOL    HW145677   4.721   0.102   2.752 -0.6008  0.2651 -0.2237
11341SOL    HW245678   4.737  -0.010   2.870 -1.7114 -0.1919 -0.4998
11342SOL     OW45679   6.487   0.111   5.543 -0.5823  0.5500 -0.0884
11342SOL    HW145680   6.453   0.077   5.631 -1.5689  1.3707 -0.1360
11342SOL    HW245681   6.530   0.200   5.556 -0.9161  0.7686 -0.4555
11343SOL     OW45682   4.547   6.636   2.297 -0.1188 -0.1176 -0.2388
11343SOL    HW145683   4.504   6.714   2.251 -0.2725  0.0345  0.1651
11343SOL    HW245684   4.551   6.559   2.233 -0.7616 -0.0554 -0.3642
11344SOL     OW45685   1.739   4.627   1.423 -0.8756  0.7546 -0.1066
11344SOL    HW145686   1.674   4.555   1.446 -0.7995  0.5368 -0.5713
11344SOL    HW245687   1.829   4.588   1.405 -0.3568  1.1663  1.5653
11345SOL     OW45688   3.768   8.418   6.368 -0.1741  0.3981  0.1786
11345SOL    HW145689   3.754   8.451   6.461 -0.8394  0.8686 -0.0819
11345SOL    HW245690   3.682   8.422   6.318 -0.0577 -0.8638 -0.1448
11346SOL     OW45691   7.383   7.047   1.871 -0.6006 -0.1413  0.3984
11346SOL    HW145692   7.383   6.949   1.851 -0.8125 -0.2304  0.8222
11346SOL    HW245693   7.316   7.066   1.943  0.6894  0.0486  1.5623
11347SOL     OW45694   1.684   5.593   5.307 -0.2357 -0.1429 -0.5693
11347SOL    HW145695   1.588   5.567   5.315 -0.3177  0.1869 -0.4935
11347SOL    HW245696   1.741   5.523   5.350 -0.5110  0.2190  0.3853
11348SOL     OW45697   4.334   0.794   6.735 -0.1389 -0.1779  0.0616
11348SOL    HW145698   4.271   0.757   6.667  0.4419 -0.6792 -0.2040
11348SOL    HW245699   4.350   0.891   6.716  0.7734 -0.5447 -1.0993
11349SOL     OW45700   3.087   9.022   4.446 -0.1001  1.2358 -0.0955
11349SOL    HW145701   3.021   8.966   4.497 -0.4916  0.2362 -1.6743
11349SOL    HW245702   3.143   8.962   4.388  0.1292  2.3980 -1.0758
11350SOL     OW45703   1.271   5.071   7.183 -0.3365 -0.3422 -0.3053
11350SOL    HW145704   1.346   5.102   7.126 -0.4036 -2.8524 -1.8320
11350SOL    HW245705   1.306   5.041   7.272  0.3365 -0.5903 -0.6575
11351SOL     OW45706   3.035   3.903   4.854 -0.0223  0.1198  0.5217
11351SOL    HW145707   3.069   3.919   4.947 -0.6324 -2.6262  1.2564
11351SOL    HW245708   2.952   3.958   4.840 -0.5129 -0.2014  1.9985
11352SOL     OW45709   3.926   5.592   0.866  0.3224 -0.3248 -0.6228
11352SOL    HW145710   3.916   5.689   0.886 -2.6090 -0.8612  0.7587
11352SOL    HW245711   3.936   5.541   0.952 -2.0124 -1.6332 -1.1003
11353SOL     OW45712   0.456   7.813   1.926 -0.5626  0.4382 -0.4636
11353SOL    HW145713   0.451   7.743   1.855  0.5444  1.2811 -1.3945
11353SOL    HW245714   0.367   7.821   1.970 -1.4596  0.3479 -2.1913
11354SOL     OW45715   4.714   1.944   0.661  0.1090 -0.2368  0.1853
11354SOL    HW145716   4.723   1.870   0.728  2.0984 -0.6049 -0.4712
11354SOL    HW245717   4.803   1.963   0.619 -0.9858  0.4171 -1.9204
11355SOL     OW45718   6.528   8.992   5.970 -0.0183  0.2805 -0.0030
11355SOL    HW145719   6.433   9.006   5.997 -0.3198 -3.3527  0.9859
11355SOL    HW245720   6.563   8.908   6.011  3.0600  0.5977 -1.8266
11356SOL     OW45721   4.130   3.683   0.644 -0.2561 -0.4854  0.3290
11356SOL    HW145722   4.052   3.630   0.677 -1.0671 -0.6186 -1.7003
11356SOL    HW245723   4.184   3.628   0.581  0.6805  0.0782  0.6271
11357SOL     OW45724   4.551   1.672   0.573 -0.0375 -0.6812 -0.2281
11357SOL    HW145725   4.488   1.599   0.545  1.0386 -1.3285 -1.0073
11357SOL    HW245726   4.514   1.761   0.546 -0.2967 -1.1071 -1.2796
11358SOL     OW45727   3.962   0.606   3.899 -0.2739 -0.4676 -0.2137
11358SOL    HW145728   4.052   0.647   3.908 -1.1250  1.5573 -0.6909
11358SOL    HW245729   3.930   0.576   3.989  0.7528 -0.9647 -0.0072
11359SOL     OW45730   2.164   7.483   4.758 -0.0941  0.5997 -0.0872
11359SOL    HW145731   2.245   7.472   4.816 -1.6874 -0.0182  2.0933
11359SOL    HW245732   2.149   7.581   4.741 -0.4781  0.9117  1.8813
11360SOL     OW45733   1.845   6.619   7.545 -0.1377 -0.0398  0.1428
11360SOL    HW145734   1.755   6.601   7.583 -0.3057  0.1685 -0.1568
11360SOL    HW245735   1.889   6.532   7.522 -1.3771 -0.0678 -2.2951
11361SOL     OW45736   0.054   9.661   2.385  0.0096 -0.1965 -0.0468
11361SOL    HW145737  -0.015   9.733   2.378  0.3524  0.1311 -0.0354
11361SOL    HW245738   0.090   9.658   2.478  2.6724  2.0865 -0.9513
11362SOL     OW45739   1.173   9.194   0.404  0.0793 -0.1058  0.2989
11362SOL    HW145740   1.073   9.203   0.407  0.0707  0.4952 -1.2749
11362SOL    HW245741   1.214   9.259   0.468 -0.5622 -1.0138  1.6471
11363SOL     OW45742   3.431   5.730   9.813  0.0624  0.4291 -0.2099
11363SOL    HW145743   3.399   5.798   9.878  0.7829  0.7524 -0.1916
11363SOL    HW245744   3.460   5.775   9.728  0.2786  0.1272 -0.2999
11364SOL     OW45745   4.561   2.073   5.655  0.7231 -0.1883 -0.4636
11364SOL    HW145746   4.610   2.005   5.710 -0.8974 -0.2440  0.9380
11364SOL    HW245747   4.615   2.157   5.650  0.6616  0.0037  1.6744
11365SOL     OW45748   8.408   0.719   6.487  1.0603  0.6187 -0.3163
11365SOL    HW145749   8.499   0.744   6.452  0.8269  0.9601 -0.6800
11365SOL    HW245750   8.360   0.665   6.419  1.3939 -0.4679  0.2992
11366SOL     OW45751   2.713   6.459   2.816 -0.1980  0.3996 -0.8432
11366SOL    HW145752   2.625   6.412   2.828  0.6203 -0.3780  2.4895
11366SOL    HW245753   2.787   6.392   2.812  0.7591  1.2458  1.7468
11367SOL     OW45754   7.575   0.147   0.568  1.0406  0.7806  0.1328
11367SOL    HW145755   7.584   0.169   0.665  3.0022 -0.7661  0.3355
11367SOL    HW245756   7.603   0.052   0.553  0.1950  0.8323 -1.8574
11368SOL     OW45757   7.342   4.384   1.940 -0.1190 -0.1355  0.2358
11368SOL    HW145758   7.271   4.349   1.879 -0.1568  0.3781 -0.0139
11368SOL    HW245759   7.427   4.395   1.889 -0.4399  1.3512 -0.0004
11369SOL     OW45760   2.389   6.095   5.060  0.1247  0.6649  0.1737
11369SOL    HW145761   2.427   6.028   4.995  0.4539 -0.5408  1.5622
11369SOL    HW245762   2.464   6.136   5.112 -0.2875 -0.2496  1.5341
11370SOL     OW45763   5.856   2.704   0.764 -0.1962  0.5487 -0.0536
11370SOL    HW145764   5.875   2.801   0.751 -0.5868  0.7258  0.6577
11370SOL    HW245765   5.933   2.650   0.729  0.4988  1.1559  0.5023
11371SOL     OW45766   8.660   7.022   6.811  0.5477 -0.5504 -0.0071
11371SOL    HW145767   8.611   7.099   6.851  1.7046 -0.0743  0.5391
11371SOL    HW245768   8.698   7.049   6.722  2.2520  0.0264  0.8709
11372SOL     OW45769   1.223   4.053   5.381 -0.7945 -0.0756 -0.3492
11372SOL    HW145770   1.195   4.116   5.454  0.3761 -0.2640  0.2813
11372SOL    HW245771   1.227   4.102   5.294 -1.9995  0.2029 -0.2512
11373SOL     OW45772   7.938   1.446   2.744  0.3331  0.2203  0.0787
11373SOL    HW145773   7.909   1.487   2.830  0.7858  0.0354  0.3226
11373SOL    HW245774   7.920   1.347   2.745  0.0527  0.2696 -0.1590
11374SOL     OW45775   5.619   1.582   4.872 -0.5656 -0.1909  0.6176
11374SOL    HW145776   5.682   1.505   4.861  0.7817  0.7771  1.3788
11374SOL    HW245777   5.585   1.609   4.782  0.0348 -0.7915  0.2003
11375SOL     OW45778   2.284   0.244   3.139 -0.0196  0.6676 -0.2776
11375SOL    HW145779   2.298   0.252   3.238  1.0996  1.4065 -0.4855
11375SOL    HW245780   2.282   0.336   3.099 -1.3703  0.4110 -0.8284
11376SOL     OW45781   2.337   2.443  10.075 -0.1793  0.3278 -0.2959
11376SOL    HW145782   2.286   2.525  10.047 -0.6486  0.5610  1.1947
11376SOL    HW245783   2.425   2.471  10.114 -1.0332  0.2587  1.7558
11377SOL     OW45784   3.735   0.012   5.774 -0.1600 -0.4665 -0.2015
11377SOL    HW145785   3.791   0.084   5.815  0.2007 -0.2147 -1.1243
11377SOL    HW245786   3.661  -0.012   5.837 -0.9760  1.5243 -0.3630
11378SOL     OW45787   5.185   8.540   7.316 -0.1539 -0.2279 -0.1040
11378SOL    HW145788   5.205   8.465   7.253  2.8349  0.7365 -0.4124
11378SOL    HW245789   5.086   8.548   7.329 -0.6444 -2.6309 -1.9515
11379SOL     OW45790   2.681   4.462   4.459  0.1871 -0.4211  0.1403
11379SOL    HW145791   2.622   4.396   4.505  0.7955 -2.0823 -1.4122
11379SOL    HW245792   2.682   4.443   4.360  0.2767  1.9845 -0.3628
11380SOL     OW45793   5.542   9.739   6.286 -0.2313 -0.0041 -0.3474
11380SOL    HW145794   5.561   9.700   6.376  0.1080  0.4046 -0.2383
11380SOL    HW245795   5.467   9.805   6.293 -1.3324 -1.2077 -0.6746
11381SOL     OW45796   4.905   7.019   1.308  0.0659  0.5494  0.3132
11381SOL    HW145797   4.947   6.934   1.339  0.7298  0.9530  0.5151
11381SOL    HW245798   4.936   7.095   1.364  0.1360  1.0621 -0.4032
11382SOL     OW45799   7.831   6.638   2.309 -0.3433  0.0682 -0.5267
11382SOL    HW145800   7.812   6.732   2.282  0.1138  0.2627 -0.1801
11382SOL    HW245801   7.924   6.632   2.345 -0.7887 -0.2781  0.5848
11383SOL     OW45802   4.610   8.823   5.325 -0.0698  0.0649  0.1059
11383SOL    HW145803   4.544   8.898   5.318 -1.2099 -0.7442  1.7509
11383SOL    HW245804   4.678   8.831   5.252 -0.2320  2.6306  0.1866
11384SOL     OW45805   9.387   8.570   7.387  0.1681  0.2646 -0.3464
11384SOL    HW145806   9.324   8.533   7.318 -0.8744  1.1802  0.0929
11384SOL    HW245807   9.422   8.495   7.443 -0.7046 -0.2354 -0.4631
11385SOL     OW45808   6.403   8.975   3.073  0.1686 -0.7094  0.2920
11385SOL    HW145809   6.304   8.961   3.077  0.0106  0.8759  2.9178
11385SOL    HW245810   6.422   9.063   3.029  0.3037 -0.0560  1.6351
11386SOL     OW45811   8.432   1.002   7.276  0.1343  0.4245 -0.7390
11386SOL    HW145812   8.517   1.052   7.287  0.0146  0.4075  0.2526
11386SOL    HW245813   8.354   1.065   7.288 -0.0489 -0.3025  2.2744
11387SOL     OW45814   5.008   4.021   0.150  0.6586  0.4467 -0.2693
11387SOL    HW145815   5.063   4.083   0.207  2.6374 -0.0847 -1.5718
11387SOL    HW245816   5.063   3.944   0.121 -1.0357 -0.5509 -0.9249
11388SOL     OW45817   3.412   0.344   0.718  0.8034  0.3839  0.3900
11388SOL    HW145818   3.437   0.252   0.748 -1.6195 -1.0205 -1.7046
11388SOL    HW245819   3.324   0.341   0.672  0.6182  3.8194  0.4237
11389SOL     OW45820   9.100   0.739   0.538 -0.4145  0.3020 -0.1386
11389SOL    HW145821   9.023   0.705   0.591 -0.4530 -0.8951 -0.9496
11389SOL    HW245822   9.134   0.666   0.479  0.6774  1.1354 -0.5419
11390SOL     OW45823   3.903   5.655   6.948 -0.0800  0.3360 -0.1406
11390SOL    HW145824   3.892   5.749   6.915 -0.4941  0.6800  0.9480
11390SOL    HW245825   3.812   5.614   6.958 -0.0038  0.4687  1.2016
11391SOL     OW45826   4.889   7.746   3.922 -0.1942 -0.1935 -0.1992
11391SOL    HW145827   4.963   7.692   3.963 -0.2458 -0.8865 -1.0129
11391SOL    HW245828   4.885   7.728   3.824 -1.9354 -0.7611 -0.0438
11392SOL     OW45829   1.443   6.405   5.888  0.0833  0.3479 -0.7103
11392SOL    HW145830   1.344   6.389   5.893  0.4108 -1.4564  0.9243
11392SOL    HW245831   1.461   6.502   5.877 -1.9023  0.5736 -2.2097
11393SOL     OW45832   9.607   3.263   1.258  0.8013 -0.5034  0.5003
11393SOL    HW145833   9.535   3.250   1.326  1.1052 -2.1291  0.5318
11393SOL    HW245834   9.574   3.324   1.186  0.3677  0.9778  1.9236
11394SOL     OW45835   1.456   9.381   3.573 -0.1579  0.0154  0.0914
11394SOL    HW145836   1.548   9.369   3.611  0.4914 -0.8940 -1.6901
11394SOL    HW245837   1.394   9.412   3.645  2.0745  3.1312  0.7929
11395SOL     OW45838   8.424   4.895   4.448  0.0450  0.8368  0.0101
11395SOL    HW145839   8.503   4.951   4.423  0.8014 -0.5449 -0.7705
11395SOL    HW245840   8.442   4.850   4.536  0.9525 -0.9946 -1.0925
11396SOL     OW45841   4.853   7.605   5.620 -0.3867  0.3780 -0.0374
11396SOL    HW145842   4.762   7.565   5.631 -0.9479  1.6331 -0.0475
11396SOL    HW245843   4.846   7.705   5.623  0.7841  0.5236 -1.4711
11397SOL     OW45844   0.761   1.331   7.535  0.4783  0.0535 -0.4720
11397SOL    HW145845   0.676   1.303   7.489 -0.2418 -0.0386  0.8841
11397SOL    HW245846   0.752   1.425   7.567  0.7903 -0.0340 -0.1179
11398SOL     OW45847   9.036   9.269   3.541  0.6475 -0.1637  0.1758
11398SOL    HW145848   9.126   9.256   3.500  0.5982  1.1985 -0.3850
11398SOL    HW245849   9.027   9.211   3.622  1.7386 -0.8626 -0.1943
11399SOL     OW45850   8.292   3.187   0.182  0.4398  0.4689 -0.0808
11399SOL    HW145851   8.334   3.103   0.217 -0.1106 -0.1253 -0.8217
11399SOL    HW245852   8.340   3.216   0.099  0.1614  0.4751 -0.2389
11400SOL     OW45853   0.813   3.433   6.642  0.1515 -0.0682  0.3226
11400SOL    HW145854   0.911   3.432   6.622 -0.0958  0.8764 -0.9914
11400SOL    HW245855   0.762   3.464   6.561 -1.2782 -1.0946  0.8067
11401SOL     OW45856   7.812   6.138   0.271 -0.1952  0.6203  0.5080
11401SOL    HW145857   7.730   6.081   0.266  0.5248 -0.3581 -0.6701
11401SOL    HW245858   7.813   6.189   0.357 -2.0470  0.6757  0.5142
11402SOL     OW45859   6.202   4.371   0.182 -0.0429  0.1560 -1.0455
11402SOL    HW145860   6.192   4.330   0.092  0.2703 -0.2117 -0.9149
11402SOL    HW245861   6.126   4.342   0.241  0.0835 -0.0965 -1.0065
11403SOL     OW45862   8.379   4.951   1.325  0.0736  0.0210  0.0018
11403SOL    HW145863   8.399   4.884   1.397  1.1324 -0.5851 -0.8380
11403SOL    HW245864   8.464   4.981   1.283 -0.6065 -0.8026 -2.0248
11404SOL     OW45865   2.828   0.065   5.859 -0.1307 -0.5381  0.0974
11404SOL    HW145866   2.910   0.102   5.816  0.5445 -0.6544  1.2670
11404SOL    HW245867   2.815  -0.030   5.830  1.2191 -1.1356  1.3668
11405SOL     OW45868   8.240   2.863   5.419  0.4122  0.4599 -0.3906
11405SOL    HW145869   8.163   2.841   5.479 -0.5289  0.5256 -1.5523
11405SOL    HW245870   8.254   2.788   5.354  0.6000  0.9441 -0.9102
11406SOL     OW45871   7.405   7.562   3.087  0.2152  0.4124 -0.1209
11406SOL    HW145872   7.378   7.498   3.015 -1.5772  1.2102 -0.1863
11406SOL    HW245873   7.483   7.525   3.137 -0.1736 -1.3670 -0.7895
11407SOL     OW45874   8.731   6.843   4.173 -0.2096  1.0216 -0.4139
11407SOL    HW145875   8.681   6.761   4.201  0.7185  0.8081  0.6754
11407SOL    HW245876   8.780   6.824   4.088 -1.2947  0.9692 -1.0335
11408SOL     OW45877   3.219   7.953   0.707 -0.8401 -0.2317  0.0889
11408SOL    HW145878   3.138   7.977   0.654  0.0256 -1.6537 -1.9223
11408SOL    HW245879   3.246   7.859   0.687  1.3155  0.2214  0.6900
11409SOL     OW45880   1.999   1.426   3.321  0.1329 -0.6090  0.1514
11409SOL    HW145881   1.938   1.502   3.303 -0.6432 -1.2310  0.1507
11409SOL    HW245882   2.084   1.460   3.361 -0.4399  0.1885  0.6920
11410SOL     OW45883   7.718   6.763   3.482  0.6333 -0.6920  0.0615
11410SOL    HW145884   7.711   6.700   3.559 -1.7625 -0.7634 -0.1901
11410SOL    HW245885   7.654   6.736   3.410 -0.1850  1.7656 -0.1957
11411SOL     OW45886   9.076   2.640   5.137 -0.0723  0.0703  0.4630
11411SOL    HW145887   8.983   2.606   5.124 -0.7880  2.2129 -0.0859
11411SOL    HW245888   9.141   2.575   5.096 -1.4777 -0.1285 -1.5314
11412SOL     OW45889   9.603   1.735   3.217 -0.0202 -0.2450  0.4386
11412SOL    HW145890   9.640   1.748   3.309  0.3266  0.0538  0.2568
11412SOL    HW245891   9.637   1.807   3.157 -0.1483 -0.5088  0.0487
11413SOL     OW45892   3.456   9.271   4.071 -0.0172  0.2722 -0.1130
11413SOL    HW145893   3.481   9.255   4.167  1.9603  1.8584 -0.3252
11413SOL    HW245894   3.530   9.241   4.012  0.1726  2.2930 -0.9381
11414SOL     OW45895   6.818   9.950   5.529 -0.3359  0.2361 -0.0422
11414SOL    HW145896   6.807   9.856   5.563  2.9313 -0.6203 -1.1329
11414SOL    HW245897   6.760   9.962   5.448 -0.2250 -1.1216 -0.3492
11415SOL     OW45898   8.243   0.800   4.745  0.3346 -0.0809  0.1324
11415SOL    HW145899   8.156   0.780   4.699  0.8517 -0.2105 -0.8034
11415SOL    HW245900   8.315   0.741   4.708  0.4756 -1.1685  2.0993
11416SOL     OW45901   6.732   0.292   3.364  0.4187 -0.0912  0.4366
11416SOL    HW145902   6.726   0.321   3.269 -0.4152 -0.3789  0.4029
11416SOL    HW245903   6.643   0.303   3.409  1.0419  0.9751  1.4532
11417SOL     OW45904   5.094   8.905   7.347  0.0643 -0.2333 -0.1480
11417SOL    HW145905   5.027   8.830   7.354 -0.4312  0.2157 -0.0726
11417SOL    HW245906   5.095   8.957   7.432 -1.0252  1.0563 -0.9159
11418SOL     OW45907   3.759   9.181   1.002 -0.1299  0.0982 -0.1955
11418SOL    HW145908   3.735   9.151   1.095  1.3570 -1.5601 -0.3173
11418SOL    HW245909   3.679   9.169   0.943 -0.9993  0.8779  0.7871
11419SOL     OW45910   2.817   8.018   6.122  0.0485  0.0139 -0.1161
11419SOL    HW145911   2.823   8.033   6.220  1.4035 -2.8781  0.2834
11419SOL    HW245912   2.736   7.964   6.101 -0.2712  0.6720 -0.6104
11420SOL     OW45913   3.996   2.114   4.101  0.3423  0.2797 -0.4377
11420SOL    HW145914   3.939   2.172   4.042  0.7338 -0.4046 -1.5064
11420SOL    HW245915   4.067   2.171   4.144 -1.0997  1.1145  0.8521
11421SOL     OW45916   9.488   0.048   3.006 -0.1157 -0.0098  0.2030
11421SOL    HW145917   9.423   0.113   3.046  1.0692  1.0660  0.4436
11421SOL    HW245918   9.521   0.084   2.918 -0.4381 -0.9155 -0.2899
11422SOL     OW45919   4.728   9.250   1.948  0.3530  0.5495 -0.1210
11422SOL    HW145920   4.823   9.222   1.932  0.8460  2.2498 -0.3101
11422SOL    HW245921   4.722   9.299   2.035 -0.6318 -0.8156  0.5837
11423SOL     OW45922   5.541   1.202   6.786  0.2497 -0.0194  0.1788
11423SOL    HW145923   5.560   1.154   6.701  0.8882  0.8547 -0.1732
11423SOL    HW245924   5.443   1.198   6.805 -0.0334  0.6778 -1.1261
11424SOL     OW45925   0.055   8.626   2.777 -0.5970 -0.5809 -0.3483
11424SOL    HW145926   0.088   8.580   2.694  0.8054  3.1106 -1.9309
11424SOL    HW245927   0.133   8.661   2.829 -1.6675  1.3307  0.0021
11425SOL     OW45928   5.341   1.664   7.222  0.5172  0.3483 -0.5166
11425SOL    HW145929   5.325   1.761   7.205 -0.4781  0.1010 -1.0295
11425SOL    HW245930   5.254   1.619   7.240  0.8981 -0.5818 -0.9766
11426SOL     OW45931   1.751   0.409   1.129 -0.2079  0.0740  0.4517
11426SOL    HW145932   1.657   0.420   1.163 -0.7668 -0.7916 -0.7739
11426SOL    HW245933   1.755   0.441   1.034  0.9950  1.1304  0.8604
11427SOL     OW45934   2.646   3.128   3.439 -0.5491 -0.0640 -0.3284
11427SOL    HW145935   2.631   3.040   3.486 -1.3460  0.5162  0.5244
11427SOL    HW245936   2.630   3.116   3.341 -0.6947 -0.8647 -0.2156
11428SOL     OW45937   4.882   8.144   2.150 -0.3481  0.2057 -0.4224
11428SOL    HW145938   4.789   8.159   2.185 -0.1851  0.9448 -0.3031
11428SOL    HW245939   4.925   8.232   2.132  1.2713 -0.0586  1.9645
11429SOL     OW45940   0.548   3.175   2.617  0.4846  0.0883  0.0469
11429SOL    HW145941   0.471   3.110   2.617 -0.0728  0.7415 -0.3009
11429SOL    HW245942   0.519   3.261   2.660  1.1765  0.1649  0.3641
11430SOL     OW45943   1.413   5.744   2.770  0.5831 -0.8371 -0.1036
11430SOL    HW145944   1.392   5.647   2.780 -2.1850 -0.1269  1.2905
11430SOL    HW245945   1.447   5.780   2.857  0.8917 -0.3551 -0.4163
11431SOL     OW45946   8.176   4.895   7.096  0.3493 -0.3874  0.5167
11431SOL    HW145947   8.201   4.987   7.124  1.5653 -1.3697  2.8241
11431SOL    HW245948   8.079   4.879   7.114  0.1956  0.3475  0.3560
11432SOL     OW45949   3.719   2.965   7.377  0.4018  0.3828 -0.3428
11432SOL    HW145950   3.661   2.926   7.448 -0.0510 -0.5643 -1.2118
11432SOL    HW245951   3.806   2.917   7.374  0.9345  1.2850  0.4359
11433SOL     OW45952   3.909   7.754   4.717  0.2307  0.0151 -0.3674
11433SOL    HW145953   3.838   7.710   4.771  1.4788 -1.8274 -0.1884
11433SOL    HW245954   3.960   7.818   4.776  0.8743 -1.1636  0.3638
11434SOL     OW45955   8.617   0.549   1.703 -0.1246  0.4650 -0.5294
11434SOL    HW145956   8.566   0.609   1.640 -0.1722 -0.0395 -0.9737
11434SOL    HW245957   8.619   0.590   1.794 -2.8057 -0.3218 -0.0853
11435SOL     OW45958   7.159   5.502   1.414 -0.1039  0.9785  0.5410
11435SOL    HW145959   7.107   5.472   1.333  0.7029  1.3890 -0.1316
11435SOL    HW245960   7.245   5.451   1.419 -0.7263  0.0077  1.8865
11436SOL     OW45961   2.135   0.877   6.262 -0.4712 -0.0323  0.0223
11436SOL    HW145962   2.124   0.777   6.264 -1.5189  0.0872  0.7154
11436SOL    HW245963   2.047   0.920   6.243 -0.3692  0.8146  1.3704
11437SOL     OW45964   0.227   6.833   0.688 -0.2115 -0.1842  0.0572
11437SOL    HW145965   0.176   6.868   0.610 -1.5104 -1.1831  0.4406
11437SOL    HW245966   0.260   6.910   0.744 -2.2385  0.4504  0.3972
11438SOL     OW45967   6.695   8.677   2.453 -0.0431  0.2237  0.2413
11438SOL    HW145968   6.734   8.637   2.370  2.0400  0.0688  1.2489
11438SOL    HW245969   6.653   8.765   2.432  1.5810  0.7794 -0.7589
11439SOL     OW45970   9.559   5.641   5.157 -0.2504 -0.1274 -0.1272
11439SOL    HW145971   9.570   5.660   5.254 -0.0317  0.0353 -0.1846
11439SOL    HW245972   9.588   5.547   5.138 -0.1233 -0.1016 -0.0663
11440SOL     OW45973   1.949   0.408   7.458 -0.2021 -0.1918 -0.0107
11440SOL    HW145974   1.985   0.441   7.371 -0.8329 -0.9153 -0.5554
11440SOL    HW245975   1.994   0.322   7.482  0.2145  0.1792  0.5522
11441SOL     OW45976   5.772   0.433   3.855 -0.1470  0.1474 -0.4846
11441SOL    HW145977   5.814   0.509   3.905 -1.7628  0.9836 -0.3809
11441SOL    HW245978   5.705   0.387   3.913 -2.9329  1.8965 -2.2083
11442SOL     OW45979   9.617   9.248   7.998 -0.0751  0.1391 -0.2624
11442SOL    HW145980   9.627   9.154   7.965  2.3149  0.3104 -0.1137
11442SOL    HW245981   9.613   9.249   8.098  1.1724  0.2656 -0.2001
11443SOL     OW45982   7.646   0.003   4.553 -0.0523 -0.0824  0.0925
11443SOL    HW145983   7.709   0.065   4.599 -0.7543  0.9098 -0.2745
11443SOL    HW245984   7.695  -0.045   4.480  0.5015 -0.0028  0.4051
11444SOL     OW45985   8.805   7.895   6.528  0.5451 -0.3951  0.0329
11444SOL    HW145986   8.777   7.837   6.452 -0.7020  1.1545 -0.7270
11444SOL    HW245987   8.731   7.900   6.595  1.8014 -2.1133  1.6107
11445SOL     OW45988   1.967   0.863   4.655 -0.3961 -0.2220  0.4679
11445SOL    HW145989   1.950   0.792   4.724  2.0998 -0.2370  1.1239
11445SOL    HW245990   2.063   0.858   4.626 -1.2069  0.3271 -2.4219
11446SOL     OW45991   0.155   1.306   7.147 -0.3598  0.1242 -0.3027
11446SOL    HW145992   0.066   1.273   7.176  0.0734  0.4117  1.3943
11446SOL    HW245993   0.161   1.405   7.161  0.6204 -0.0656  0.6899
11447SOL     OW45994   0.595   1.895   5.485 -0.4977 -0.0735 -0.2938
11447SOL    HW145995   0.585   1.962   5.411 -0.2299  0.1557 -0.1251
11447SOL    HW245996   0.510   1.844   5.496 -1.1325  1.1174  0.4218
11448SOL     OW45997   9.307   9.881   0.368  0.0331 -0.1155  0.0421
11448SOL    HW145998   9.270   9.947   0.302 -0.4287 -0.7837 -0.3730
11448SOL    HW245999   9.330   9.796   0.320 -1.4181 -1.0238  0.9521
11449SOL     OW46000   9.462   3.374   0.453 -0.0718  0.3680 -0.1525
11449SOL    HW146001   9.515   3.451   0.418 -0.4273  0.2878 -0.8577
11449SOL    HW246002   9.375   3.368   0.405 -0.2359 -0.2027  0.2109
11450SOL     OW46003   8.585   9.966   2.967 -0.0565  0.1750 -0.3411
11450SOL    HW146004   8.643  10.038   2.928 -0.8403  0.7395 -0.4734
11450SOL    HW246005   8.595   9.883   2.912  2.1105 -0.3297  0.7728
11451SOL     OW46006   2.511   5.014   3.892  0.4586 -0.8997 -0.4938
11451SOL    HW146007   2.591   4.956   3.907  1.2204  0.2622  0.0005
11451SOL    HW246008   2.500   5.076   3.970 -1.5155 -1.7301 -0.0867
11452SOL     OW46009   9.432   8.776   5.984  0.7354 -0.8289 -0.2345
11452SOL    HW146010   9.379   8.790   5.900 -0.2406 -1.3066  0.2870
11452SOL    HW246011   9.476   8.862   6.010 -1.0870 -0.0017  0.1837
11453SOL     OW46012   3.319   1.594   1.737  0.2335 -0.3689 -0.0659
11453SOL    HW146013   3.328   1.679   1.686 -1.2656  1.0716  1.9450
11453SOL    HW246014   3.393   1.588   1.804  0.7263 -0.9898 -0.6637
11454SOL     OW46015   2.465   4.443   3.766  0.6925 -0.7829 -0.1364
11454SOL    HW146016   2.542   4.491   3.724 -1.0608  0.3909 -2.0670
11454SOL    HW246017   2.393   4.509   3.788 -0.3026 -2.0565  0.4710
11455SOL     OW46018   0.061   8.660   4.125 -0.2239 -0.2138  0.1619
11455SOL    HW146019   0.073   8.669   4.224  1.0919 -0.0212 -0.0008
11455SOL    HW246020   0.148   8.632   4.084  0.0160  2.4919 -1.2954
11456SOL     OW46021   9.318   7.630   7.614  0.4104  0.1215 -0.5704
11456SOL    HW146022   9.312   7.540   7.573 -0.1503 -0.2443  0.3055
11456SOL    HW246023   9.389   7.630   7.685 -0.5732 -0.0408  0.4350
11457SOL     OW46024   0.092   0.193   7.876 -0.0218  0.1218  0.3108
11457SOL    HW146025   0.043   0.106   7.879  0.7430 -0.3993 -1.6741
11457SOL    HW246026   0.184   0.179   7.839 -0.2019  1.9104 -0.8784
11458SOL     OW46027   1.015   0.905   5.133 -0.2026 -0.2174 -0.0206
11458SOL    HW146028   1.061   0.958   5.062  0.1106  0.9287  1.0108
11458SOL    HW246029   0.934   0.861   5.095  0.3703 -0.2248 -1.2570
11459SOL     OW46030   2.611   3.837   3.473 -0.0709 -0.8869  0.6106
11459SOL    HW146031   2.553   3.799   3.401  0.8772 -3.6926  1.2650
11459SOL    HW246032   2.608   3.776   3.553  2.8955 -0.5198  1.0440
11460SOL     OW46033   9.125   3.177   3.703  0.1144  0.1056  0.7283
11460SOL    HW146034   9.146   3.268   3.738 -1.0840 -0.5958  3.4255
11460SOL    HW246035   9.045   3.140   3.750  1.0080 -2.6273  0.2244
11461SOL     OW46036   5.798   7.699   6.298 -0.4435  0.3153  0.6480
11461SOL    HW146037   5.726   7.673   6.362  0.7460  0.3649  2.0062
11461SOL    HW246038   5.820   7.796   6.311  0.0369  0.2393  0.3910
11462SOL     OW46039   9.416   4.071   2.284  0.5939  0.0156  0.0416
11462SOL    HW146040   9.477   4.021   2.345  1.1054  0.7075  0.1049
11462SOL    HW246041   9.349   4.008   2.245 -0.0114 -0.3707  1.6519
11463SOL     OW46042   3.741   1.753   1.613 -0.3028  0.0570 -0.2611
11463SOL    HW146043   3.731   1.773   1.710  1.3155 -0.3948  0.0006
11463SOL    HW246044   3.762   1.838   1.563  0.0249  0.0943 -0.0593
11464SOL     OW46045   2.710   8.371   3.501 -0.1918  0.4457 -0.2053
11464SOL    HW146046   2.630   8.370   3.441  0.9986  1.2534 -1.8356
11464SOL    HW246047   2.767   8.291   3.483 -1.4468 -1.0598  2.1580
11465SOL     OW46048   4.894   3.976   1.024  0.0320  0.0304 -0.3814
11465SOL    HW146049   4.807   3.939   1.058  0.7007 -0.3005  1.0258
11465SOL    HW246050   4.955   3.993   1.101  1.1445  0.4699 -1.3411
11466SOL     OW46051   4.455   0.116   1.059  0.6527  0.4070 -0.5667
11466SOL    HW146052   4.541   0.147   1.017  0.8543  0.7614  0.0937
11466SOL    HW246053   4.469   0.103   1.157 -0.1936  1.0047 -0.3641
11467SOL     OW46054   2.946   5.310   2.392  0.1684 -0.3894  0.1813
11467SOL    HW146055   3.004   5.282   2.468  0.1737  1.4380  0.8696
11467SOL    HW246056   3.003   5.330   2.312  0.1400 -2.6006 -0.4367
11468SOL     OW46057   3.635   0.724   7.687  0.5589 -0.5748  0.3837
11468SOL    HW146058   3.558   0.773   7.729  0.7334 -0.0651  0.1153
11468SOL    HW246059   3.704   0.790   7.656  0.1201 -0.8793 -1.3195
11469SOL     OW46060   5.601   0.322   7.291 -0.3885  0.1845 -0.0803
11469SOL    HW146061   5.637   0.251   7.351 -0.0307  0.1952 -0.2808
11469SOL    HW246062   5.519   0.361   7.332 -0.8745 -0.6856 -0.2003
11470SOL     OW46063   7.384   2.864   4.644  0.0842  0.5946  0.5760
11470SOL    HW146064   7.451   2.794   4.670  0.2614  0.5552  0.0223
11470SOL    HW246065   7.318   2.824   4.580  0.9797  1.2834 -0.8065
11471SOL     OW46066   2.766   9.137   3.227  0.2467  0.6576 -0.3728
11471SOL    HW146067   2.821   9.210   3.267 -1.6581  0.7345  2.2723
11471SOL    HW246068   2.677   9.173   3.199 -0.1790 -0.3360 -0.3447
11472SOL     OW46069   0.636   2.465   0.679 -0.4065  0.3964  0.2021
11472SOL    HW146070   0.732   2.491   0.666 -0.4301  1.2597  1.6231
11472SOL    HW246071   0.592   2.455   0.590  0.8539  0.5691 -0.4574
11473SOL     OW46072   6.785   6.675   4.729  0.7478 -0.3855  0.0164
11473SOL    HW146073   6.770   6.710   4.636  0.8335 -1.6119 -0.4679
11473SOL    HW246074   6.697   6.666   4.775  0.6710 -0.1501 -0.0847
11474SOL     OW46075   8.785   7.215   4.711  0.2562 -0.1613 -0.4950
11474SOL    HW146076   8.823   7.307   4.711 -1.1753  0.4362 -0.3717
11474SOL    HW246077   8.750   7.194   4.620  3.0154 -1.6278 -1.2834
11475SOL     OW46078   1.208   1.825   3.031 -0.1895  0.6354 -0.4318
11475SOL    HW146079   1.240   1.826   2.936 -1.0533  0.3250 -0.7313
11475SOL    HW246080   1.114   1.859   3.034 -0.5903 -0.5345  0.1623
11476SOL     OW46081   0.704   8.919   3.753  0.3353  0.4869 -0.4181
11476SOL    HW146082   0.659   8.836   3.720 -1.2106  1.0487  0.1999
11476SOL    HW246083   0.736   8.973   3.675  0.6423 -0.3082 -0.8449
11477SOL     OW46084   2.497   7.318   9.970  0.0940 -0.1786 -0.3741
11477SOL    HW146085   2.571   7.382   9.949  0.2801 -0.0278  0.7235
11477SOL    HW246086   2.536   7.231  10.000 -0.1643 -0.4634 -0.8672
11478SOL     OW46087   3.220   0.320   7.688 -0.1881 -0.0821  0.2874
11478SOL    HW146088   3.283   0.274   7.751 -0.5154  1.6905  1.9814
11478SOL    HW246089   3.214   0.417   7.713 -1.4906  0.3375 -1.5697
11479SOL     OW46090   2.527   3.110   5.377  0.1328 -0.1379 -0.6225
11479SOL    HW146091   2.475   3.125   5.461  0.1500 -0.4564 -0.5568
11479SOL    HW246092   2.623   3.136   5.391  0.1188 -0.1163 -0.5682
11480SOL     OW46093   5.145   3.625   6.114 -0.5106 -0.0310  0.4253
11480SOL    HW146094   5.089   3.651   6.192 -0.0525  0.9841  0.4142
11480SOL    HW246095   5.153   3.702   6.051  1.6607  0.1570  0.8733
11481SOL     OW46096   0.261   2.920   3.283 -0.5709 -0.8410  0.1854
11481SOL    HW146097   0.213   2.869   3.211 -0.2293 -1.6481  0.5218
11481SOL    HW246098   0.333   2.862   3.322 -0.7641 -0.4145  1.1874
11482SOL     OW46099   1.558   4.627   0.656 -0.6001  0.1366 -0.1117
11482SOL    HW146100   1.546   4.713   0.607  4.2883 -0.4827 -2.7120
11482SOL    HW246101   1.546   4.550   0.593  1.1411 -0.8562  0.7156
11483SOL     OW46102   0.966   8.235   1.830  0.0432  0.5615 -0.4769
11483SOL    HW146103   0.932   8.147   1.796 -0.6649  0.9676 -0.8119
11483SOL    HW246104   0.906   8.269   1.902  0.9336  0.2397  0.4330
11484SOL     OW46105   6.815   9.714   3.476 -0.4474 -0.2510  0.1297
11484SOL    HW146106   6.742   9.777   3.501  1.3025  1.6462  0.5740
11484SOL    HW246107   6.871   9.694   3.557  1.1322  0.4681 -0.7553
11485SOL     OW46108   8.431   5.833   0.820 -0.2227 -0.2885 -0.0744
11485SOL    HW146109   8.508   5.893   0.798 -0.5207 -0.3067 -1.1935
11485SOL    HW246110   8.452   5.740   0.792 -0.5958 -0.3194 -0.2636
11486SOL     OW46111   3.481   0.465   2.950  0.6376  0.6524  0.4133
11486SOL    HW146112   3.495   0.395   3.020  1.2784  0.7876  0.4204
11486SOL    HW246113   3.394   0.513   2.967 -0.3123 -0.8189 -0.1615
11487SOL     OW46114   6.709   8.980   3.099  0.1996 -0.3123  0.1512
11487SOL    HW146115   6.771   8.948   3.171  0.0871 -0.1425  0.3235
11487SOL    HW246116   6.620   8.935   3.110  0.1601 -0.2310  0.1627
11488SOL     OW46117   7.845   9.970   6.606  0.4232 -0.5376 -0.3527
11488SOL    HW146118   7.752   9.932   6.606 -0.7498  2.1336  0.9356
11488SOL    HW246119   7.890   9.949   6.693  0.7755 -1.2635 -0.7109
11489SOL     OW46120   4.377   4.766   5.525 -0.5355 -0.2917  0.1758
11489SOL    HW146121   4.463   4.731   5.562  0.2534 -0.2083 -1.5503
11489SOL    HW246122   4.393   4.854   5.479 -1.8888  0.6939  1.5008
11490SOL     OW46123   9.067   7.798   0.829 -0.3372  0.2729  0.4808
11490SOL    HW146124   9.110   7.877   0.872  2.2084 -1.2384  0.7824
11490SOL    HW246125   9.074   7.718   0.889  0.3422 -1.0696 -1.3260
11491SOL     OW46126   9.081   1.704   6.228  0.4856  0.2726  0.5049
11491SOL    HW146127   9.160   1.762   6.250 -0.0028 -0.3430  4.3685
11491SOL    HW246128   8.999   1.760   6.225  0.8202  0.6632 -1.8667
11492SOL     OW46129   9.505   4.636   3.761  0.3286  0.0217  0.0035
11492SOL    HW146130   9.463   4.548   3.785 -0.3452  0.0386 -1.0657
11492SOL    HW246131   9.523   4.688   3.844 -1.0178 -0.3371  0.5272
11493SOL     OW46132   9.551   8.117   1.167  0.7446 -0.2221  0.1950
11493SOL    HW146133   9.531   8.095   1.262 -1.1703 -0.0640 -0.1493
11493SOL    HW246134   9.505   8.052   1.107  0.1731  0.9675 -0.6773
11494SOL     OW46135   8.715   1.371   5.591  0.2652 -0.3580  0.2685
11494SOL    HW146136   8.673   1.293   5.546  2.4849 -1.0867 -0.5807
11494SOL    HW246137   8.809   1.350   5.616  0.2677  1.3403  1.8932
11495SOL     OW46138   2.498   7.174   5.776 -0.1405  0.0503 -0.3248
11495SOL    HW146139   2.410   7.131   5.757  1.2153 -2.9714 -0.0938
11495SOL    HW246140   2.542   7.199   5.689  0.3741 -1.8669 -0.6371
11496SOL     OW46141   0.573   5.025   1.935  0.1628 -0.2531  0.3750
11496SOL    HW146142   0.495   5.084   1.912  0.0635 -0.3572  0.4427
11496SOL    HW246143   0.539   4.935   1.961  0.3356 -0.4398 -0.0549
11497SOL     OW46144   8.033   4.854   3.953  0.1420  0.2330 -0.4670
11497SOL    HW146145   8.052   4.928   4.017 -0.1678 -0.6278  0.6440
11497SOL    HW246146   7.975   4.887   3.879 -0.3924  0.9721  0.2759
11498SOL     OW46147   9.886   6.482   5.472 -0.1086 -0.3046  0.1971
11498SOL    HW146148   9.852   6.576   5.472 -1.0657 -0.6447 -0.4397
11498SOL    HW246149   9.865   6.439   5.559 -1.6369 -0.6265 -0.3241
11499SOL     OW46150   2.033   5.110   0.819  0.0851 -0.3722  0.1681
11499SOL    HW146151   1.937   5.120   0.793  0.2346 -1.0165 -0.6773
11499SOL    HW246152   2.039   5.048   0.898 -0.0304 -2.4493 -1.3929
11500SOL     OW46153   4.084   8.984   3.638 -0.7269  0.3767 -0.1933
11500SOL    HW146154   4.034   9.053   3.585 -4.3498  0.1585  2.6987
11500SOL    HW246155   4.061   8.893   3.604  2.4412  0.4080 -2.6601
11501SOL     OW46156   3.822   5.312   1.657  0.0671 -0.3759  0.1374
11501SOL    HW146157   3.848   5.315   1.753 -0.5444 -0.2139  0.3045
11501SOL    HW246158   3.799   5.405   1.626 -0.0859 -0.4807 -0.0632
11502SOL     OW46159   3.295   3.776   4.767 -0.5776 -0.2357  0.3341
11502SOL    HW146160   3.233   3.728   4.829 -0.4947 -0.4274  0.2706
11502SOL    HW246161   3.276   3.874   4.770 -0.0982 -0.1693  1.1908
11503SOL     OW46162   2.022   3.042   3.929 -0.1044  0.1860  0.8659
11503SOL    HW146163   2.032   3.140   3.947  0.4198  0.3247 -0.1581
11503SOL    HW246164   2.076   2.991   3.995  1.0986  0.6611  0.2642
11504SOL     OW46165   1.226   7.915   0.463 -0.4247 -0.9075  0.0211
11504SOL    HW146166   1.301   7.975   0.490 -0.1120 -1.4171  0.3013
11504SOL    HW246167   1.227   7.833   0.520 -0.0532 -1.7805 -1.2153
11505SOL     OW46168   9.826   8.852   2.462 -0.3454  0.0970  0.2758
11505SOL    HW146169   9.922   8.874   2.447 -0.5701  1.4900  0.8614
11505SOL    HW246170   9.809   8.756   2.436  1.3903 -0.4246  1.0491
11506SOL     OW46171   7.051   8.019   5.460 -0.5065 -0.2609  0.6495
11506SOL    HW146172   7.004   7.941   5.419 -0.1403 -0.7082  1.0630
11506SOL    HW246173   7.099   7.989   5.543 -0.7466  0.5023  1.0753
11507SOL     OW46174   0.598   4.351   0.670 -0.4417  0.4497  0.1326
11507SOL    HW146175   0.691   4.372   0.640  0.5249 -2.6631  0.7772
11507SOL    HW246176   0.566   4.268   0.625 -2.0906  0.3212  1.4852
11508SOL     OW46177   0.650   0.397   4.859 -0.2396  0.2413 -0.5666
11508SOL    HW146178   0.618   0.358   4.772 -1.6522 -0.4083  0.2109
11508SOL    HW246179   0.711   0.332   4.904 -1.0038 -0.2372 -0.2065
11509SOL     OW46180   6.246   4.736   1.422 -0.0577 -0.2299  0.2416
11509SOL    HW146181   6.273   4.652   1.469 -0.0270 -0.5040 -0.2632
11509SOL    HW246182   6.169   4.778   1.470  0.0678 -0.4326  0.6200
11510SOL     OW46183   1.659   4.357   0.515 -0.0473  0.1744  0.3688
11510SOL    HW146184   1.702   4.283   0.567 -0.3118 -0.0158  0.3186
11510SOL    HW246185   1.604   4.319   0.442  0.4871  0.4483 -0.1812
11511SOL     OW46186   8.081   3.428   2.943  0.0475  0.3742 -0.0313
11511SOL    HW146187   8.029   3.364   2.886 -1.4719  0.6001  1.0784
11511SOL    HW246188   8.072   3.520   2.906  0.3125  0.2994 -0.2867
11512SOL     OW46189   9.432   9.339   0.284  0.4950  0.0050  0.2965
11512SOL    HW146190   9.454   9.276   0.359 -0.0172 -1.2008 -0.5424
11512SOL    HW246191   9.375   9.292   0.217  0.3622  1.2858 -0.5101
11513SOL     OW46192   7.665   5.703   6.384 -0.2900 -0.4844 -0.0265
11513SOL    HW146193   7.649   5.771   6.312 -0.9038 -0.3793  0.2073
11513SOL    HW246194   7.609   5.725   6.464 -0.3093 -1.1342  0.1418
11514SOL     OW46195   9.668   9.970   1.519  0.6750  0.2340 -0.2959
11514SOL    HW146196   9.680   9.883   1.471  1.3471 -0.5509  1.2566
11514SOL    HW246197   9.575   9.975   1.556  0.9672 -0.3436  0.5585
11515SOL     OW46198   5.941   8.628   6.297  0.4738  0.1239  0.3589
11515SOL    HW146199   5.893   8.544   6.322 -2.5719  1.9275  0.8784
11515SOL    HW246200   5.950   8.632   6.197 -0.5351 -0.2422  0.2405
11516SOL     OW46201   2.983   9.458   6.720  0.2895  0.1359 -0.2299
11516SOL    HW146202   3.072   9.495   6.746  0.1404  1.1805 -1.1589
11516SOL    HW246203   2.921   9.461   6.799  0.7065  0.5827  0.0795
11517SOL     OW46204   2.830   5.292   1.425 -0.7123  0.3710  0.2920
11517SOL    HW146205   2.812   5.386   1.396 -1.4821 -0.4756 -2.1672
11517SOL    HW246206   2.839   5.234   1.344 -1.6723 -1.9240  1.7794
11518SOL     OW46207   0.563   5.830   0.387 -0.3561 -0.3446 -0.0357
11518SOL    HW146208   0.520   5.755   0.438 -3.0309 -0.0333 -1.7194
11518SOL    HW246209   0.641   5.795   0.335  0.9123 -1.1289  2.3460
11519SOL     OW46210   9.103   7.270   1.712 -0.7101 -0.3813  0.3031
11519SOL    HW146211   9.007   7.242   1.719 -0.5516 -0.6820  1.4641
11519SOL    HW246212   9.138   7.290   1.803  0.3959 -0.4963 -0.0898
11520SOL     OW46213   8.932   9.009   6.434 -0.1282  0.4406  0.3696
11520SOL    HW146214   9.006   8.964   6.484  0.9592  1.0660 -0.6469
11520SOL    HW246215   8.845   8.990   6.479  0.5315 -1.1476  1.0020
11521SOL     OW46216   6.724   9.907   5.087 -0.3361  0.3114  0.0294
11521SOL    HW146217   6.675   9.914   5.174  1.4398 -0.4757  1.1323
11521SOL    HW246218   6.691   9.828   5.036 -1.8948  1.1990 -0.3493
11522SOL     OW46219   8.514   7.100   6.278  0.5233  0.1170  0.0119
11522SOL    HW146220   8.579   7.116   6.203 -2.2775  0.8127 -2.3448
11522SOL    HW246221   8.441   7.040   6.246 -1.1554  1.0685  1.9646
11523SOL     OW46222   8.413   9.256   7.268  0.2597 -0.6693 -0.3359
11523SOL    HW146223   8.487   9.322   7.256 -2.6391  2.4876 -1.5625
11523SOL    HW246224   8.382   9.224   7.179 -0.9552 -0.7076  0.0941
11524SOL     OW46225   2.894   5.513   6.399 -0.2365 -0.2675 -0.2695
11524SOL    HW146226   2.981   5.522   6.447 -1.4405 -1.3088  2.1463
11524SOL    HW246227   2.883   5.419   6.368 -1.8312 -0.8808  2.0718
11525SOL     OW46228   9.059   1.654   5.464  0.5616  0.5601 -0.0147
11525SOL    HW146229   9.047   1.669   5.562  1.2363  1.7452 -0.1053
11525SOL    HW246230   9.125   1.719   5.428  0.3957  0.0629 -1.2449
11526SOL     OW46231   0.415   7.728   2.683  0.5955  0.0921 -0.1707
11526SOL    HW146232   0.363   7.725   2.598  0.5241 -0.9589 -0.0923
11526SOL    HW246233   0.493   7.789   2.672  1.2999 -1.0143 -1.3898
11527SOL     OW46234   1.240   2.417   7.696  0.0696  0.1619  0.2562
11527SOL    HW146235   1.200   2.485   7.634  1.2840 -0.1162 -0.8529
11527SOL    HW246236   1.336   2.440   7.713  1.1222 -2.3782 -1.8037
11528SOL     OW46237   1.974   4.805   2.280  0.1928  0.4159 -0.0413
11528SOL    HW146238   1.899   4.747   2.249  1.0760 -1.0433  0.5031
11528SOL    HW246239   2.019   4.762   2.359  1.3867  1.4263 -0.1520
11529SOL     OW46240   3.428   7.124   3.859  0.4489  0.0717  0.4773
11529SOL    HW146241   3.384   7.038   3.886 -0.9132  0.2507 -1.0718
11529SOL    HW246242   3.491   7.153   3.931 -0.4107 -1.2932  1.8183
11530SOL     OW46243   8.766   8.204   1.509 -0.4072 -0.2138 -0.2393
11530SOL    HW146244   8.700   8.275   1.536 -1.9932 -1.4418 -0.7774
11530SOL    HW246245   8.759   8.188   1.410  0.7667 -0.3035 -0.3102
11531SOL     OW46246   7.439   8.164   5.659  0.0391  0.0983 -0.2347
11531SOL    HW146247   7.506   8.238   5.652  0.5347 -0.3429 -0.1790
11531SOL    HW246248   7.450   8.117   5.747  0.5644 -0.8378 -0.7880
11532SOL     OW46249   2.762   2.379   6.493 -1.0463 -0.5807  0.5875
11532SOL    HW146250   2.746   2.398   6.590  0.3577  0.9570  0.5453
11532SOL    HW246251   2.720   2.450   6.437 -1.8295 -1.4527  0.0556
11533SOL     OW46252   6.226   3.699   1.996  0.5812 -0.2485  0.3872
11533SOL    HW146253   6.192   3.663   2.083  0.4330 -1.7939 -0.2892
11533SOL    HW246254   6.284   3.630   1.952  0.4235  0.4084 -0.8765
11534SOL     OW46255   7.777   5.968   2.036 -0.2235 -0.3710 -0.0168
11534SOL    HW146256   7.789   6.039   1.966  0.3321  0.6731  1.1321
11534SOL    HW246257   7.851   5.901   2.029 -0.5222 -0.6208 -0.8399
11535SOL     OW46258   3.625   2.610   5.790  0.7268  0.0501 -0.4328
11535SOL    HW146259   3.639   2.632   5.886  0.8897  0.5077 -0.5615
11535SOL    HW246260   3.576   2.523   5.782  0.4217  0.1783  0.0677
11536SOL     OW46261   5.369   1.350   0.766 -0.0056 -0.0191  0.4501
11536SOL    HW146262   5.353   1.252   0.772  0.1170  0.0805  2.7798
11536SOL    HW246263   5.282   1.398   0.752 -0.2735 -0.3420  0.9989
11537SOL     OW46264   9.798   6.962   2.987  0.2196  0.3076 -0.1376
11537SOL    HW146265   9.797   7.034   3.056 -0.8837  1.0954 -0.9762
11537SOL    HW246266   9.822   6.875   3.031  2.8498  1.3799  0.6399
11538SOL     OW46267   8.295   1.733   7.040  0.5875  0.2989 -0.5451
11538SOL    HW146268   8.317   1.704   7.133  0.0748  0.0776 -0.4929
11538SOL    HW246269   8.356   1.808   7.014  0.4713  0.6317  0.1190
11539SOL     OW46270   9.684   7.939   1.826  0.0704 -0.3182 -0.0845
11539SOL    HW146271   9.635   7.856   1.853  0.6752 -0.1701  1.5461
11539SOL    HW246272   9.761   7.953   1.888  1.1349  0.4036 -1.5473
11540SOL     OW46273   7.890   2.788   4.016  0.0218 -0.1035 -0.8534
11540SOL    HW146274   7.899   2.830   3.925 -0.4147 -0.7456 -1.1974
11540SOL    HW246275   7.954   2.831   4.079  0.6637  0.0215 -1.5850
11541SOL     OW46276   4.350   2.392   3.983 -0.0476 -0.4412 -0.0552
11541SOL    HW146277   4.425   2.458   3.991  1.2029 -1.5830 -1.8566
11541SOL    HW246278   4.271   2.437   3.941  0.6315  0.0523 -0.8443
11542SOL     OW46279   1.597   3.043   3.441  0.2977  0.6650 -0.0773
11542SOL    HW146280   1.630   3.136   3.457  2.5928 -0.0715 -0.3545
11542SOL    HW246281   1.648   2.979   3.498  0.0254 -0.6304 -1.2509
11543SOL     OW46282   4.925   1.670   5.703  0.6453  0.0978  0.2322
11543SOL    HW146283   4.924   1.570   5.701  2.0684  0.0560  1.1992
11543SOL    HW246284   4.996   1.702   5.765  0.3171  1.7244 -0.1944
11544SOL     OW46285   4.323   3.715   6.890 -0.2972 -0.3369 -0.1387
11544SOL    HW146286   4.229   3.742   6.869 -0.3417  0.8118  1.4398
11544SOL    HW246287   4.351   3.756   6.977  1.3271 -1.4783 -0.0956
11545SOL     OW46288   1.811   6.996   5.094  0.5295  0.3087  0.9643
11545SOL    HW146289   1.787   7.086   5.056  1.7416  0.3733  0.3435
11545SOL    HW246290   1.739   6.930   5.071  0.1584  0.8682  0.5015
11546SOL     OW46291   1.748   0.452   1.605 -0.3593  0.1038 -0.1685
11546SOL    HW146292   1.766   0.364   1.560  0.4472  0.1926 -0.0226
11546SOL    HW246293   1.785   0.526   1.549 -0.0465  0.2680  0.2540
11547SOL     OW46294   6.414   2.983   2.913  0.2650  0.1477 -0.2875
11547SOL    HW146295   6.414   2.914   2.985 -0.8697  0.3539 -0.0829
11547SOL    HW246296   6.445   3.070   2.951  1.1454 -0.1044 -0.4135
11548SOL     OW46297   9.820   2.694   5.443  0.2216 -0.7162 -0.7521
11548SOL    HW146298   9.911   2.686   5.402  1.3883 -0.1410  1.6597
11548SOL    HW246299   9.804   2.790   5.469 -1.3470 -0.6906 -1.7333
11549SOL     OW46300   1.678   9.466   3.771 -0.2204 -0.0879  0.8106
11549SOL    HW146301   1.775   9.464   3.794  0.2894 -1.0820 -1.3361
11549SOL    HW246302   1.630   9.395   3.822  0.3389 -0.2316  1.1445
11550SOL     OW46303   6.138   7.423   2.611  0.2608  0.3533  0.5382
11550SOL    HW146304   6.183   7.386   2.693  1.9332  0.7543 -0.1707
11550SOL    HW246305   6.090   7.508   2.635  0.9033  0.5680  1.0676
11551SOL     OW46306   1.586   4.547   2.887  0.2953  0.6442  0.1364
11551SOL    HW146307   1.562   4.583   2.797  1.0134  2.2009  0.5504
11551SOL    HW246308   1.544   4.602   2.958  1.8480  1.0260  0.7894
11552SOL     OW46309   6.154   8.739   3.069  0.1475  0.0919  0.4199
11552SOL    HW146310   6.156   8.686   2.985 -0.4852 -2.1792  1.7977
11552SOL    HW246311   6.197   8.687   3.143 -1.3757  1.0593  2.0356
11553SOL     OW46312   1.687   0.433   4.449  0.3820  0.3033 -0.0546
11553SOL    HW146313   1.661   0.529   4.442  0.7705  0.3791 -0.5121
11553SOL    HW246314   1.731   0.404   4.363 -0.0814 -0.3865 -0.0649
11554SOL     OW46315   2.106   2.553   6.415 -0.6946 -0.5255 -0.2034
11554SOL    HW146316   2.098   2.652   6.430 -0.1734 -0.4268 -0.5410
11554SOL    HW246317   2.071   2.531   6.324  0.9704 -0.3632 -0.9138
11555SOL     OW46318   9.148   1.369   1.181  0.5755 -0.5078 -0.2489
11555SOL    HW146319   9.139   1.344   1.277 -0.1267 -0.8133 -0.3932
11555SOL    HW246320   9.240   1.406   1.165  1.2789 -2.0237  0.1858
11556SOL     OW46321   2.396   7.944   5.296 -0.4610  0.3618 -0.3664
11556SOL    HW146322   2.462   7.927   5.223  2.2494  0.8710  1.8935
11556SOL    HW246323   2.340   8.023   5.271  0.7361  0.8306 -1.6916
11557SOL     OW46324   2.864   9.884   3.667  0.0565  0.0255 -0.4222
11557SOL    HW146325   2.945   9.869   3.725 -1.1395 -1.6392  0.9086
11557SOL    HW246326   2.845   9.982   3.660  2.5808  0.4837 -1.3466
11558SOL     OW46327   5.740   0.824   5.664 -0.0974 -0.6060  0.1628
11558SOL    HW146328   5.776   0.738   5.626 -1.1611 -0.4731 -1.1711
11558SOL    HW246329   5.726   0.813   5.762  1.8065 -1.2635  0.3876
11559SOL     OW46330   4.875   2.686   6.371 -0.1620 -0.4525  0.3434
11559SOL    HW146331   4.888   2.615   6.302 -0.5543 -0.8698  0.6958
11559SOL    HW246332   4.817   2.759   6.333  1.8791  0.6612 -0.7014
11560SOL     OW46333   2.317   5.065   2.861  0.3439 -0.4267 -0.4838
11560SOL    HW146334   2.240   5.083   2.922 -0.2548 -1.0456 -1.0359
11560SOL    HW246335   2.336   4.966   2.859  1.6824 -0.1878  0.2756
11561SOL     OW46336   0.327   1.851   2.422 -0.4367  0.5532  0.3764
11561SOL    HW146337   0.269   1.816   2.495 -1.9897  1.2609 -0.4785
11561SOL    HW246338   0.362   1.774   2.368 -0.0637  0.0853  1.2692
11562SOL     OW46339   6.209   0.280   0.528 -0.1463  0.4505 -0.4636
11562SOL    HW146340   6.139   0.231   0.477  0.9202 -0.6640 -0.8741
11562SOL    HW246341   6.220   0.239   0.619 -2.2674  2.6235  0.8460
11563SOL     OW46342   2.910   8.673   3.154  0.1481  0.0683 -0.5230
11563SOL    HW146343   2.975   8.689   3.080 -1.3566 -1.9061 -2.2974
11563SOL    HW246344   2.927   8.583   3.195  1.6805  1.5676  2.3329
11564SOL     OW46345   8.851   1.071   6.532 -0.1945  0.6134 -0.1912
11564SOL    HW146346   8.798   1.127   6.596 -1.0403  1.3255 -1.4965
11564SOL    HW246347   8.858   1.117   6.444  0.1380 -0.7931 -0.9277
11565SOL     OW46348   9.772   5.536   3.436 -0.3226  0.2280 -0.3951
11565SOL    HW146349   9.796   5.480   3.515 -0.1257  0.8370 -0.0212
11565SOL    HW246350   9.827   5.508   3.357 -0.1113  0.0079 -0.1698
11566SOL     OW46351   8.278   5.966   5.734 -0.1443 -0.7230  0.0822
11566SOL    HW146352   8.185   5.932   5.724  0.4026 -1.7763 -1.8107
11566SOL    HW246353   8.313   5.945   5.825 -0.9104 -2.4932 -0.0217
11567SOL     OW46354   7.315   7.278   5.921  0.2305 -0.0137  0.1026
11567SOL    HW146355   7.406   7.238   5.923  0.4421  0.3348 -1.5713
11567SOL    HW246356   7.250   7.214   5.880 -0.2845 -0.2519  1.2634
11568SOL     OW46357   0.169   0.485   4.035 -0.9806 -0.4051  0.5104
11568SOL    HW146358   0.092   0.486   3.971 -0.7803 -1.5557  0.2491
11568SOL    HW246359   0.249   0.525   3.991 -0.8775 -1.0832  0.0789
11569SOL     OW46360   9.581   6.093   3.168 -0.1443  0.4228 -0.3252
11569SOL    HW146361   9.641   6.070   3.245 -0.6662 -1.3633 -0.4307
11569SOL    HW246362   9.635   6.139   3.097  0.3812  1.8942  1.0005
11570SOL     OW46363   8.772   0.514   6.251  0.2665 -0.4499 -0.3835
11570SOL    HW146364   8.697   0.462   6.209  0.1635 -0.2823 -0.4086
11570SOL    HW246365   8.859   0.482   6.214  0.3247 -1.7523  0.8154
11571SOL     OW46366   6.674   9.463   2.972 -0.3875 -0.4717 -0.5785
11571SOL    HW146367   6.594   9.491   3.025  1.5907  1.4564  1.4975
11571SOL    HW246368   6.705   9.540   2.915  0.1449 -1.1259 -1.1861
11572SOL     OW46369   5.089   4.464   0.325  0.6245 -0.0345  0.0631
11572SOL    HW146370   5.041   4.551   0.333  0.5220 -0.0855  0.0112
11572SOL    HW246371   5.106   4.445   0.228 -0.6491 -0.7716 -0.0275
11573SOL     OW46372   2.091   1.889   3.393 -0.8746 -0.1155  0.0583
11573SOL    HW146373   2.006   1.897   3.445 -1.0122  1.0588 -0.3181
11573SOL    HW246374   2.166   1.927   3.447 -0.7416 -0.3536  0.0397
11574SOL     OW46375   1.923   9.307   7.032  0.2388 -0.1959 -0.0848
11574SOL    HW146376   1.948   9.403   7.018  0.4580  0.0182  1.7113
11574SOL    HW246377   2.004   9.250   7.024  0.3017 -0.1134 -0.0393
11575SOL     OW46378   0.815   3.098   5.248 -0.3276 -0.0368  0.3118
11575SOL    HW146379   0.897   3.126   5.199 -0.4332  1.2674  0.8406
11575SOL    HW246380   0.828   3.112   5.346 -0.6433 -1.2384  0.5315
11576SOL     OW46381   7.477   4.849   1.616  0.0416 -0.6200  0.0483
11576SOL    HW146382   7.396   4.810   1.571 -0.7434 -0.1992  1.0771
11576SOL    HW246383   7.559   4.802   1.583 -0.8325 -2.7865  0.8033
11577SOL     OW46384   4.571   1.496   1.631  0.1071  0.1252  0.1990
11577SOL    HW146385   4.611   1.405   1.641 -0.1504  0.1402  1.4856
11577SOL    HW246386   4.635   1.557   1.584  0.2467 -0.7379 -0.7303
11578SOL     OW46387   2.487   5.826   5.254  0.1295  0.0619  0.7083
11578SOL    HW146388   2.475   5.908   5.198 -1.8784  0.3072  1.4541
11578SOL    HW246389   2.513   5.749   5.195  2.0067  1.2079  0.0079
11579SOL     OW46390   8.610   7.770   6.740 -0.2310 -0.0107 -0.2204
11579SOL    HW146391   8.694   7.746   6.788 -0.1488 -0.5721 -0.6292
11579SOL    HW246392   8.571   7.687   6.700 -0.0783  0.4974 -1.4504
11580SOL     OW46393   7.315   8.394   6.910 -0.4476  0.1774 -0.3813
11580SOL    HW146394   7.264   8.382   6.825 -0.1005  4.3095 -1.3109
11580SOL    HW246395   7.413   8.389   6.891 -0.3979 -1.3514  0.2454
11581SOL     OW46396   6.676   7.052   5.423  0.2216  0.6830 -0.4245
11581SOL    HW146397   6.655   7.099   5.509 -0.6223 -0.2354 -0.1215
11581SOL    HW246398   6.653   7.112   5.346 -0.2602  1.0168 -0.0273
11582SOL     OW46399   1.299   5.311   6.395  0.6123 -0.4837 -0.2721
11582SOL    HW146400   1.237   5.234   6.379 -1.0479  0.8000 -0.1249
11582SOL    HW246401   1.390   5.276   6.415 -0.2728 -2.4547  0.5149
11583SOL     OW46402   4.418   8.687   4.219 -0.9046 -0.0239  0.2242
11583SOL    HW146403   4.323   8.666   4.244 -1.3459  1.4849 -0.1621
11583SOL    HW246404   4.419   8.741   4.135  0.3585 -0.9366 -0.3515
11584SOL     OW46405   1.933   2.250   7.278  0.7085  0.0329 -0.5391
11584SOL    HW146406   1.868   2.222   7.208 -0.0909  0.8008 -0.1196
11584SOL    HW246407   2.023   2.265   7.237  0.4262 -0.2529 -1.2625
11585SOL     OW46408   5.407   8.662   4.746  0.1163 -0.2469  0.4996
11585SOL    HW146409   5.347   8.583   4.754  0.4010 -0.2703  2.7369
11585SOL    HW246410   5.417   8.705   4.836  1.2742  1.3644 -0.3785
11586SOL     OW46411   8.258   5.592   4.542 -0.7407  0.2383  0.1711
11586SOL    HW146412   8.337   5.531   4.533 -0.0957  1.0068  0.5204
11586SOL    HW246413   8.174   5.538   4.542 -0.2239 -0.5810 -0.3420
11587SOL     OW46414   1.941   4.527   2.818 -0.2214 -0.1944 -0.3386
11587SOL    HW146415   1.928   4.427   2.817  0.6701 -0.3569  1.6934
11587SOL    HW246416   1.873   4.569   2.759 -0.0647 -2.0690 -1.9148
11588SOL     OW46417   2.597   2.500   7.734 -0.6583  0.0451 -0.3738
11588SOL    HW146418   2.544   2.425   7.772  0.1687 -1.2530 -1.7613
11588SOL    HW246419   2.602   2.574   7.801 -1.6029 -1.0591  0.9433
11589SOL     OW46420   5.839   5.678   2.119 -0.1294 -0.7424 -0.3846
11589SOL    HW146421   5.917   5.736   2.096 -0.1803 -1.1578 -1.6476
11589SOL    HW246422   5.766   5.692   2.052 -1.3565  0.0196  1.0700
11590SOL     OW46423   9.776   7.402   6.510 -0.6797 -0.3312  0.1681
11590SOL    HW146424   9.752   7.309   6.538 -1.5181 -0.1304  0.1119
11590SOL    HW246425   9.812   7.451   6.589 -0.2764 -0.6873  0.2087
11591SOL     OW46426   5.910   0.296   6.875  0.1738  0.4492 -0.5939
11591SOL    HW146427   5.832   0.298   6.938 -0.7984  0.6686 -1.7866
11591SOL    HW246428   5.944   0.203   6.868 -0.0443  0.3316 -0.1377
11592SOL     OW46429   3.505   9.549   3.126 -0.0656 -0.1046 -0.2060
11592SOL    HW146430   3.589   9.555   3.181  0.3923  1.6277 -1.0324
11592SOL    HW246431   3.465   9.458   3.135  0.0453  0.1209  2.9188
11593SOL     OW46432   4.859   0.419   6.079 -0.9870 -0.2225  0.4588
11593SOL    HW146433   4.765   0.393   6.100 -0.6509 -1.0011  1.0449
11593SOL    HW246434   4.917   0.337   6.082 -0.1470  0.3824  0.9222
11594SOL     OW46435   8.426   7.452   8.189  0.1953 -0.6849 -0.1441
11594SOL    HW146436   8.460   7.506   8.266  0.0886 -0.6447 -0.1250
11594SOL    HW246437   8.479   7.473   8.107  1.5384 -2.0825  0.3313
11595SOL     OW46438   2.995   3.279   6.883 -0.0730 -0.3253 -0.6089
11595SOL    HW146439   3.085   3.316   6.906 -0.4060 -0.8054  1.5156
11595SOL    HW246440   3.004   3.185   6.852  0.1027 -0.5343  0.0789
11596SOL     OW46441   9.576   5.323   4.789 -0.2270 -0.1170 -0.2375
11596SOL    HW146442   9.630   5.250   4.748  1.7207  1.0251  0.2006
11596SOL    HW246443   9.633   5.405   4.798 -2.3516  1.4342 -0.6669
11597SOL     OW46444   4.142   4.610   4.986 -0.4202 -0.6239  0.3268
11597SOL    HW146445   4.200   4.663   5.047  0.0510 -1.6349  0.7752
11597SOL    HW246446   4.195   4.582   4.906 -0.2255 -1.6899  0.8167
11598SOL     OW46447   4.118   7.628   0.233 -0.5212 -0.2661 -0.1265
11598SOL    HW146448   4.156   7.677   0.155 -0.2607 -0.0121  0.1612
11598SOL    HW246449   4.164   7.656   0.317 -0.5196 -0.8387  0.0698
11599SOL     OW46450   8.618   9.088   6.268  0.4867 -0.8231  0.0681
11599SOL    HW146451   8.582   9.128   6.352 -1.4502 -1.4055 -0.4699
11599SOL    HW246452   8.705   9.041   6.287  0.6105 -0.0035  1.5093
11600SOL     OW46453   8.736   0.827   5.318  0.0539  0.0203 -0.0550
11600SOL    HW146454   8.750   0.922   5.289  1.0262 -0.0473  0.1885
11600SOL    HW246455   8.756   0.818   5.415  0.2103 -0.4799 -0.1307
11601SOL     OW46456   0.212   6.669   0.082  0.6375 -0.2640  0.0422
11601SOL    HW146457   0.257   6.719   0.008  0.6056 -0.3587 -0.0409
11601SOL    HW246458   0.236   6.712   0.170  0.3028  0.1282 -0.0576
11602SOL     OW46459   2.447   4.287   2.989 -0.1126  0.6156 -0.2217
11602SOL    HW146460   2.413   4.268   3.081 -0.8175  0.2762 -0.5462
11602SOL    HW246461   2.419   4.379   2.961 -0.0740  0.6423 -0.1691
11603SOL     OW46462   8.669   5.276   4.452 -0.0502 -0.0974 -0.1901
11603SOL    HW146463   8.638   5.204   4.390 -2.1857 -1.2013  2.0677
11603SOL    HW246464   8.744   5.241   4.509  0.2297  0.1071 -0.4293
11604SOL     OW46465   2.818   7.884   4.806 -0.6209 -0.4760 -0.0582
11604SOL    HW146466   2.723   7.869   4.776  0.3992 -3.4407 -2.0395
11604SOL    HW246467   2.859   7.796   4.828  1.6752  0.8017  0.8684
11605SOL     OW46468   7.746   3.345   4.886 -0.2167 -0.1022 -0.4214
11605SOL    HW146469   7.653   3.323   4.914 -0.8372  1.8577 -0.8556
11605SOL    HW246470   7.802   3.363   4.966 -0.2515 -1.0623 -0.1715
11606SOL     OW46471   2.998   3.360   7.237  0.1822  0.7297 -0.0360
11606SOL    HW146472   2.986   3.260   7.241 -0.5562  0.8429  0.6416
11606SOL    HW246473   2.950   3.396   7.158 -0.7415  0.7131  0.5113
11607SOL     OW46474   3.743   7.185   9.880 -0.1590  0.6319 -0.0086
11607SOL    HW146475   3.707   7.279   9.884  1.3005  1.2069 -0.0068
11607SOL    HW246476   3.751   7.149   9.973  0.0422  0.8038  0.0409
11608SOL     OW46477   4.435   3.139   9.916  0.2144  0.6480 -0.1471
11608SOL    HW146478   4.499   3.077   9.963 -0.4579  0.3896  0.4390
11608SOL    HW246479   4.462   3.149   9.820  0.4322 -0.4137 -0.2012
11609SOL     OW46480   8.871   6.320   1.779  0.2485  0.2794  0.2693
11609SOL    HW146481   8.899   6.346   1.871 -2.3096  0.1950  1.1219
11609SOL    HW246482   8.885   6.222   1.766 -0.5192  0.0666  1.0152
11610SOL     OW46483   4.329   2.736   6.287 -0.4490  0.2776  0.1914
11610SOL    HW146484   4.362   2.826   6.259  0.7873  0.0361  0.8213
11610SOL    HW246485   4.327   2.675   6.208  0.8394  0.2391  0.1741
11611SOL     OW46486   2.773   1.460  10.047  0.0334 -0.4326  0.6940
11611SOL    HW146487   2.842   1.389  10.030  0.3650 -0.4865  2.2255
11611SOL    HW246488   2.682   1.420  10.042  0.1880 -0.7743  0.6132
11612SOL     OW46489   5.290   3.285   1.061  0.5193  0.2071  0.6507
11612SOL    HW146490   5.230   3.256   1.136 -0.0292 -0.1533  0.0834
11612SOL    HW246491   5.234   3.321   0.986  1.0379  0.1825  0.2490
11613SOL     OW46492   3.108   8.403   7.650  0.0815 -0.1134  0.0269
11613SOL    HW146493   3.138   8.439   7.562  0.2334 -0.4455 -0.0585
11613SOL    HW246494   3.017   8.363   7.640  0.0316 -0.0083  0.0580
11614SOL     OW46495   8.151   4.762   2.863 -0.5241  0.4639 -0.2651
11614SOL    HW146496   8.094   4.841   2.885  0.0322  0.6199  0.6932
11614SOL    HW246497   8.113   4.681   2.906  0.9060  0.8768  1.8625
11615SOL     OW46498   4.499   5.436   4.351 -0.0398 -0.3326 -0.2371
11615SOL    HW146499   4.588   5.400   4.381 -0.5459 -0.8332  0.7110
11615SOL    HW246500   4.455   5.483   4.428 -1.1039 -1.1235 -0.3537
11616SOL     OW46501   9.864   6.620   2.734 -0.3631  0.4193 -0.1149
11616SOL    HW146502   9.932   6.549   2.716 -3.1148 -2.1938 -0.6053
11616SOL    HW246503   9.830   6.610   2.827  0.9113  2.6195  0.6152
11617SOL     OW46504   8.074   7.770   0.912 -0.3944 -0.2864  0.1495
11617SOL    HW146505   8.157   7.720   0.937 -0.4911 -0.2805  0.4855
11617SOL    HW246506   8.091   7.868   0.916 -0.7884 -0.2667  1.5100
11618SOL     OW46507   0.998   9.300   3.369  0.3440 -0.4907  0.1972
11618SOL    HW146508   0.912   9.304   3.420  0.4711  1.1229  0.3142
11618SOL    HW246509   0.992   9.358   3.288  1.4585 -0.0191  0.4322
11619SOL     OW46510   0.740   7.799   4.608  0.0475  0.2034 -0.2226
11619SOL    HW146511   0.810   7.865   4.581  0.1395  0.2908  0.2148
11619SOL    HW246512   0.654   7.847   4.628 -0.4372 -0.0059 -1.7391
11620SOL     OW46513   6.847   0.385   1.766  0.5217  0.3628 -0.3114
11620SOL    HW146514   6.856   0.287   1.747 -0.1247  0.5447 -1.6125
11620SOL    HW246515   6.833   0.434   1.681 -1.6915  1.3194  0.5681
11621SOL     OW46516   1.154   1.769   1.177 -0.1961  0.0235 -0.2090
11621SOL    HW146517   1.115   1.690   1.224 -0.6124 -0.1422 -0.8247
11621SOL    HW246518   1.157   1.847   1.240  0.1913 -0.4721  0.3891
11622SOL     OW46519   8.063   6.632   5.793 -0.2634 -0.1653 -0.5297
11622SOL    HW146520   8.027   6.635   5.700 -1.1560  0.0398 -0.1871
11622SOL    HW246521   8.093   6.724   5.820  3.0329 -0.8326 -1.7651
11623SOL     OW46522   1.100   5.103   6.407  0.5503 -0.1922 -0.1790
11623SOL    HW146523   1.180   5.044   6.394 -0.1412 -1.5759  1.6846
11623SOL    HW246524   1.017   5.049   6.400 -0.1601  0.8579  0.0113
11624SOL     OW46525   9.759   1.381   1.811  0.2098  0.1303 -0.0565
11624SOL    HW146526   9.731   1.369   1.907  4.0403  0.2703  1.1861
11624SOL    HW246527   9.741   1.298   1.760  1.3211 -1.2119  1.6829
11625SOL     OW46528   5.312   0.092   2.568 -0.0066 -0.5119 -0.2695
11625SOL    HW146529   5.372   0.062   2.642  0.3612 -0.9915 -0.7623
11625SOL    HW246530   5.339   0.048   2.483 -1.3880 -1.1325 -0.3967
11626SOL     OW46531   0.895   9.721   2.870 -0.3450  0.0129 -0.0503
11626SOL    HW146532   0.943   9.779   2.935 -0.4818 -0.6277  0.6417
11626SOL    HW246533   0.902   9.759   2.778  0.7319  0.3778  0.1848
11627SOL     OW46534   2.498   3.276   2.613  0.2508  0.5233 -0.1740
11627SOL    HW146535   2.545   3.204   2.664  0.6112 -0.8425 -2.3835
11627SOL    HW246536   2.403   3.282   2.643 -0.0266 -1.5024 -0.5859
11628SOL     OW46537   3.834   4.621   7.666 -0.7849 -0.3835 -0.1062
11628SOL    HW146538   3.845   4.569   7.750 -0.6699 -0.1325  0.0346
11628SOL    HW246539   3.895   4.700   7.667 -1.0665 -0.1608 -0.2498
11629SOL     OW46540   2.043   0.390   5.546  0.0932  0.0227 -0.5456
11629SOL    HW146541   1.944   0.402   5.545  0.0432 -0.1232  1.2852
11629SOL    HW246542   2.066   0.299   5.512 -0.5221 -0.5591  0.5541
11630SOL     OW46543   5.081   6.777   0.516  0.0474  0.5962  0.3050
11630SOL    HW146544   5.174   6.814   0.522 -0.1691  1.1305  0.3306
11630SOL    HW246545   5.016   6.845   0.549 -0.3010 -0.0028  0.8546
11631SOL     OW46546   2.373   1.765   5.560 -0.4667  0.0312  0.7209
11631SOL    HW146547   2.462   1.722   5.545 -0.6871 -0.8503  1.8091
11631SOL    HW246548   2.301   1.696   5.548 -1.0312  0.8386 -0.5740
11632SOL     OW46549   1.154   1.011   7.428  0.1031  0.2034  0.1941
11632SOL    HW146550   1.124   0.916   7.433 -0.4884  0.3190 -0.8959
11632SOL    HW246551   1.077   1.069   7.402  0.5418  0.9412  0.5099
11633SOL     OW46552   2.593   0.138   5.968  0.2221  0.3154  0.3347
11633SOL    HW146553   2.675   0.088   5.938  0.1116  0.4318 -0.1655
11633SOL    HW246554   2.556   0.191   5.892 -2.4125 -2.5525 -0.4628
11634SOL     OW46555   8.183   9.960   7.143  0.2729  0.0797  0.0364
11634SOL    HW146556   8.106  10.017   7.115  0.1661  0.2389  0.6470
11634SOL    HW246557   8.226   9.999   7.225  1.3432  0.2883 -0.6131
11635SOL     OW46558   7.928   0.685   0.474 -0.2135 -0.0870  0.0684
11635SOL    HW146559   7.966   0.614   0.533 -0.2824 -0.8595 -0.8017
11635SOL    HW246560   7.829   0.676   0.471 -0.1426 -0.5704 -0.8269
11636SOL     OW46561   9.837   3.958   3.782 -0.1813  0.1289 -0.6709
11636SOL    HW146562   9.794   3.889   3.840  0.1324  0.0276 -0.5541
11636SOL    HW246563   9.777   3.980   3.706  0.4164 -1.5047 -1.6491
11637SOL     OW46564   5.044   1.843   4.889 -0.4644 -0.6101  0.6717
11637SOL    HW146565   5.110   1.866   4.818  2.4395 -0.7311  3.2292
11637SOL    HW246566   4.993   1.926   4.914 -2.0904 -0.7420 -2.0471
11638SOL     OW46567   8.079   7.451   7.087 -0.2562  0.6524  0.2170
11638SOL    HW146568   8.012   7.380   7.111  0.6962 -0.6364 -0.8351
11638SOL    HW246569   8.127   7.424   7.004  1.1841  1.8263  0.6492
11639SOL     OW46570   3.399   0.443   5.228  0.1071 -0.0298 -0.0301
11639SOL    HW146571   3.342   0.370   5.267 -0.5015  0.3928 -0.1282
11639SOL    HW246572   3.341   0.512   5.187  0.7377 -0.4022 -1.5860
11640SOL     OW46573   3.459   4.328   0.274 -0.5035 -0.0652 -0.5094
11640SOL    HW146574   3.468   4.239   0.319  0.5153 -0.6059 -1.7558
11640SOL    HW246575   3.550   4.367   0.258 -0.9107  0.7546 -0.8634
11641SOL     OW46576   6.946   7.359   7.432  0.1199  0.2111  0.1691
11641SOL    HW146577   6.874   7.417   7.394  0.0638  0.7848  1.1431
11641SOL    HW246578   6.906   7.295   7.497  0.3265 -0.2380 -0.1470
11642SOL     OW46579   6.245   2.178   0.770 -0.2622 -0.4174 -0.0751
11642SOL    HW146580   6.297   2.133   0.697 -0.2205  0.8114 -0.8129
11642SOL    HW246581   6.307   2.231   0.827 -0.3841 -0.8589  0.4653
11643SOL     OW46582   4.910   7.691   1.597  0.0308 -0.1732 -0.0332
11643SOL    HW146583   4.905   7.790   1.614  1.1107  0.1218 -1.3156
11643SOL    HW246584   4.962   7.675   1.513  0.7665 -1.9028  0.7345
11644SOL     OW46585   8.479   4.984   6.786 -0.2061  0.0062 -0.1253
11644SOL    HW146586   8.444   5.065   6.831  0.7733  0.3182  0.0985
11644SOL    HW246587   8.539   4.934   6.849 -1.0329 -1.0521 -0.1581
11645SOL     OW46588   8.895   7.397   2.433  0.3765 -0.3386 -0.1539
11645SOL    HW146589   8.893   7.497   2.428  0.7857 -0.3043  0.3550
11645SOL    HW246590   8.805   7.361   2.409 -0.0823  0.1963  0.7487
11646SOL     OW46591   5.418   7.865   7.633 -0.5708  0.4938  0.1528
11646SOL    HW146592   5.465   7.840   7.718  0.1535  0.9558 -0.1084
11646SOL    HW246593   5.476   7.844   7.555 -1.7716 -1.1775 -0.3142
11647SOL     OW46594   9.739   7.058   1.609 -0.1475 -0.0158  0.2630
11647SOL    HW146595   9.812   7.041   1.543 -0.9488  0.4070 -0.7343
11647SOL    HW246596   9.733   6.981   1.673  2.1243  0.5913  1.2502
11648SOL     OW46597   0.596   4.059   3.456 -0.3102  0.3218 -0.2861
11648SOL    HW146598   0.687   4.089   3.486 -0.9838  1.8537  0.2992
11648SOL    HW246599   0.576   3.969   3.495 -0.0556  1.0993  1.6907
11649SOL     OW46600   0.278   9.812   7.185  0.2863 -0.0886 -0.4654
11649SOL    HW146601   0.297   9.736   7.247 -2.9205 -1.3892 -0.9511
11649SOL    HW246602   0.309   9.789   7.092  1.8554  0.3831 -0.0659
11650SOL     OW46603   4.704   2.942   7.591  0.8041 -0.2114 -0.0280
11650SOL    HW146604   4.730   3.038   7.583  0.2522 -0.2193 -2.0037
11650SOL    HW246605   4.633   2.933   7.660  2.4816  0.4674  1.8518
11651SOL     OW46606   7.332   0.277   7.895 -0.3503 -0.2756 -0.6255
11651SOL    HW146607   7.351   0.367   7.857  0.9909 -0.6123 -0.7633
11651SOL    HW246608   7.235   0.272   7.922 -0.3118  1.3793 -0.1202
11652SOL     OW46609   7.645   9.754   6.351  0.0740 -0.6121  0.2174
11652SOL    HW146610   7.583   9.758   6.430 -1.3260  0.2562 -0.8961
11652SOL    HW246611   7.739   9.747   6.383 -0.3589  1.1306  1.9867
11653SOL     OW46612   5.524   1.835   4.109 -0.4380 -0.2602  0.3791
11653SOL    HW146613   5.584   1.884   4.046  0.2732 -0.0866  1.1790
11653SOL    HW246614   5.573   1.756   4.147 -0.6165  0.0487  1.2567
11654SOL     OW46615   2.023   5.378   3.930  0.1337 -0.3405 -0.7298
11654SOL    HW146616   2.020   5.466   3.977  0.5510 -0.1948 -0.9729
11654SOL    HW246617   1.953   5.376   3.859  0.6386  0.1031 -1.2513
11655SOL     OW46618   0.840   2.551   3.298  0.0156 -0.1885  0.1293
11655SOL    HW146619   0.820   2.488   3.373  0.6032 -0.2513  0.2343
11655SOL    HW246620   0.777   2.628   3.301 -0.1307 -0.3231  0.5281
11656SOL     OW46621   8.007   9.297   2.493  0.0574  0.2716  0.3651
11656SOL    HW146622   8.036   9.392   2.499 -0.9521  0.4204  4.1352
11656SOL    HW246623   7.907   9.292   2.496  0.0905 -0.9038  0.0715
11657SOL     OW46624   1.506   0.562   5.469 -0.1664 -0.0516  0.0113
11657SOL    HW146625   1.525   0.586   5.564  1.1565  0.8187 -0.4592
11657SOL    HW246626   1.452   0.635   5.427  1.2999  0.7019 -0.5777
11658SOL     OW46627   7.427   2.130   0.910 -0.0577 -0.2494  0.7425
11658SOL    HW146628   7.509   2.175   0.876 -0.0367 -1.2574 -0.6071
11658SOL    HW246629   7.416   2.149   1.007  0.8589  1.2569  0.5641
11659SOL     OW46630   4.264   9.292   5.503  0.5016 -0.0211 -0.6499
11659SOL    HW146631   4.230   9.265   5.593  0.4394 -3.3191 -1.6043
11659SOL    HW246632   4.189   9.330   5.449 -0.2133 -1.1152 -0.4421
11660SOL     OW46633   9.199   3.188   4.331  0.0313 -0.0048 -0.1630
11660SOL    HW146634   9.112   3.237   4.323  0.9449  1.7902  0.4794
11660SOL    HW246635   9.232   3.193   4.425  1.0622 -0.2570 -0.5038
11661SOL     OW46636   4.756   8.885   5.534  0.3280  0.4499 -0.0565
11661SOL    HW146637   4.709   8.855   5.450 -0.6985  1.7001  0.0626
11661SOL    HW246638   4.853   8.863   5.526  0.0913 -0.2672 -1.1982
11662SOL     OW46639   7.485   3.687   3.862  0.2497  0.4461  0.7052
11662SOL    HW146640   7.478   3.682   3.962  0.9726  2.0727  0.8551
11662SOL    HW246641   7.566   3.636   3.832  0.3008  0.3480  1.0018
11663SOL     OW46642   1.189   0.685   0.797 -0.2020 -0.2711 -0.3694
11663SOL    HW146643   1.171   0.654   0.890 -1.4646  1.4911 -0.0305
11663SOL    HW246644   1.200   0.784   0.795  0.6865 -0.3707 -1.9744
11664SOL     OW46645   8.962   3.942   4.798  0.6060  0.5299  0.0125
11664SOL    HW146646   8.913   3.902   4.721  1.2223  2.2025 -1.2959
11664SOL    HW246647   9.003   3.870   4.853 -1.2672 -0.7671 -0.2476
11665SOL     OW46648   3.316   3.713   0.257 -0.1892  0.2876 -0.6202
11665SOL    HW146649   3.413   3.704   0.236 -0.0722 -1.2878  0.5303
11665SOL    HW246650   3.303   3.791   0.318  0.3841  0.3536 -0.5776
11666SOL     OW46651   1.032   6.447   2.024  0.4932 -0.6724  1.0267
11666SOL    HW146652   0.954   6.384   2.028 -0.3596  0.4573  2.5481
11666SOL    HW246653   1.062   6.469   2.116 -0.4081  2.5841  0.5859
11667SOL     OW46654   7.217   0.174   3.886 -0.2556 -0.4813 -0.0752
11667SOL    HW146655   7.223   0.101   3.817 -0.3476  0.3041 -0.9205
11667SOL    HW246656   7.291   0.239   3.871  0.5755 -1.0411  1.4482
11668SOL     OW46657   9.156   7.589   4.641  0.0286  0.0531  0.9494
11668SOL    HW146658   9.228   7.537   4.687 -0.3498  0.5116  2.0567
11668SOL    HW246659   9.154   7.683   4.675 -1.1345  0.0307  0.9690
11669SOL     OW46660   3.449   6.646   1.747 -0.0850  0.0558 -0.4697
11669SOL    HW146661   3.541   6.609   1.732 -0.7388 -1.4711 -0.7149
11669SOL    HW246662   3.448   6.697   1.834  0.3179 -2.2001  0.8831
11670SOL     OW46663   7.177   1.672   5.696  0.0380 -0.1131  0.2394
11670SOL    HW146664   7.238   1.640   5.623 -0.8261  1.5169 -1.2539
11670SOL    HW246665   7.205   1.763   5.725 -1.3010  0.4053 -0.0395
11671SOL     OW46666   8.471   4.423   0.221  0.0823  1.0381  0.1552
11671SOL    HW146667   8.524   4.362   0.281  0.5745  1.5039  0.1937
11671SOL    HW246668   8.496   4.518   0.239  1.2803  1.1126 -1.7797
11672SOL     OW46669   8.164   3.934   3.972 -0.3452  0.1185  0.3351
11672SOL    HW146670   8.182   3.855   4.031 -0.7043  1.0719  1.7484
11672SOL    HW246671   8.240   3.946   3.910  0.6307 -0.1700  1.4477
11673SOL     OW46672   0.258   1.072   1.980 -0.0836  0.3037 -0.6538
11673SOL    HW146673   0.174   1.076   1.926 -0.0025 -0.6960 -0.8672
11673SOL    HW246674   0.238   1.038   2.072  0.2468 -1.0344 -1.0638
11674SOL     OW46675   5.211   0.229   2.257  0.1977  0.4440 -0.2858
11674SOL    HW146676   5.193   0.305   2.320  0.3697 -0.1499  0.4931
11674SOL    HW246677   5.286   0.173   2.294  0.4928  0.2524 -1.1658
11675SOL     OW46678   5.241   1.431   7.026 -0.3368  0.9099 -0.2123
11675SOL    HW146679   5.298   1.375   7.087  0.2579 -0.3421 -1.8735
11675SOL    HW246680   5.187   1.495   7.080 -1.6477 -1.8095  1.8294
11676SOL     OW46681   2.727   9.975   7.321 -0.1471 -0.0329 -0.0640
11676SOL    HW146682   2.752   9.882   7.295 -0.1805 -0.1790  0.4249
11676SOL    HW246683   2.639   9.973   7.370 -1.3831  0.5250 -2.2173
11677SOL     OW46684   0.279   1.635   3.103 -0.4520 -0.1107 -0.1221
11677SOL    HW146685   0.242   1.714   3.151 -3.3245 -0.8296 -1.0998
11677SOL    HW246686   0.292   1.559   3.168  2.1644  1.0527  0.7829
11678SOL     OW46687   7.207   4.004   0.535  0.5123  0.4206  0.4803
11678SOL    HW146688   7.107   3.994   0.541  0.6473 -0.8629  0.7461
11678SOL    HW246689   7.232   4.099   0.551 -0.4805  0.2899  3.1360
11679SOL     OW46690   7.410   9.472   5.947  0.0660  0.1940  0.1845
11679SOL    HW146691   7.499   9.510   5.974 -0.1404  0.1677  0.8985
11679SOL    HW246692   7.406   9.465   5.847  1.1137 -0.4156  0.1877
11680SOL     OW46693   8.556   5.707   6.861  0.6732  0.3747 -0.4506
11680SOL    HW146694   8.634   5.646   6.846 -0.1301 -0.2300 -2.4774
11680SOL    HW246695   8.486   5.688   6.792 -1.1393  1.1280  1.1331
11681SOL     OW46696   8.515   9.239   4.657  0.5950 -0.0569 -0.8654
11681SOL    HW146697   8.448   9.165   4.647 -0.5192  0.7417  0.6501
11681SOL    HW246698   8.602   9.210   4.616 -0.3610 -1.4946 -1.9231
11682SOL     OW46699   0.589   5.600   2.812  0.2082  0.4633 -0.0590
11682SOL    HW146700   0.516   5.665   2.834  0.8768  0.3852  2.5729
11682SOL    HW246701   0.606   5.601   2.714 -1.5113  2.4221 -0.3747
11683SOL     OW46702   3.996   2.314   4.489 -0.7759 -0.4078  0.5275
11683SOL    HW146703   4.065   2.255   4.531 -0.7985  0.0057  1.1394
11683SOL    HW246704   4.022   2.410   4.500  0.4266 -0.3228 -2.4305
11684SOL     OW46705   7.992   7.473   5.192  0.0411  0.1358 -0.1191
11684SOL    HW146706   7.901   7.508   5.214 -1.5163 -2.3694 -2.3726
11684SOL    HW246707   8.021   7.409   5.263 -0.2072  0.4898  0.3049
11685SOL     OW46708   5.613   5.103   1.147 -0.4813 -0.2747 -0.1226
11685SOL    HW146709   5.538   5.101   1.213 -1.0341 -0.2910 -0.7392
11685SOL    HW246710   5.696   5.135   1.191 -0.8193 -0.4030  0.6072
11686SOL     OW46711   9.232   6.427   1.478 -0.6216  0.0373 -0.4843
11686SOL    HW146712   9.233   6.443   1.577 -0.9547 -0.2788 -0.4281
11686SOL    HW246713   9.277   6.504   1.431 -3.1523  1.6980 -0.2892
11687SOL     OW46714   9.394   5.634   4.127 -0.2335  0.2404  0.4062
11687SOL    HW146715   9.414   5.628   4.225 -1.2883  0.1029  0.6275
11687SOL    HW246716   9.363   5.545   4.095 -0.9221  0.5484  0.1958
11688SOL     OW46717   7.539   9.402   5.149  0.0663  0.2627 -0.5847
11688SOL    HW146718   7.544   9.470   5.076  1.5221 -0.1407 -0.8786
11688SOL    HW246719   7.625   9.351   5.153 -0.5084 -0.6505  0.5148
11689SOL     OW46720   0.776   0.008   0.526 -0.1807  0.4157 -0.8298
11689SOL    HW146721   0.843   0.047   0.589 -1.2033  1.5232 -0.4094
11689SOL    HW246722   0.782   0.054   0.438 -1.3348  1.5006 -0.3574
11690SOL     OW46723   2.201   0.357   1.574  0.0358 -0.0119  0.6564
11690SOL    HW146724   2.298   0.332   1.573 -0.3417 -1.4690 -1.1542
11690SOL    HW246725   2.148   0.279   1.608 -0.7914 -0.3552 -1.4019
11691SOL     OW46726   8.283   6.984   6.054 -0.4682 -0.2470  0.1393
11691SOL    HW146727   8.342   7.065   6.048 -0.6797 -0.1682 -0.9391
11691SOL    HW246728   8.339   6.903   6.070 -0.2475  0.0868  1.1487
11692SOL     OW46729   3.230   3.435   0.196 -0.0040  0.0464  0.2779
11692SOL    HW146730   3.259   3.529   0.215 -1.8233  0.6311  0.2375
11692SOL    HW246731   3.220   3.423   0.097  1.9365 -0.7274  0.1534
11693SOL     OW46732   0.952   6.438   0.286  0.7326  0.4167 -0.0753
11693SOL    HW146733   1.027   6.494   0.249  1.4934 -1.7943 -1.9982
11693SOL    HW246734   0.874   6.441   0.223 -1.1721  3.3434  2.2960
11694SOL     OW46735   4.707   6.281   3.951  0.4210 -0.1660 -0.5296
11694SOL    HW146736   4.677   6.360   3.897  2.5087 -0.0259 -1.5301
11694SOL    HW246737   4.785   6.308   4.008  0.7536 -1.3453 -0.4198
11695SOL     OW46738   9.766   1.775   7.343  0.2165 -0.6212  0.0993
11695SOL    HW146739   9.778   1.691   7.289 -1.5512  0.9894 -2.9102
11695SOL    HW246740   9.856   1.814   7.363  0.9152 -1.0151 -2.1200
11696SOL     OW46741   3.788   6.479   2.280 -0.0735 -0.0722  0.3841
11696SOL    HW146742   3.745   6.443   2.197 -1.5738 -1.5848  1.7691
11696SOL    HW246743   3.867   6.422   2.303  0.1809  0.1838  0.1467
11697SOL     OW46744   0.662   6.689   1.515 -0.6047 -0.3030 -0.3447
11697SOL    HW146745   0.620   6.667   1.603  2.5874 -2.1710  0.7702
11697SOL    HW246746   0.670   6.789   1.506  0.4444 -0.1527  2.1540
11698SOL     OW46747   2.138   1.578   6.448 -0.2014 -0.1572 -0.4873
11698SOL    HW146748   2.191   1.493   6.442 -0.4356 -0.3147 -0.3491
11698SOL    HW246749   2.191   1.647   6.496 -0.0342 -0.2471 -0.5417
11699SOL     OW46750   3.409   9.954   7.212 -0.6827 -0.5019 -0.3604
11699SOL    HW146751   3.324   9.966   7.264 -1.1573 -0.8248 -1.0610
11699SOL    HW246752   3.487   9.973   7.272 -1.2448 -0.2341  0.2957
11700SOL     OW46753   6.227   0.230   6.507  0.5171 -0.0735 -0.1725
11700SOL    HW146754   6.314   0.238   6.457  0.0648 -1.9589 -1.3320
11700SOL    HW246755   6.243   0.183   6.594  0.5421 -1.3008 -0.8183
11701SOL     OW46756   0.307   7.588   2.241  0.6888 -0.2465  0.2209
11701SOL    HW146757   0.268   7.646   2.169  0.5395  0.3060  0.7514
11701SOL    HW246758   0.353   7.510   2.198  3.7127  1.9390 -0.6931
11702SOL     OW46759   4.827   4.673   6.497  0.5136 -0.2914 -0.3353
11702SOL    HW146760   4.741   4.623   6.489 -1.0775  2.0794  1.2320
11702SOL    HW246761   4.893   4.617   6.547 -0.6052 -1.5355 -0.2206
11703SOL     OW46762   0.636   4.086   4.002 -0.3369 -0.1012  0.2696
11703SOL    HW146763   0.686   4.100   4.088 -0.2994  0.2144  0.1963
11703SOL    HW246764   0.567   4.014   4.015 -1.6641  1.2858  1.1224
11704SOL     OW46765   1.167   8.796   3.376 -0.1626  0.2207 -0.5792
11704SOL    HW146766   1.084   8.743   3.358 -1.7676  1.5204  2.5421
11704SOL    HW246767   1.158   8.887   3.335 -0.1117  0.2271 -0.5791
11705SOL     OW46768   3.692   3.303   1.375 -0.0238  0.0478  0.3344
11705SOL    HW146769   3.599   3.339   1.370  0.4464  1.7830  2.7459
11705SOL    HW246770   3.757   3.373   1.345  0.5119 -1.2403 -1.5849
11706SOL     OW46771   1.293   3.559   6.930 -0.7051  0.0110 -0.1248
11706SOL    HW146772   1.259   3.639   6.881 -0.5560 -0.9404 -1.8172
11706SOL    HW246773   1.304   3.483   6.866  0.5126 -0.9480  1.1993
11707SOL     OW46774   1.479   5.351   6.740  0.4234  0.2173 -0.3780
11707SOL    HW146775   1.421   5.412   6.793 -0.0717 -1.0814  0.6178
11707SOL    HW246776   1.454   5.256   6.759  0.2913 -0.2979 -2.8675
11708SOL     OW46777   5.003   9.987   2.524  0.0968  0.3178  0.1150
11708SOL    HW146778   5.066   9.951   2.456  1.4260 -1.4382  2.1987
11708SOL    HW246779   5.053  10.044   2.589 -0.8059  0.4496  0.7036
11709SOL     OW46780   6.712   1.866   1.993 -0.2765  0.1288  0.0482
11709SOL    HW146781   6.790   1.875   2.055  0.5424  0.4547 -1.0104
11709SOL    HW246782   6.688   1.956   1.956 -0.9932 -0.0092  0.1661
11710SOL     OW46783   0.058   1.956   3.804  0.1899 -0.1615 -0.5295
11710SOL    HW146784   0.078   2.008   3.888  1.2878 -1.7729  0.2221
11710SOL    HW246785   0.143   1.935   3.757 -0.2961 -0.8152 -1.1163
11711SOL     OW46786   6.545   4.089   1.196 -0.3657  0.1023 -0.4369
11711SOL    HW146787   6.498   4.001   1.187 -0.4110  0.1720 -0.8627
11711SOL    HW246788   6.560   4.129   1.106  1.2746 -0.3217 -0.3689
11712SOL     OW46789   8.514   9.495   5.102  0.2173  0.4163  0.2450
11712SOL    HW146790   8.521   9.587   5.140 -1.4241  0.8610 -0.5136
11712SOL    HW246791   8.574   9.487   5.022  0.3209  0.8521  0.2799
11713SOL     OW46792   0.062   5.356   7.973  0.2783 -0.1618 -0.0219
11713SOL    HW146793   0.017   5.384   7.889  0.5093 -0.3879 -0.2229
11713SOL    HW246794  -0.006   5.319   8.037  0.1501 -0.3176 -0.2458
11714SOL     OW46795   2.883   3.182   1.905  0.0841  0.0819  0.0935
11714SOL    HW146796   2.921   3.250   1.842  1.2950 -1.2784 -0.6677
11714SOL    HW246797   2.798   3.216   1.944  0.6986  2.0502 -0.2521
11715SOL     OW46798   8.034   3.628   1.601  0.9993 -0.4381 -0.2930
11715SOL    HW146799   8.098   3.599   1.671  1.6939  0.9859 -0.3009
11715SOL    HW246800   8.083   3.683   1.532  0.0494 -0.5595 -1.0832
11716SOL     OW46801   3.555   0.369   6.101  0.3685  0.0506  0.1717
11716SOL    HW146802   3.593   0.421   6.025  0.9302 -3.3726 -2.0044
11716SOL    HW246803   3.492   0.300   6.066  0.5136 -1.5207  2.8302
11717SOL     OW46804   0.405   3.138   0.291 -0.1768 -0.3005  0.3765
11717SOL    HW146805   0.477   3.099   0.235  0.2837  0.3466  0.5079
11717SOL    HW246806   0.441   3.216   0.343 -0.1345 -1.9303  2.8724
11718SOL     OW46807   6.425   0.095   0.981 -0.1480 -0.0906  0.0579
11718SOL    HW146808   6.462   0.013   1.025  1.5448  0.2961 -0.5738
11718SOL    HW246809   6.501   0.151   0.946 -1.3071  1.3772 -0.1732
11719SOL     OW46810   1.200   3.824   6.114  0.6031 -0.6930  0.2125
11719SOL    HW146811   1.141   3.752   6.076  0.4760 -0.6451  0.3183
11719SOL    HW246812   1.143   3.898   6.150  0.7146 -0.8266  0.6735
11720SOL     OW46813   6.832   8.450   8.344  0.1351 -0.1485  0.3971
11720SOL    HW146814   6.833   8.407   8.253  1.4293  2.3816 -0.8296
11720SOL    HW246815   6.925   8.478   8.368 -0.4172  0.4206  1.9236
11721SOL     OW46816   9.218   0.306   6.800  0.4137 -0.2162 -0.2612
11721SOL    HW146817   9.304   0.338   6.761 -0.6121  0.7481 -1.7842
11721SOL    HW246818   9.204   0.210   6.774  2.0347 -1.0433  1.7903
11722SOL     OW46819   9.122   6.490   6.766 -0.3662  0.2099 -0.3724
11722SOL    HW146820   9.089   6.413   6.819 -0.6524  0.1817 -0.5926
11722SOL    HW246821   9.203   6.463   6.714 -0.3095  0.1322 -0.2435
11723SOL     OW46822   2.592   1.778   6.870 -0.0149  0.2254 -0.0371
11723SOL    HW146823   2.690   1.798   6.881  0.2548 -0.4281 -1.2306
11723SOL    HW246824   2.555   1.833   6.795  0.1578 -1.8682 -1.6772
11724SOL     OW46825   3.418   8.772   3.073 -0.4555  0.3398 -0.0866
11724SOL    HW146826   3.356   8.731   3.140 -1.4747  2.8338  0.5678
11724SOL    HW246827   3.368   8.792   2.989  0.2196 -0.5045 -0.6880
11725SOL     OW46828   8.576   5.389   5.581  0.2645  0.2133  1.0827
11725SOL    HW146829   8.594   5.339   5.496  1.6513  0.2104  1.3532
11725SOL    HW246830   8.491   5.357   5.622 -0.2995  0.0664 -0.2005
11726SOL     OW46831   9.240   4.448   6.566  0.2050 -0.4119 -0.0442
11726SOL    HW146832   9.327   4.398   6.559 -1.1639 -2.6763 -1.2948
11726SOL    HW246833   9.186   4.410   6.641 -1.3040 -1.5501 -1.6903
11727SOL     OW46834   3.138   8.854   2.261  0.4432  0.6073 -0.7420
11727SOL    HW146835   3.237   8.847   2.263  0.2694 -1.9076  0.0086
11727SOL    HW246836   3.104   8.827   2.170  0.2310 -2.1980  0.1237
11728SOL     OW46837   1.654   2.204   4.601  0.1371 -0.2562 -0.1455
11728SOL    HW146838   1.596   2.281   4.574  0.8172 -0.1549 -1.3123
11728SOL    HW246839   1.650   2.193   4.701  0.4849  1.6382  0.0830
11729SOL     OW46840   0.002   1.184   6.258 -0.3052  0.3086 -0.3134
11729SOL    HW146841  -0.097   1.176   6.242 -0.3237 -0.4379  0.1569
11729SOL    HW246842   0.019   1.259   6.322 -0.8026 -1.4100  1.8881
11730SOL     OW46843   7.694   7.402   5.130  0.1415 -0.6665 -0.1211
11730SOL    HW146844   7.739   7.315   5.109  0.3662 -1.2329  2.5425
11730SOL    HW246845   7.712   7.426   5.225 -1.6354  1.2829 -0.2596
11731SOL     OW46846   4.372   9.126   4.412 -0.1545 -0.8166  0.5750
11731SOL    HW146847   4.354   9.161   4.320 -1.2517 -1.5428  0.5048
11731SOL    HW246848   4.304   9.057   4.435 -0.2382 -0.2036  2.1840
11732SOL     OW46849   8.131   1.142   0.608 -0.1654  0.4315  0.0558
11732SOL    HW146850   8.118   1.043   0.612  0.3334  0.3877  0.5789
11732SOL    HW246851   8.085   1.185   0.685 -2.1077  0.7951 -1.2760
11733SOL     OW46852   1.655   1.064   5.255  0.0413 -0.2880  0.4868
11733SOL    HW146853   1.565   1.099   5.279  0.0881  0.7215 -0.7872
11733SOL    HW246854   1.666   1.064   5.156  1.6330  0.0615  0.6472
11734SOL     OW46855   2.947   5.412   6.671 -0.5948  0.3586 -0.0229
11734SOL    HW146856   2.950   5.339   6.602  0.6901 -1.9774  2.3775
11734SOL    HW246857   3.040   5.447   6.686 -0.2231 -1.7081  3.0259
11735SOL     OW46858   0.489   1.678   5.265 -0.2800  0.2058 -0.0721
11735SOL    HW146859   0.445   1.590   5.279  0.1701 -0.5063 -2.8419
11735SOL    HW246860   0.582   1.676   5.303 -0.5441 -0.2568  0.5399
11736SOL     OW46861   0.294   5.972   3.191 -0.2500 -0.2226 -0.2706
11736SOL    HW146862   0.392   5.988   3.180 -0.1443 -1.0468 -0.5030
11736SOL    HW246863   0.276   5.936   3.283 -0.1841 -1.2989 -0.6739
11737SOL     OW46864   6.280   9.154   2.158 -0.8028  0.0642 -0.0592
11737SOL    HW146865   6.309   9.218   2.087  1.5826  0.5907  1.2979
11737SOL    HW246866   6.280   9.200   2.246 -0.9187 -1.3086  0.6780
11738SOL     OW46867   0.434   9.834   6.129  0.1194 -0.3634  1.0563
11738SOL    HW146868   0.411   9.770   6.055  0.3629  0.4965  0.2244
11738SOL    HW246869   0.530   9.822   6.154 -0.0514 -0.8868  1.4681
11739SOL     OW46870   8.565   8.935   2.114 -0.6406  0.5385  0.6233
11739SOL    HW146871   8.509   9.008   2.154  1.0494  1.3448  1.5912
11739SOL    HW246872   8.623   8.973   2.042 -1.7092 -0.3915 -0.7322
11740SOL     OW46873   7.803   7.853   1.558 -0.5728 -0.4799 -0.5468
11740SOL    HW146874   7.885   7.910   1.563 -0.3740 -0.8198  0.2158
11740SOL    HW246875   7.816   7.772   1.615 -0.8431 -1.3035 -1.6460
11741SOL     OW46876   9.303   8.952   1.819  0.1467 -0.4407 -0.1885
11741SOL    HW146877   9.275   8.896   1.741  1.3649  2.0723 -2.5086
11741SOL    HW246878   9.278   8.906   1.904 -0.8232 -3.4546 -2.0406
11742SOL     OW46879   3.118   3.869   1.271  0.0248  0.3303 -0.2227
11742SOL    HW146880   3.026   3.881   1.309 -0.5752  0.1177 -1.5886
11742SOL    HW246881   3.182   3.848   1.345 -1.0717  0.2133  0.7068
11743SOL     OW46882   4.549   0.490   6.440  0.5698 -0.4084  0.2957
11743SOL    HW146883   4.571   0.586   6.423 -2.9343  0.2204 -1.0049
11743SOL    HW246884   4.508   0.481   6.531 -2.3445 -0.0416 -0.9179
11744SOL     OW46885   6.866   5.630   0.229 -0.0447 -0.0306  0.4561
11744SOL    HW146886   6.923   5.616   0.310 -0.3834 -0.4671  0.6168
11744SOL    HW246887   6.850   5.543   0.184  1.5837  0.4185 -1.0593
11745SOL     OW46888   3.251   4.764   6.071  0.4571  0.1809 -0.4176
11745SOL    HW146889   3.345   4.797   6.083  0.0416  1.0139  0.6697
11745SOL    HW246890   3.192   4.842   6.050  0.1753 -0.4843 -2.1665
11746SOL     OW46891   9.813   6.906   7.081 -0.3671 -0.0448  0.3440
11746SOL    HW146892   9.737   6.938   7.025 -0.5136  0.5739  0.8937
11746SOL    HW246893   9.899   6.932   7.037 -0.4649 -0.7731 -0.2940
11747SOL     OW46894   9.037   0.608   4.446 -0.3107  0.4957 -0.3719
11747SOL    HW146895   9.024   0.706   4.454 -1.9139  0.5799 -3.1141
11747SOL    HW246896   9.132   0.584   4.467 -0.6843  2.1670  3.4553
11748SOL     OW46897   4.827   0.817   4.253 -0.4006 -0.6349  0.4259
11748SOL    HW146898   4.895   0.883   4.221 -0.2434 -0.7828  0.4582
11748SOL    HW246899   4.767   0.862   4.320 -0.4373 -0.4597  0.2772
11749SOL     OW46900   9.744   8.011   5.266 -0.3619  0.5321 -0.4363
11749SOL    HW146901   9.767   8.104   5.235 -0.3235  0.5382 -0.3884
11749SOL    HW246902   9.828   7.961   5.286 -0.3731  0.3909 -0.7404
11750SOL     OW46903   6.474   8.869   6.763 -0.0516 -0.9758  0.0688
11750SOL    HW146904   6.462   8.951   6.707  1.3796 -1.7086 -1.3894
11750SOL    HW246905   6.392   8.852   6.817 -0.5054  1.1916  0.1067
11751SOL     OW46906   9.828   3.358   7.311  0.5525  0.2808 -0.0088
11751SOL    HW146907   9.805   3.379   7.406  0.2947  3.0445 -0.6548
11751SOL    HW246908   9.837   3.259   7.300  1.5925  0.0032  3.1081
11752SOL     OW46909   4.030   6.778   2.504 -0.0211 -0.0133  0.1645
11752SOL    HW146910   4.058   6.870   2.528  1.0570 -0.1720 -0.4550
11752SOL    HW246911   4.111   6.721   2.487 -0.6921 -0.7777 -0.5424
11753SOL     OW46912   7.602   4.223   0.876  0.0469  0.4065 -0.5807
11753SOL    HW146913   7.576   4.245   0.782 -0.6028  2.2505  0.0093
11753SOL    HW246914   7.636   4.129   0.880 -2.2811 -0.5466 -2.2047
11754SOL     OW46915   0.682   8.944   4.935 -0.1346  0.7168 -0.3486
11754SOL    HW146916   0.689   8.846   4.913 -0.2355  0.5386  0.3861
11754SOL    HW246917   0.632   8.991   4.862  0.1761  0.2706 -0.8520
11755SOL     OW46918   0.748   1.477   2.955 -0.2909 -0.2021 -0.3383
11755SOL    HW146919   0.822   1.545   2.962  0.2005 -0.7214 -0.4489
11755SOL    HW246920   0.702   1.488   2.867 -0.7603  0.5413 -0.0038
11756SOL     OW46921   6.807   9.667   7.050  0.4228  0.0614 -0.4597
11756SOL    HW146922   6.725   9.712   7.015  0.9446  1.5481  0.1483
11756SOL    HW246923   6.823   9.581   7.001 -2.1765 -0.8647  0.2741
11757SOL     OW46924   0.235   7.272   0.909 -0.3110  0.1742  0.0638
11757SOL    HW146925   0.321   7.311   0.876 -0.9153  0.5800 -1.0602
11757SOL    HW246926   0.160   7.335   0.888 -0.8565 -0.0668  1.2529
11758SOL     OW46927   1.973   2.919   2.610  0.0182  0.2380 -0.1740
11758SOL    HW146928   1.909   2.977   2.560 -0.3771 -2.0955 -2.5164
11758SOL    HW246929   2.057   2.908   2.557 -0.0872 -1.6146  0.0120
11759SOL     OW46930   8.074   6.267   4.120  0.6194 -0.5839  0.2979
11759SOL    HW146931   8.160   6.280   4.169 -0.5259 -1.2365  2.5329
11759SOL    HW246932   8.026   6.188   4.157 -1.2242  0.1219 -0.5271
11760SOL     OW46933   0.161   7.186   0.235  0.2587 -0.0989  0.3671
11760SOL    HW146934   0.251   7.222   0.259 -1.0685  2.7230  1.2386
11760SOL    HW246935   0.135   7.219   0.144 -0.1454 -0.4406  0.3585
11761SOL     OW46936   9.766   8.801   7.430 -0.8053  0.2620  0.1770
11761SOL    HW146937   9.676   8.793   7.473 -0.4401 -1.7590  0.6346
11761SOL    HW246938   9.837   8.784   7.498 -0.0424  2.3660 -0.0670
11762SOL     OW46939   0.783   4.424   4.455 -0.1005 -0.1547  0.3402
11762SOL    HW146940   0.823   4.339   4.422  0.1360  0.1834 -0.2384
11762SOL    HW246941   0.739   4.407   4.544  0.0560 -0.8471  0.2909
11763SOL     OW46942   7.595   6.160   7.671 -0.2728 -0.2025  1.1094
11763SOL    HW146943   7.505   6.116   7.660 -0.6933  0.9675 -0.3850
11763SOL    HW246944   7.602   6.199   7.763 -1.1386 -0.6858  1.3850
11764SOL     OW46945   5.312   9.769   2.613  0.5222  0.0894 -0.5454
11764SOL    HW146946   5.222   9.761   2.570  0.7019  1.0990 -1.1320
11764SOL    HW246947   5.353   9.678   2.622 -0.3824 -0.3352 -0.6444
11765SOL     OW46948   8.199   2.711   1.756 -0.8333  0.0326  0.2478
11765SOL    HW146949   8.101   2.703   1.770 -0.9449 -1.3889 -1.2917
11765SOL    HW246950   8.217   2.771   1.678 -0.4123  1.5993  1.5159
11766SOL     OW46951   2.617   3.520   0.803  0.4336  0.5509  0.0447
11766SOL    HW146952   2.542   3.490   0.862 -0.3108  3.1294  0.4751
11766SOL    HW246953   2.700   3.532   0.858  0.4581  0.3256  0.0586
11767SOL     OW46954   1.245   4.709   2.159  0.0435 -0.0826  0.2874
11767SOL    HW146955   1.145   4.720   2.162  0.0410  0.2889 -0.8794
11767SOL    HW246956   1.274   4.647   2.232 -1.0139  0.0216  0.8036
11768SOL     OW46957   2.837   5.326   5.899  0.6423  0.3378  0.2945
11768SOL    HW146958   2.766   5.384   5.937  0.7980 -0.8146  2.4292
11768SOL    HW246959   2.927   5.361   5.927  0.7711 -0.2648  0.6455
11769SOL     OW46960   0.539   4.159   5.762  0.0667 -0.1286 -0.1934
11769SOL    HW146961   0.631   4.123   5.744 -0.4907 -1.7000  0.0533
11769SOL    HW246962   0.489   4.166   5.676  0.1445 -0.0163 -0.2302
11770SOL     OW46963   8.993   5.119   7.655 -0.1074 -0.0849 -0.2265
11770SOL    HW146964   8.988   5.023   7.683 -1.3123 -0.1717 -0.6882
11770SOL    HW246965   9.062   5.130   7.584  1.1377 -0.3229  0.9281
11771SOL     OW46966   5.404   1.692   0.557  0.3787  0.1106  0.1856
11771SOL    HW146967   5.420   1.720   0.462 -1.1144  1.3017  0.2509
11771SOL    HW246968   5.491   1.684   0.605  1.0514  1.1447 -0.8354
11772SOL     OW46969   0.210   4.456   6.457 -0.2490 -0.1811 -0.3599
11772SOL    HW146970   0.197   4.447   6.359 -1.0386  0.5050 -0.3217
11772SOL    HW246971   0.233   4.366   6.496 -1.9685 -0.8588 -0.8621
11773SOL     OW46972   0.367   1.904   5.156 -0.5374  0.4182 -0.1345
11773SOL    HW146973   0.301   1.854   5.099 -0.2523 -1.0982  0.8472
11773SOL    HW246974   0.408   1.842   5.223  0.6621  1.7212  0.3763
11774SOL     OW46975   4.562   0.536   3.563  0.7648 -0.1192 -0.3408
11774SOL    HW146976   4.552   0.616   3.622  4.0676  0.2820 -0.2039
11774SOL    HW246977   4.559   0.565   3.467 -1.8699 -0.4018 -0.3790
11775SOL     OW46978   3.520   2.640   6.209 -0.4972 -0.2844  0.7373
11775SOL    HW146979   3.589   2.585   6.162 -1.8019  1.0846 -2.8875
11775SOL    HW246980   3.459   2.579   6.261  0.8565 -1.8478  0.5224
11776SOL     OW46981   8.710   2.592   5.555 -0.1951  0.3062  0.7974
11776SOL    HW146982   8.622   2.620   5.595 -1.2460  1.1779 -2.0232
11776SOL    HW246983   8.729   2.646   5.474  3.0352  0.1688  1.3930
11777SOL     OW46984   1.133   0.671   6.455 -0.1442  0.3987  0.6275
11777SOL    HW146985   1.126   0.697   6.552 -0.0519  0.4232  0.6278
11777SOL    HW246986   1.205   0.725   6.411  0.1613  0.0220  0.6649
11778SOL     OW46987   7.310   9.922   4.428  0.2743 -0.2683 -0.4936
11778SOL    HW146988   7.330   9.877   4.515 -1.5532 -1.1866 -0.5309
11778SOL    HW246989   7.388   9.979   4.402  1.7274 -1.6693  0.6585
11779SOL     OW46990   2.869   6.274   4.183  0.1888  0.2852  0.3013
11779SOL    HW146991   2.771   6.284   4.198 -0.0103  0.1075 -0.8111
11779SOL    HW246992   2.919   6.331   4.248 -0.6965  2.0694 -0.5623
11780SOL     OW46993   1.726   6.066   0.548  0.0334  0.4443 -0.3586
11780SOL    HW146994   1.795   6.135   0.527  0.2467 -0.2056 -1.9569
11780SOL    HW246995   1.705   6.015   0.464  1.8872 -3.2254  1.2901
11781SOL     OW46996   7.758   3.146   5.215 -0.4857  0.6886  0.2180
11781SOL    HW146997   7.810   3.178   5.294 -0.3331  1.7613 -0.3146
11781SOL    HW246998   7.800   3.063   5.179  0.9646  1.6348 -0.3111
11782SOL     OW46999   1.888   9.500   6.050 -0.0493  0.0390 -0.2462
11782SOL    HW147000   1.888   9.485   6.149  0.8168  1.2484 -0.0571
11782SOL    HW247001   1.826   9.575   6.027 -0.7339 -0.6565 -0.6958
11783SOL     OW47002   7.452   0.075   5.209 -0.4603 -0.2040 -0.3763
11783SOL    HW147003   7.472   0.086   5.307  0.3605  0.0885 -0.5797
11783SOL    HW247004   7.359   0.040   5.199 -0.4037 -0.6460  0.5315
11784SOL     OW47005   4.942   9.490   4.369 -0.1368 -0.6688  0.5482
11784SOL    HW147006   4.874   9.440   4.421 -1.1519  0.0908 -0.0244
11784SOL    HW247007   5.030   9.443   4.374  0.1093  0.0115  3.9158
11785SOL     OW47008   0.737   0.812   3.037  0.2659 -0.0245  0.1644
11785SOL    HW147009   0.654   0.863   3.014 -0.1817 -0.9010 -0.1635
11785SOL    HW247010   0.795   0.869   3.096 -1.8858 -0.4545  2.8378
11786SOL     OW47011   8.770   2.189   2.154 -0.2519 -0.0144 -0.0107
11786SOL    HW147012   8.803   2.148   2.239 -0.9255 -0.6704 -0.0656
11786SOL    HW247013   8.702   2.260   2.176 -1.6138 -1.2855 -0.0646
11787SOL     OW47014   5.710   9.268   6.822  0.4197 -0.2851 -0.1965
11787SOL    HW147015   5.660   9.352   6.842  1.7541  0.0290  2.0250
11787SOL    HW247016   5.717   9.213   6.905 -1.2012 -3.0456 -1.8057
11788SOL     OW47017   2.197   9.052   2.776 -0.4397 -0.2674 -0.0655
11788SOL    HW147018   2.289   9.083   2.802 -0.8243  1.0831 -0.2628
11788SOL    HW247019   2.170   9.098   2.691 -1.4972 -0.2846  0.2643
11789SOL     OW47020   0.337   2.082   5.736 -0.0635  0.0477 -0.4910
11789SOL    HW147021   0.344   2.127   5.647 -1.1807  0.8517 -0.1890
11789SOL    HW247022   0.279   2.136   5.796  0.7266 -0.4675  0.7558
11790SOL     OW47023   8.838   9.524   6.766 -0.4931 -0.1883  0.0109
11790SOL    HW147024   8.937   9.511   6.761  0.1365  2.3640  3.6575
11790SOL    HW247025   8.805   9.558   6.678  1.7745 -1.4656 -1.3939
11791SOL     OW47026   6.399   1.089   4.668  0.3260 -0.4120  0.0722
11791SOL    HW147027   6.375   1.020   4.600 -0.1732 -0.6224  0.4600
11791SOL    HW247028   6.460   1.049   4.737  0.8039 -0.2076 -0.2221
11792SOL     OW47029   6.747   2.543   1.954  0.5648  0.6594 -0.0044
11792SOL    HW147030   6.827   2.490   1.929  0.3827  0.7494 -0.7813
11792SOL    HW247031   6.770   2.606   2.029  0.8237 -0.3809  0.8061
11793SOL     OW47032   8.509   5.789  10.050 -0.1736  0.3350  0.1141
11793SOL    HW147033   8.418   5.803  10.013  0.6008  0.4537 -1.8079
11793SOL    HW247034   8.551   5.878  10.071  0.3777  0.3878 -1.2002
11794SOL     OW47035   3.625   3.684   0.476  0.4002  0.0841  0.3220
11794SOL    HW147036   3.609   3.756   0.409  0.3655  0.3518  0.6185
11794SOL    HW247037   3.615   3.594   0.433  1.2156  0.2545 -0.2381
11795SOL     OW47038   4.752   5.793   2.177 -0.0861  0.3802  0.1120
11795SOL    HW147039   4.846   5.762   2.186  0.2023  0.7685 -1.4761
11795SOL    HW247040   4.690   5.716   2.196  0.5589 -0.0879  0.3298
11796SOL     OW47041   2.255   0.310   7.015 -0.5483 -0.4962  0.4284
11796SOL    HW147042   2.205   0.380   6.964 -0.0087 -1.3014 -1.2077
11796SOL    HW247043   2.338   0.284   6.965 -0.3685 -1.8003  1.3765
11797SOL     OW47044   1.145   9.585   6.648  1.0568  0.0050  0.2683
11797SOL    HW147045   1.224   9.535   6.684  1.0035  0.2530  0.7416
11797SOL    HW247046   1.174   9.652   6.581  1.2847  0.3565  0.7226
11798SOL     OW47047   5.116   0.963   1.112  0.0783 -0.1193 -0.0387
11798SOL    HW147048   5.057   0.930   1.186  1.7761 -0.5475  1.1568
11798SOL    HW247049   5.072   0.946   1.024 -1.3260 -0.9214  0.8017
11799SOL     OW47050   9.829   7.384   5.770 -0.1052  0.4510  0.3833
11799SOL    HW147051   9.906   7.403   5.830  0.2297  2.2080 -0.5869
11799SOL    HW247052   9.853   7.310   5.708  0.8192  1.0229  0.0515
11800SOL     OW47053   3.317   1.364   1.028 -0.5386 -0.0836 -0.0348
11800SOL    HW147054   3.392   1.299   1.021  0.2018  0.7754 -0.0970
11800SOL    HW247055   3.241   1.321   1.078 -1.3766 -2.1630 -2.9739
11801SOL     OW47056   9.000   5.359   2.264  0.8689  0.0595 -0.0469
11801SOL    HW147057   8.986   5.263   2.241 -0.8928  0.4066 -0.4963
11801SOL    HW247058   8.962   5.417   2.192  0.4496  1.0968  0.9726
11802SOL     OW47059   0.636   6.121   5.043  0.0744 -0.8700  0.1542
11802SOL    HW147060   0.612   6.090   4.951  0.0355 -1.5563  0.3943
11802SOL    HW247061   0.648   6.220   5.043 -1.8478 -0.6196 -0.1820
11803SOL     OW47062   1.959   4.778   6.520 -0.2407  0.1031  0.3894
11803SOL    HW147063   2.050   4.743   6.496 -0.6267 -0.7422  0.1356
11803SOL    HW247064   1.965   4.877   6.538  0.7443  0.0319  0.4951
11804SOL     OW47065   4.753   6.465   2.585  0.1580 -0.2468 -0.0668
11804SOL    HW147066   4.813   6.412   2.645  0.7233 -0.6614 -0.9906
11804SOL    HW247067   4.681   6.404   2.549 -0.5996  0.1603  0.7408
11805SOL     OW47068   4.953   0.624   5.573  0.0502 -0.2825 -0.1294
11805SOL    HW147069   4.946   0.647   5.476 -2.0358  1.3331  0.3604
11805SOL    HW247070   4.988   0.703   5.623  0.4823 -0.8947  0.5467
11806SOL     OW47071   8.892   0.412   2.577 -0.6994  0.3598 -0.3641
11806SOL    HW147072   8.868   0.321   2.544  0.1142  0.8722 -2.4689
11806SOL    HW247073   8.967   0.405   2.643 -0.9761 -0.5349 -0.1429
11807SOL     OW47074   1.865   5.800   0.018  0.3947  0.3237 -0.2738
11807SOL    HW147075   1.838   5.893  -0.006 -0.2121 -0.0300 -0.9720
11807SOL    HW247076   1.963   5.789   0.004  0.6072  1.0833  0.5554
11808SOL     OW47077   4.589   1.341   1.971  0.2290  0.0543 -0.0873
11808SOL    HW147078   4.647   1.308   1.897  0.0351  0.7991 -0.5776
11808SOL    HW247079   4.586   1.441   1.970 -1.1582  0.0328 -0.1646
11809SOL     OW47080   2.630   1.593   4.112 -0.2532  0.6687 -0.2400
11809SOL    HW147081   2.721   1.569   4.145 -0.9668 -0.8919  0.6753
11809SOL    HW247082   2.607   1.685   4.143  1.0256  1.1025 -0.5378
11810SOL     OW47083   0.741   9.354   5.435  0.2850 -0.4500 -0.8020
11810SOL    HW147084   0.707   9.264   5.462 -0.9194  0.3881  0.5143
11810SOL    HW247085   0.838   9.362   5.460  0.2879 -1.2368 -0.5541
11811SOL     OW47086   8.936   5.034   4.302  0.1570 -0.4302  0.4904
11811SOL    HW147087   9.007   5.020   4.371  0.4042  0.0781  0.3426
11811SOL    HW247088   8.966   4.996   4.215  0.6854  0.6852  0.1726
11812SOL     OW47089   6.864   8.335   6.934 -0.4874  0.1449 -0.2794
11812SOL    HW147090   6.807   8.394   6.992 -0.6495  0.9531 -1.2424
11812SOL    HW247091   6.847   8.357   6.838 -0.2173 -1.1773 -0.6383
11813SOL     OW47092   3.104   3.501   1.941  0.6171  0.1519  0.4139
11813SOL    HW147093   3.152   3.414   1.928  0.3302  0.2947 -1.7792
11813SOL    HW247094   3.170   3.576   1.939  0.7596  0.0583  1.4158
11814SOL     OW47095   1.427   9.033   0.856 -0.4899 -0.2820 -0.2022
11814SOL    HW147096   1.516   8.997   0.885  0.1166  0.5977 -0.9708
11814SOL    HW247097   1.370   8.958   0.821  0.0685 -0.7918 -0.0169
11815SOL     OW47098   1.192   6.780   4.374 -0.2531 -0.1424  0.3558
11815SOL    HW147099   1.278   6.754   4.330 -0.1435 -0.9114  0.9948
11815SOL    HW247100   1.140   6.840   4.314  0.6033  0.1007 -0.1540
11816SOL     OW47101   7.948   8.584   7.556  0.8977  0.1540 -0.1227
11816SOL    HW147102   7.887   8.589   7.477  0.9716 -1.6187 -0.3102
11816SOL    HW247103   7.942   8.670   7.608  0.2569  1.0215 -1.5969
11817SOL     OW47104   1.745   6.717   0.518 -0.1067  0.4593 -0.2205
11817SOL    HW147105   1.698   6.786   0.572  1.8120  1.0094  0.7950
11817SOL    HW247106   1.747   6.745   0.422 -1.5148  0.5917 -0.2205
11818SOL     OW47107   5.417   7.775   2.874 -0.1465 -0.1540  0.1395
11818SOL    HW147108   5.348   7.842   2.901 -2.6219 -1.6939 -2.0903
11818SOL    HW247109   5.410   7.695   2.934 -0.0649 -0.1516  0.1509
11819SOL     OW47110   7.221   8.396   8.163 -0.3691 -0.1986 -0.1263
11819SOL    HW147111   7.182   8.375   8.253 -0.0224 -1.0876 -0.1807
11819SOL    HW247112   7.315   8.428   8.175 -0.6512  0.6457 -0.1017
11820SOL     OW47113   9.709   3.210   7.036 -0.0517 -0.0299 -0.0392
11820SOL    HW147114   9.744   3.185   7.126 -0.0019  0.7417  0.1598
11820SOL    HW247115   9.735   3.140   6.970 -1.0979 -1.1974  0.7633
11821SOL     OW47116   2.881   3.052   0.963 -0.0197 -0.0416  0.5317
11821SOL    HW147117   2.861   3.036   0.866  2.2190 -2.5186  0.4130
11821SOL    HW247118   2.976   3.082   0.973 -0.1200 -0.1797  1.9943
11822SOL     OW47119   1.001   3.265   1.015 -0.4358  0.1791 -0.0430
11822SOL    HW147120   0.953   3.265   1.103  0.6790  1.6895  0.5928
11822SOL    HW247121   1.089   3.311   1.026 -0.0684 -0.0660 -1.8548
11823SOL     OW47122   1.722   2.122   1.857  0.1954  0.3770  0.6685
11823SOL    HW147123   1.796   2.153   1.796  0.0101  2.3485  1.4188
11823SOL    HW247124   1.634   2.142   1.815  0.0606 -0.9819  0.2703
11824SOL     OW47125   1.015   3.155   5.488  0.3088  0.1690 -0.4357
11824SOL    HW147126   1.010   3.254   5.479  1.1769  0.1075 -1.7204
11824SOL    HW247127   0.931   3.121   5.531 -0.6949  1.2954 -1.4786
11825SOL     OW47128   7.987   8.345   3.774  0.1056 -0.3770  0.4491
11825SOL    HW147129   7.907   8.405   3.773  0.8425  0.6073  0.4693
11825SOL    HW247130   7.987   8.288   3.691  1.1822  2.0037 -1.2262
11826SOL     OW47131   7.073   9.285   7.889  0.1330 -0.2010 -0.2598
11826SOL    HW147132   6.989   9.282   7.834 -0.4905 -0.2925  0.6843
11826SOL    HW247133   7.078   9.203   7.946  1.1012 -0.4205 -0.6426
11827SOL     OW47134   3.238   0.657   1.956  0.7954 -0.0474 -0.1766
11827SOL    HW147135   3.335   0.665   1.931  1.7312  3.1508  4.0831
11827SOL    HW247136   3.186   0.730   1.913  0.8302  0.1376  0.0968
11828SOL     OW47137   6.723   2.588   4.703 -0.4733  0.1250 -1.4489
11828SOL    HW147138   6.730   2.679   4.663  0.0181  0.6826 -0.1272
11828SOL    HW247139   6.703   2.596   4.801  2.6639 -1.0960 -0.6358
11829SOL     OW47140   8.959   3.235   6.669  0.4872 -0.2243 -0.4723
11829SOL    HW147141   8.950   3.287   6.754 -0.3121  2.2622 -2.0241
11829SOL    HW247142   8.870   3.195   6.645  0.2907  0.5286 -1.0218
11830SOL     OW47143   8.668   6.473   4.415  0.5580 -0.5479 -0.1886
11830SOL    HW147144   8.610   6.439   4.489  1.6321 -0.8759  0.5221
11830SOL    HW247145   8.758   6.497   4.452  1.0433 -0.5264 -1.3519
11831SOL     OW47146   5.927   7.080   5.598  0.1592  0.0900  0.4756
11831SOL    HW147147   5.830   7.059   5.612 -0.0118  0.3108 -0.3835
11831SOL    HW247148   5.947   7.082   5.500  0.9299  0.5207  0.6399
11832SOL     OW47149   9.213   2.905   4.822  0.8505 -0.3180 -0.3691
11832SOL    HW147150   9.176   2.842   4.753 -0.5030  1.0646 -0.9473
11832SOL    HW247151   9.211   2.998   4.785  0.6441  0.3607  1.3322
11833SOL     OW47152   4.134   4.354   5.390  0.4306  0.7184 -0.3516
11833SOL    HW147153   4.046   4.401   5.390 -0.8522 -1.5916  0.8511
11833SOL    HW247154   4.147   4.306   5.303 -0.7546 -1.1746  0.5032
11834SOL     OW47155   4.678   8.974   8.122  0.3449 -0.0168  0.0898
11834SOL    HW147156   4.730   9.054   8.092 -0.5626  0.3209 -0.5956
11834SOL    HW247157   4.682   8.967   8.222 -2.3371  2.8584  0.4799
11835SOL     OW47158   2.764   6.571   3.611 -0.0204 -0.2617  0.0645
11835SOL    HW147159   2.713   6.535   3.689  0.4340  1.1432  1.0431
11835SOL    HW247160   2.711   6.645   3.568  0.7118  0.4963  0.4487
11836SOL     OW47161   7.943   5.882   2.775 -0.0575 -0.2074  0.1099
11836SOL    HW147162   7.859   5.918   2.815  0.6562  0.6039  0.9055
11836SOL    HW247163   7.969   5.936   2.696  0.9562  0.9897  1.2412
11837SOL     OW47164   1.449   2.749   9.782 -0.2147 -0.2558 -0.1868
11837SOL    HW147165   1.522   2.780   9.721 -0.5661 -0.4088 -0.6888
11837SOL    HW247166   1.479   2.667   9.831  0.1109 -0.0663 -0.0638
11838SOL     OW47167   1.783   6.485   5.466  0.2320  0.1548 -0.1150
11838SOL    HW147168   1.825   6.576   5.470 -2.7028  1.5224  1.0629
11838SOL    HW247169   1.733   6.467   5.551 -2.4396 -0.9401 -1.8478
11839SOL     OW47170   2.755   4.798   4.902 -0.5313 -0.2670 -0.1509
11839SOL    HW147171   2.826   4.862   4.874  0.3707 -1.6724 -1.1414
11839SOL    HW247172   2.690   4.845   4.962  0.0740  1.5693 -0.8899
11840SOL     OW47173   8.579   4.821   4.126 -0.1287  0.0820 -0.0361
11840SOL    HW147174   8.496   4.777   4.093 -0.9845  1.1557  0.6619
11840SOL    HW247175   8.645   4.752   4.154 -0.7666 -0.7780 -0.6412
11841SOL     OW47176   6.225   7.148   5.418 -0.2606 -0.6392  0.1211
11841SOL    HW147177   6.182   7.195   5.341  2.6284  1.6744 -0.1824
11841SOL    HW247178   6.263   7.061   5.387  0.5077  0.0821 -1.0120
11842SOL     OW47179   7.685   9.312   4.147  0.6794 -0.4932 -0.0108
11842SOL    HW147180   7.680   9.405   4.183  0.5059 -0.4434 -0.1594
11842SOL    HW247181   7.623   9.253   4.198  0.4939 -0.4406 -0.1780
11843SOL     OW47182   9.329   4.570   2.067  0.3233  0.2860  0.3574
11843SOL    HW147183   9.296   4.480   2.037 -0.0901  1.2291 -2.0452
11843SOL    HW247184   9.427   4.578   2.050  0.1342  0.7348 -0.5130
11844SOL     OW47185   7.786   5.201   0.885  0.5160  0.1092 -0.5537
11844SOL    HW147186   7.748   5.275   0.940  0.8727  0.2839 -0.5439
11844SOL    HW247187   7.884   5.195   0.900  0.3302 -1.0675  0.2826
11845SOL     OW47188   7.162   6.345   6.498 -0.1856 -0.1174 -0.0357
11845SOL    HW147189   7.138   6.435   6.463  0.4132  0.2935  0.5956
11845SOL    HW247190   7.158   6.278   6.424  1.2475  0.7703 -0.9507
11846SOL     OW47191   8.446   5.935   7.590  0.5242 -0.5943  0.2510
11846SOL    HW147192   8.509   5.975   7.524 -1.4257  2.5167  0.1723
11846SOL    HW247193   8.395   5.860   7.547  1.4913 -0.6674 -0.7951
11847SOL     OW47194   3.073   9.771   6.829  0.1352  0.0503 -0.0054
11847SOL    HW147195   3.127   9.687   6.827 -0.2843 -0.2004 -1.2268
11847SOL    HW247196   3.108   9.832   6.900  0.4967 -1.1169  0.8174
11848SOL     OW47197   5.908   9.088   4.030  0.2724  0.1936  0.3003
11848SOL    HW147198   5.897   8.991   4.053  1.8280 -0.1272 -0.2613
11848SOL    HW247199   5.847   9.110   3.953  0.1428 -0.4213  0.2211
11849SOL     OW47200   0.158   3.370   0.417 -0.9834 -0.0496  0.1611
11849SOL    HW147201   0.150   3.271   0.403 -1.5185  0.0875 -0.4954
11849SOL    HW247202   0.126   3.418   0.336 -0.4586  0.6625  0.3678
11850SOL     OW47203   3.664   8.645   3.088 -0.3301 -0.1567 -0.1274
11850SOL    HW147204   3.730   8.638   3.013 -0.0134  1.1011  0.0199
11850SOL    HW247205   3.586   8.701   3.059  0.0222  0.7426  0.6306
11851SOL     OW47206   3.889   6.804   3.579 -0.2288 -0.1154  0.9745
11851SOL    HW147207   3.895   6.759   3.490  0.7799 -1.4854  1.7246
11851SOL    HW247208   3.816   6.872   3.577  0.2922  0.4140 -1.1401
11852SOL     OW47209   0.898   0.278   0.639 -0.4559  0.4441 -0.0473
11852SOL    HW147210   0.819   0.307   0.585  1.2621  1.2183 -2.2112
11852SOL    HW247211   0.912   0.342   0.714 -1.3257  0.8053 -0.1869
11853SOL     OW47212   4.618   9.725   4.784  0.0383  0.7170  0.1231
11853SOL    HW147213   4.711   9.696   4.760 -0.2510 -0.4347  0.3731
11853SOL    HW247214   4.578   9.775   4.708  0.2851 -0.1547 -0.5823
11854SOL     OW47215   1.021   1.316   7.211 -0.3762  0.5343 -0.3820
11854SOL    HW147216   0.987   1.242   7.268  0.4883  0.6048  0.2421
11854SOL    HW247217   1.086   1.280   7.144  1.2501  0.9281  0.9478
11855SOL     OW47218   3.991   5.281   0.090 -0.2327  0.1523  0.2881
11855SOL    HW147219   3.988   5.188   0.055 -0.2225 -0.1258  1.0156
11855SOL    HW247220   3.903   5.304   0.132 -0.0042  0.2112  0.7457
11856SOL     OW47221   9.331   6.145   0.611 -0.5691 -0.3185  0.1991
11856SOL    HW147222   9.422   6.148   0.570 -0.2353 -0.3099  0.9324
11856SOL    HW247223   9.276   6.222   0.578 -0.6580 -0.9061 -1.0457
11857SOL     OW47224   8.507   1.350   7.106  0.0050  0.2667  0.0194
11857SOL    HW147225   8.418   1.381   7.140 -0.6777 -1.6820  0.0929
11857SOL    HW247226   8.554   1.426   7.061 -1.0389  1.7136  1.2894
11858SOL     OW47227   0.880   9.199   0.492 -0.0664  0.1041  0.3049
11858SOL    HW147228   0.862   9.228   0.586 -1.6746  0.6145 -0.1413
11858SOL    HW247229   0.817   9.125   0.468 -0.0883  0.4121 -0.5817
11859SOL     OW47230   2.903   2.691   3.294  0.0932  0.0720 -0.5947
11859SOL    HW147231   2.873   2.786   3.303  1.0663  0.3062  0.1820
11859SOL    HW247232   2.930   2.655   3.384  4.1007  0.5201 -1.5184
11860SOL     OW47233   1.927   6.069   3.190  0.0574  0.8674 -0.1453
11860SOL    HW147234   1.857   6.060   3.119 -0.5537 -0.1112  0.5621
11860SOL    HW247235   2.018   6.068   3.148 -0.3200  0.9866 -0.9763
11861SOL     OW47236   6.751   3.733   0.511  0.2898  0.2490  0.8643
11861SOL    HW147237   6.704   3.705   0.427  0.1355  0.2309  0.9550
11861SOL    HW247238   6.773   3.652   0.565  1.0106  0.2152  0.5136
11862SOL     OW47239   2.380   5.238   1.409  0.5047 -0.3647  0.4864
11862SOL    HW147240   2.464   5.198   1.448  0.1170 -1.1071  0.5720
11862SOL    HW247241   2.310   5.245   1.480  0.1434 -0.7400  0.1701
11863SOL     OW47242   0.867   5.045   3.941 -0.1927  0.1331 -0.1061
11863SOL    HW147243   0.901   5.018   3.851 -0.3004  1.6206 -0.6178
11863SOL    HW247244   0.892   5.141   3.958 -1.0851  0.1764  1.0042
11864SOL     OW47245   3.515   6.383   0.255  0.4351 -0.5238  0.5064
11864SOL    HW147246   3.481   6.402   0.347 -1.1293  0.9207 -0.3409
11864SOL    HW247247   3.532   6.469   0.207 -0.5493 -1.2597 -1.1965
11865SOL     OW47248   8.496   9.748   1.333  0.3118 -0.0544 -0.5942
11865SOL    HW147249   8.519   9.840   1.362 -2.2567  0.1244  0.9222
11865SOL    HW247250   8.406   9.722   1.367  0.5732 -2.7852 -1.7802
11866SOL     OW47251   2.015   8.657   0.801 -0.1932  0.1086 -0.4604
11866SOL    HW147252   2.074   8.641   0.722 -1.1629 -0.2232 -1.1183
11866SOL    HW247253   2.018   8.754   0.827 -1.4949  0.6344 -2.2020
11867SOL     OW47254   0.621   6.052   0.573  0.0236  0.6168  0.1403
11867SOL    HW147255   0.629   6.084   0.668  0.1131 -0.1983  0.4175
11867SOL    HW247256   0.534   6.003   0.562 -0.1311  0.9854 -0.2836
11868SOL     OW47257   1.621   3.449   1.044 -0.1805 -0.7720 -0.2123
11868SOL    HW147258   1.556   3.430   1.117 -1.8724  2.5108 -0.8123
11868SOL    HW247259   1.573   3.474   0.961  1.8207 -0.2792 -1.2680
11869SOL     OW47260   3.631   7.416   2.747 -0.0767 -0.7086  0.0307
11869SOL    HW147261   3.602   7.342   2.686 -0.0055 -0.5421 -0.2091
11869SOL    HW247262   3.730   7.412   2.761 -0.2762 -1.5901  1.2695
11870SOL     OW47263   8.270   1.547   3.679 -1.0409 -0.0603  0.1114
11870SOL    HW147264   8.242   1.639   3.704 -1.3560  0.2482 -1.3554
11870SOL    HW247265   8.227   1.520   3.593  1.9165 -0.1416 -1.4271
11871SOL     OW47266   6.336   0.005   4.583 -0.4004 -0.2214  0.4679
11871SOL    HW147267   6.311   0.098   4.608 -0.7873  0.0173 -0.7543
11871SOL    HW247268   6.435  -0.003   4.581 -0.3448  0.5880 -0.8679
11872SOL     OW47269   7.029   0.646   0.252 -0.3234  0.1463  0.7662
11872SOL    HW147270   7.078   0.610   0.331  1.2512 -0.2833 -0.3910
11872SOL    HW247271   6.935   0.611   0.252  0.6356 -2.5529  0.6595
11873SOL     OW47272   9.674   9.876   2.492 -0.3524 -0.0536  0.2764
11873SOL    HW147273   9.769   9.875   2.461 -0.3087 -1.1281  0.4465
11873SOL    HW247274   9.620   9.934   2.430  0.4675  0.8035  0.3590
11874SOL     OW47275   4.666   1.324   1.274 -0.3894 -0.2107  0.0513
11874SOL    HW147276   4.739   1.357   1.214 -1.2762 -2.2302 -2.2610
11874SOL    HW247277   4.674   1.225   1.284 -1.9823 -0.2641  0.9230
11875SOL     OW47278   7.151   0.523   0.463  0.0986 -0.0418 -0.1677
11875SOL    HW147279   7.214   0.449   0.439 -0.5845 -0.0388 -2.0269
11875SOL    HW247280   7.195   0.585   0.528  0.5729 -2.2341  1.6676
11876SOL     OW47281   4.604   2.245   1.132 -0.3971  0.1433 -0.1569
11876SOL    HW147282   4.532   2.314   1.118  0.7580  1.3703 -0.2076
11876SOL    HW247283   4.601   2.179   1.057 -1.9556 -0.2627  0.2431
11877SOL     OW47284   0.282   1.892   1.011 -0.0762  0.1890 -0.1133
11877SOL    HW147285   0.274   1.859   0.917  0.0848 -0.7436  0.1952
11877SOL    HW247286   0.270   1.991   1.012  2.3342  0.5457 -1.4553
11878SOL     OW47287   9.833   2.350   1.132  0.1571  0.0611 -0.1683
11878SOL    HW147288   9.886   2.435   1.130  0.3455  0.0201  1.9905
11878SOL    HW247289   9.887   2.276   1.093  0.3335  0.7389 -1.2280
11879SOL     OW47290   7.805   6.531   5.413 -0.5277  0.1235  0.1777
11879SOL    HW147291   7.782   6.452   5.357  0.9552 -1.0823  1.2228
11879SOL    HW247292   7.726   6.559   5.468 -1.0658 -0.6039 -0.2378
11880SOL     OW47293   9.638   7.947   7.877 -0.0442 -0.0889  0.2141
11880SOL    HW147294   9.725   7.908   7.905 -1.0945 -1.8671  1.1048
11880SOL    HW247295   9.653   8.033   7.829  1.9972  1.6346  3.7802
11881SOL     OW47296   3.658   9.477   3.368 -0.5659 -0.2613 -0.1094
11881SOL    HW147297   3.602   9.424   3.431 -0.3157 -0.0355  0.3078
11881SOL    HW247298   3.747   9.496   3.411  0.2078 -1.4577 -1.1349
11882SOL     OW47299   0.344   7.675   3.946  0.1175  0.2021 -0.8506
11882SOL    HW147300   0.436   7.679   3.907 -0.0679  0.6725 -1.2406
11882SOL    HW247301   0.278   7.653   3.874 -0.2568  1.2790 -0.8468
11883SOL     OW47302   9.776   5.832   3.105  0.8796  0.4520 -0.8863
11883SOL    HW147303   9.830   5.749   3.099  1.1805  0.5473  0.3298
11883SOL    HW247304   9.762   5.856   3.201  0.8485  1.8360 -1.2229
11884SOL     OW47305   0.152   2.594   3.482 -0.4325 -0.0221  0.5048
11884SOL    HW147306   0.119   2.520   3.424  0.3276  0.6805 -0.8302
11884SOL    HW247307   0.157   2.679   3.430 -0.2668  0.7486  1.7352
11885SOL     OW47308   9.064   3.654   2.897  0.4262  0.4809  0.7739
11885SOL    HW147309   9.126   3.576   2.909  1.8826  1.4922  0.0202
11885SOL    HW247310   9.092   3.728   2.959 -0.9907  0.3890  1.5424
11886SOL     OW47311   9.376   0.724   6.939  0.0768  0.1348 -0.0442
11886SOL    HW147312   9.451   0.692   6.881  0.2799  1.2412 -0.4072
11886SOL    HW247313   9.338   0.809   6.901 -1.1283 -0.2254  0.3288
11887SOL     OW47314   2.688   5.414   1.174 -0.0641  0.3783 -0.0146
11887SOL    HW147315   2.727   5.333   1.129  0.8554  1.4016 -1.1049
11887SOL    HW247316   2.594   5.427   1.144 -0.7416 -1.1803  1.3767
11888SOL     OW47317   8.673   1.636   1.600  0.0091  0.4216  0.0717
11888SOL    HW147318   8.693   1.692   1.519 -0.5806  0.5013 -0.0218
11888SOL    HW247319   8.584   1.591   1.588  0.1609  0.0138  0.4481
11889SOL     OW47320   0.832   0.043   0.246  0.0150  0.0389 -0.1986
11889SOL    HW147321   0.842   0.119   0.181  0.1227 -0.3586 -0.6455
11889SOL    HW247322   0.759  -0.018   0.215 -0.9368  0.6357  0.8194
11890SOL     OW47323   0.632   5.171   0.129 -0.0779 -0.2131  0.0334
11890SOL    HW147324   0.632   5.106   0.205  1.2770  0.3266  0.5161
11890SOL    HW247325   0.671   5.258   0.160 -2.1071  0.9421 -0.5234
11891SOL     OW47326   2.292   6.693   0.958 -0.4037  0.1656 -0.2075
11891SOL    HW147327   2.350   6.627   0.910 -0.1232 -0.3709  0.8364
11891SOL    HW247328   2.310   6.688   1.056 -1.2530  0.9532  0.0042
11892SOL     OW47329   9.836   1.303   0.393  0.2290 -0.8934 -0.0515
11892SOL    HW147330   9.913   1.289   0.455  1.3537 -2.8744 -1.8373
11892SOL    HW247331   9.858   1.377   0.329 -0.4379  0.3105  1.0777
11893SOL     OW47332   3.810   7.684   1.917  0.7282 -0.5320  0.0661
11893SOL    HW147333   3.885   7.723   1.863  2.4627 -1.9347  1.3939
11893SOL    HW247334   3.814   7.720   2.010 -1.8285  1.3393 -0.4905
11894SOL     OW47335   0.274   5.691   2.536 -0.1966 -0.0865 -0.4641
11894SOL    HW147336   0.248   5.600   2.503 -0.2606  0.4703 -2.0208
11894SOL    HW247337   0.239   5.760   2.472 -1.0464  1.1019  1.2481
11895SOL     OW47338   0.612   5.548   7.668  0.4580  0.2015 -0.2759
11895SOL    HW147339   0.641   5.458   7.703  1.4766  0.2616 -0.9279
11895SOL    HW247340   0.584   5.606   7.744  1.8550  0.0503  0.3727
11896SOL     OW47341   3.937   1.355   0.041  0.9480  0.7573  0.4854
11896SOL    HW147342   3.990   1.303   0.108  1.3553  0.5013 -0.0291
11896SOL    HW247343   3.877   1.293  -0.009  0.8814  0.8966  0.3942
11897SOL     OW47344   1.138   5.408   7.785  0.4527 -0.5896  0.1479
11897SOL    HW147345   1.228   5.391   7.745  0.1949 -1.0922 -0.2248
11897SOL    HW247346   1.088   5.472   7.728  0.2078 -1.0586 -0.1706
11898SOL     OW47347   0.946   9.003   0.995  0.1680  0.2678 -0.6101
11898SOL    HW147348   0.854   8.978   0.965  0.1795  1.0490 -1.3092
11898SOL    HW247349   0.945   9.095   1.032  0.7929  0.5109 -1.1887
11899SOL     OW47350   6.406   9.641   1.959 -0.0716  0.4758 -0.0178
11899SOL    HW147351   6.482   9.692   1.919 -0.5296  0.6937 -0.6152
11899SOL    HW247352   6.320   9.685   1.934 -0.3488  0.8735  1.5614
11900SOL     OW47353   0.077   9.213   3.829  0.7288 -0.4100  0.2067
11900SOL    HW147354   0.037   9.301   3.852  0.9788 -0.2643  0.0899
11900SOL    HW247355   0.163   9.227   3.779  0.0138 -0.7121 -1.1304
11901SOL     OW47356   2.305   3.131   3.344  0.3036 -0.0271 -0.3565
11901SOL    HW147357   2.301   3.171   3.435  0.7265 -1.1562  0.1707
11901SOL    HW247358   2.399   3.135   3.310 -0.1589  1.9760 -1.4870
11902SOL     OW47359   7.656   2.053   2.811 -0.0522 -0.4783 -0.8057
11902SOL    HW147360   7.566   2.009   2.803 -0.0319 -0.4476 -1.1889
11902SOL    HW247361   7.708   2.039   2.727  0.6061 -1.1656 -0.2966
11903SOL     OW47362   7.477   9.317   2.926  0.0887  0.8113  0.4927
11903SOL    HW147363   7.538   9.301   3.005  0.5410  0.9872  0.1819
11903SOL    HW247364   7.398   9.256   2.933  0.7405 -0.0478  0.4405
11904SOL     OW47365   1.535   5.714   4.577  0.4004 -0.0982  0.2566
11904SOL    HW147366   1.438   5.689   4.575  0.5441 -0.6161 -0.5459
11904SOL    HW247367   1.561   5.752   4.488  1.4848 -2.1168 -0.3200
11905SOL     OW47368   4.146   4.160   5.733 -0.8172 -0.5738  0.2222
11905SOL    HW147369   4.122   4.105   5.653 -0.1861  0.6222 -0.8202
11905SOL    HW247370   4.066   4.212   5.763 -1.1451 -1.2820  0.5913
11906SOL     OW47371   8.680   3.805   4.754 -0.5158 -0.1064  0.1150
11906SOL    HW147372   8.597   3.861   4.751  0.4354  1.3466  0.3668
11906SOL    HW247373   8.667   3.729   4.816 -1.0620  1.1026  1.5016
11907SOL     OW47374   3.496   2.774   7.450  0.4469 -0.1616 -0.4586
11907SOL    HW147375   3.497   2.848   7.517  0.8524 -0.3334 -0.2730
11907SOL    HW247376   3.426   2.707   7.474  1.6245 -1.0136  0.6580
11908SOL     OW47377   1.222   6.308   4.058 -0.0222 -0.1196 -0.1499
11908SOL    HW147378   1.146   6.332   4.118  1.7676  3.9961  0.6691
11908SOL    HW247379   1.308   6.323   4.107  1.4212  0.4233 -2.7883
11909SOL     OW47380   1.370   7.095   7.022  0.2162  0.5344  0.0344
11909SOL    HW147381   1.459   7.065   7.056 -0.4741 -0.0285  1.4059
11909SOL    HW247382   1.319   7.139   7.096 -0.6832  0.7656 -0.7088
11910SOL     OW47383   7.285   7.561   5.035 -0.2638 -0.0422 -0.1711
11910SOL    HW147384   7.189   7.586   5.031 -0.6000 -1.3423 -0.6519
11910SOL    HW247385   7.338   7.621   4.975 -1.2447 -1.2735 -2.3630
11911SOL     OW47386   1.046   2.037   2.642 -0.6220  0.1159 -0.7503
11911SOL    HW147387   0.975   2.078   2.699  1.2855  0.7051  1.2765
11911SOL    HW247388   1.056   1.940   2.665  1.3144  0.7321  1.2366
11912SOL     OW47389   9.773   4.305   6.770  0.1451 -0.2305 -0.2728
11912SOL    HW147390   9.860   4.293   6.723 -0.6070 -0.6413 -1.5932
11912SOL    HW247391   9.749   4.402   6.772  0.8839 -0.0547  0.5856
11913SOL     OW47392   9.739   7.417   4.781 -0.4973 -0.4805 -0.2849
11913SOL    HW147393   9.810   7.426   4.851  0.1131  0.9693 -1.0762
11913SOL    HW247394   9.781   7.401   4.692 -1.0931  1.5593 -0.9558
11914SOL     OW47395   7.319   4.975   1.824  0.0625 -0.0242 -0.3288
11914SOL    HW147396   7.301   5.073   1.820 -0.1250 -0.1008 -1.4373
11914SOL    HW247397   7.386   4.951   1.753  0.0395 -0.7170 -0.1179
11915SOL     OW47398   3.814   8.422   5.923  0.0873 -0.1021 -0.4605
11915SOL    HW147399   3.724   8.465   5.926 -0.4578 -1.1925 -1.0180
11915SOL    HW247400   3.884   8.492   5.905 -0.7511  0.5854 -1.0983
11916SOL     OW47401   9.746   0.009   6.935  0.3204  0.1006 -0.4343
11916SOL    HW147402   9.720   0.030   7.029  0.8856 -1.9819  0.2167
11916SOL    HW247403   9.681  -0.057   6.896  2.8726 -3.0029  0.2783
11917SOL     OW47404   8.166   8.326   3.342  0.4286  0.0530 -0.1740
11917SOL    HW147405   8.230   8.359   3.272 -0.3421  2.1412  0.0691
11917SOL    HW247406   8.098   8.396   3.360 -2.0523 -2.1843 -0.5302
11918SOL     OW47407   0.141   2.111   4.015 -0.1352  0.0361 -0.0966
11918SOL    HW147408   0.189   2.169   3.949 -0.5822  0.3292 -0.1673
11918SOL    HW247409   0.089   2.169   4.078  0.8066 -0.2070  0.9285
11919SOL     OW47410   7.182   4.495   3.109 -0.2402  0.5146  0.0630
11919SOL    HW147411   7.247   4.507   3.034  0.8263  0.2477  0.9363
11919SOL    HW247412   7.109   4.563   3.100  0.9272  1.7687 -0.1104
11920SOL     OW47413   7.682   7.619   6.000 -0.3382  0.4950  0.4224
11920SOL    HW147414   7.655   7.578   5.913 -0.8899  0.3417  0.6635
11920SOL    HW247415   7.730   7.551   6.055 -0.7886  0.3282  0.6083
11921SOL     OW47416   2.066   4.781   4.289  0.7000  0.4386 -0.0773
11921SOL    HW147417   2.105   4.695   4.324  1.5245  0.5497 -0.7188
11921SOL    HW247418   1.976   4.795   4.330 -1.1203 -2.6412 -2.7841
11922SOL     OW47419   9.784   0.651   3.346  0.0878  0.2929  0.3805
11922SOL    HW147420   9.800   0.708   3.266  0.3008  1.0070  0.9228
11922SOL    HW247421   9.755   0.560   3.317 -2.6733  1.3852 -0.4750
11923SOL     OW47422   0.407   4.431   3.442 -0.3959  0.1482 -0.0368
11923SOL    HW147423   0.382   4.367   3.515 -2.6588  0.7918 -0.2179
11923SOL    HW247424   0.461   4.506   3.481 -1.6209  0.5085  1.0006
11924SOL     OW47425   7.422   6.388   2.627  0.0619  0.2411  0.1392
11924SOL    HW147426   7.349   6.379   2.559  0.2814  2.1344 -0.3556
11924SOL    HW247427   7.465   6.478   2.620  1.8564 -0.5075  1.0344
11925SOL     OW47428   8.252   7.582   6.187 -0.0700  0.2133 -0.4544
11925SOL    HW147429   8.346   7.611   6.174  0.2536  0.3449  1.9050
11925SOL    HW247430   8.246   7.482   6.178  0.7580 -0.0589  1.6051
11926SOL     OW47431   7.941   9.572   1.969 -0.2151  0.3300 -0.5108
11926SOL    HW147432   8.032   9.588   2.009 -1.0614 -0.5725  1.8221
11926SOL    HW247433   7.906   9.658   1.932  0.6149  1.1813  0.6397
11927SOL     OW47434   0.478   7.002   6.363 -0.1096  0.5278 -1.0690
11927SOL    HW147435   0.460   6.904   6.353  0.4677  0.2938  0.0706
11927SOL    HW247436   0.400   7.046   6.407  0.7366  0.0730  0.9585
11928SOL     OW47437   4.224   6.115   1.208  0.1565  0.7934  0.1677
11928SOL    HW147438   4.154   6.069   1.153 -0.1778 -2.7852  3.3058
11928SOL    HW247439   4.298   6.051   1.229  1.5286  2.7930  1.6652
11929SOL     OW47440   9.289   8.593   3.613 -0.4949  0.2112 -0.0296
11929SOL    HW147441   9.370   8.534   3.618 -1.0975 -0.6483 -0.2137
11929SOL    HW247442   9.290   8.657   3.690  0.9242  0.9530 -0.6563
11930SOL     OW47443   2.388   2.647   2.438  0.8297 -0.3879  0.3056
11930SOL    HW147444   2.475   2.686   2.406  0.0248  0.5365 -0.7943
11930SOL    HW247445   2.374   2.672   2.534  0.2811  2.2047 -0.4020
11931SOL     OW47446   6.552   0.098   7.083  0.0425  0.2087 -0.8120
11931SOL    HW147447   6.488   0.129   7.014 -1.1381 -1.1871 -0.3696
11931SOL    HW247448   6.546   0.157   7.164  1.2776  1.7128 -1.7822
11932SOL     OW47449   1.825   6.330   7.394 -0.7162  0.4778 -0.0599
11932SOL    HW147450   1.915   6.359   7.364 -0.3062  0.6929  1.3478
11932SOL    HW247451   1.831   6.239   7.437 -1.2881  0.1813 -0.5870
11933SOL     OW47452   9.272   2.270   4.472  0.8582  0.2116 -0.4069
11933SOL    HW147453   9.282   2.336   4.547  0.3243  0.6506 -0.7266
11933SOL    HW247454   9.219   2.310   4.398  0.5634 -0.5594 -0.6244
11934SOL     OW47455   1.958   1.412   5.717  0.0550 -0.2475  0.2002
11934SOL    HW147456   1.890   1.482   5.736  0.1369  0.0772 -0.6909
11934SOL    HW247457   2.034   1.422   5.781  1.8132  2.8551 -2.2179
11935SOL     OW47458   6.482   1.343   2.606  0.1128  0.2796 -0.5132
11935SOL    HW147459   6.395   1.392   2.605  0.0146  0.1193  0.4670
11935SOL    HW247460   6.497   1.300   2.517 -1.2228 -0.4238 -0.4068
11936SOL     OW47461   8.436   0.025   1.708  0.7721  0.2826 -0.6269
11936SOL    HW147462   8.488  -0.058   1.688 -0.5855 -0.6100 -0.5803
11936SOL    HW247463   8.497   0.096   1.740  2.0737 -0.4437 -1.4660
11937SOL     OW47464   3.065   1.388   6.790 -0.1845  0.1621  0.3510
11937SOL    HW147465   3.063   1.479   6.748 -0.8300 -0.2152 -0.4203
11937SOL    HW247466   3.160   1.359   6.800 -0.0359  0.1910 -0.9647
11938SOL     OW47467   3.849   5.062   5.204 -1.4075  0.2611 -0.4142
11938SOL    HW147468   3.798   5.146   5.220  0.0101  1.0300  0.2140
11938SOL    HW247469   3.851   5.008   5.288  0.1547  1.0090  0.0576
11939SOL     OW47470   0.974   2.284   7.775  0.4039 -0.6401  0.3719
11939SOL    HW147471   0.979   2.192   7.735  0.7663 -0.8554  0.9044
11939SOL    HW247472   1.059   2.334   7.755 -0.1959 -0.0576 -0.7783
11940SOL     OW47473   3.683   9.152   7.354 -0.2741 -0.2751  0.5722
11940SOL    HW147474   3.601   9.203   7.328 -0.5338 -0.4070  1.1192
11940SOL    HW247475   3.719   9.188   7.440  0.6472  0.2421 -0.0255
11941SOL     OW47476   3.329   9.787   2.849  0.1859  0.3170 -0.1488
11941SOL    HW147477   3.293   9.807   2.758 -1.0847  0.2342  0.3289
11941SOL    HW247478   3.383   9.702   2.845 -1.0220 -0.4515 -0.5492
11942SOL     OW47479   8.821   3.931   2.924  0.0776 -0.0763 -0.3308
11942SOL    HW147480   8.765   3.871   2.981 -0.0825 -1.2787 -1.7356
11942SOL    HW247481   8.917   3.908   2.935 -0.0813 -1.6852 -2.0681
11943SOL     OW47482   2.465   9.499   7.106 -0.3837  0.5152 -0.1709
11943SOL    HW147483   2.506   9.446   7.181  2.4174  0.6303 -1.5703
11943SOL    HW247484   2.417   9.437   7.044  0.5711 -0.0427 -0.3508
11944SOL     OW47485   8.215   4.492   6.227 -0.2303 -0.1675 -0.0518
11944SOL    HW147486   8.266   4.556   6.283  0.8206 -1.0698  0.0213
11944SOL    HW247487   8.148   4.443   6.283 -0.9695  0.7923 -0.0918
11945SOL     OW47488   5.802   7.665   2.439 -0.1649 -0.2006 -0.0164
11945SOL    HW147489   5.813   7.704   2.347 -1.3864  3.1985  1.1781
11945SOL    HW247490   5.705   7.648   2.456  0.0722 -0.9034  0.5995
11946SOL     OW47491   2.262   5.954   4.337 -0.1666  0.0419  0.5860
11946SOL    HW147492   2.355   5.984   4.316 -0.1101  1.5726  2.8160
11946SOL    HW247493   2.207   6.033   4.366 -1.6884 -1.1027  0.8826
11947SOL     OW47494   5.342   0.589   2.908  0.3685  0.2601  0.1501
11947SOL    HW147495   5.248   0.618   2.928  0.5424  0.3640  0.8338
11947SOL    HW247496   5.385   0.556   2.992  0.4342 -1.2756 -0.4734
11948SOL     OW47497   6.046   1.580   1.795  0.0352  0.4381 -0.1180
11948SOL    HW147498   6.051   1.563   1.893  0.4197 -1.5933 -0.4609
11948SOL    HW247499   5.964   1.635   1.774 -0.1732  0.6732  1.3012
11949SOL     OW47500   0.864   5.433   4.830  0.4590 -0.2753 -0.0392
11949SOL    HW147501   0.777   5.384   4.827  0.5106 -0.3625 -0.0903
11949SOL    HW247502   0.850   5.527   4.797  0.6915 -0.7364 -1.4687
11950SOL     OW47503   4.666   4.161   5.664 -0.0449  0.0390  0.1284
11950SOL    HW147504   4.569   4.163   5.688  0.0583  1.0182  0.5169
11950SOL    HW247505   4.715   4.228   5.720  0.2995  2.0032 -2.4565
11951SOL     OW47506   4.317   1.145   5.057  0.3312  0.1763 -1.0805
11951SOL    HW147507   4.314   1.233   5.009 -0.4697  0.9473  0.3739
11951SOL    HW247508   4.232   1.131   5.107  0.8469 -0.9819 -0.5085
11952SOL     OW47509   0.607   3.295   0.985  0.7443  0.1381  0.5212
11952SOL    HW147510   0.591   3.393   0.973 -1.7342 -0.2525  0.4113
11952SOL    HW247511   0.687   3.268   0.933  0.0595  1.6570 -1.3874
11953SOL     OW47512   5.875   2.095   5.846  0.3113 -0.2999  0.2090
11953SOL    HW147513   5.784   2.130   5.824 -0.0064 -0.2314  1.5544
11953SOL    HW247514   5.942   2.169   5.839  0.3466 -0.4725 -1.2881
11954SOL     OW47515   1.398   1.893   3.487 -0.1998  0.0100  0.0436
11954SOL    HW147516   1.325   1.893   3.419 -0.7739  1.3732  0.6430
11954SOL    HW247517   1.359   1.879   3.578  0.3837 -0.2232  0.2599
11955SOL     OW47518   9.271   3.013   1.369 -0.6827  0.0722  0.4905
11955SOL    HW147519   9.171   3.007   1.370 -0.6983  0.2374  2.3793
11955SOL    HW247520   9.310   2.923   1.351 -1.1652 -0.2140  0.8675
11956SOL     OW47521   5.050   8.468   2.350  0.2313  0.0250 -0.0373
11956SOL    HW147522   4.986   8.426   2.415 -1.4601  0.2612 -1.5130
11956SOL    HW247523   5.054   8.413   2.267 -0.0130  1.3756 -0.9597
11957SOL     OW47524   3.462   7.276   6.466 -0.0582 -0.5445 -0.4090
11957SOL    HW147525   3.408   7.208   6.417  1.1572 -2.7952  1.3219
11957SOL    HW247526   3.408   7.313   6.542  1.0780 -3.4881  1.9078
11958SOL     OW47527   6.160   3.018   2.769  0.5337  0.0912  0.4941
11958SOL    HW147528   6.110   3.100   2.796  0.6644 -0.0211  1.0925
11958SOL    HW247529   6.251   3.020   2.810  0.3084 -0.6645  1.0522
11959SOL     OW47530   4.797   6.076   3.740  0.0404  0.0538  1.0267
11959SOL    HW147531   4.788   6.138   3.818  1.8988 -0.2105  1.4841
11959SOL    HW247532   4.838   5.990   3.771  0.5199 -0.1706 -0.1913
11960SOL     OW47533   0.182   0.109   0.111  0.4552  0.1199  0.0706
11960SOL    HW147534   0.090   0.118   0.074  1.1874 -2.0018 -2.4966
11960SOL    HW247535   0.220   0.199   0.130 -1.4360  1.0974 -0.6918
11961SOL     OW47536   6.894   1.648   5.104 -0.3238 -0.1172  0.0367
11961SOL    HW147537   6.849   1.559   5.104 -0.0895 -0.2346 -0.3438
11961SOL    HW247538   6.864   1.700   5.024  2.3010 -1.2521 -1.7474
11962SOL     OW47539   4.039   8.810   5.263  0.3243  0.5605  0.3103
11962SOL    HW147540   4.033   8.787   5.360  0.6886  0.7499  0.3795
11962SOL    HW247541   4.009   8.905   5.249 -1.9232 -0.1754 -0.0778
11963SOL     OW47542   4.490   9.559   4.087 -0.3280 -0.4324 -0.4103
11963SOL    HW147543   4.518   9.654   4.087  1.1913 -0.8617 -1.9063
11963SOL    HW247544   4.463   9.532   3.994 -0.2876 -1.5835 -0.1002
11964SOL     OW47545   4.241   4.089   2.831 -0.2397  0.0227  0.0055
11964SOL    HW147546   4.327   4.047   2.861 -1.2684 -1.9893  0.2594
11964SOL    HW247547   4.193   4.125   2.910 -0.0321  0.3685 -0.0255
11965SOL     OW47548   9.515   5.692   4.722 -0.1195 -0.0940  0.3461
11965SOL    HW147549   9.571   5.707   4.641  0.2622 -2.3283  0.1538
11965SOL    HW247550   9.452   5.615   4.705 -1.3372  0.6224  1.5128
11966SOL     OW47551   7.462   3.564   5.048 -0.6349  0.1233  0.6157
11966SOL    HW147552   7.428   3.644   5.098 -0.0002 -0.1346  1.4759
11966SOL    HW247553   7.395   3.490   5.054 -0.8378  0.3032  0.5569
11967SOL     OW47554   8.878   5.434   4.747 -0.2141  0.0087  0.2224
11967SOL    HW147555   8.786   5.474   4.755 -0.9906 -2.0131  1.8333
11967SOL    HW247556   8.926   5.475   4.669 -2.7848  0.5138 -1.1460
11968SOL     OW47557   3.211   8.014   7.492 -0.2222 -0.0315 -0.2139
11968SOL    HW147558   3.210   8.027   7.393 -0.0676  1.5507 -0.0125
11968SOL    HW247559   3.299   8.044   7.529  0.1352 -1.6431  0.2797
11969SOL     OW47560   4.255   1.921   7.482  0.1926 -0.5827  0.0309
11969SOL    HW147561   4.189   1.965   7.543  0.1257  0.7876 -1.0029
11969SOL    HW247562   4.223   1.929   7.387  0.8926 -1.6142 -0.3003
11970SOL     OW47563   1.528   7.365   3.081 -0.0110 -0.3077 -0.0678
11970SOL    HW147564   1.433   7.393   3.066 -0.4590 -1.4189  0.5800
11970SOL    HW247565   1.555   7.299   3.010 -0.4763 -1.7075  1.0223
11971SOL     OW47566   3.701   7.935   1.732  0.1546  0.6499 -0.1013
11971SOL    HW147567   3.660   7.845   1.745 -1.0238  1.0782 -0.7587
11971SOL    HW247568   3.785   7.926   1.679 -0.2433 -0.0116 -0.6232
11972SOL     OW47569   7.150   3.009   1.256 -0.3890  0.3266 -0.5554
11972SOL    HW147570   7.127   3.072   1.330 -3.3945 -0.9318 -0.3734
11972SOL    HW247571   7.081   3.015   1.184 -0.5249 -2.4304 -0.7087
11973SOL     OW47572   4.258   9.630   5.810  0.0653 -0.0878  0.3851
11973SOL    HW147573   4.236   9.685   5.730 -0.1876  1.4847  1.5274
11973SOL    HW247574   4.285   9.689   5.886  1.6171 -1.6139  1.0804
11974SOL     OW47575   4.256   6.731  10.030 -0.2610 -0.1064 -0.3875
11974SOL    HW147576   4.250   6.771  10.122  0.5879  0.5165 -0.5883
11974SOL    HW247577   4.304   6.643  10.035  2.1258  1.1382 -0.5536
11975SOL     OW47578   8.964   6.911   7.443 -0.5471 -0.1139  0.6882
11975SOL    HW147579   8.964   6.890   7.345 -0.2134 -1.1893  0.9151
11975SOL    HW247580   8.993   7.006   7.456 -0.9747  0.1549 -0.2790
11976SOL     OW47581   7.256   9.485   3.648 -0.2556 -0.9639 -0.4401
11976SOL    HW147582   7.268   9.455   3.743  2.2865 -2.0192 -1.0435
11976SOL    HW247583   7.284   9.412   3.586  2.0591  1.1228 -1.9740
11977SOL     OW47584   9.895   5.435   7.780 -0.2771  0.1315  0.3258
11977SOL    HW147585   9.960   5.491   7.729  1.1953 -0.9510  0.9544
11977SOL    HW247586   9.807   5.481   7.785  0.1017  1.0833 -1.5760
11978SOL     OW47587   9.646   8.936   0.530 -0.0149 -0.0337  0.1486
11978SOL    HW147588   9.662   8.963   0.625  3.5299 -0.8397 -0.1511
11978SOL    HW247589   9.591   8.852   0.527  1.5975 -1.1666  1.5895
11979SOL     OW47590   5.414   7.947   6.338 -0.5630  0.0216  0.1112
11979SOL    HW147591   5.339   7.956   6.272 -1.6654  0.4948  1.3884
11979SOL    HW247592   5.404   7.862   6.389  0.5865 -0.6002 -0.6974
11980SOL     OW47593   6.180   7.561   5.083 -0.3654  0.0919 -0.1083
11980SOL    HW147594   6.108   7.629   5.071 -1.6092 -1.5661 -2.2774
11980SOL    HW247595   6.224   7.542   4.995  0.6377 -1.1687  0.6407
11981SOL     OW47596   2.588   4.881   7.294  0.0477 -0.0526 -0.3205
11981SOL    HW147597   2.510   4.939   7.314  0.4371  0.4137 -0.1497
11981SOL    HW247598   2.672   4.934   7.302  0.6645 -1.4361  3.1726
11982SOL     OW47599   0.717   6.330   7.795 -0.3231 -0.1604  0.1708
11982SOL    HW147600   0.704   6.368   7.887 -0.4868 -1.1875  0.5855
11982SOL    HW247601   0.801   6.366   7.756  0.9402 -1.4293  1.6397
11983SOL     OW47602   5.216   8.146   2.769  0.1567 -0.2448 -0.6321
11983SOL    HW147603   5.134   8.181   2.815  0.6775 -0.4086  0.4514
11983SOL    HW247604   5.269   8.092   2.834  0.6617 -0.9052 -1.5875
11984SOL     OW47605   1.168   6.124   9.990  0.0835  0.6309  0.6969
11984SOL    HW147606   1.114   6.097  10.070  0.4953  2.2445  1.5436
11984SOL    HW247607   1.120   6.197   9.941 -0.8409 -1.2990 -1.3422
11985SOL     OW47608   7.468   5.106   2.034 -0.6284  0.2749 -0.2418
11985SOL    HW147609   7.442   5.038   1.966 -1.5571 -0.6644  1.0236
11985SOL    HW247610   7.562   5.135   2.018 -0.0772 -1.6150 -0.5588
11986SOL     OW47611   0.596   0.115   6.836  0.3265 -0.0515 -0.9079
11986SOL    HW147612   0.505   0.077   6.823 -0.0297  1.3872 -3.0053
11986SOL    HW247613   0.648   0.058   6.900 -2.9990  0.7239  2.6773
11987SOL     OW47614   8.489   7.731   1.229 -0.1885 -0.2618  0.2974
11987SOL    HW147615   8.512   7.664   1.158 -0.1265 -1.0075  1.0186
11987SOL    HW247616   8.512   7.694   1.319 -0.6728  0.5046  0.7433
11988SOL     OW47617   1.612   8.019   3.088  0.3453 -0.4797  0.0057
11988SOL    HW147618   1.615   8.021   3.188 -2.1925  0.2885  0.0942
11988SOL    HW247619   1.684   8.077   3.051 -0.7404  1.8376  1.4521
11989SOL     OW47620   2.685   2.230   3.903  0.0405 -0.1958 -0.6201
11989SOL    HW147621   2.775   2.200   3.872  1.6716  0.5379  3.1461
11989SOL    HW247622   2.680   2.330   3.902 -0.9147 -0.2446 -1.3021
11990SOL     OW47623   7.136   6.178   7.097 -0.2425 -0.5741 -0.0948
11990SOL    HW147624   7.095   6.218   7.179 -1.0675 -0.3711 -0.6030
11990SOL    HW247625   7.230   6.212   7.087 -0.3370 -0.1499  0.4497
11991SOL     OW47626   0.545   2.396   0.433 -0.2191 -0.0846  0.3272
11991SOL    HW147627   0.494   2.481   0.419  0.4233  0.2398 -0.0701
11991SOL    HW247628   0.497   2.321   0.388  1.6262  0.8832 -3.5466
11992SOL     OW47629   3.087   0.182   2.584  0.1883  0.3270 -0.4092
11992SOL    HW147630   3.174   0.135   2.579  0.1509  0.1077  0.9034
11992SOL    HW247631   3.098   0.269   2.632 -0.0607  0.9277 -1.4058
11993SOL     OW47632   8.108   4.542   3.394 -0.0420  0.4391  0.0111
11993SOL    HW147633   8.054   4.470   3.352  0.3810  0.6270 -0.8639
11993SOL    HW247634   8.098   4.627   3.341  1.4051  0.3800 -0.4033
11994SOL     OW47635   9.783   0.145   6.555  0.5051  0.5158 -0.1481
11994SOL    HW147636   9.807   0.183   6.465  0.4696  1.7548  0.3591
11994SOL    HW247637   9.713   0.075   6.543  1.8319 -0.6808 -1.2828
11995SOL     OW47638   1.910   2.596   4.580 -0.3450 -0.3448  0.1950
11995SOL    HW147639   1.877   2.681   4.539 -0.9540  0.3060  1.9870
11995SOL    HW247640   1.967   2.547   4.514 -0.3129  1.2634 -0.9946
11996SOL     OW47641   9.180   1.447   2.771  0.9191 -0.8480 -0.4333
11996SOL    HW147642   9.086   1.428   2.798  1.4410 -0.8315  1.5127
11996SOL    HW247643   9.205   1.540   2.800  1.5191 -0.8371 -0.9682
11997SOL     OW47644   7.284   5.284   1.929  0.3200  0.5483  0.0040
11997SOL    HW147645   7.354   5.215   1.950 -1.2754 -0.9057  0.6254
11997SOL    HW247646   7.329   5.370   1.904  2.3459 -0.8616 -1.3344
11998SOL     OW47647   3.272   4.141   4.492  0.1062 -0.0623 -0.2943
11998SOL    HW147648   3.265   4.238   4.467 -1.0604 -0.2051 -0.5378
11998SOL    HW247649   3.268   4.133   4.592 -2.1973 -0.0229 -0.3504
11999SOL     OW47650   5.493   0.826   1.932 -0.1091 -0.4540 -0.0451
11999SOL    HW147651   5.461   0.733   1.915 -2.7432  0.6161 -1.1253
11999SOL    HW247652   5.463   0.856   2.022  0.0957 -0.3549 -0.0083
12000SOL     OW47653   8.215   3.724   0.904 -0.2280  0.2341  0.6734
12000SOL    HW147654   8.137   3.671   0.939 -0.7726  0.9477  0.5556
12000SOL    HW247655   8.213   3.725   0.804 -0.9885  1.5978  0.6945
12001SOL     OW47656   2.077   8.804   5.671 -0.0746  0.2334  0.6920
12001SOL    HW147657   2.140   8.873   5.635  0.5628 -0.1328  1.0720
12001SOL    HW247658   1.984   8.840   5.673 -0.2813 -0.0613 -2.1425
12002SOL     OW47659   6.090   7.642   3.148 -0.5963  0.6032  0.2987
12002SOL    HW147660   5.996   7.629   3.180 -0.4032  0.4038  0.7858
12002SOL    HW247661   6.090   7.650   3.048 -1.1200  0.5010  0.2883
12003SOL     OW47662   4.598   1.826   6.253 -0.2141 -0.1140 -0.1683
12003SOL    HW147663   4.569   1.920   6.236  1.8512  0.6869  0.5320
12003SOL    HW247664   4.520   1.771   6.283 -1.0920  1.8020  1.1327
12004SOL     OW47665   9.488   3.761   2.568 -0.1135 -0.0788 -0.3358
12004SOL    HW147666   9.416   3.817   2.608  1.0977  1.4504 -0.2441
12004SOL    HW247667   9.562   3.749   2.634 -0.2341 -1.5785 -0.4479
12005SOL     OW47668   3.084   3.493   0.558 -0.3063 -0.0916 -0.5227
12005SOL    HW147669   3.107   3.588   0.578  0.9992 -0.2964 -0.9879
12005SOL    HW247670   3.005   3.490   0.497 -1.5416  0.6370  1.0175
12006SOL     OW47671   1.447   0.088   0.473  0.1279  0.1139  0.3111
12006SOL    HW147672   1.355   0.097   0.511 -0.0217  1.2015 -0.3097
12006SOL    HW247673   1.441   0.051   0.380  0.1980  1.8443 -0.3920
12007SOL     OW47674   0.019   7.335   1.540  0.1766  0.3134 -0.7400
12007SOL    HW147675   0.017   7.237   1.560 -0.2079 -0.0019 -2.2089
12007SOL    HW247676   0.075   7.382   1.608  1.3524 -1.0976 -0.7084
12008SOL     OW47677   6.749   5.083   2.085  0.2127 -0.0328  0.6376
12008SOL    HW147678   6.729   5.156   2.019 -0.2441  0.7498  1.6290
12008SOL    HW247679   6.667   5.028   2.099  0.4454 -0.4954  0.1953
12009SOL     OW47680   2.041   8.252   1.776 -0.3680  0.5138 -0.3751
12009SOL    HW147681   1.945   8.229   1.759 -0.6987  0.8760  0.8890
12009SOL    HW247682   2.070   8.210   1.862 -0.2747  2.8100  0.7563
12010SOL     OW47683   8.786   9.950   3.931 -0.1296 -0.0137 -0.1990
12010SOL    HW147684   8.773   9.936   3.833  0.9946 -0.4968 -0.2960
12010SOL    HW247685   8.861   9.891   3.963  0.7524  1.4884  0.5830
12011SOL     OW47686   2.296   1.904   3.813  0.1458 -0.0298  0.2737
12011SOL    HW147687   2.282   1.805   3.816 -0.4318 -0.0337 -1.6043
12011SOL    HW247688   2.225   1.949   3.867  0.2307 -0.6301  0.8868
12012SOL     OW47689   1.754   3.067   0.868 -0.2500 -0.4783 -0.4897
12012SOL    HW147690   1.799   3.113   0.791  0.3908 -0.0948  0.1001
12012SOL    HW247691   1.816   2.999   0.907 -0.4533 -0.4542 -0.1242
12013SOL     OW47692   3.036   5.293   3.486 -0.8516  0.7279  0.1764
12013SOL    HW147693   3.022   5.379   3.438 -1.4349  0.4452 -0.1794
12013SOL    HW247694   2.951   5.239   3.483 -0.0400 -0.5236 -0.9473
12014SOL     OW47695   7.172   2.278   3.263  0.6814  0.1783 -0.5566
12014SOL    HW147696   7.235   2.354   3.251  0.2588  0.7749  0.8968
12014SOL    HW247697   7.100   2.284   3.194 -1.0954  2.9112  1.4241
12015SOL     OW47698   6.963   0.007   6.518  0.0309  0.1725 -0.0088
12015SOL    HW147699   6.960   0.104   6.496 -0.5146  0.1959  0.1445
12015SOL    HW247700   6.887  -0.040   6.473 -0.6702  0.1032  1.2019
12016SOL     OW47701   1.731   9.163   5.895 -0.3347 -0.4044  0.1674
12016SOL    HW147702   1.638   9.143   5.925  0.6754 -0.0880  3.7658
12016SOL    HW247703   1.742   9.262   5.887 -0.2592 -0.4398 -0.2045
12017SOL     OW47704   2.408   5.745   3.072 -0.0088 -0.5019 -0.1059
12017SOL    HW147705   2.507   5.755   3.080  0.2057 -0.1906 -2.8093
12017SOL    HW247706   2.363   5.828   3.105  0.7360  0.1798 -0.7939
12018SOL     OW47707   1.480   6.985   4.132  0.0926  0.0195  0.2619
12018SOL    HW147708   1.514   6.981   4.038 -1.3571 -0.1551 -0.2721
12018SOL    HW247709   1.474   6.893   4.169  1.7349  0.1680  0.9356
12019SOL     OW47710   7.755   8.028   6.972 -0.3614  0.1659 -0.2777
12019SOL    HW147711   7.818   8.091   6.925  0.9413 -0.4693  0.5927
12019SOL    HW247712   7.708   8.077   7.045 -0.0963  0.3837 -0.2504
12020SOL     OW47713   3.778   4.979   2.809  0.5655 -0.1665 -0.3776
12020SOL    HW147714   3.724   5.052   2.850  0.6319 -1.2575  1.7046
12020SOL    HW247715   3.726   4.936   2.735 -0.9821 -0.4515  0.8494
12021SOL     OW47716   3.847   2.750   0.455  0.0909 -0.1749  0.3069
12021SOL    HW147717   3.897   2.755   0.541  0.0941  0.2492  0.2842
12021SOL    HW247718   3.749   2.765   0.473 -0.2070 -2.3334  0.5216
12022SOL     OW47719   2.519   2.752   0.898  0.8348 -0.0555  0.4529
12022SOL    HW147720   2.585   2.687   0.857  0.1626  0.0177 -0.7726
12022SOL    HW247721   2.567   2.809   0.964  1.8544 -0.5272  0.1509
12023SOL     OW47722   4.430   6.902   3.417 -0.0860  0.2161 -0.3564
12023SOL    HW147723   4.341   6.937   3.389 -0.1002 -0.0790 -0.6870
12023SOL    HW247724   4.425   6.868   3.510 -0.4602 -0.2951 -0.5609
12024SOL     OW47725   9.217   8.398   8.065 -0.5027  0.2918  0.1714
12024SOL    HW147726   9.190   8.432   7.975 -1.5168  1.8463  1.0534
12024SOL    HW247727   9.260   8.308   8.055 -1.5545 -0.0191 -1.7559
12025SOL     OW47728   1.544   9.289   5.486  1.0161 -0.1119 -0.1414
12025SOL    HW147729   1.496   9.304   5.573  0.7395  0.5437 -0.4073
12025SOL    HW247730   1.487   9.321   5.411  1.5564 -0.0312 -0.5159
12026SOL     OW47731   9.222   8.374   5.808 -0.4790  0.0799  0.4413
12026SOL    HW147732   9.212   8.466   5.846 -1.0733  0.2693 -0.1516
12026SOL    HW247733   9.238   8.381   5.709  1.1943 -0.3916  0.6623
12027SOL     OW47734   9.336   8.219   2.663 -0.0613  0.2080  0.1382
12027SOL    HW147735   9.414   8.210   2.726 -0.1287 -2.2422 -0.0575
12027SOL    HW247736   9.313   8.128   2.627 -1.4200  1.2765 -1.7374
12028SOL     OW47737   9.736   3.216   3.972  0.0388  0.0276  0.0380
12028SOL    HW147738   9.685   3.276   4.033  2.1839  1.8354  0.1595
12028SOL    HW247739   9.794   3.154   4.026  2.5140  2.1431 -0.0521
12029SOL     OW47740   7.941   9.066   6.717 -0.3789  0.0836 -0.4649
12029SOL    HW147741   7.853   9.033   6.683 -0.7150 -1.1061  1.4610
12029SOL    HW247742   8.015   9.022   6.668 -0.8330  1.2689 -2.2684
12030SOL     OW47743   7.312   1.342   3.852 -0.1319 -0.0057  0.1443
12030SOL    HW147744   7.277   1.382   3.767  2.8655 -1.2667 -1.7630
12030SOL    HW247745   7.313   1.242   3.843 -0.2396 -0.1647  1.8642
12031SOL     OW47746   8.239   2.782   6.073 -0.7235 -0.2000  0.1191
12031SOL    HW147747   8.171   2.830   6.129 -0.5806  0.8730 -0.5981
12031SOL    HW247748   8.309   2.744   6.132 -0.9492  0.3171  0.7331
12032SOL     OW47749   6.364   4.486   2.019  0.2079  0.0610  0.1172
12032SOL    HW147750   6.418   4.406   1.995  0.0923 -0.4350  1.5099
12032SOL    HW247751   6.301   4.507   1.943  1.1433 -0.3654 -0.7896
12033SOL     OW47752   6.911   6.266   1.631 -0.2532  0.0486  0.4713
12033SOL    HW147753   7.003   6.276   1.594 -0.1467  1.6651  1.1244
12033SOL    HW247754   6.915   6.219   1.719 -0.1176 -0.3746  0.2413
12034SOL     OW47755   2.819   7.501   5.281 -0.0212 -0.0874  1.2260
12034SOL    HW147756   2.765   7.562   5.339 -0.5334 -0.7980  1.4917
12034SOL    HW247757   2.770   7.416   5.266 -0.1913  0.3489 -0.8193
12035SOL     OW47758   6.769   5.590   0.642  0.0550 -0.0062 -0.1014
12035SOL    HW147759   6.798   5.510   0.694 -0.6843 -0.0812  0.2101
12035SOL    HW247760   6.771   5.568   0.545  1.6881  0.2160 -0.1306
12036SOL     OW47761   8.203   7.896   6.791 -0.0228 -0.1967  0.4450
12036SOL    HW147762   8.188   7.934   6.700 -2.5413 -1.1149  0.4441
12036SOL    HW247763   8.188   7.797   6.790  0.5832 -0.3231  1.7275
12037SOL     OW47764   7.554   9.014   7.978  0.2150  0.2037 -0.9782
12037SOL    HW147765   7.577   8.922   8.009  0.8679  0.4196 -0.7964
12037SOL    HW247766   7.526   9.069   8.057  0.1454  0.2513 -1.0365
12038SOL     OW47767   8.176   5.732   5.223  0.3702  0.2269  0.9643
12038SOL    HW147768   8.231   5.669   5.167  0.2846  0.0410  1.0864
12038SOL    HW247769   8.153   5.813   5.169 -0.3285 -0.2799  0.4972
12039SOL     OW47770   0.251   8.519   4.422 -0.1689  0.0113  0.1767
12039SOL    HW147771   0.210   8.602   4.460 -1.1039 -0.9893  1.3659
12039SOL    HW247772   0.350   8.525   4.429 -0.2334  1.0128  0.2952
12040SOL     OW47773   8.034   8.311   2.554 -0.1010  0.3596  0.2485
12040SOL    HW147774   8.095   8.296   2.632  0.0656 -1.7189 -0.2436
12040SOL    HW247775   8.010   8.222   2.513 -2.0551  1.2641 -0.6318
12041SOL     OW47776   9.794   9.376   1.552  0.0766  0.6157 -0.0154
12041SOL    HW147777   9.881   9.331   1.529  0.1681  1.6439 -1.7972
12041SOL    HW247778   9.734   9.311   1.598  1.4180 -0.3979  0.3317
12042SOL     OW47779   7.719   3.237   3.444  0.1172 -0.3010 -0.4105
12042SOL    HW147780   7.671   3.217   3.359 -1.8470 -1.6707  0.9903
12042SOL    HW247781   7.726   3.154   3.499  2.1806  0.3661  0.3998
12043SOL     OW47782   3.998   9.443   7.474 -0.0822 -0.1383 -0.1579
12043SOL    HW147783   3.964   9.526   7.516  2.5832  0.9567 -0.0258
12043SOL    HW247784   4.098   9.439   7.484  0.1410 -2.0049 -2.5084
12044SOL     OW47785   1.835   1.140   7.415  0.2034  0.2266  0.1564
12044SOL    HW147786   1.762   1.146   7.484  0.2193  0.1375  0.1812
12044SOL    HW247787   1.896   1.219   7.425  1.1276 -0.6001  1.3048
12045SOL     OW47788   5.275   0.261   6.002 -0.1549 -0.5457 -0.3285
12045SOL    HW147789   5.206   0.220   6.061 -0.7431 -2.2140 -2.1439
12045SOL    HW247790   5.325   0.331   6.053 -2.7014  0.2000  1.2076
12046SOL     OW47791   1.592   1.871   1.558  0.2254  0.2126  0.1973
12046SOL    HW147792   1.551   1.891   1.648 -0.1279  0.6899 -0.0692
12046SOL    HW247793   1.680   1.825   1.571  0.8441  1.5529  0.8020
12047SOL     OW47794   2.428   4.907   2.278 -0.1203  0.2748  0.5468
12047SOL    HW147795   2.440   4.810   2.301 -0.3670  0.7207  2.6991
12047SOL    HW247796   2.508   4.939   2.227  0.4460 -0.8005  0.7413
12048SOL     OW47797   1.615   7.871   0.975  0.0388  0.5276  0.0331
12048SOL    HW147798   1.670   7.946   0.936 -1.3921  1.0971 -0.9556
12048SOL    HW247799   1.626   7.870   1.074  0.4087  1.7936  0.0248
12049SOL     OW47800   0.618   9.345   5.947  0.1230 -0.0278  0.2760
12049SOL    HW147801   0.658   9.430   5.914 -2.3560  0.7625 -0.8526
12049SOL    HW247802   0.543   9.318   5.887  0.2873 -2.5397  1.1378
12050SOL     OW47803   0.094   1.318   1.244  0.5084 -0.6071  0.0618
12050SOL    HW147804   0.041   1.285   1.166  0.1010 -1.2828  0.6196
12050SOL    HW247805   0.071   1.414   1.262  1.3843 -0.1233 -1.3027
12051SOL     OW47806   5.546   0.658   6.056 -0.6965  0.1377  0.6007
12051SOL    HW147807   5.642   0.633   6.046 -0.6891  0.6150 -0.6649
12051SOL    HW247808   5.492   0.577   6.079 -0.0049 -0.1413  1.2311
12052SOL     OW47809   8.380   0.808   4.127 -0.3673  0.5061 -0.5033
12052SOL    HW147810   8.377   0.892   4.181  0.5425  1.1468 -1.4397
12052SOL    HW247811   8.287   0.781   4.103 -0.6501  1.4455 -0.4966
12053SOL     OW47812   9.592   5.040   5.556  0.5152 -0.4098 -0.2206
12053SOL    HW147813   9.618   5.006   5.465 -0.4643 -1.6468 -0.0610
12053SOL    HW247814   9.492   5.035   5.565  0.6900 -1.3132  1.3081
12054SOL     OW47815   3.191   3.441   6.205  0.8803  0.3072  0.4893
12054SOL    HW147816   3.174   3.478   6.297 -0.2580 -0.1499  0.4771
12054SOL    HW247817   3.268   3.377   6.209  0.2221 -0.4638  1.3390
12055SOL     OW47818   0.782   2.899   0.293  0.7649 -0.4504  0.1566
12055SOL    HW147819   0.847   2.968   0.326 -1.4530  1.2035  1.2115
12055SOL    HW247820   0.737   2.934   0.210 -1.2367 -0.0819  1.3729
12056SOL     OW47821   2.899   4.918   0.526 -0.1679  0.0307  0.0053
12056SOL    HW147822   2.877   4.931   0.429 -0.5803 -4.0507 -0.5246
12056SOL    HW247823   2.823   4.872   0.572  0.9615 -0.1380  1.7447
12057SOL     OW47824   6.609   9.003   3.393 -0.0154 -0.4710 -0.0274
12057SOL    HW147825   6.688   8.944   3.378  0.1837  0.1125 -1.3043
12057SOL    HW247826   6.525   8.954   3.372  0.0494 -0.8353  0.5589
12058SOL     OW47827   9.060   3.023   5.695  0.3621 -0.1966 -0.0003
12058SOL    HW147828   9.034   2.958   5.624  0.9171  0.8988 -1.2446
12058SOL    HW247829   9.159   3.039   5.691  0.4954 -0.6505  1.4827
12059SOL     OW47830   3.812   3.331   6.661  0.4703  0.1693 -0.6379
12059SOL    HW147831   3.809   3.418   6.709  0.3209 -0.2529  0.1369
12059SOL    HW247832   3.821   3.346   6.563  1.0526  1.0441 -0.4507
12060SOL     OW47833   0.209   9.576   3.869  0.1906  0.0012 -0.3116
12060SOL    HW147834   0.157   9.576   3.954 -0.6078 -1.3374 -0.7824
12060SOL    HW247835   0.256   9.489   3.858  1.5652  0.7456 -0.4937
12061SOL     OW47836   1.402   9.405   0.941  0.0490 -0.1318 -0.1723
12061SOL    HW147837   1.468   9.394   1.015  0.5465 -0.7023 -0.7010
12061SOL    HW247838   1.330   9.336   0.950 -1.0296  1.0862  0.9646
12062SOL     OW47839   7.051   6.813   8.025 -0.5832 -0.6466 -0.0808
12062SOL    HW147840   7.072   6.829   8.122 -1.0002  0.8040 -0.2149
12062SOL    HW247841   7.135   6.817   7.971 -0.5290 -0.0586  0.0440
12063SOL     OW47842   4.593   1.139   5.352 -0.1742  0.2768 -0.1579
12063SOL    HW147843   4.555   1.059   5.307  0.5328  0.5476 -1.2476
12063SOL    HW247844   4.580   1.131   5.451 -3.1086  0.4112 -0.4985
12064SOL     OW47845   1.214   2.160   6.889  0.6294 -0.1091  0.2790
12064SOL    HW147846   1.267   2.208   6.819 -0.0835 -0.4435 -0.4877
12064SOL    HW247847   1.269   2.083   6.924  0.2955 -1.0307 -1.1889
12065SOL     OW47848   5.278   3.974   1.533  1.2219  0.1691  0.5842
12065SOL    HW147849   5.322   4.016   1.613  0.0872  1.6419  0.4487
12065SOL    HW247850   5.205   3.913   1.563 -0.6191  2.3423  0.6461
12066SOL     OW47851   2.659   9.589   0.298 -0.0285  0.2279  0.1019
12066SOL    HW147852   2.591   9.581   0.371 -0.3697  0.1442 -0.2274
12066SOL    HW247853   2.641   9.520   0.228  0.5934 -0.0148  0.1751
12067SOL     OW47854   7.887   3.465   6.171 -0.4488 -0.0781  0.0171
12067SOL    HW147855   7.978   3.462   6.213 -0.4991  0.4442  0.1750
12067SOL    HW247856   7.825   3.405   6.222 -0.7618  1.3209  1.3205
12068SOL     OW47857   3.054   2.772   3.592 -0.3646 -0.0095  0.1560
12068SOL    HW147858   3.147   2.778   3.555 -1.7930  0.3932 -3.5188
12068SOL    HW247859   3.021   2.679   3.585 -1.5716  0.5663 -1.9656
12069SOL     OW47860   2.357   5.180   0.156  0.4644 -0.4183  0.4258
12069SOL    HW147861   2.329   5.276   0.147 -1.3154 -0.8897  0.9068
12069SOL    HW247862   2.406   5.168   0.243  1.5892  0.2553 -0.1005
12070SOL     OW47863   4.571   8.676   3.857 -0.8277  0.1134  0.2891
12070SOL    HW147864   4.602   8.686   3.951 -0.2794 -0.7289  0.2060
12070SOL    HW247865   4.500   8.744   3.837 -0.3664  0.8284  1.0551
12071SOL     OW47866   5.020   8.259   7.222 -0.0331  0.6571  0.0009
12071SOL    HW147867   5.065   8.204   7.293  1.0792  1.3551 -0.1586
12071SOL    HW247868   4.938   8.301   7.260  1.1156  1.8862  1.2146
12072SOL     OW47869   9.728   5.613   2.814  0.3744 -0.1604  0.5807
12072SOL    HW147870   9.785   5.598   2.895  1.3178  1.4492  0.2421
12072SOL    HW247871   9.785   5.621   2.733 -0.5453 -1.3649 -0.2099
12073SOL     OW47872   8.137   8.717   7.072  0.4544 -0.0091  0.4176
12073SOL    HW147873   8.154   8.622   7.046  0.6442 -0.0849  0.8050
12073SOL    HW247874   8.040   8.731   7.088 -0.0550  0.7425 -3.0662
12074SOL     OW47875   9.578   6.278   0.960  0.1469  0.0696 -0.2895
12074SOL    HW147876   9.540   6.309   1.047  1.3882 -1.0978  0.6703
12074SOL    HW247877   9.519   6.207   0.921 -0.6781  0.9477 -0.6635
12075SOL     OW47878   7.291   8.905   2.694  0.0683  0.1579  0.6199
12075SOL    HW147879   7.329   8.823   2.653  1.7892 -0.2388  2.8820
12075SOL    HW247880   7.257   8.966   2.622 -0.9459 -2.3526 -1.0945
12076SOL     OW47881   4.002   1.243   6.595 -0.4719  0.2120  0.0779
12076SOL    HW147882   4.008   1.147   6.569 -0.4822  0.4548 -0.8141
12076SOL    HW247883   3.951   1.250   6.681  0.4843 -0.6680  0.7337
12077SOL     OW47884   1.976   6.066   2.282  0.4049 -0.3131  0.0226
12077SOL    HW147885   1.944   6.031   2.194 -0.4121 -1.7151  0.8431
12077SOL    HW247886   2.073   6.089   2.276  0.4231 -0.6907 -1.1624
12078SOL     OW47887   1.723   6.784   3.911  0.1280  0.9644  0.1663
12078SOL    HW147888   1.756   6.801   4.003 -0.5397 -0.2161  0.6414
12078SOL    HW247889   1.640   6.728   3.915  0.1642  0.7910 -1.1496
12079SOL     OW47890   4.188   8.365   4.589 -0.2123  0.1313 -0.0280
12079SOL    HW147891   4.200   8.274   4.550 -0.9522  0.2758 -0.5960
12079SOL    HW247892   4.276   8.413   4.588 -0.2635  0.2236 -1.7844
12080SOL     OW47893   0.626   8.461   7.064 -0.4430 -0.3038  0.2558
12080SOL    HW147894   0.631   8.474   6.965 -1.4204 -2.0154 -0.0375
12080SOL    HW247895   0.718   8.457   7.102 -0.0467 -0.6071 -0.7169
12081SOL     OW47896   0.057   7.427   2.389 -0.0806 -0.7212 -0.1669
12081SOL    HW147897   0.135   7.374   2.421 -0.6212 -0.8774  0.9200
12081SOL    HW247898  -0.009   7.366   2.345 -1.1063 -1.1149  1.8586
12082SOL     OW47899   7.315   0.707   5.192 -0.0065 -0.1623  0.3803
12082SOL    HW147900   7.233   0.654   5.209  0.0974 -0.4801 -0.0972
12082SOL    HW247901   7.396   0.648   5.201  0.0534 -0.3186 -1.1019
12083SOL     OW47902   1.112   8.481   5.875  0.5000 -0.2166  0.0851
12083SOL    HW147903   1.071   8.503   5.963  0.1523 -0.5392  0.0053
12083SOL    HW247904   1.052   8.513   5.801  2.0521  2.5076 -0.0731
12084SOL     OW47905   2.378   0.572   4.689 -0.2944  0.5904 -0.2947
12084SOL    HW147906   2.299   0.518   4.658 -0.5994  0.6268  0.4072
12084SOL    HW247907   2.420   0.618   4.611 -1.2329  0.9213 -0.6051
12085SOL     OW47908   2.177   1.776   4.036 -0.3818  0.6289  0.0470
12085SOL    HW147909   2.237   1.725   3.975  0.0655  2.9974 -1.5837
12085SOL    HW247910   2.208   1.766   4.130  0.5576 -0.8927 -0.4144
12086SOL     OW47911   6.996   9.695   4.057 -0.0499 -0.3809 -0.3759
12086SOL    HW147912   6.945   9.756   3.997 -0.4747  0.5706  0.9474
12086SOL    HW247913   6.952   9.690   4.146 -0.2524 -2.9430 -0.5650
12087SOL     OW47914   1.003   9.890   6.425  0.2900  0.1923  0.1884
12087SOL    HW147915   0.913   9.849   6.412 -0.1603  0.8051  1.3361
12087SOL    HW247916   1.074   9.820   6.411 -0.4830 -1.1035  2.4670
12088SOL     OW47917   9.707   9.048   3.886  0.3663  0.3834  0.3871
12088SOL    HW147918   9.802   9.025   3.865  0.1729  0.1923 -0.2730
12088SOL    HW247919   9.647   8.974   3.854 -0.0901  0.9601 -0.0842
12089SOL     OW47920   2.210   2.051   0.714 -0.8126 -0.3711 -0.0611
12089SOL    HW147921   2.260   1.970   0.743  1.4201  1.2553  0.7164
12089SOL    HW247922   2.114   2.042   0.739 -0.5891 -2.7456  0.0349
12090SOL     OW47923   5.758   9.935   7.076  0.1543  0.3689  0.7461
12090SOL    HW147924   5.808   9.903   7.156  0.4579  1.0620  0.8399
12090SOL    HW247925   5.660   9.915   7.087  0.5500 -2.0978  0.0122
12091SOL     OW47926   8.544   2.177   6.152 -0.8806 -0.2832  0.1009
12091SOL    HW147927   8.545   2.233   6.234 -0.8143 -0.7296  0.4087
12091SOL    HW247928   8.599   2.221   6.081  0.4545 -0.6945  0.8477
12092SOL     OW47929   6.175   9.926   6.409 -0.0107  0.2618 -0.3732
12092SOL    HW147930   6.260   9.972   6.435  0.0800 -0.0701 -0.0909
12092SOL    HW247931   6.129   9.979   6.337 -0.6270  1.5644  0.9426
12093SOL     OW47932   2.690   2.030   4.599  0.1874 -0.0095 -0.9501
12093SOL    HW147933   2.658   1.937   4.581 -1.1405  0.2163  0.1475
12093SOL    HW247934   2.767   2.051   4.539  1.5052 -2.3632 -0.1533
12094SOL     OW47935   9.864   5.708   1.754 -0.0157 -0.7173 -0.2060
12094SOL    HW147936   9.860   5.771   1.676  0.8133 -1.4052 -0.8150
12094SOL    HW247937   9.796   5.636   1.741 -0.4801 -0.3438  0.1425
12095SOL     OW47938   1.881   3.442   7.922  0.8494  0.2062 -0.0489
12095SOL    HW147939   1.864   3.347   7.893 -1.0984  1.1456 -2.1022
12095SOL    HW247940   1.830   3.460   8.006  0.3386 -0.2154 -0.2656
12096SOL     OW47941   4.839   0.880   7.109 -0.0212  0.4518  1.0161
12096SOL    HW147942   4.851   0.925   7.198  0.2745 -0.2960  1.3544
12096SOL    HW247943   4.929   0.871   7.065  0.0717 -0.8748  1.4695
12097SOL     OW47944   2.232   6.981   2.615  0.4787 -0.0829 -0.2910
12097SOL    HW147945   2.188   6.901   2.571  1.1119 -0.3499 -0.4410
12097SOL    HW247946   2.268   7.041   2.544 -3.3932  2.3317 -0.3710
12098SOL     OW47947   7.933   1.734   6.230 -0.0492  0.1128  0.3772
12098SOL    HW147948   7.973   1.706   6.317 -0.6020 -0.5896  0.4067
12098SOL    HW247949   8.005   1.740   6.161  0.3234  0.2557  0.7776
12099SOL     OW47950   6.843   0.203   2.506  0.4840  0.0943  0.9648
12099SOL    HW147951   6.794   0.118   2.485  0.7280 -0.1511  1.3800
12099SOL    HW247952   6.923   0.182   2.562  0.6490  0.5801  0.9141
12100SOL     OW47953   0.006   7.580   0.642 -0.5332 -0.5285 -0.1640
12100SOL    HW147954  -0.088   7.613   0.649 -0.6509 -0.2080 -2.8650
12100SOL    HW247955   0.009   7.501   0.582  1.1570  0.4669 -1.4207
12101SOL     OW47956   1.444   5.579   3.767  0.0981  0.3076 -0.0770
12101SOL    HW147957   1.467   5.482   3.766 -0.2813  0.2187 -1.1268
12101SOL    HW247958   1.406   5.604   3.856  1.4528 -0.2037  0.6589
12102SOL     OW47959   3.834   8.056   5.669  0.1798 -0.3200 -0.0596
12102SOL    HW147960   3.799   7.975   5.716 -1.0672  0.4936  0.4353
12102SOL    HW247961   3.933   8.049   5.660  0.3631 -0.8571  2.0198
12103SOL     OW47962   3.413   1.034   3.263 -0.4403 -0.0776 -0.0611
12103SOL    HW147963   3.477   0.982   3.319  1.9965  4.0380  1.2229
12103SOL    HW247964   3.338   1.067   3.321 -0.9460 -0.5357 -0.4521
12104SOL     OW47965   8.454   1.676   5.324 -0.5520 -0.1792 -0.4473
12104SOL    HW147966   8.483   1.657   5.230  1.2640 -0.8546  0.2265
12104SOL    HW247967   8.535   1.693   5.381 -1.7150  1.7971  0.6709
12105SOL     OW47968   7.989   8.063   2.195 -0.4103 -0.1515 -0.3114
12105SOL    HW147969   7.947   8.114   2.120 -2.1058 -1.7679 -0.4856
12105SOL    HW247970   7.965   7.966   2.187  0.0910 -0.4772  1.8445
12106SOL     OW47971   1.746   3.366   4.496  0.3955  0.7797  0.2134
12106SOL    HW147972   1.769   3.311   4.416 -1.5830  0.1372  0.0512
12106SOL    HW247973   1.699   3.449   4.467  0.1515  0.8063  0.6807
12107SOL     OW47974   2.680   6.841   3.771  0.4361  0.0677  0.5077
12107SOL    HW147975   2.600   6.794   3.733 -1.2257  0.9238  2.7550
12107SOL    HW247976   2.732   6.778   3.828  0.2546 -0.0102  0.5898
12108SOL     OW47977   8.440   3.878   5.528 -0.0244  0.9568  0.2124
12108SOL    HW147978   8.493   3.960   5.509  0.4764  0.8650  1.1879
12108SOL    HW247979   8.364   3.901   5.589  0.0585  0.7124  0.4068
12109SOL     OW47980   9.371   6.775   6.717  0.4851  0.0501  0.2690
12109SOL    HW147981   9.414   6.728   6.794 -1.2361 -0.6974  0.7937
12109SOL    HW247982   9.317   6.851   6.750  1.3441  0.9691 -0.3912
12110SOL     OW47983   2.791   7.064   1.739  0.1277  0.3513 -0.3702
12110SOL    HW147984   2.799   6.989   1.673  1.3045 -0.9198  1.1785
12110SOL    HW247985   2.852   7.139   1.713 -1.2437  0.9060 -2.0694
12111SOL     OW47986   0.612   0.367   0.557 -0.2151 -0.3286  0.0030
12111SOL    HW147987   0.576   0.415   0.637  0.0170  1.3391 -0.8641
12111SOL    HW247988   0.539   0.313   0.514 -1.1187  1.1977 -0.4148
12112SOL     OW47989   0.068   2.652   3.974 -0.7756  0.1198  0.1642
12112SOL    HW147990   0.047   2.598   3.892  2.2439 -0.6675 -0.1271
12112SOL    HW247991   0.097   2.743   3.946 -2.8330  0.9037  0.5261
12113SOL     OW47992   8.049   3.971   2.069  0.1345  0.3279 -0.1880
12113SOL    HW147993   8.010   3.949   1.980  0.0593 -0.0953 -0.0526
12113SOL    HW247994   7.988   3.939   2.142 -0.5211  1.9936  0.0178
12114SOL     OW47995   0.499   5.470   0.424  0.5347  1.0750  0.4098
12114SOL    HW147996   0.462   5.538   0.488 -0.2055  0.8779  0.1920
12114SOL    HW247997   0.489   5.379   0.462  0.3520  0.9792  0.1314
12115SOL     OW47998   1.461   6.772   1.831 -0.6115  0.0818  0.1017
12115SOL    HW147999   1.403   6.834   1.884 -3.9221 -1.3618 -1.7045
12115SOL    HW248000   1.489   6.817   1.746 -0.7338  0.0548  0.0478
12116SOL     OW48001   5.748   9.676   4.547 -0.1314 -0.0410 -0.3282
12116SOL    HW148002   5.754   9.585   4.587  0.6402  0.3234  0.4020
12116SOL    HW248003   5.747   9.669   4.448 -0.8578 -0.8901 -0.2633
12117SOL     OW48004   7.656   0.619   7.484 -0.1737 -0.4531  0.3290
12117SOL    HW148005   7.731   0.555   7.504  0.8237 -0.5642 -3.4360
12117SOL    HW248006   7.679   0.709   7.520  1.1895 -0.8005  0.3519
12118SOL     OW48007   3.095   3.848   0.114  0.1589 -0.1461  0.4525
12118SOL    HW148008   3.145   3.934   0.106  1.9644 -1.2079 -0.1122
12118SOL    HW248009   3.156   3.777   0.150 -1.1540 -1.3086  0.4337
12119SOL     OW48010   9.661   7.157   1.984 -0.4226  0.0950 -0.0184
12119SOL    HW148011   9.586   7.105   1.943 -0.8927  0.6824  0.0764
12119SOL    HW248012   9.646   7.164   2.083  0.1792 -0.4662  0.1095
12120SOL     OW48013   4.489   3.809   0.270  0.2455  0.9886  0.3959
12120SOL    HW148014   4.467   3.719   0.234 -2.1347  1.0750  1.5187
12120SOL    HW248015   4.584   3.810   0.302  0.4359 -0.9591 -0.0643
12121SOL     OW48016   8.486   2.142   1.223 -0.0961 -0.1768 -0.1304
12121SOL    HW148017   8.574   2.166   1.184 -0.6570  0.5289 -0.9767
12121SOL    HW248018   8.459   2.210   1.291  0.7064 -1.2047  1.2443
12122SOL     OW48019   9.297   9.205   3.476 -0.1044 -0.0938  0.8162
12122SOL    HW148020   9.344   9.118   3.462 -0.2266 -0.2121  1.1440
12122SOL    HW248021   9.332   9.272   3.410  0.1674 -0.3204  0.7277
12123SOL     OW48022   6.056   8.571   7.878 -0.4578 -0.6835  0.4427
12123SOL    HW148023   6.099   8.508   7.813  0.6341  0.3436  0.1510
12123SOL    HW248024   6.116   8.584   7.957 -0.4483  0.3496  0.2760
12124SOL     OW48025   5.530   1.009   7.124  0.5838  0.1925 -0.0351
12124SOL    HW148026   5.567   0.964   7.043  0.5430  0.0508  0.0257
12124SOL    HW248027   5.596   1.002   7.199  0.2704 -0.3930  0.1845
12125SOL     OW48028   1.860   9.200   1.086 -0.3367 -0.0053  0.2265
12125SOL    HW148029   1.929   9.131   1.107 -0.7800 -0.2374  0.9575
12125SOL    HW248030   1.865   9.274   1.153  0.8521  1.2166 -1.1986
12126SOL     OW48031   1.000   5.281   1.888 -0.5341 -0.4919  0.4025
12126SOL    HW148032   1.062   5.204   1.880  0.2529  0.3532 -2.0253
12126SOL    HW248033   0.907   5.252   1.866 -0.5404 -1.1246  1.2481
12127SOL     OW48034   7.356   7.330   6.930  0.2690  0.7015 -0.3718
12127SOL    HW148035   7.256   7.336   6.934  0.2926  1.1904 -0.4881
12127SOL    HW248036   7.391   7.303   7.019  0.0086  0.1942 -0.4203
12128SOL     OW48037   7.910   5.855   6.455 -0.3365 -0.6835 -0.4853
12128SOL    HW148038   7.878   5.760   6.461 -3.7848  0.4972  0.3696
12128SOL    HW248039   7.856   5.905   6.388  1.6851  0.6663 -1.1775
12129SOL     OW48040   3.628   3.681   6.362  0.3361  0.6185 -0.2043
12129SOL    HW148041   3.585   3.593   6.382  1.1154 -0.1019 -1.6484
12129SOL    HW248042   3.561   3.743   6.322 -0.3878  0.9400  1.4447
12130SOL     OW48043   3.948   1.297   2.402 -0.0307 -0.4294  0.0059
12130SOL    HW148044   3.862   1.248   2.391 -0.1639  0.2343 -2.0511
12130SOL    HW248045   3.978   1.332   2.314  1.1819  1.3192  1.0822
12131SOL     OW48046   0.275   9.541   4.661  0.4390 -0.2916 -0.0366
12131SOL    HW148047   0.345   9.500   4.720  1.5801  1.0469 -0.4321
12131SOL    HW248048   0.249   9.476   4.590  0.9214 -0.9768  0.4041
12132SOL     OW48049   5.431   1.623   1.530  0.4028 -0.0767 -0.3750
12132SOL    HW148050   5.372   1.702   1.547  0.2892 -0.2272 -0.0630
12132SOL    HW248051   5.408   1.583   1.441 -1.1017 -1.1280  0.4595
12133SOL     OW48052   3.675   7.334   0.173 -0.0067  0.1793 -0.1795
12133SOL    HW148053   3.717   7.408   0.121  0.2516  0.3440  0.2572
12133SOL    HW248054   3.694   7.246   0.129  0.5044  0.2869 -0.1700
12134SOL     OW48055   6.983   7.619   5.978 -0.4454 -0.5801 -0.0059
12134SOL    HW148056   6.976   7.549   5.907  0.7281 -1.1661  0.4474
12134SOL    HW248057   7.079   7.639   5.996 -0.7528  0.2240  0.7760
12135SOL     OW48058   2.799   6.995   5.344  0.2722 -1.1544  0.5916
12135SOL    HW148059   2.826   7.021   5.437 -2.0789  1.7269  0.5720
12135SOL    HW248060   2.706   6.957   5.346  0.4972 -1.7754 -0.4938
12136SOL     OW48061   2.631   4.369   6.299  0.2037 -0.4414 -0.4253
12136SOL    HW148062   2.689   4.331   6.371  1.4982 -0.0524 -1.2412
12136SOL    HW248063   2.636   4.311   6.218 -0.5225 -0.3728 -0.5279
12137SOL     OW48064   2.253   1.220   6.736 -0.1182 -0.0987 -0.0987
12137SOL    HW148065   2.235   1.127   6.702 -4.0055  0.8884 -0.9419
12137SOL    HW248066   2.231   1.225   6.833  2.1583 -0.5383  0.4831
12138SOL     OW48067   2.292   1.335   6.473 -0.0935  0.0220 -0.4007
12138SOL    HW148068   2.289   1.283   6.558 -0.2556 -0.7337 -0.8638
12138SOL    HW248069   2.385   1.334   6.437  0.2338  1.3366  0.3697
12139SOL     OW48070   2.186   2.733   1.212  0.4385  0.3254 -0.1792
12139SOL    HW148071   2.092   2.742   1.247  0.5493  0.8554 -0.0082
12139SOL    HW248072   2.184   2.688   1.123  0.0276  0.2504 -0.1352
12140SOL     OW48073   4.596   7.949   0.713 -0.4406 -0.1299 -0.1683
12140SOL    HW148074   4.673   7.887   0.725 -0.7606 -1.0476 -2.6340
12140SOL    HW248075   4.512   7.906   0.747 -0.5296 -0.7240 -1.1466
12141SOL     OW48076   3.531   7.366   0.636 -0.3104 -0.2455  0.7543
12141SOL    HW148077   3.564   7.405   0.550 -0.9689 -1.1978  0.0580
12141SOL    HW248078   3.515   7.268   0.624 -2.6179  0.0461  1.3000
12142SOL     OW48079   9.489   3.137   2.032  0.1837  0.3240  0.0051
12142SOL    HW148080   9.410   3.076   2.026 -0.4745  1.2090 -0.4150
12142SOL    HW248081   9.537   3.121   2.118 -0.3010 -0.3945  0.1492
12143SOL     OW48082   6.827   1.953   1.456 -0.1439  0.1775 -0.1883
12143SOL    HW148083   6.853   1.933   1.362  0.4663 -0.5214  0.1250
12143SOL    HW248084   6.822   1.868   1.508 -0.0353  0.5976  0.5181
12144SOL     OW48085   6.877   9.884   3.022 -0.3799  0.1220  0.3680
12144SOL    HW148086   6.953   9.849   2.968  0.1201  0.5681  0.7690
12144SOL    HW248087   6.866   9.827   3.104  1.0002  1.4142  1.4663
12145SOL     OW48088   7.121   9.140   6.889  0.1507 -0.4790 -0.3709
12145SOL    HW148089   7.123   9.113   6.985  1.0413  1.3142  0.1494
12145SOL    HW248090   7.028   9.165   6.863  0.0392 -0.2668  0.2346
12146SOL     OW48091   1.254   8.196   5.524  0.4436 -0.0920  0.3769
12146SOL    HW148092   1.268   8.294   5.513  0.4894  0.1828  2.6064
12146SOL    HW248093   1.211   8.178   5.613 -0.3921 -2.0252 -0.3735
12147SOL     OW48094   9.680   6.677   6.946 -0.2504  0.1264  0.0845
12147SOL    HW148095   9.766   6.681   6.998 -0.3626 -0.4486  0.3151
12147SOL    HW248096   9.606   6.717   7.001  0.0601  1.5661 -0.5158
12148SOL     OW48097   1.667   2.466   0.353 -0.3894 -0.3995  0.2893
12148SOL    HW148098   1.615   2.537   0.400 -1.5846 -0.2807 -1.1669
12148SOL    HW248099   1.668   2.383   0.408 -2.3945 -0.4998  0.2011
12149SOL     OW48100   8.857   4.265   6.731 -0.3121 -0.0773  0.7349
12149SOL    HW148101   8.759   4.284   6.733 -0.7347 -1.8220 -1.4142
12149SOL    HW248102   8.899   4.311   6.653 -0.0369 -1.8349 -0.1953
12150SOL     OW48103   5.342   8.505   5.484  0.5095 -0.1550  0.0992
12150SOL    HW148104   5.264   8.566   5.468  0.1180 -0.7744 -0.3917
12150SOL    HW248105   5.309   8.410   5.486  1.0062 -0.3059  1.4992
12151SOL     OW48106   3.017   3.882   7.477 -0.4863  0.3642  0.0883
12151SOL    HW148107   2.917   3.888   7.480 -0.4479  0.3909  1.4813
12151SOL    HW248108   3.056   3.973   7.466 -0.5382  0.6618  2.2037
12152SOL     OW48109   2.789   1.426   1.885 -0.0258  0.1198  0.5102
12152SOL    HW148110   2.698   1.419   1.844  0.3106  1.6438 -0.5441
12152SOL    HW248111   2.780   1.457   1.980 -0.7109 -1.7445  1.0706
12153SOL     OW48112   6.918   9.656   4.329  0.5456  0.3853  0.2423
12153SOL    HW148113   7.013   9.672   4.354  0.8725 -0.8320 -0.1745
12153SOL    HW248114   6.903   9.558   4.318 -0.9519  0.5038  1.0846
12154SOL     OW48115   6.206   9.443   5.633  0.0923  0.5671  0.4824
12154SOL    HW148116   6.290   9.495   5.619  0.5093  0.1004  1.2388
12154SOL    HW248117   6.185   9.440   5.731  0.6814 -1.6454  0.5501
12155SOL     OW48118   3.674   4.887   5.655  0.1120 -0.1320  0.3682
12155SOL    HW148119   3.661   4.951   5.580 -0.6646 -0.8302 -0.1052
12155SOL    HW248120   3.596   4.825   5.660  1.1606 -1.4779  0.3817
12156SOL     OW48121   9.269   8.372   6.591  0.3768  0.8539  0.4355
12156SOL    HW148122   9.247   8.275   6.578 -0.3185  0.7909  2.0623
12156SOL    HW248123   9.212   8.426   6.529  1.8884  0.1669 -1.6460
12157SOL     OW48124   0.143   2.192   0.773 -0.9025  0.0947  0.6131
12157SOL    HW148125   0.126   2.290   0.789  0.6459  0.4595  0.1084
12157SOL    HW248126   0.221   2.182   0.711 -1.6574 -1.4574 -0.0850
12158SOL     OW48127   9.408   8.384   2.457 -0.0862 -0.0913 -0.4521
12158SOL    HW148128   9.353   8.331   2.521  0.1816  1.0040  0.7046
12158SOL    HW248129   9.479   8.435   2.507  0.1214  0.7810 -1.5989
12159SOL     OW48130   0.296   3.845   6.634  0.5689 -0.3004 -0.1593
12159SOL    HW148131   0.296   3.826   6.733  3.4857 -1.1478 -0.2756
12159SOL    HW248132   0.373   3.905   6.612 -1.4772  1.9055 -1.6107
12160SOL     OW48133   5.168   0.813   4.423  0.3260  0.5103 -0.3230
12160SOL    HW148134   5.112   0.768   4.492 -0.2224 -0.0567 -1.1344
12160SOL    HW248135   5.111   0.876   4.370  0.3126 -0.5561 -1.5794
12161SOL     OW48136   9.984   8.966   3.765 -0.9092  0.0953  0.2015
12161SOL    HW148137  10.024   9.051   3.798  1.9335 -1.4282  0.9286
12161SOL    HW248138  10.032   8.936   3.682 -2.9836  0.0398 -1.0055
12162SOL     OW48139   7.690   7.298   7.200 -0.1486  0.5830  0.3852
12162SOL    HW148140   7.732   7.334   7.284  0.3167  1.2370 -0.1239
12162SOL    HW248141   7.725   7.206   7.182  1.5498  1.3463 -0.3612
12163SOL     OW48142   1.244   7.396   6.014 -0.4899 -0.4341 -0.0893
12163SOL    HW148143   1.188   7.323   5.974 -0.3464 -0.1786 -0.7663
12163SOL    HW248144   1.332   7.400   5.967  0.1916 -0.9763  1.1236
12164SOL     OW48145   3.963   6.165   0.448 -0.4920 -0.2359 -0.2165
12164SOL    HW148146   3.863   6.169   0.440 -0.4697 -1.3883 -1.1957
12164SOL    HW248147   3.992   6.070   0.456  0.3487  0.2241  2.8058
12165SOL     OW48148   0.021   9.340   7.344  0.5793  0.2423  0.1626
12165SOL    HW148149  -0.000   9.435   7.368 -0.7662  1.0002 -3.5716
12165SOL    HW248150  -0.061   9.284   7.353 -0.3686  0.8544 -3.7139
12166SOL     OW48151   3.230   7.597   6.302  0.0364  0.2700  0.0676
12166SOL    HW148152   3.211   7.695   6.295  2.5566  0.7773 -0.1822
12166SOL    HW248153   3.232   7.557   6.210 -2.8753 -0.4379  0.2660
12167SOL     OW48154   5.224   9.460   5.715  0.6572  0.2376  0.6113
12167SOL    HW148155   5.316   9.498   5.720  1.4465 -1.2660 -1.5834
12167SOL    HW248156   5.226   9.363   5.739 -0.0657 -0.1965 -1.0236
12168SOL     OW48157   4.308   0.461   3.954  0.5093 -0.0308  0.3629
12168SOL    HW148158   4.266   0.447   3.864  0.8375 -0.5600  0.2941
12168SOL    HW248159   4.251   0.418   4.024 -0.4925  1.5877  0.5699
12169SOL     OW48160   2.502   4.675   1.624  0.1071 -0.6089  0.4653
12169SOL    HW148161   2.416   4.677   1.676 -0.0659 -0.1672  0.1592
12169SOL    HW248162   2.482   4.654   1.529  0.4186 -1.3254  0.5547
12170SOL     OW48163   3.108   4.643   1.145  0.0989 -0.4821 -0.2793
12170SOL    HW148164   3.013   4.612   1.138 -0.4063  0.7565  0.8429
12170SOL    HW248165   3.138   4.681   1.058 -0.4482 -0.8241 -0.6198
12171SOL     OW48166   9.030   8.558   0.485 -0.1653 -0.1582 -0.2687
12171SOL    HW148167   9.075   8.501   0.553 -0.5146 -0.7954 -0.5671
12171SOL    HW248168   8.960   8.504   0.438  1.3634 -0.2729 -2.4560
12172SOL     OW48169   4.258   0.969   2.702 -0.3742 -0.0110 -0.2680
12172SOL    HW148170   4.178   1.010   2.659 -0.6999 -0.3589  0.0007
12172SOL    HW248171   4.259   0.990   2.799  0.7283  1.3408 -0.5706
12173SOL     OW48172   5.595   8.510   5.632 -0.0145 -0.0470 -0.0972
12173SOL    HW148173   5.688   8.503   5.594  0.1785  0.4297  0.2840
12173SOL    HW248174   5.529   8.503   5.558  0.3830  1.6930 -0.6392
12174SOL     OW48175   1.993   6.501   5.250 -0.3347  0.5174  0.2217
12174SOL    HW148176   2.055   6.552   5.309  0.9114 -0.1521 -0.4848
12174SOL    HW248177   1.917   6.466   5.304 -0.5108  1.9930  0.9525
12175SOL     OW48178   2.739   7.528   1.633 -0.1600  0.2954 -0.5147
12175SOL    HW148179   2.822   7.575   1.663  1.2850 -2.8369  0.5813
12175SOL    HW248180   2.725   7.545   1.535  2.1126  0.3438 -0.8529
12176SOL     OW48181   0.393   6.073   4.716 -0.3786  0.2985 -0.1183
12176SOL    HW148182   0.326   5.999   4.706  0.4958 -0.4555 -0.5030
12176SOL    HW248183   0.352   6.159   4.688 -1.5469  0.0291  0.7259
12177SOL     OW48184   8.199   6.777   4.820 -0.3076 -0.0480  0.5448
12177SOL    HW148185   8.181   6.874   4.840 -0.8337 -0.1097  0.3865
12177SOL    HW248186   8.277   6.769   4.759 -1.3631  0.3835 -0.8891
12178SOL     OW48187   6.854   9.619   6.632  0.5730  0.1930 -0.0014
12178SOL    HW148188   6.927   9.668   6.680  0.5426  0.2054  0.0323
12178SOL    HW248189   6.893   9.539   6.587  0.4001 -0.5228  1.0895
12179SOL     OW48190   7.793   9.142   6.215  0.4705 -0.3567 -0.5246
12179SOL    HW148191   7.874   9.100   6.255  1.8798  0.5862 -2.3068
12179SOL    HW248192   7.772   9.098   6.128  0.8947  1.3514 -1.5347
12180SOL     OW48193   0.615   8.511   8.022 -0.3653 -0.2462  0.1288
12180SOL    HW148194   0.647   8.602   7.996  0.0011 -0.7253 -1.1038
12180SOL    HW248195   0.695   8.452   8.040 -0.6003 -0.2880  1.0772
12181SOL     OW48196   8.871   1.835   1.028  0.0271  0.0477 -0.2435
12181SOL    HW148197   8.778   1.798   1.039 -0.3605  1.0917  0.0128
12181SOL    HW248198   8.923   1.775   0.968 -0.5475 -1.0109  0.2889
12182SOL     OW48199   4.174   1.425   3.917 -0.3488 -0.1523 -0.6491
12182SOL    HW148200   4.222   1.511   3.900  1.4868 -0.7618  1.2415
12182SOL    HW248201   4.144   1.422   4.012 -0.5233 -1.5437 -0.7426
12183SOL     OW48202   7.241   3.502   4.533 -0.4605  0.2374  0.2797
12183SOL    HW148203   7.295   3.551   4.464  0.2561  0.4181  0.9621
12183SOL    HW248204   7.300   3.478   4.610 -0.1252 -4.2243 -1.2627
12184SOL     OW48205   6.028   8.148   6.429 -0.3726 -0.6743  0.0117
12184SOL    HW148206   6.103   8.214   6.430 -0.1191 -0.9649  0.6734
12184SOL    HW248207   6.065   8.055   6.429 -0.7111 -0.8422 -2.5705
12185SOL     OW48208   0.629   9.785   7.262 -0.0562 -0.0011 -0.2005
12185SOL    HW148209   0.689   9.706   7.259  2.7473  2.0658 -0.9882
12185SOL    HW248210   0.544   9.761   7.309  1.2416 -3.0919  0.6871
12186SOL     OW48211   7.558   5.184   0.744 -0.1949  0.3051  0.1804
12186SOL    HW148212   7.653   5.210   0.762  0.2691 -0.0829 -1.5141
12186SOL    HW248213   7.555   5.086   0.721 -1.0944  0.1835  0.7881
12187SOL     OW48214   7.593   8.688   8.348  0.3451  0.3964  0.3357
12187SOL    HW148215   7.604   8.757   8.276 -0.2891  1.4596  1.2433
12187SOL    HW248216   7.681   8.670   8.391  0.4658  0.8233  0.2624
12188SOL     OW48217   4.080   9.718   3.363  0.3689 -0.6634  0.3942
12188SOL    HW148218   4.058   9.690   3.270  1.4756 -1.6492  0.4306
12188SOL    HW248219   4.041   9.809   3.380 -0.7472 -0.9341 -0.6674
12189SOL     OW48220   8.056   1.969   6.710  0.2137 -0.2784  0.1530
12189SOL    HW148221   8.126   1.947   6.642 -0.6568 -0.7532 -0.6051
12189SOL    HW248222   8.051   1.895   6.778 -0.5653 -0.9651 -0.6346
12190SOL     OW48223   0.289   3.695   3.459  0.0750 -0.2524  0.2452
12190SOL    HW148224   0.384   3.671   3.438 -0.6313 -1.3404 -1.8500
12190SOL    HW248225   0.285   3.789   3.492  1.8763 -0.1654  0.2790
12191SOL     OW48226   3.443   4.147   3.355  0.6935  0.6471  0.3112
12191SOL    HW148227   3.500   4.105   3.426  1.3294  1.5449  0.3435
12191SOL    HW248228   3.396   4.075   3.303  1.8020 -0.1034  0.3252
12192SOL     OW48229   2.173   8.759   2.897  0.2581  0.1657 -0.4251
12192SOL    HW148230   2.195   8.825   2.826 -2.4030  0.4239 -1.0665
12192SOL    HW248231   2.146   8.672   2.854 -3.0862  0.8576  0.1360
12193SOL     OW48232   5.203   7.562   3.019 -0.1976 -0.0514 -0.1397
12193SOL    HW148233   5.216   7.628   3.093 -0.3251  0.8658 -0.9176
12193SOL    HW248234   5.109   7.529   3.019 -0.0443 -0.4873  0.4601
12194SOL     OW48235   3.574   6.696   9.953 -0.5031 -0.5996  0.1969
12194SOL    HW148236   3.659   6.644   9.944  0.7205  1.3770 -0.0093
12194SOL    HW248237   3.595   6.787   9.989 -2.1672  0.9719 -2.6638
12195SOL     OW48238   6.697   4.014   0.499  0.3335  0.2480  0.0769
12195SOL    HW148239   6.612   4.041   0.544  1.4358  0.2630  2.2095
12195SOL    HW248240   6.705   3.914   0.502  0.3428  0.2393 -0.2279
12196SOL     OW48241   5.918   2.472   0.511  0.0839 -0.1910  0.0220
12196SOL    HW148242   5.998   2.491   0.567 -0.4076 -0.2218  0.7407
12196SOL    HW248243   5.835   2.488   0.565 -0.3769 -2.5780  0.0629
12197SOL     OW48244   3.100   9.450   7.606  0.1282 -0.2597  0.4755
12197SOL    HW148245   3.041   9.499   7.671  1.1589  2.4163 -0.5418
12197SOL    HW248246   3.105   9.502   7.521  1.7239 -1.8982 -0.4455
12198SOL     OW48247   9.163   8.573   7.856  0.2675  0.4371 -0.3051
12198SOL    HW148248   9.177   8.656   7.909 -0.5901  0.2119  0.2744
12198SOL    HW248249   9.195   8.587   7.762  0.0942  1.4164 -0.2130
12199SOL     OW48250   9.223   3.201   4.905 -0.2346 -0.1280  0.3149
12199SOL    HW148251   9.171   3.255   4.972 -1.5107 -1.2523  0.2466
12199SOL    HW248252   9.286   3.140   4.952 -0.4804 -0.2683  0.4618
12200SOL     OW48253   3.329   6.178   7.448  0.2854 -0.3043  0.2346
12200SOL    HW148254   3.305   6.140   7.359  1.2935  0.6587 -0.4702
12200SOL    HW248255   3.337   6.105   7.516  0.2761 -1.1139 -0.6419
12201SOL     OW48256   3.198   4.695   6.579 -0.8506 -0.1427  0.4867
12201SOL    HW148257   3.207   4.603   6.541 -2.8807 -0.0280 -0.3677
12201SOL    HW248258   3.216   4.693   6.678  1.3890 -1.0167  0.0748
12202SOL     OW48259   2.498   0.323   6.404 -0.4997  0.2534  0.4296
12202SOL    HW148260   2.462   0.415   6.421 -0.9634  0.1669 -0.0657
12202SOL    HW248261   2.596   0.321   6.422 -0.7007  0.5446  1.6117
12203SOL     OW48262   1.129   5.628   7.237  0.2771  0.4877  0.0498
12203SOL    HW148263   1.210   5.580   7.206  0.6058  0.6085  0.7096
12203SOL    HW248264   1.122   5.716   7.190 -1.1642 -0.8434 -2.3027
12204SOL     OW48265   5.705   4.377   2.053  0.4205 -0.0241 -0.2990
12204SOL    HW148266   5.669   4.443   2.119  2.8179  0.9094  0.1081
12204SOL    HW248267   5.701   4.416   1.961 -1.3167 -0.6554 -0.5062
12205SOL     OW48268   6.878   8.149   7.685  0.3512 -0.0473  0.9648
12205SOL    HW148269   6.833   8.074   7.733 -1.0429 -0.9468 -1.6569
12205SOL    HW248270   6.973   8.155   7.715 -0.1302 -1.4108  2.8441
12206SOL     OW48271   2.101   1.966   2.214  0.1192 -0.2881  0.2515
12206SOL    HW148272   2.081   1.937   2.120  0.0488  1.0945 -0.1746
12206SOL    HW248273   2.154   2.050   2.211  0.1514 -0.2704  1.4575
12207SOL     OW48274   1.138   2.370   2.922  0.2349 -0.3118 -0.3351
12207SOL    HW148275   1.122   2.443   2.988 -0.6882 -0.9850  0.2020
12207SOL    HW248276   1.230   2.334   2.932  0.4253  0.2511 -0.0724
12208SOL     OW48277   2.670   0.423   1.363  0.1075  0.3541 -0.1343
12208SOL    HW148278   2.623   0.490   1.421 -0.5094 -0.6385  0.5251
12208SOL    HW248279   2.607   0.390   1.292  0.1266 -0.1774  0.0893
12209SOL     OW48280   0.512   8.638   1.773 -0.4338  0.2836 -0.2025
12209SOL    HW148281   0.560   8.701   1.834  0.8910  1.5699 -2.5254
12209SOL    HW248282   0.413   8.650   1.784 -0.2047  1.7897  0.3911
12210SOL     OW48283   2.194   2.555   6.104 -0.2331 -0.1154 -0.1345
12210SOL    HW148284   2.133   2.624   6.066 -0.6427  0.0445  0.8233
12210SOL    HW248285   2.148   2.466   6.106 -0.0054 -0.2453 -0.5579
12211SOL     OW48286   4.509   8.656   2.247  0.0793  0.1337  0.0682
12211SOL    HW148287   4.572   8.583   2.222 -0.1395 -0.3582  0.9209
12211SOL    HW248288   4.436   8.619   2.304 -1.2581  0.6077 -1.3097
12212SOL     OW48289   0.432   2.642   7.469  0.0898 -0.2542  0.2894
12212SOL    HW148290   0.432   2.731   7.423  1.8813  0.7284  2.0832
12212SOL    HW248291   0.344   2.597   7.455 -2.2596  3.4138  2.2529
12213SOL     OW48292   6.119   9.391   1.513  0.3778 -0.1858  0.3255
12213SOL    HW148293   6.102   9.335   1.432  0.5397  1.5105 -0.9067
12213SOL    HW248294   6.196   9.353   1.564  0.4718 -1.0917 -0.4771
12214SOL     OW48295   8.233   0.819   4.411  0.0979 -0.1258  0.5840
12214SOL    HW148296   8.266   0.761   4.336 -0.9058 -0.4290  0.3687
12214SOL    HW248297   8.168   0.768   4.467 -0.2270  0.5567  0.8375
12215SOL     OW48298   3.922   1.503   1.775  0.4064  0.6503  0.2128
12215SOL    HW148299   3.997   1.549   1.822  1.1086  0.1991 -0.4497
12215SOL    HW248300   3.933   1.514   1.676  0.1786 -0.3120  0.0739
12216SOL     OW48301   1.456   3.539   0.520  0.2109 -0.1287  0.1137
12216SOL    HW148302   1.470   3.633   0.487  2.0307  0.4852  2.4911
12216SOL    HW248303   1.359   3.517   0.515 -0.3837  2.2365  0.4253
12217SOL     OW48304   4.977   7.305   2.983  0.3106  0.5583  0.0776
12217SOL    HW148305   4.889   7.298   2.936 -0.1510  0.4976  0.9585
12217SOL    HW248306   5.033   7.225   2.958 -0.6298 -0.4302  1.0666
12218SOL     OW48307   4.629   5.706   3.963  0.3709 -0.3210 -0.8936
12218SOL    HW148308   4.546   5.761   3.967 -0.5392 -1.7750  1.1214
12218SOL    HW248309   4.610   5.619   3.917  1.0165 -0.2879 -1.2373
12219SOL     OW48310   3.893   4.936   5.451 -0.1005 -0.0705 -0.8103
12219SOL    HW148311   3.985   4.907   5.423  0.4397  0.8437 -0.0375
12219SOL    HW248312   3.901   5.001   5.526 -1.4351 -0.8451  0.0202
12220SOL     OW48313   9.789   6.461   7.222 -0.1140 -0.4149  0.2503
12220SOL    HW148314   9.768   6.370   7.187  0.8101 -0.9062  0.9519
12220SOL    HW248315   9.878   6.490   7.187  0.1896 -0.3371  1.0734
12221SOL     OW48316   9.198   4.247   3.416  0.4251  0.1342  0.0316
12221SOL    HW148317   9.148   4.334   3.417  0.6704  0.2879 -0.8467
12221SOL    HW248318   9.132   4.171   3.409  0.1766  0.2097  1.3243
12222SOL     OW48319   6.794   5.390   0.439 -0.0669  0.2988 -0.2883
12222SOL    HW148320   6.872   5.374   0.499 -1.4940  2.0746  2.1146
12222SOL    HW248321   6.797   5.324   0.363  1.9654 -1.7714  1.4958
12223SOL     OW48322   2.883   8.637   6.438 -0.1374 -0.7771  0.3500
12223SOL    HW148323   2.921   8.595   6.520 -0.4459 -0.0971  0.8373
12223SOL    HW248324   2.882   8.569   6.364  2.8469 -0.5859  0.0550
12224SOL     OW48325   8.126   7.681   3.632 -0.6715 -0.3013 -0.7635
12224SOL    HW148326   8.167   7.595   3.602 -1.1509 -0.0346 -2.2329
12224SOL    HW248327   8.196   7.753   3.634 -0.1794 -0.8000  0.8718
12225SOL     OW48328   4.142   1.800   5.184  0.2194 -0.4146 -0.2370
12225SOL    HW148329   4.226   1.753   5.155  0.4687 -0.4049  0.4625
12225SOL    HW248330   4.114   1.765   5.273 -0.6718 -0.6060 -0.5838
12226SOL     OW48331   0.513   9.815   2.806  0.1830 -0.3082 -0.4923
12226SOL    HW148332   0.504   9.716   2.804  1.9470 -0.4774 -0.1955
12226SOL    HW248333   0.434   9.854   2.854 -0.5416 -1.5567 -0.6532
12227SOL     OW48334   1.718   0.534   0.877 -0.1811  0.1101 -0.5062
12227SOL    HW148335   1.780   0.587   0.818  0.6222 -0.4084 -0.1447
12227SOL    HW248336   1.624   0.558   0.857  0.1340  0.7769 -1.2083
12228SOL     OW48337   9.972   2.761   4.595  0.1969  0.0149 -0.5122
12228SOL    HW148338  10.015   2.754   4.506  0.2738 -0.4604 -0.4352
12228SOL    HW248339   9.902   2.690   4.606  0.7670 -0.4570  0.1235
12229SOL     OW48340   7.345   2.937   3.808 -0.2447  0.1569 -0.0932
12229SOL    HW148341   7.310   2.847   3.833 -0.2218  0.2971  0.4601
12229SOL    HW248342   7.392   2.977   3.887 -0.1833  0.6166 -0.3628
12230SOL     OW48343   2.362   3.936   3.312 -0.5219 -0.1474  0.0891
12230SOL    HW148344   2.350   3.962   3.408  2.4906  0.2563  0.4239
12230SOL    HW248345   2.370   3.836   3.306 -1.2684 -0.2128  0.1958
12231SOL     OW48346   9.569   0.677   5.082 -0.3422  0.2020 -0.3935
12231SOL    HW148347   9.520   0.618   5.146 -1.6451  2.1040  0.4212
12231SOL    HW248348   9.532   0.665   4.990 -0.1364 -0.7458 -0.3500
12232SOL     OW48349   2.413   3.905   4.148 -0.4448 -0.1408 -0.4981
12232SOL    HW148350   2.363   3.890   4.233  0.0922 -0.3853 -0.2282
12232SOL    HW248351   2.348   3.928   4.075 -0.6111  3.5144  0.7195
12233SOL     OW48352   5.660   7.956   1.823 -0.5761  0.0166 -0.6522
12233SOL    HW148353   5.599   7.876   1.822  1.2849 -1.4884  1.3998
12233SOL    HW248354   5.755   7.925   1.818  0.1250  2.2255 -1.7050
12234SOL     OW48355   0.712   0.496   3.004 -0.2549 -0.2858  0.4212
12234SOL    HW148356   0.798   0.521   2.960 -0.6776  1.3717  0.5089
12234SOL    HW248357   0.662   0.578   3.029 -1.0803 -1.2199  1.9311
12235SOL     OW48358   7.829   2.069   0.231  0.0172 -0.1137 -0.1890
12235SOL    HW148359   7.888   2.149   0.217 -0.6306  0.3174 -0.4753
12235SOL    HW248360   7.868   2.011   0.303  0.3686  0.5815  0.1855
12236SOL     OW48361   3.066   0.592   1.431  0.0089  0.0645  0.3298
12236SOL    HW148362   3.153   0.570   1.387  0.6706 -0.6163  1.9639
12236SOL    HW248363   2.991   0.564   1.371  0.8887 -1.3099 -0.1563
12237SOL     OW48364   9.536   1.529   0.877 -0.2880 -0.0386 -0.3230
12237SOL    HW148365   9.471   1.499   0.807 -1.4777  1.2271  0.2132
12237SOL    HW248366   9.557   1.626   0.863 -0.1617  0.0962  0.8040
12238SOL     OW48367   3.015   1.592   7.003  0.5137 -0.3413  0.5338
12238SOL    HW148368   3.064   1.673   7.035 -0.6735  1.2177 -1.4031
12238SOL    HW248369   3.072   1.542   6.938  0.4013  0.2482 -0.0321
12239SOL     OW48370   4.448   1.138   6.433  0.5389  0.2297 -0.6083
12239SOL    HW148371   4.424   1.224   6.388  0.8122 -0.0874 -1.3737
12239SOL    HW248372   4.541   1.144   6.470  0.7222  0.1142 -1.0469
12240SOL     OW48373   6.910   8.422   7.733 -0.4990  0.0716  0.6043
12240SOL    HW148374   6.858   8.472   7.802  0.7822 -1.3914  2.7117
12240SOL    HW248375   6.867   8.333   7.717 -0.6240  0.2856 -0.2746
12241SOL     OW48376   0.547   5.771   0.018  0.0286 -0.3927  0.3885
12241SOL    HW148377   0.539   5.870   0.010  2.6999 -0.1815 -0.2414
12241SOL    HW248378   0.535   5.729  -0.072 -0.5682 -0.5807  0.5592
12242SOL     OW48379   1.068   1.363   3.487  0.9377 -0.3703 -0.0298
12242SOL    HW148380   1.000   1.300   3.525  1.5204 -1.8110 -1.2884
12242SOL    HW248381   1.022   1.433   3.433  0.3817 -0.6243  0.1063
12243SOL     OW48382   9.522   3.425   4.683  0.1614  0.8949 -0.6051
12243SOL    HW148383   9.437   3.439   4.733 -0.1998  0.1005 -0.9925
12243SOL    HW248384   9.597   3.414   4.749 -0.4837 -1.2307 -0.1704
12244SOL     OW48385   0.150   5.823   6.897  0.5460  0.2229  0.2023
12244SOL    HW148386   0.216   5.896   6.881  1.0543 -0.2029  0.3647
12244SOL    HW248387   0.158   5.754   6.825 -0.0666  0.4156 -0.0605
12245SOL     OW48388   0.331   8.986   5.995  0.1186 -0.0761 -0.3894
12245SOL    HW148389   0.350   8.919   6.067 -0.0689  1.8399  1.5040
12245SOL    HW248390   0.416   9.010   5.948  0.1351 -1.8443 -1.2949
12246SOL     OW48391   9.149   8.135   5.647 -0.4485 -0.1245  0.7267
12246SOL    HW148392   9.117   8.230   5.654 -0.6186 -0.0217 -1.1365
12246SOL    HW248393   9.248   8.133   5.654  0.0021  0.7841 -3.7232
12247SOL     OW48394   8.705   5.616   5.600 -0.7674  0.1462  0.0129
12247SOL    HW148395   8.649   5.699   5.600 -2.5948 -1.0432 -1.2987
12247SOL    HW248396   8.646   5.537   5.583  1.2744 -1.1727 -1.0528
12248SOL     OW48397   4.108   2.067   7.671 -0.1725 -0.2590 -0.1712
12248SOL    HW148398   4.010   2.089   7.669  0.1163  0.9935 -1.2249
12248SOL    HW248399   4.159   2.148   7.699  0.6390 -0.6508 -0.5205
12249SOL     OW48400   4.720   4.619   2.969  1.1478 -0.3203 -0.2406
12249SOL    HW148401   4.701   4.661   2.880 -0.4667 -0.6238 -0.0570
12249SOL    HW248402   4.732   4.691   3.037  1.0058 -0.1103 -0.4369
12250SOL     OW48403   2.111   8.153   3.696  0.2101  0.0129 -0.1320
12250SOL    HW148404   2.178   8.150   3.622 -0.0565  0.4489 -0.3920
12250SOL    HW248405   2.029   8.102   3.669  0.9073 -1.6001  0.6699
12251SOL     OW48406   0.373   6.883   7.356  0.1391 -0.9855  1.1346
12251SOL    HW148407   0.404   6.792   7.387 -0.2545 -1.1645  0.9977
12251SOL    HW248408   0.404   6.898   7.262 -0.9673 -1.5358  0.6801
12252SOL     OW48409   3.540   5.341   4.798  0.0586  0.1705  1.1164
12252SOL    HW148410   3.506   5.331   4.704  1.7615  0.7559  0.4092
12252SOL    HW248411   3.476   5.395   4.852 -1.0245 -0.3230  0.3482
12253SOL     OW48412   1.624   0.748   0.569  0.5917 -0.7922 -0.4300
12253SOL    HW148413   1.693   0.710   0.631  0.2552  1.1482  1.1603
12253SOL    HW248414   1.554   0.796   0.621 -0.4435 -0.2642 -2.2406
12254SOL     OW48415   4.581   8.568   1.251  0.1802 -0.5844  0.1640
12254SOL    HW148416   4.618   8.571   1.343  1.5013 -0.3967 -0.3612
12254SOL    HW248417   4.589   8.658   1.208 -0.2931 -0.7050 -0.1782
12255SOL     OW48418   2.801   2.896   6.104 -0.1488  1.0026 -0.1829
12255SOL    HW148419   2.765   2.813   6.062 -0.5682  1.4238 -0.6663
12255SOL    HW248420   2.839   2.955   6.032  0.1940  1.2047  0.1640
12256SOL     OW48421   8.647   9.936   4.370  0.0063 -0.1891  0.1257
12256SOL    HW148422   8.582   9.964   4.299 -0.8691  0.6045  1.2156
12256SOL    HW248423   8.730   9.990   4.361 -1.0247  1.6364  1.1571
12257SOL     OW48424   4.978   0.321   4.449  0.7380 -0.0578  0.1932
12257SOL    HW148425   4.985   0.377   4.367 -1.0634 -1.1063 -0.6995
12257SOL    HW248426   5.043   0.245   4.443  0.5174 -0.2087 -0.3333
12258SOL     OW48427   1.908   1.942   1.177  0.1605 -0.1063  0.2886
12258SOL    HW148428   1.963   1.858   1.179 -0.2461 -0.3628  0.6333
12258SOL    HW248429   1.813   1.921   1.200 -0.4448  0.0848 -1.9228
12259SOL     OW48430   5.257   7.474   2.001 -0.1064  0.0758  0.4461
12259SOL    HW148431   5.277   7.474   1.903  2.2219 -1.3351  0.8769
12259SOL    HW248432   5.333   7.517   2.050 -0.0864 -1.4994  1.8331
12260SOL     OW48433   8.266   2.821   5.758  0.1625  0.6465 -0.4789
12260SOL    HW148434   8.224   2.912   5.750  0.7024  0.9426  0.0165
12260SOL    HW248435   8.256   2.788   5.852  0.1508  0.2880 -0.6082
12261SOL     OW48436   4.288   1.096   3.999 -0.6029  0.2212 -0.1078
12261SOL    HW148437   4.358   1.142   4.055 -1.5216 -0.2626  1.4856
12261SOL    HW248438   4.298   1.123   3.904  3.8428 -2.3066 -0.5134
12262SOL     OW48439   4.957   8.253   2.527 -0.2057 -0.0172 -0.0803
12262SOL    HW148440   4.966   8.156   2.547  0.1579 -0.1859 -1.0148
12262SOL    HW248441   4.873   8.288   2.568  0.7651 -0.2174  2.1065
12263SOL     OW48442   9.980   6.983   2.088  0.2000 -0.0646  0.6433
12263SOL    HW148443   9.943   6.893   2.068  0.6330  0.0963 -0.9433
12263SOL    HW248444   9.928   7.025   2.163  0.4812 -1.9172  1.9114
12264SOL     OW48445   2.226   5.590   7.375  0.2497  0.1314 -0.1818
12264SOL    HW148446   2.266   5.507   7.338 -0.8461 -0.0076 -1.0815
12264SOL    HW248447   2.294   5.664   7.373  0.7192 -0.3161 -0.9041
12265SOL     OW48448   2.658   9.004   2.197  0.0780  0.6173  0.3611
12265SOL    HW148449   2.744   9.029   2.151 -0.6404  2.1406 -0.1865
12265SOL    HW248450   2.678   8.972   2.290  1.2482  0.9822  0.2462
12266SOL     OW48451   7.319   5.321   0.645  0.1126  0.2047  0.2769
12266SOL    HW148452   7.408   5.280   0.664 -0.0995 -0.2817  0.2486
12266SOL    HW248453   7.300   5.394   0.711  0.1685 -0.2595  0.8065
12267SOL     OW48454   9.538   6.250   6.677  0.6196  0.1193 -0.3093
12267SOL    HW148455   9.509   6.162   6.639  2.0604 -0.1951 -0.6924
12267SOL    HW248456   9.466   6.318   6.661 -0.1689 -0.7954 -0.7011
12268SOL     OW48457   0.670   9.792   6.779  0.9493  1.2631  0.3591
12268SOL    HW148458   0.671   9.840   6.691  1.5394  1.8844  0.6985
12268SOL    HW248459   0.675   9.859   6.853  0.4572  0.7398  0.8710
12269SOL     OW48460   3.039   2.403   4.335  0.2350  0.2881 -0.5993
12269SOL    HW148461   3.006   2.325   4.283 -1.2191 -0.3779  1.2439
12269SOL    HW248462   2.963   2.465   4.355  0.2886 -0.5093  2.4174
12270SOL     OW48463   5.173   9.581   4.540 -0.4048  0.5818  0.2580
12270SOL    HW148464   5.161   9.589   4.639  0.4483  0.8276  0.3479
12270SOL    HW248465   5.169   9.485   4.514  1.1414  0.3676  0.7739
12271SOL     OW48466   4.871   2.674   5.927  0.4848  0.3917 -0.2218
12271SOL    HW148467   4.932   2.751   5.914 -1.6147  2.1319 -0.1166
12271SOL    HW248468   4.845   2.636   5.838  2.5642 -1.0956 -0.2344
12272SOL     OW48469   1.082   2.529   5.482  0.5545  0.1264 -0.1509
12272SOL    HW148470   1.176   2.520   5.449 -0.4373 -1.5896 -2.6993
12272SOL    HW248471   1.058   2.448   5.535  0.3291  0.2660 -0.0415
12273SOL     OW48472   4.000   7.983   2.804 -0.9966  0.3420 -0.5760
12273SOL    HW148473   3.913   8.033   2.804 -0.4400  1.3379 -1.1072
12273SOL    HW248474   4.007   7.928   2.887 -0.5931  3.0110  1.2273
12274SOL     OW48475   9.536   0.644   2.815  0.0479  0.0631 -0.2529
12274SOL    HW148476   9.600   0.594   2.874  0.0188 -0.4080 -0.6214
12274SOL    HW248477   9.491   0.580   2.753 -0.4899  0.4515 -0.2660
12275SOL     OW48478   3.900   2.872   1.176 -0.4228 -0.0449 -0.3488
12275SOL    HW148479   3.804   2.896   1.157 -0.7165 -1.3949 -0.5917
12275SOL    HW248480   3.945   2.846   1.091  0.2583  0.9075 -0.2815
12276SOL     OW48481   3.039   7.606   6.869 -0.1413 -0.4619 -0.4237
12276SOL    HW148482   3.029   7.509   6.847 -0.0834 -0.3052 -1.1539
12276SOL    HW248483   2.992   7.661   6.800 -3.1794 -0.0749  1.8747
12277SOL     OW48484   8.365   4.613   4.378 -0.0601  0.0749 -0.2244
12277SOL    HW148485   8.270   4.584   4.388  0.1471 -0.4978  0.0982
12277SOL    HW248486   8.370   4.713   4.381 -0.5811  0.0832  0.3484
12278SOL     OW48487   4.719   5.961   1.257 -0.1108 -0.2672 -0.2941
12278SOL    HW148488   4.632   6.006   1.235  0.1422  0.0663 -0.6217
12278SOL    HW248489   4.704   5.891   1.327 -0.5502  0.1575  0.0360
12279SOL     OW48490   1.715   3.499   8.180 -0.0418 -0.6804 -0.5156
12279SOL    HW148491   1.680   3.582   8.225 -1.1376 -0.6154 -1.4556
12279SOL    HW248492   1.719   3.425   8.247  1.9229  0.3734  0.5854
12280SOL     OW48493   4.428   5.332   2.638 -0.6753  0.0537 -0.1612
12280SOL    HW148494   4.445   5.379   2.551 -1.5377 -0.5447 -0.6540
12280SOL    HW248495   4.375   5.249   2.621 -1.9608  0.6042  1.0900
12281SOL     OW48496   8.674   0.322   4.242  0.6201  0.4780  0.3569
12281SOL    HW148497   8.714   0.403   4.284 -1.1009  1.1106  0.8300
12281SOL    HW248498   8.608   0.350   4.172  0.9622 -0.5386 -0.3959
12282SOL     OW48499   2.045   8.259   3.030  0.1056  0.1019 -0.5942
12282SOL    HW148500   2.112   8.249   2.956  1.5044 -0.3348  0.6948
12282SOL    HW248501   2.083   8.221   3.115 -1.1084  1.4004  0.5682
12283SOL     OW48502   6.774   4.189   2.030  0.5537 -0.2331 -0.2211
12283SOL    HW148503   6.837   4.121   1.994  0.1953  0.2460 -1.8164
12283SOL    HW248504   6.824   4.256   2.085  1.1341 -0.9353  0.1067
12284SOL     OW48505   2.829   2.978   1.236 -0.4267 -0.5757  0.0035
12284SOL    HW148506   2.855   2.993   1.140  0.7000 -0.3904  0.3264
12284SOL    HW248507   2.814   3.066   1.281  0.6336 -0.5947  0.4121
12285SOL     OW48508   7.990   6.375   8.108 -0.2816  0.1847  0.4641
12285SOL    HW148509   7.992   6.297   8.046 -2.4848  1.7016 -1.5906
12285SOL    HW248510   7.941   6.351   8.191 -2.1446 -0.2226 -0.7345
12286SOL     OW48511   4.061   6.804   9.837 -0.1125  0.1662  0.2300
12286SOL    HW148512   4.136   6.770   9.894 -1.7372 -0.5305  1.9904
12286SOL    HW248513   4.038   6.897   9.865  1.1410  1.0239 -1.4192
12287SOL     OW48514   9.916   4.669   4.550  0.1920 -0.3731 -0.0692
12287SOL    HW148515   9.819   4.663   4.573  0.0119 -0.7990 -0.9308
12287SOL    HW248516   9.940   4.594   4.489  1.3938 -1.1384  1.3116
12288SOL     OW48517   5.196   9.874   3.444 -0.6153  0.2071 -0.2863
12288SOL    HW148518   5.184   9.936   3.521  1.6348  1.1622 -0.6761
12288SOL    HW248519   5.182   9.780   3.474 -2.7167  0.7838  0.6061
12289SOL     OW48520   2.055   4.168   5.257 -0.3023 -0.2716 -0.5120
12289SOL    HW148521   1.980   4.164   5.324 -0.1228 -1.4438 -0.3652
12289SOL    HW248522   2.129   4.224   5.293 -0.0346 -1.2321  0.4554
12290SOL     OW48523   0.385   5.623   3.757  0.3215 -0.3171  0.5604
12290SOL    HW148524   0.434   5.554   3.704  0.6063 -0.2019  0.6732
12290SOL    HW248525   0.384   5.596   3.853  0.3975 -0.1840  0.5979
12291SOL     OW48526   5.500   0.618   5.249 -0.3762 -0.7814  0.6150
12291SOL    HW148527   5.593   0.651   5.230 -0.2981 -0.3165  1.7750
12291SOL    HW248528   5.435   0.673   5.198 -0.1099 -0.1313  0.9695
12292SOL     OW48529   0.565   9.394   3.898 -0.5238  0.4183  0.1230
12292SOL    HW148530   0.492   9.375   3.833 -0.0932 -0.8219 -0.0126
12292SOL    HW248531   0.649   9.351   3.868 -0.2467  0.0660  1.3499
12293SOL     OW48532   5.216   0.794   5.569 -0.3429 -0.3435 -0.7004
12293SOL    HW148533   5.248   0.886   5.545  0.2446 -0.2756  0.3003
12293SOL    HW248534   5.256   0.727   5.507  1.6931 -0.2494  0.4557
12294SOL     OW48535   9.725   6.565   1.658  0.2794 -0.2866  0.4891
12294SOL    HW148536   9.758   6.508   1.582 -0.3305  1.6733 -1.3113
12294SOL    HW248537   9.634   6.533   1.685 -0.9911  1.0913 -1.9614
12295SOL     OW48538   6.142   0.863   1.393 -0.0424 -0.5764  0.4191
12295SOL    HW148539   6.188   0.860   1.304 -0.6497  0.9189  0.0278
12295SOL    HW248540   6.048   0.829   1.383 -0.0458 -0.5978  0.5338
12296SOL     OW48541   7.168   0.048   3.637 -0.2631 -0.1587  0.0465
12296SOL    HW148542   7.164  -0.052   3.649  0.8154 -0.0709  1.2748
12296SOL    HW248543   7.244   0.070   3.576 -0.5798 -0.1045 -0.3233
12297SOL     OW48544   0.401   8.200   0.133 -0.0021  0.1722 -0.8705
12297SOL    HW148545   0.421   8.283   0.184 -0.3751 -0.6469  0.6692
12297SOL    HW248546   0.304   8.200   0.106 -0.4790 -0.5701  0.7430
12298SOL     OW48547   9.948   0.465   6.162 -0.3385 -0.0359  0.7485
12298SOL    HW148548   9.850   0.486   6.163 -0.6525 -1.3784 -0.3989
12298SOL    HW248549   9.969   0.407   6.084  1.5565  1.0311  0.4294
12299SOL     OW48550   2.878   7.547   0.648  0.4755  0.8496 -0.6547
12299SOL    HW148551   2.787   7.528   0.686  0.8796 -0.8160 -0.4968
12299SOL    HW248552   2.869   7.562   0.550 -0.0385  1.2296 -0.5568
12300SOL     OW48553   8.010   1.943   1.195 -0.2502  0.5587  0.1014
12300SOL    HW148554   8.107   1.937   1.169 -0.5360 -0.0682 -0.8793
12300SOL    HW248555   7.954   1.952   1.112 -1.1808 -1.3331  0.4790
12301SOL     OW48556   2.823   5.332   4.804 -0.2786  0.2910 -0.3134
12301SOL    HW148557   2.808   5.340   4.902  0.2297 -0.3463 -0.1805
12301SOL    HW248558   2.755   5.269   4.765 -0.8174  0.9625 -0.4575
12302SOL     OW48559   6.828   0.151   7.059 -0.1564 -0.0924  0.3661
12302SOL    HW148560   6.742   0.103   7.078 -1.1645  1.7683  0.6743
12302SOL    HW248561   6.811   0.250   7.059  1.1653  0.2050 -3.6436
12303SOL     OW48562   2.701   9.451   4.284 -0.1628  0.2065  0.1315
12303SOL    HW148563   2.787   9.400   4.285  1.1892  2.3738  0.9653
12303SOL    HW248564   2.624   9.388   4.277  1.4871 -1.7913 -0.5344
12304SOL     OW48565   3.385   0.502   0.924 -0.2155 -0.2925 -0.1520
12304SOL    HW148566   3.399   0.450   0.840 -0.5109  0.1967 -0.5074
12304SOL    HW248567   3.452   0.474   0.993 -0.5415 -1.3193 -0.2516
12305SOL     OW48568   1.332   2.730   3.804  0.2406 -0.2246 -0.2646
12305SOL    HW148569   1.312   2.730   3.902 -0.6450 -0.7911 -0.4428
12305SOL    HW248570   1.378   2.816   3.780 -0.4869  0.3801  0.4543
12306SOL     OW48571   2.091   2.089   1.384 -0.3489 -0.3057  0.0527
12306SOL    HW148572   2.049   2.002   1.356 -1.3010  0.5832 -1.3040
12306SOL    HW248573   2.025   2.163   1.374  0.8962  0.8047 -0.0840
12307SOL     OW48574   9.028   7.966   3.996  0.2557  0.1667  0.1766
12307SOL    HW148575   9.121   7.993   3.969 -0.1402  0.1896 -1.2368
12307SOL    HW248576   8.962   8.028   3.955 -0.4059 -0.0748  0.8721
12308SOL     OW48577   8.633   4.679   6.237 -0.1055  0.1420 -0.0733
12308SOL    HW148578   8.717   4.714   6.195 -0.1123  0.1886 -0.0493
12308SOL    HW248579   8.605   4.741   6.310  0.3931 -0.4061  0.5819
12309SOL     OW48580   1.473   3.765   2.595  0.4222  0.3102  0.6098
12309SOL    HW148581   1.453   3.863   2.593 -0.9938  0.0114 -0.9155
12309SOL    HW248582   1.553   3.746   2.538  0.7639  0.5874  0.9922
12310SOL     OW48583   0.064   2.862   7.267  0.3545 -0.3776 -0.1504
12310SOL    HW148584   0.007   2.810   7.330  2.0902 -1.2753  0.7135
12310SOL    HW248585   0.110   2.937   7.315 -0.5492  0.7177 -0.9634
12311SOL     OW48586   5.347   0.364   3.982  0.1905 -0.1916 -0.5502
12311SOL    HW148587   5.347   0.409   3.892  1.7400 -0.1129 -0.5315
12311SOL    HW248588   5.275   0.404   4.039  0.8398  1.5333 -0.9080
12312SOL     OW48589   6.923   3.992   2.249 -0.3563  0.0176 -0.1439
12312SOL    HW148590   6.995   4.027   2.188  1.4333 -0.1067  1.8217
12312SOL    HW248591   6.895   4.065   2.312 -4.3867  1.0837 -3.0064
12313SOL     OW48592   2.445   5.837   7.387 -0.3279 -0.1860  0.2807
12313SOL    HW148593   2.523   5.888   7.351 -0.9509  0.9217  0.4670
12313SOL    HW248594   2.367   5.899   7.399 -2.3884 -1.9546 -3.3392
12314SOL     OW48595   2.604   0.767   0.437  0.2764  0.0208  0.3296
12314SOL    HW148596   2.669   0.707   0.485  1.4880  1.2315  0.2529
12314SOL    HW248597   2.647   0.802   0.354  0.1097  2.1127  1.1065
12315SOL     OW48598   3.069   5.630   3.968  0.0907 -0.3441  0.2815
12315SOL    HW148599   2.995   5.657   4.029 -0.0743 -0.5766  0.1874
12315SOL    HW248600   3.038   5.554   3.911 -0.2784  0.8195 -1.1273
12316SOL     OW48601   8.802   7.751   1.225  0.2698  0.5476 -0.3291
12316SOL    HW148602   8.730   7.720   1.163  0.9844  0.3811 -1.0767
12316SOL    HW248603   8.813   7.684   1.299  0.7329 -0.2106 -1.0777
12317SOL     OW48604   6.456   0.252   7.909  0.1286  0.1184  0.2155
12317SOL    HW148605   6.378   0.230   7.968  0.5149 -0.7414  0.4242
12317SOL    HW248606   6.453   0.194   7.827  0.6671 -0.0861  0.3356
12318SOL     OW48607   9.603   4.799   7.562  0.4065 -0.4450  0.6508
12318SOL    HW148608   9.530   4.849   7.516  0.1989 -0.6960  0.7047
12318SOL    HW248609   9.581   4.701   7.563  1.2075 -0.6418 -0.1872
12319SOL     OW48610   2.985   0.318   5.501  0.5635 -0.3613 -0.8912
12319SOL    HW148611   2.895   0.342   5.535  1.4399  1.9705 -0.1287
12319SOL    HW248612   2.983   0.314   5.401 -0.3286 -0.1213 -0.8855
12320SOL     OW48613   2.171   1.172   5.835  0.5557  0.0657 -0.4886
12320SOL    HW148614   2.158   1.074   5.825  2.8566 -0.1631 -1.4308
12320SOL    HW248615   2.234   1.205   5.765 -1.0637  2.4170 -0.8769
12321SOL     OW48616   7.673   8.247   3.910 -0.0543 -0.1454 -0.2384
12321SOL    HW148617   7.666   8.226   4.007  0.4149 -1.0781 -0.4018
12321SOL    HW248618   7.751   8.198   3.870  0.6581  1.3755 -0.7713
12322SOL     OW48619   3.647   4.078   3.558 -0.5002  0.2114  0.1252
12322SOL    HW148620   3.638   4.095   3.656 -0.9327 -0.9602  0.3054
12322SOL    HW248621   3.735   4.112   3.525 -0.8901  1.7694  0.6472
12323SOL     OW48622   3.150   2.228   3.790  0.0658 -0.0187  0.3253
12323SOL    HW148623   3.233   2.201   3.838  2.0515  2.4678 -1.6032
12323SOL    HW248624   3.105   2.303   3.840 -3.1844 -3.7559  3.4023
12324SOL     OW48625   8.792   4.732   1.460  0.3160  0.3956 -0.2856
12324SOL    HW148626   8.696   4.740   1.486  0.2216  0.2681 -0.5849
12324SOL    HW248627   8.800   4.668   1.383  0.5975  0.6920 -0.5041
12325SOL     OW48628   3.010   1.313   7.358  0.1296  0.5827  0.5355
12325SOL    HW148629   3.033   1.225   7.400  0.4728  1.3703  2.0358
12325SOL    HW248630   2.934   1.300   7.294  0.8697 -0.9873 -0.0644
12326SOL     OW48631   9.685   1.159   5.771 -0.0119  0.3931  0.0656
12326SOL    HW148632   9.589   1.177   5.753  0.2761 -0.1821 -2.3349
12326SOL    HW248633   9.732   1.244   5.794 -0.6683  1.0592 -1.0148
12327SOL     OW48634   5.750   4.866   1.101  0.0350 -0.0274  0.2555
12327SOL    HW148635   5.797   4.809   1.168  0.4701  0.8897  0.7473
12327SOL    HW248636   5.677   4.918   1.147  0.2943  0.5603  0.0122
12328SOL     OW48637   5.976   3.161   1.950  0.4154 -0.0679  0.0685
12328SOL    HW148638   5.970   3.109   2.035  2.2859  0.2234  0.4062
12328SOL    HW248639   5.963   3.100   1.872  0.4041 -0.6427  0.5200
12329SOL     OW48640   7.931   5.147   0.581  0.0217 -0.0928  0.5248
12329SOL    HW148641   7.850   5.098   0.549  1.4212 -1.2232 -1.3962
12329SOL    HW248642   7.964   5.106   0.665 -1.6480  0.6743  1.5872
12330SOL     OW48643   2.648   2.570   0.733  1.2754 -0.1149  0.3635
12330SOL    HW148644   2.689   2.647   0.683  1.2610 -0.4432 -0.1569
12330SOL    HW248645   2.613   2.503   0.667  0.5812 -0.1945  0.8155
12331SOL     OW48646   9.075   7.875   5.596  0.5533 -0.5508  0.0301
12331SOL    HW148647   9.034   7.865   5.506 -2.8023  2.1596  1.1264
12331SOL    HW248648   9.136   7.954   5.597 -0.7112  0.4277  0.5441
12332SOL     OW48649   0.934   7.248   7.202 -0.8193 -0.0315 -0.1651
12332SOL    HW148650   0.845   7.237   7.157 -1.3984 -0.8142  1.1437
12332SOL    HW248651   0.921   7.249   7.301  0.5360  0.8093  0.0096
12333SOL     OW48652   3.236   8.071   0.987 -0.4389 -0.3777  0.0143
12333SOL    HW148653   3.214   8.020   0.904 -2.0786  0.3654 -0.0338
12333SOL    HW248654   3.291   8.151   0.964 -1.4954  0.2201 -0.4638
12334SOL     OW48655   1.094   4.166   3.410  0.1734 -0.3143  0.0538
12334SOL    HW148656   1.184   4.205   3.430 -0.2277  0.6322  0.0252
12334SOL    HW248657   1.023   4.232   3.434 -0.4637 -0.5629 -1.1237
12335SOL     OW48658   0.998   9.789   4.199  0.1875 -0.1294 -0.2713
12335SOL    HW148659   1.064   9.863   4.186 -1.0914  0.8685 -1.2581
12335SOL    HW248660   0.991   9.736   4.115 -0.3404 -0.1444 -0.2232
12336SOL     OW48661   9.832   4.603   5.506 -0.2749  0.0095 -0.4400
12336SOL    HW148662   9.765   4.539   5.544  0.8698 -0.5391  0.7458
12336SOL    HW248663   9.920   4.556   5.498  0.5163  1.3593  0.1996
12337SOL     OW48664   4.602   5.407   1.971  0.1717  0.1265  0.0201
12337SOL    HW148665   4.531   5.454   1.920 -1.5886 -1.8285  0.6208
12337SOL    HW248666   4.568   5.319   2.004  2.5950 -0.4938  1.0304
12338SOL     OW48667   7.115   5.797   3.157  0.3562  0.2473  0.0486
12338SOL    HW148668   7.177   5.765   3.228 -2.0909 -1.5474  1.4497
12338SOL    HW248669   7.067   5.879   3.188  1.5458  1.2684 -0.7830
12339SOL     OW48670   0.828   4.422   6.774  0.0303 -0.1069  0.4453
12339SOL    HW148671   0.806   4.335   6.817  0.9106  0.5806  2.3603
12339SOL    HW248672   0.743   4.471   6.754 -0.4313 -0.9035  0.4304
12340SOL     OW48673   3.677   5.618   3.271 -0.6177  0.1310 -0.5606
12340SOL    HW148674   3.583   5.640   3.299 -0.2968 -0.4243  1.0064
12340SOL    HW248675   3.731   5.595   3.352  1.1257  1.3273 -1.3577
12341SOL     OW48676   6.434   0.891   1.749 -0.2210 -0.0878 -0.0278
12341SOL    HW148677   6.446   0.840   1.835 -0.9379  0.7035  0.5502
12341SOL    HW248678   6.509   0.956   1.739  0.3629 -0.8195 -0.4639
12342SOL     OW48679   4.102   4.696   2.412 -0.5701  0.2613 -0.1753
12342SOL    HW148680   4.197   4.669   2.402 -0.6318  0.7583 -2.4334
12342SOL    HW248681   4.091   4.749   2.496  0.9762 -0.4487  0.4892
12343SOL     OW48682   8.862   1.615   7.626  0.0365 -0.0240 -0.1747
12343SOL    HW148683   8.893   1.523   7.601 -1.7957 -0.6942 -0.0790
12343SOL    HW248684   8.846   1.619   7.725  2.1699  1.0560  0.1609
12344SOL     OW48685   9.398   9.110   5.112 -0.4066  0.4257 -0.0879
12344SOL    HW148686   9.405   9.064   5.023  1.2174 -2.0100  1.2334
12344SOL    HW248687   9.481   9.164   5.128  0.1657 -0.6908  0.7626
12345SOL     OW48688   4.437   8.819   3.403 -0.2008 -0.3369 -0.2659
12345SOL    HW148689   4.401   8.894   3.348  0.5708  0.2324 -0.0081
12345SOL    HW248690   4.478   8.751   3.343  0.7306  0.3321 -0.4029
12346SOL     OW48691   2.586   5.975   3.930  0.2077 -0.3794 -0.1753
12346SOL    HW148692   2.595   6.074   3.923 -1.3625 -0.1451  0.8089
12346SOL    HW248693   2.494   5.948   3.900  0.3694 -1.4495  0.2653
12347SOL     OW48694   2.388   0.528   4.947  0.6265  0.5975 -0.1740
12347SOL    HW148695   2.334   0.447   4.972 -0.9298  1.9483  0.9485
12347SOL    HW248696   2.395   0.534   4.848  1.3529 -1.2866 -0.2544
12348SOL     OW48697   5.401   8.034   2.421 -0.4780  0.0097  0.9447
12348SOL    HW148698   5.500   8.031   2.404 -0.8204 -0.0008 -1.1555
12348SOL    HW248699   5.368   8.128   2.411 -1.0173 -0.3180 -0.4406
12349SOL     OW48700   1.411   6.346   3.682  0.6149  0.4048 -0.3790
12349SOL    HW148701   1.362   6.263   3.710 -1.8785  1.9956  0.0444
12349SOL    HW248702   1.397   6.361   3.584 -0.0887  1.1070 -0.1666
12350SOL     OW48703   5.193   8.110   3.826  0.2526 -0.2567  0.1463
12350SOL    HW148704   5.139   8.026   3.814 -1.8841  1.0215  0.5780
12350SOL    HW248705   5.141   8.188   3.794  1.4263  1.1549  1.5761
12351SOL     OW48706   0.340   6.509   5.422 -0.1952  0.4584  0.4170
12351SOL    HW148707   0.314   6.486   5.516 -1.9431 -1.8216 -0.5655
12351SOL    HW248708   0.400   6.438   5.385 -0.4164  0.7734 -0.5669
12352SOL     OW48709   0.333   4.124   4.503  0.4997 -0.4659  0.1389
12352SOL    HW148710   0.355   4.159   4.412  1.5181 -0.4449  0.3910
12352SOL    HW248711   0.417   4.104   4.553 -0.0205  0.7627  1.5501
12353SOL     OW48712   4.519   9.438   6.445 -0.1489  0.3097 -0.0546
12353SOL    HW148713   4.618   9.425   6.445 -0.4145 -2.1370  1.4988
12353SOL    HW248714   4.478   9.384   6.372 -0.3333  1.4504 -0.8010
12354SOL     OW48715   8.509   0.528   5.055 -0.3909  0.0083  0.8072
12354SOL    HW148716   8.451   0.610   5.050 -0.7682 -0.3560 -1.0478
12354SOL    HW248717   8.486   0.466   4.980  1.0013 -1.0802  1.2606
12355SOL     OW48718   8.722   8.274   5.220  0.3625 -0.1165  0.4987
12355SOL    HW148719   8.634   8.300   5.180  0.9162  1.1176  0.0669
12355SOL    HW248720   8.763   8.201   5.166  0.6911  0.9173 -0.6546
12356SOL     OW48721   0.012   1.781   2.844  0.8608 -0.0028 -0.0963
12356SOL    HW148722   0.007   1.846   2.920  0.5786 -1.8907  1.5181
12356SOL    HW248723  -0.068   1.792   2.785  0.5950  0.7907  0.4098
12357SOL     OW48724   8.942   3.046   4.042 -0.0683  0.0261 -0.3786
12357SOL    HW148725   8.909   3.104   3.967 -1.7095  0.1346  0.4149
12357SOL    HW248726   9.042   3.043   4.040  0.0634  3.2348 -0.1645
12358SOL     OW48727   4.521   2.139   5.143 -0.6157 -0.2951 -0.1867
12358SOL    HW148728   4.558   2.069   5.082  1.3385  1.1129 -0.6558
12358SOL    HW248729   4.560   2.128   5.234 -0.7403 -0.1518 -0.1153
12359SOL     OW48730   0.130   7.301   4.531  0.4827  0.4151  0.1337
12359SOL    HW148731   0.162   7.396   4.526  1.3636  0.0897 -0.5411
12359SOL    HW248732   0.152   7.263   4.621 -0.0827  0.9146  0.4921
12360SOL     OW48733   1.155   4.166   0.951 -0.2202  0.4075  0.2849
12360SOL    HW148734   1.080   4.136   1.010  1.2874 -2.8800  0.6562
12360SOL    HW248735   1.191   4.087   0.901  2.5862  2.0139 -0.3306
12361SOL     OW48736   5.645   4.654   2.101  0.0032 -0.8634 -0.1360
12361SOL    HW148737   5.659   4.634   2.004 -1.8577  0.6202 -0.7548
12361SOL    HW248738   5.705   4.728   2.130 -0.4725 -0.3107 -0.5506
12362SOL     OW48739   2.616   3.444   5.036 -0.5462 -0.3978 -0.6895
12362SOL    HW148740   2.583   3.380   4.967 -1.0706  1.0493 -1.8029
12362SOL    HW248741   2.635   3.533   4.993  1.5962 -0.2218  0.5475
12363SOL     OW48742   9.855   5.100   6.661  0.2919 -0.6568 -0.4874
12363SOL    HW148743   9.924   5.165   6.629  0.2570  0.6471  1.9652
12363SOL    HW248744   9.880   5.066   6.752 -1.1690 -1.8855 -0.5196
12364SOL     OW48745   2.366   9.282   2.146  0.3078 -0.4778  0.2382
12364SOL    HW148746   2.366   9.193   2.102  0.3963 -0.4291  0.1418
12364SOL    HW248747   2.442   9.337   2.112  1.9949 -1.3961  2.4143
12365SOL     OW48748   8.713   4.658   6.698  0.1278  0.4599  0.0873
12365SOL    HW148749   8.784   4.595   6.665 -0.0425  0.6883 -0.7350
12365SOL    HW248750   8.754   4.723   6.763  0.4072 -0.1948  0.5694
12366SOL     OW48751   1.026   4.635   0.928 -0.3440 -0.5746  0.3580
12366SOL    HW148752   0.974   4.691   0.863  1.7751 -0.2312 -1.0914
12366SOL    HW248753   1.113   4.608   0.886 -0.1209 -2.6264  2.0761
12367SOL     OW48754   4.438   1.201   6.873 -0.4085  0.3168 -0.4136
12367SOL    HW148755   4.457   1.298   6.893 -0.4110  0.2500 -0.0720
12367SOL    HW248756   4.510   1.145   6.915 -0.6799  0.1388 -0.1898
12368SOL     OW48757   7.170   1.452   5.995  0.2274 -0.2424  0.3521
12368SOL    HW148758   7.135   1.376   5.939 -0.2199 -0.3702  0.8011
12368SOL    HW248759   7.126   1.537   5.966  4.3139  0.7558 -3.5596
12369SOL     OW48760   6.381   2.335   6.258  0.7101  0.1435 -0.3022
12369SOL    HW148761   6.344   2.350   6.166 -0.8498 -0.1409  0.2561
12369SOL    HW248762   6.337   2.255   6.299 -1.0664  2.1984  1.9323
12370SOL     OW48763   5.489   0.160   6.900 -0.1294 -0.4383 -0.3967
12370SOL    HW148764   5.558   0.179   6.969 -1.4988 -1.7532  1.3624
12370SOL    HW248765   5.434   0.242   6.884  1.3299  0.3929 -1.2680
12371SOL     OW48766   1.333   2.929   0.604  0.4473  0.8549  0.1579
12371SOL    HW148767   1.279   2.932   0.520  1.5636  0.0259 -0.6022
12371SOL    HW248768   1.420   2.976   0.590  2.1291 -2.2506 -0.2723
12372SOL     OW48769   3.522   1.457   0.512  0.2017  0.4525 -0.0588
12372SOL    HW148770   3.587   1.532   0.503  1.7921 -0.8315  0.5474
12372SOL    HW248771   3.447   1.470   0.447  0.7087  2.2856 -0.3104
12373SOL     OW48772   9.767   9.890   4.162  0.8143 -0.0757 -0.4454
12373SOL    HW148773   9.687   9.910   4.219  1.0985 -1.5294  0.5013
12373SOL    HW248774   9.757   9.934   4.073 -0.6644  0.4236 -0.0433
12374SOL     OW48775   0.994   2.033   1.434  0.1462  0.2108  0.5521
12374SOL    HW148776   1.068   2.037   1.368  0.3939 -0.0553  0.8126
12374SOL    HW248777   0.973   2.125   1.467  2.2886 -0.0169  2.6294
12375SOL     OW48778   4.076   8.661   4.729 -0.0084 -0.4930 -0.6185
12375SOL    HW148779   4.041   8.569   4.715  0.6133 -0.7725 -0.3368
12375SOL    HW248780   4.089   8.706   4.640 -1.8020 -0.1077 -0.7055
12376SOL     OW48781   2.589   0.819   7.558 -0.6570 -0.2758  0.2229
12376SOL    HW148782   2.507   0.802   7.503 -1.4679 -0.9560  1.6071
12376SOL    HW248783   2.639   0.734   7.571 -0.0282  0.0349 -0.1345
12377SOL     OW48784   5.595   9.116   3.518 -0.3989 -0.6442  0.4390
12377SOL    HW148785   5.656   9.037   3.527 -1.1215 -1.2545 -0.0398
12377SOL    HW248786   5.635   9.182   3.455  0.2769 -0.5542  0.9524
12378SOL     OW48787   1.130   3.778   1.094  0.1822 -0.2002 -0.4473
12378SOL    HW148788   1.164   3.836   1.021 -0.3852 -2.0068 -2.1865
12378SOL    HW248789   1.196   3.705   1.113  0.7055  0.7207  1.4313
12379SOL     OW48790   1.597   2.272   2.598 -0.3261  0.0306  0.0579
12379SOL    HW148791   1.639   2.184   2.577  0.0248  0.0259  0.7569
12379SOL    HW248792   1.667   2.343   2.597 -0.2859  0.0165  1.2627
12380SOL     OW48793   1.022   4.845   2.462 -0.3912 -0.4851  0.4562
12380SOL    HW148794   0.938   4.820   2.510 -0.0268 -2.0702  0.2781
12380SOL    HW248795   1.096   4.854   2.528 -0.0103 -2.1418  0.2704
12381SOL     OW48796   0.559   1.497   4.020 -0.1279  0.2041 -0.2281
12381SOL    HW148797   0.516   1.577   3.976  1.3502  0.6127 -0.9496
12381SOL    HW248798   0.512   1.477   4.106 -0.4101  1.9581  0.0429
12382SOL     OW48799   8.629   2.649   5.105 -0.6440 -0.5140 -0.1292
12382SOL    HW148800   8.625   2.748   5.121  1.7346 -0.6193  1.3174
12382SOL    HW248801   8.561   2.604   5.162 -0.4072  0.1363  0.6804
12383SOL     OW48802   2.598   2.247   0.209 -0.1135  0.0902 -0.5911
12383SOL    HW148803   2.567   2.341   0.194  0.9836  0.2943 -1.6333
12383SOL    HW248804   2.538   2.203   0.275 -3.0468  0.2647 -3.0151
12384SOL     OW48805   0.350   1.968  10.044  0.3664  0.4765  0.3018
12384SOL    HW148806   0.430   2.002   9.995  1.1282 -0.5178  0.8410
12384SOL    HW248807   0.307   2.043  10.095  0.2583  1.2652 -0.9299
12385SOL     OW48808   6.621   5.771   1.586 -0.0807  0.2734 -0.3494
12385SOL    HW148809   6.634   5.784   1.488 -3.3855 -2.5555 -1.2778
12385SOL    HW248810   6.703   5.730   1.625  1.1409  1.0909 -1.9954
12386SOL     OW48811   7.396   0.004   6.238  0.4567 -0.0086 -0.0740
12386SOL    HW148812   7.394  -0.078   6.181  1.2587 -1.4518  1.8830
12386SOL    HW248813   7.491   0.035   6.248  0.1446  1.2766 -0.9289
12387SOL     OW48814   2.332   1.990   7.616  0.1736 -0.1037  0.5167
12387SOL    HW148815   2.238   2.014   7.637 -0.8705 -2.4879 -1.2246
12387SOL    HW248816   2.351   1.896   7.646  1.5658 -0.1462 -0.4196
12388SOL     OW48817   0.421   0.793   1.408 -0.0561  0.3062  0.0887
12388SOL    HW148818   0.378   0.805   1.318 -0.1738  0.6989  0.1980
12388SOL    HW248819   0.452   0.882   1.442  0.9158  0.0225 -0.0243
12389SOL     OW48820   7.786   9.587   6.628 -0.9340  0.5759  0.0438
12389SOL    HW148821   7.701   9.596   6.681 -0.2785  2.7358  0.7580
12389SOL    HW248822   7.858   9.643   6.670  0.9771 -1.5364 -0.3221
12390SOL     OW48823   0.984   0.443   2.152 -0.2576  0.2109 -0.8500
12390SOL    HW148824   0.957   0.419   2.059 -1.7451 -1.1577 -0.0917
12390SOL    HW248825   0.927   0.393   2.217  0.7915  1.1204  0.8023
12391SOL     OW48826   4.775   2.767   4.525  0.1210 -0.0953  0.1992
12391SOL    HW148827   4.857   2.709   4.527 -0.3881 -0.8552 -0.4188
12391SOL    HW248828   4.694   2.709   4.530 -0.4038  0.5623 -0.6318
12392SOL     OW48829   7.294   3.732   1.992 -0.1295  0.0407  0.2855
12392SOL    HW148830   7.353   3.787   1.933  0.5890 -0.1402  0.8317
12392SOL    HW248831   7.286   3.639   1.955  0.0795  0.0118  0.3145
12393SOL     OW48832   0.912   6.610   7.589  0.6073 -0.0458 -0.4772
12393SOL    HW148833   0.970   6.690   7.574 -0.1749  0.7683  0.7098
12393SOL    HW248834   0.857   6.624   7.672 -1.4063 -0.7155 -1.6515
12394SOL     OW48835   3.822   0.947   5.630  0.7020 -0.1631  0.1747
12394SOL    HW148836   3.804   0.867   5.573  0.3844  0.4561 -0.5993
12394SOL    HW248837   3.851   0.917   5.721  0.3812 -1.1585 -0.0451
12395SOL     OW48838   9.804   6.707   0.590  0.0974  0.5544 -0.4644
12395SOL    HW148839   9.737   6.676   0.657  0.5488  0.2129 -0.1704
12395SOL    HW248840   9.758   6.728   0.504 -0.1401 -1.7595 -0.9424
12396SOL     OW48841   3.858   6.933   2.980 -0.1583 -0.2314  0.5061
12396SOL    HW148842   3.881   6.840   2.952 -1.2285 -1.0221  2.1487
12396SOL    HW248843   3.764   6.954   2.954  0.8994  1.3975 -2.2474
12397SOL     OW48844   1.210   2.032   6.213 -0.4555  0.2141  0.2964
12397SOL    HW148845   1.240   2.071   6.300  0.6857 -0.6670  0.3108
12397SOL    HW248846   1.238   2.091   6.138 -0.1648  0.2356  0.4230
12398SOL     OW48847   6.951   7.034   7.329  0.0367  0.1039  0.1527
12398SOL    HW148848   6.947   6.963   7.259  1.1064 -0.5733  0.7598
12398SOL    HW248849   7.036   7.084   7.321 -0.3681  0.8044  0.2270
12399SOL     OW48850   9.534   1.246   7.062 -0.1226  0.2184  0.3785
12399SOL    HW148851   9.444   1.205   7.042  0.2083 -0.7023  0.7788
12399SOL    HW248852   9.601   1.174   7.076  1.0788  0.9016 -1.6337
12400SOL     OW48853   1.975   5.827   2.934 -0.0956 -0.4341 -0.0794
12400SOL    HW148854   1.966   5.731   2.909 -1.6101 -0.4785  0.6195
12400SOL    HW248855   1.886   5.864   2.957  0.4143  1.2785 -0.7954
12401SOL     OW48856   2.419   7.010   1.432 -0.3133 -0.1407  0.3582
12401SOL    HW148857   2.339   7.069   1.422 -0.5423 -0.0462  2.5561
12401SOL    HW248858   2.477   7.045   1.506 -0.9847 -3.2302  2.4270
12402SOL     OW48859   9.991   5.126   3.503 -0.5611 -0.2406 -0.3026
12402SOL    HW148860   9.906   5.130   3.450 -0.7208 -0.7492 -0.0939
12402SOL    HW248861   9.988   5.046   3.563 -0.4658  0.4401  0.6203
12403SOL     OW48862   5.125   2.928   0.408 -0.4957  0.3042 -0.4120
12403SOL    HW148863   5.118   3.022   0.441 -2.9256  0.0918 -0.2202
12403SOL    HW248864   5.099   2.926   0.311  1.2969  0.0955 -0.8959
12404SOL     OW48865   9.844   0.193   2.734 -0.6187 -0.5355 -0.1825
12404SOL    HW148866   9.909   0.259   2.695 -1.5157 -0.5011 -1.6545
12404SOL    HW248867   9.894   0.125   2.788  0.6087 -0.2100 -0.8814
12405SOL     OW48868   3.958   3.059   6.633 -0.2330  0.3266  0.1867
12405SOL    HW148869   3.899   3.002   6.691  0.3162  0.2671  0.6949
12405SOL    HW248870   3.924   3.152   6.631 -0.2165  0.3432  0.6631
12406SOL     OW48871   2.724   2.918   2.419  0.3608 -0.1847  0.1741
12406SOL    HW148872   2.647   2.957   2.369  0.7890  2.5825  1.5406
12406SOL    HW248873   2.796   2.892   2.355 -0.3185  0.4536 -0.8544
12407SOL     OW48874   5.003   6.253   1.718 -0.1457  0.4795  0.1090
12407SOL    HW148875   5.054   6.262   1.633 -0.0204 -0.2426  0.1075
12407SOL    HW248876   4.905   6.247   1.698 -0.1634  0.9579  0.0553
12408SOL     OW48877   0.010   3.265   2.141 -0.4213  0.4384 -0.4266
12408SOL    HW148878  -0.062   3.331   2.120 -0.9278  0.9536  2.6737
12408SOL    HW248879   0.085   3.311   2.187 -0.5896 -1.0305  1.3777
12409SOL     OW48880   8.207   5.874   9.996 -0.2591  0.3765  0.0597
12409SOL    HW148881   8.166   5.789  10.029 -1.4523  0.9201  0.0208
12409SOL    HW248882   8.143   5.918   9.932 -0.0340  1.7364  0.7580
12410SOL     OW48883   7.210   6.778   7.568  0.5883  0.2085  0.3272
12410SOL    HW148884   7.277   6.826   7.511 -0.6966  2.1412  0.3965
12410SOL    HW248885   7.151   6.722   7.509 -1.0659  2.5988 -0.4024
12411SOL     OW48886   6.570   9.698   5.908  0.7014  0.4068  0.1277
12411SOL    HW148887   6.603   9.684   5.815  1.0751  0.9843  0.1695
12411SOL    HW248888   6.543   9.610   5.947 -1.2292  0.3999 -1.1718
12412SOL     OW48889   3.714   4.387   0.242 -0.0598  0.1231  0.3376
12412SOL    HW148890   3.807   4.351   0.234 -0.8637 -1.9145 -0.1567
12412SOL    HW248891   3.716   4.487   0.229  1.9487  0.0171 -0.4218
12413SOL     OW48892   7.201   1.666   3.033  0.0527 -0.0683  0.0091
12413SOL    HW148893   7.228   1.760   3.052 -0.7689  0.5124 -1.5957
12413SOL    HW248894   7.250   1.633   2.952  0.0442 -0.8812  0.3290
12414SOL     OW48895   6.667   5.245   9.859  0.0209  0.0796  0.2722
12414SOL    HW148896   6.755   5.234   9.904 -0.1781  0.3938  0.7415
12414SOL    HW248897   6.656   5.174   9.789  0.3223 -0.4190  0.7270
12415SOL     OW48898   9.946   3.727   4.837  0.5211  0.2321 -0.3792
12415SOL    HW148899  10.005   3.787   4.891  0.5126  0.8644 -1.0547
12415SOL    HW248900   9.850   3.752   4.853  0.5048  0.1846 -0.4074
12416SOL     OW48901   6.354   8.114   6.630 -0.2151 -0.1615 -0.0553
12416SOL    HW148902   6.296   8.150   6.558 -1.0918 -1.0871  0.1791
12416SOL    HW248903   6.364   8.015   6.619  2.4140  0.1457 -0.8746
12417SOL     OW48904   7.822   2.895   3.761 -0.6029 -0.3265  0.0754
12417SOL    HW148905   7.767   2.841   3.698 -1.4057  0.3115  0.2276
12417SOL    HW248906   7.762   2.943   3.825  0.1602 -0.1962  0.7003
12418SOL     OW48907   1.130   0.105   7.451  0.6413  0.0281 -0.7999
12418SOL    HW148908   1.034   0.131   7.460  0.8414  0.7673 -0.8008
12418SOL    HW248909   1.185   0.186   7.435  1.8091  0.1605  3.3080
12419SOL     OW48910   7.756   4.492   1.744  0.2120  0.0785 -0.0190
12419SOL    HW148911   7.804   4.484   1.656  2.0728  0.5374  0.9328
12419SOL    HW248912   7.807   4.553   1.804 -1.4347  0.3333  1.1340
12420SOL     OW48913   4.947   3.432   1.933 -0.3468 -0.3348 -0.5468
12420SOL    HW148914   4.958   3.490   1.853 -0.0283  0.7931  0.2979
12420SOL    HW248915   4.958   3.336   1.907  2.4313  0.1595 -1.4056
12421SOL     OW48916   4.908   7.988   6.663  0.9127 -0.2270  0.4363
12421SOL    HW148917   4.899   7.915   6.596  1.0900  1.4803 -1.5072
12421SOL    HW248918   5.001   8.026   6.658  0.9293 -0.0906  1.6603
12422SOL     OW48919   1.290   6.297   1.810 -0.0082  0.4671 -0.3029
12422SOL    HW148920   1.361   6.365   1.830 -0.6766  0.7444  1.1632
12422SOL    HW248921   1.313   6.250   1.725  2.0482  0.4174  0.2401
12423SOL     OW48922   0.495   5.647   5.246  0.6359  0.0324  0.5457
12423SOL    HW148923   0.477   5.715   5.175  1.6640  0.6645  0.8812
12423SOL    HW248924   0.412   5.631   5.299  0.1675  0.3981 -0.0676
12424SOL     OW48925   7.405   5.806   0.133 -0.7721 -0.0925  0.3424
12424SOL    HW148926   7.322   5.780   0.083  0.4438 -1.8154 -0.8396
12424SOL    HW248927   7.455   5.723   0.159  0.7839  0.9406  0.6823
12425SOL     OW48928   8.257   7.177   5.771  0.1881 -0.0229  0.0813
12425SOL    HW148929   8.195   7.113   5.725  0.8482 -0.5241 -0.1142
12425SOL    HW248930   8.205   7.257   5.801 -0.6458 -0.6327  0.3014
12426SOL     OW48931   3.330   1.368   0.113  0.2864 -0.1304  0.1915
12426SOL    HW148932   3.295   1.277   0.137 -1.1313  0.6006  1.0048
12426SOL    HW248933   3.389   1.361   0.033 -2.6319 -1.2709 -1.9447
12427SOL     OW48934   1.477   1.243   2.746 -0.0729  0.1409 -0.3737
12427SOL    HW148935   1.458   1.229   2.649  1.2400 -0.7507 -0.5144
12427SOL    HW248936   1.427   1.323   2.779 -0.6828  0.3270 -1.7359
12428SOL     OW48937   9.789   6.139   2.737  0.4779 -0.0220 -0.3851
12428SOL    HW148938   9.829   6.200   2.668  0.4749  0.1734 -0.2165
12428SOL    HW248939   9.782   6.188   2.824  0.2979 -0.2031 -0.2971
12429SOL     OW48940   6.411   8.717   4.144 -0.0269  0.3422  0.5679
12429SOL    HW148941   6.449   8.763   4.064  0.2625  4.7063  3.0327
12429SOL    HW248942   6.324   8.758   4.169 -0.2684 -1.1482  2.3249
12430SOL     OW48943   8.748   6.811   0.947 -0.0036  0.1483  0.3982
12430SOL    HW148944   8.813   6.792   0.873  1.0094 -0.4797  1.4371
12430SOL    HW248945   8.746   6.909   0.965 -2.0521  0.6266 -2.0681
12431SOL     OW48946   8.596   0.801   3.932 -0.3901  0.2194 -0.1681
12431SOL    HW148947   8.540   0.839   4.005 -0.3098 -0.0009  0.0077
12431SOL    HW248948   8.649   0.874   3.890 -0.4076  0.3390  0.0183
12432SOL     OW48949   0.884   2.428   7.133  0.2108  0.3186 -0.0950
12432SOL    HW148950   0.805   2.402   7.189  1.1647 -0.5309  0.8670
12432SOL    HW248951   0.949   2.480   7.189  0.1971  1.2987 -0.9675
12433SOL     OW48952   8.929   4.294   1.696 -0.1170 -0.4470  0.3728
12433SOL    HW148953   8.970   4.260   1.780  1.3173 -0.2714 -0.2436
12433SOL    HW248954   8.951   4.232   1.621  1.3121  1.0636 -0.4790
12434SOL     OW48955   7.980   6.153   5.957  0.5038 -0.6101 -0.0591
12434SOL    HW148956   8.024   6.083   6.013  1.5980  0.9921  1.1424
12434SOL    HW248957   8.032   6.165   5.872 -0.7245 -2.5080 -1.1068
12435SOL     OW48958   9.799   0.062   5.994 -0.1517  0.1098 -0.3469
12435SOL    HW148959   9.863   0.137   6.012 -2.1932  1.2693  2.3137
12435SOL    HW248960   9.722   0.096   5.940 -0.8509 -0.1606  0.4699
12436SOL     OW48961   7.882   0.559   0.922 -0.2238 -0.2116 -0.5933
12436SOL    HW148962   7.897   0.516   1.011  0.6464  0.1996 -0.5344
12436SOL    HW248963   7.784   0.564   0.904 -0.5224  1.5155  1.2536
12437SOL     OW48964   3.232   3.134   5.572 -0.2218 -0.3183 -0.2718
12437SOL    HW148965   3.196   3.045   5.601 -0.8920 -0.0748 -0.3678
12437SOL    HW248966   3.268   3.127   5.479 -1.1553 -0.2450 -0.6373
12438SOL     OW48967   3.711   1.206   5.672  0.0784 -0.3118  1.2711
12438SOL    HW148968   3.663   1.202   5.759 -1.6833  1.6826  0.4260
12438SOL    HW248969   3.756   1.118   5.655 -2.5985 -1.9738  2.4501
12439SOL     OW48970   2.677   9.129   4.227 -0.3679 -0.1055  0.0545
12439SOL    HW148971   2.656   9.143   4.130 -0.9000 -4.2394 -0.4929
12439SOL    HW248972   2.603   9.166   4.283 -1.1151  0.2839 -1.1783
12440SOL     OW48973   2.855   4.504   0.320 -0.1684  0.2990 -0.4689
12440SOL    HW148974   2.857   4.481   0.417 -1.0875  2.0593 -0.0113
12440SOL    HW248975   2.945   4.488   0.279  0.4757  0.4741  0.8758
12441SOL     OW48976   6.311   7.505   5.604  0.3329  0.0094  0.1495
12441SOL    HW148977   6.294   7.547   5.693 -2.5533  1.5409 -1.0520
12441SOL    HW248978   6.263   7.417   5.599  0.7975 -0.2499  0.2315
12442SOL     OW48979   2.386   4.427   5.635 -0.3832  0.2059  0.2878
12442SOL    HW148980   2.366   4.518   5.672  1.0447  0.4155  0.5640
12442SOL    HW248981   2.435   4.373   5.704  1.2850  0.2089 -0.8821
12443SOL     OW48982   9.965   7.810   4.578  0.5108 -0.0789 -0.4712
12443SOL    HW148983   9.875   7.820   4.619 -0.3789 -0.4891 -2.2849
12443SOL    HW248984   9.986   7.891   4.523  1.7557  0.5375  0.8845
12444SOL     OW48985   6.098   7.692   3.772 -0.1169  0.6940 -0.1083
12444SOL    HW148986   6.179   7.750   3.764  0.4533 -0.0103  0.5071
12444SOL    HW248987   6.067   7.690   3.866  0.1447 -0.3538 -0.0331
12445SOL     OW48988   1.397   2.022   4.559  0.3644 -0.1232  0.2715
12445SOL    HW148989   1.489   2.053   4.584 -0.7578  2.5300  1.2911
12445SOL    HW248990   1.369   2.064   4.473  1.0144 -2.8819 -1.3659
12446SOL     OW48991   8.281   7.663   4.697  0.0227  0.0141 -0.2679
12446SOL    HW148992   8.183   7.661   4.717  0.3935 -1.0445  1.5131
12446SOL    HW248993   8.333   7.651   4.781  1.6860  0.0226 -1.2684
12447SOL     OW48994   6.909   6.880   2.140 -0.2989  0.3357 -0.4232
12447SOL    HW148995   6.841   6.953   2.152  0.7218  1.1231  0.6396
12447SOL    HW248996   6.965   6.899   2.060  0.4102  1.0913  0.2413
12448SOL     OW48997   9.898   1.084   0.242 -0.5157 -0.0913 -0.6112
12448SOL    HW148998   9.966   1.096   0.170 -0.0549 -0.4280 -0.2397
12448SOL    HW248999   9.861   1.172   0.269 -0.2649  0.0878 -0.8536
12449SOL     OW49000   3.325   0.147   4.220  0.2095  0.1126 -0.7881
12449SOL    HW149001   3.410   0.190   4.248  0.5387  0.1851 -1.8966
12449SOL    HW249002   3.256   0.218   4.201 -0.3962  0.0311  1.0115
12450SOL     OW49003   9.150   4.199   5.381  0.1436  0.2616  0.4813
12450SOL    HW149004   9.096   4.283   5.374  1.1854  0.9183  0.1517
12450SOL    HW249005   9.176   4.185   5.477  1.1030  1.0635  0.3554
12451SOL     OW49006   5.056   9.097   6.394  0.1415 -0.1906  0.2137
12451SOL    HW149007   5.036   9.084   6.491 -0.7689  0.9482  0.1907
12451SOL    HW249008   4.971   9.092   6.341  0.6684 -1.0886 -0.5611
12452SOL     OW49009   2.688   2.458   3.012  0.5569 -0.4202  0.0563
12452SOL    HW149010   2.605   2.483   2.964  0.8141 -0.1747 -0.2616
12452SOL    HW249011   2.706   2.360   3.000  0.4528 -0.4210 -0.0899
12453SOL     OW49012   1.819   8.111   2.944  0.1369  0.0058 -0.2530
12453SOL    HW149013   1.882   8.179   2.980 -0.8581 -0.3861  2.3224
12453SOL    HW249014   1.851   8.079   2.855  3.2301  0.2408  0.7336
12454SOL     OW49015   4.673   8.285   3.546  0.1496  0.2764 -0.2898
12454SOL    HW149016   4.671   8.323   3.639 -0.7946 -0.0511 -0.1658
12454SOL    HW249017   4.755   8.229   3.534 -0.1933 -0.4495  0.6648
12455SOL     OW49018   6.830   0.329   4.661  0.0594  0.2235 -0.0502
12455SOL    HW149019   6.742   0.358   4.699 -0.2158  1.1775 -1.3773
12455SOL    HW249020   6.815   0.280   4.575  0.7497 -0.7792  0.3964
12456SOL     OW49021   2.051   9.546   6.974 -0.2429  0.0658 -0.1574
12456SOL    HW149022   2.090   9.634   7.001  0.9954 -0.5079 -0.0807
12456SOL    HW249023   2.067   9.530   6.877  0.7595 -0.7139  0.1344
12457SOL     OW49024   4.296   2.804  10.027 -0.3245  0.5501  0.9339
12457SOL    HW149025   4.336   2.795  10.118 -1.0544  0.3348  1.2378
12457SOL    HW249026   4.247   2.892  10.022 -0.9457  0.2110  1.0129
12458SOL     OW49027   7.398   9.178   7.276 -0.3449 -0.2490 -0.2753
12458SOL    HW149028   7.495   9.184   7.253 -0.1278 -1.0002  0.4513
12458SOL    HW249029   7.377   9.240   7.352 -1.1242  2.4558 -2.5915
12459SOL     OW49030   4.398   7.282   4.540 -1.0563  0.1077 -0.7454
12459SOL    HW149031   4.432   7.200   4.585 -2.3881 -1.0158 -1.7173
12459SOL    HW249032   4.424   7.363   4.593 -1.6470 -1.0916  1.4362
12460SOL     OW49033   2.693   6.428   1.729  0.3292  0.2107  0.9161
12460SOL    HW149034   2.599   6.405   1.702  0.3147  2.8082 -1.4525
12460SOL    HW249035   2.757   6.383   1.667  0.5006  1.2800  0.2995
12461SOL     OW49036   1.790   9.687   1.175  0.3792  0.1362  0.4981
12461SOL    HW149037   1.877   9.639   1.185 -0.3547 -1.1305  1.0218
12461SOL    HW249038   1.741   9.649   1.096 -0.5440 -0.5182  1.3767
12462SOL     OW49039   9.467   8.072   3.436 -0.2229 -0.2934 -0.2839
12462SOL    HW149040   9.413   8.153   3.457  1.9560  0.9247  0.7797
12462SOL    HW249041   9.491   8.025   3.521 -0.7624 -1.6087 -0.8425
12463SOL     OW49042   9.602   7.313   0.782 -0.1959  0.2775 -0.3458
12463SOL    HW149043   9.525   7.249   0.788  0.4900 -0.3536  2.7487
12463SOL    HW249044   9.586   7.390   0.844  1.1986  0.6568 -0.4324
12464SOL     OW49045   2.480   8.981   0.251  0.4920  0.2765 -0.2234
12464SOL    HW149046   2.438   9.005   0.338  1.2071 -1.1683  0.5484
12464SOL    HW249047   2.423   8.912   0.205  1.2291 -0.5773  0.1316
12465SOL     OW49048   2.562   4.227   9.780 -0.2895 -0.0893 -0.9135
12465SOL    HW149049   2.467   4.205   9.759  0.0693 -0.5133 -2.1394
12465SOL    HW249050   2.591   4.175   9.861 -1.0604 -0.0365 -0.6036
12466SOL     OW49051   5.640   6.141   1.380  0.9129  0.2043  0.0370
12466SOL    HW149052   5.731   6.111   1.351  1.4355  0.7995  1.0202
12466SOL    HW249053   5.609   6.216   1.322  1.8098  1.1712  0.7986
12467SOL     OW49054   7.383   3.476   2.916 -0.1910  0.0477  0.1988
12467SOL    HW149055   7.365   3.561   2.966  0.8344  1.7282 -2.2183
12467SOL    HW249056   7.482   3.465   2.903 -0.2701 -1.8122  0.9399
12468SOL     OW49057   6.306   9.651   2.371  0.1674  0.5510  0.6503
12468SOL    HW149058   6.265   9.741   2.383 -1.4833  0.1732 -1.8161
12468SOL    HW249059   6.405   9.661   2.358  0.3544  1.7789  2.8802
12469SOL     OW49060   0.061   0.701   4.622 -0.1556 -0.3030  0.1177
12469SOL    HW149061   0.126   0.746   4.684 -0.0831 -1.1494  0.6689
12469SOL    HW249062   0.092   0.608   4.602 -1.4207 -0.8946  0.7798
12470SOL     OW49063   0.971   4.500   6.252  0.6129  0.6665 -0.7485
12470SOL    HW149064   1.032   4.556   6.196  0.5822  0.5388 -0.9079
12470SOL    HW249065   0.901   4.558   6.292  1.4891  1.0060  0.3344
12471SOL     OW49066   4.979   9.812   3.726 -0.0755 -0.6768 -0.2247
12471SOL    HW149067   4.999   9.907   3.750 -0.2301 -0.3722 -1.2911
12471SOL    HW249068   5.057   9.774   3.675  0.9908 -1.8514  2.1770
12472SOL     OW49069   2.158   4.792   2.909 -0.1506  0.2616  0.0141
12472SOL    HW149070   2.067   4.782   2.948  0.1155 -0.7961  0.3965
12472SOL    HW249071   2.151   4.807   2.811 -0.7125 -0.6867 -0.0955
12473SOL     OW49072   3.237   7.458   3.606  0.4831  0.0098  0.1153
12473SOL    HW149073   3.273   7.377   3.559  0.9202  0.1924  0.1326
12473SOL    HW249074   3.259   7.453   3.703  1.3877  0.6233 -0.0457
12474SOL     OW49075   6.118   4.944   1.594 -0.0198 -0.1917 -0.0901
12474SOL    HW149076   6.080   4.923   1.684  1.6882 -0.8407  0.5187
12474SOL    HW249077   6.047   4.979   1.534 -1.2563 -0.0949  1.4129
12475SOL     OW49078   0.721   2.378   3.561 -0.1736 -0.6516  0.2591
12475SOL    HW149079   0.772   2.326   3.629  0.2787 -0.2622  0.2215
12475SOL    HW249080   0.630   2.337   3.548  0.1386 -1.3647  0.3052
12476SOL     OW49081   0.649   6.013   5.282 -0.6946  0.0661 -0.2326
12476SOL    HW149082   0.644   6.054   5.191 -1.6480 -1.2474 -0.7907
12476SOL    HW249083   0.560   6.020   5.327 -0.4791 -0.1171  0.2214
12477SOL     OW49084   6.620   0.631   4.313 -0.1990  0.3365  0.2145
12477SOL    HW149085   6.653   0.587   4.230 -0.8590  1.3128 -0.5801
12477SOL    HW249086   6.551   0.573   4.357  1.9295 -1.3099  1.4221
12478SOL     OW49087   0.731   2.202   2.231  0.2549 -0.5507 -0.4848
12478SOL    HW149088   0.804   2.147   2.271  0.5553 -0.8550 -1.4209
12478SOL    HW249089   0.713   2.169   2.138 -0.1333  0.4096 -0.7501
12479SOL     OW49090   9.957   7.008   1.141 -0.1804  0.1389 -0.0683
12479SOL    HW149091   9.912   7.098   1.142  1.2484  0.8772 -0.6269
12479SOL    HW249092   9.950   6.968   1.050  2.2317  1.2734 -0.7808
12480SOL     OW49093   1.065   2.867   7.216  0.3344 -0.0865 -0.5359
12480SOL    HW149094   0.967   2.880   7.204  0.1584 -1.3308 -0.4761
12480SOL    HW249095   1.091   2.775   7.188  1.4380  0.1269 -0.2681
12481SOL     OW49096   4.031   9.136   3.132  1.2972 -0.7651 -0.1563
12481SOL    HW149097   3.949   9.165   3.180  0.0627 -0.1077 -2.5943
12481SOL    HW249098   4.013   9.049   3.085  2.9596 -2.1989  1.7672
12482SOL     OW49099   8.564   1.935   4.097 -0.2763  0.0707  0.1433
12482SOL    HW149100   8.631   1.863   4.117  0.1623  0.0327 -1.4058
12482SOL    HW249101   8.477   1.893   4.073 -0.4079  0.0940  0.5645
12483SOL     OW49102   4.649   9.197   7.869 -0.0774 -1.1945 -0.0569
12483SOL    HW149103   4.638   9.265   7.796  0.1483 -1.5732 -0.4506
12483SOL    HW249104   4.583   9.215   7.942  0.5060 -0.0943  0.1975
12484SOL     OW49105   3.571   0.740   0.447 -0.0575  0.4550  0.3351
12484SOL    HW149106   3.576   0.783   0.357 -1.4907  0.7222  0.3829
12484SOL    HW249107   3.597   0.644   0.439  0.2109  0.5742 -0.2858
12485SOL     OW49108   9.515   7.881   6.813  0.1751  0.5544 -0.1104
12485SOL    HW149109   9.444   7.947   6.789 -1.0089 -0.8199 -0.4372
12485SOL    HW249110   9.604   7.916   6.782 -0.5786  1.4951 -1.2529
12486SOL     OW49111   9.123   8.334   0.652 -0.2680  0.3297  0.2461
12486SOL    HW149112   9.146   8.318   0.748  2.0130 -1.0459 -0.4822
12486SOL    HW249113   9.135   8.249   0.601 -0.9435  1.1835 -1.3650
12487SOL     OW49114   8.762   7.189   5.380 -0.1234  0.0802 -0.1656
12487SOL    HW149115   8.736   7.284   5.397 -0.9692 -0.1982  0.1367
12487SOL    HW249116   8.724   7.131   5.453  0.7570 -0.4314 -0.1064
12488SOL     OW49117   2.838   8.608   3.525 -0.3974 -0.4979 -0.2498
12488SOL    HW149118   2.775   8.641   3.595  0.2105 -2.9057  1.4993
12488SOL    HW249119   2.794   8.536   3.472 -1.0390  1.6787 -2.7533
12489SOL     OW49120   0.118   9.650   0.286 -1.2598  0.4299  0.5959
12489SOL    HW149121   0.179   9.664   0.208 -0.9925  0.1551  0.7556
12489SOL    HW249122   0.057   9.573   0.269 -0.9105  0.0979  0.8352
12490SOL     OW49123   6.468   0.395   6.657  0.4343  0.0743 -0.3473
12490SOL    HW149124   6.378   0.436   6.668 -0.6908 -2.1509 -0.9866
12490SOL    HW249125   6.489   0.387   6.559  1.8888  1.7574 -0.1921
12491SOL     OW49126   0.107   3.765   2.805 -0.2730  0.1874 -0.0035
12491SOL    HW149127   0.143   3.857   2.817 -3.1351  1.1865  1.4597
12491SOL    HW249128   0.068   3.756   2.714  0.5273  0.2206 -0.3531
12492SOL     OW49129   8.698   6.675   1.173 -0.2071 -0.1447  0.2749
12492SOL    HW149130   8.636   6.728   1.231 -1.1746 -0.9760  0.0094
12492SOL    HW249131   8.705   6.720   1.084  0.7539  0.7671  0.8032
12493SOL     OW49132   9.573   3.730   3.462 -0.5476  0.3980 -0.2799
12493SOL    HW149133   9.533   3.678   3.386 -1.3614  0.7538 -0.0920
12493SOL    HW249134   9.632   3.801   3.425  1.5953 -1.4423 -0.5328
12494SOL     OW49135   0.490   4.531   9.642  0.4731  0.1322 -0.0593
12494SOL    HW149136   0.459   4.545   9.736 -1.5653 -0.2406 -0.6512
12494SOL    HW249137   0.476   4.614   9.589  1.4400  0.2786 -0.0917
12495SOL     OW49138   3.821   8.536   7.566 -0.1343 -0.0158 -0.3138
12495SOL    HW149139   3.812   8.554   7.468 -1.3642 -0.4425 -0.2950
12495SOL    HW249140   3.876   8.453   7.579  0.4089  0.2964 -0.6316
12496SOL     OW49141   6.556   9.686   4.995  0.7589 -0.3739  0.1848
12496SOL    HW149142   6.507   9.647   5.073  0.2942  0.4368  0.3074
12496SOL    HW249143   6.585   9.613   4.934 -0.0199 -0.9255  0.4615
12497SOL     OW49144   4.531   4.268   1.780  0.2096 -0.6328 -0.5940
12497SOL    HW149145   4.510   4.196   1.714  3.2741 -1.4379 -0.7720
12497SOL    HW249146   4.630   4.273   1.793 -0.2485  0.3079  3.0498
12498SOL     OW49147   2.925   5.006   6.326  0.0126  0.2048 -0.4674
12498SOL    HW149148   2.899   4.996   6.230  1.3996 -0.7559 -0.7598
12498SOL    HW249149   2.920   4.916   6.371  0.2956  0.4814  0.1206
12499SOL     OW49150   2.081   1.244   0.855 -0.0908 -0.1080 -0.0114
12499SOL    HW149151   2.133   1.330   0.853 -0.0560 -0.1350 -0.4649
12499SOL    HW249152   2.139   1.171   0.891 -0.6713  0.4078  2.0567
12500SOL     OW49153   0.600   5.039   1.303 -0.7522 -0.5675  0.4326
12500SOL    HW149154   0.687   5.067   1.343 -1.7563  2.2401  0.7657
12500SOL    HW249155   0.613   4.957   1.247  2.1656  0.1180  0.0615
12501SOL     OW49156   8.112   4.376   7.137 -0.4967  0.1613  0.2162
12501SOL    HW149157   8.046   4.400   7.065 -0.8067 -0.3168  0.3407
12501SOL    HW249158   8.159   4.459   7.167 -0.6474  0.4274 -0.2584
12502SOL     OW49159   7.882   1.199   2.659 -0.6839 -0.4328 -0.4245
12502SOL    HW149160   7.954   1.131   2.647 -1.8301 -1.3941 -2.1559
12502SOL    HW249161   7.793   1.154   2.655 -1.4478  1.0863 -0.9641
12503SOL     OW49162   4.895   0.740   5.335 -1.0693 -0.1667  0.4058
12503SOL    HW149163   4.967   0.695   5.281  0.0240  1.5814  0.3399
12503SOL    HW249164   4.812   0.746   5.280 -0.5201 -0.0421 -0.4320
12504SOL     OW49165   2.336   4.869   0.560 -0.0414  0.5311  0.6765
12504SOL    HW149166   2.309   4.965   0.563  1.2768  0.9554 -0.7307
12504SOL    HW249167   2.402   4.855   0.486  0.0350 -1.3904  1.0906
12505SOL     OW49168   9.156   1.584   3.108 -0.1336 -0.5579  0.1040
12505SOL    HW149169   9.137   1.590   3.206 -0.0297 -0.2773  0.1092
12505SOL    HW249170   9.076   1.615   3.057  0.9088  2.3899  0.1522
12506SOL     OW49171   7.176   3.921   2.994 -0.1263  0.2134  0.0727
12506SOL    HW149172   7.178   4.015   3.030  3.0251  0.1057  0.2722
12506SOL    HW249173   7.145   3.923   2.899 -2.7361  1.1174  0.8845
12507SOL     OW49174   1.156   3.954   2.446  0.4795  1.1799  0.0863
12507SOL    HW149175   1.176   3.992   2.537  0.8098  1.3721 -0.0638
12507SOL    HW249176   1.059   3.964   2.427  0.7238  2.8908 -0.3649
12508SOL     OW49177   1.233   0.231   4.966 -0.5673 -0.1591  0.1989
12508SOL    HW149178   1.301   0.295   4.929  1.1328 -1.6198  0.7126
12508SOL    HW249179   1.157   0.282   5.005  1.0662  1.5955  1.1949
12509SOL     OW49180   6.647   1.676   0.866  0.2053 -0.0909 -0.0727
12509SOL    HW149181   6.579   1.750   0.871  0.9384  0.5993 -0.1867
12509SOL    HW249182   6.662   1.639   0.958  0.4072  0.4349  0.1114
12510SOL     OW49183   5.500   9.479   5.696  0.0359 -0.0614 -0.6764
12510SOL    HW149184   5.533   9.459   5.604  3.6305  1.1428  0.2991
12510SOL    HW249185   5.460   9.571   5.699  0.9254  0.3258 -0.7757
12511SOL     OW49186   8.397   1.570   1.559 -0.4659 -0.2184  0.4084
12511SOL    HW149187   8.352   1.627   1.489 -0.0072  0.6824  0.8447
12511SOL    HW249188   8.350   1.482   1.564  0.0261 -0.6352 -1.6658
12512SOL     OW49189   8.188   0.000   6.324 -0.4450  0.6882  0.0193
12512SOL    HW149190   8.250   0.079   6.320 -0.4655  0.6628 -0.9260
12512SOL    HW249191   8.201  -0.057   6.243  0.7528 -1.1970  1.4949
12513SOL     OW49192   9.826   2.800   6.338 -0.0352 -0.2399 -0.5056
12513SOL    HW149193   9.729   2.799   6.311  0.6104 -1.4333 -2.9350
12513SOL    HW249194   9.836   2.753   6.426 -1.8415  1.2751  0.5611
12514SOL     OW49195   6.095   5.556   0.305  0.0702  0.7130  0.2125
12514SOL    HW149196   6.046   5.636   0.271 -0.3282  1.0301  1.5030
12514SOL    HW249197   6.104   5.562   0.404  1.6571  0.0577  0.1210
12515SOL     OW49198   3.362   6.056   4.556  0.0259  0.4615  0.1410
12515SOL    HW149199   3.406   5.969   4.535  1.3256  0.9228  0.8861
12515SOL    HW249200   3.386   6.123   4.487  1.0585  0.8932  0.9029
12516SOL     OW49201   7.359   0.795   1.280 -0.3494 -0.0280  0.1006
12516SOL    HW149202   7.327   0.715   1.329 -0.8896  0.2579  0.2161
12516SOL    HW249203   7.281   0.845   1.242 -0.0285  0.4945  0.1152
12517SOL     OW49204   9.286   0.123   2.683 -0.5333  0.3429  0.2316
12517SOL    HW149205   9.273   0.031   2.722 -0.0016  0.7980  1.5045
12517SOL    HW249206   9.383   0.146   2.686 -0.3703  0.0795 -2.0986
12518SOL     OW49207   9.113   4.911   3.006 -0.1195  0.0518  0.5286
12518SOL    HW149208   9.177   4.835   3.002 -0.1681 -0.0571  1.5907
12518SOL    HW249209   9.031   4.884   3.058  0.1625  1.0246  1.5160
12519SOL     OW49210   3.587   6.764   1.028 -0.0312  0.2891 -0.3471
12519SOL    HW149211   3.685   6.778   1.009  0.0716 -0.6670 -0.5436
12519SOL    HW249212   3.542   6.853   1.037  0.8226  0.7385 -0.4413
12520SOL     OW49213   0.431   7.289   0.431  0.0319 -0.4298 -0.4370
12520SOL    HW149214   0.390   7.262   0.519 -1.5931  0.0044 -1.0369
12520SOL    HW249215   0.528   7.307   0.444 -0.1111 -0.7220  1.2106
12521SOL     OW49216   8.034   8.299   4.033 -0.2745  0.7614  0.2648
12521SOL    HW149217   8.126   8.337   4.028 -0.2824  0.7418 -0.0645
12521SOL    HW249218   7.996   8.292   3.941  0.6826 -2.4030  0.0518
12522SOL     OW49219   9.328   5.235   2.825 -0.6007  0.5078 -0.4053
12522SOL    HW149220   9.316   5.327   2.862 -2.9333  0.0343  0.1241
12522SOL    HW249221   9.332   5.169   2.900  0.1802  0.0963 -0.8111
12523SOL     OW49222   0.992   7.363   4.337 -0.1548 -0.2309  0.4794
12523SOL    HW149223   1.047   7.409   4.406 -0.2718 -1.7113  1.6017
12523SOL    HW249224   1.041   7.361   4.250 -0.1197  1.8881  0.4416
12524SOL     OW49225   4.399   8.227   2.390 -0.1243 -0.2173  0.1764
12524SOL    HW149226   4.348   8.237   2.475 -0.2167  0.0184  0.0949
12524SOL    HW249227   4.343   8.259   2.313  0.0209 -0.2688  0.0479
12525SOL     OW49228   1.602   6.910   1.643  0.0255 -0.2040 -0.3348
12525SOL    HW149229   1.694   6.878   1.664 -0.9664 -1.8019  1.7578
12525SOL    HW249230   1.593   7.007   1.666  1.0472 -0.1609 -0.1350
12526SOL     OW49231   2.710   6.076   0.353  0.3007  0.2638  0.0617
12526SOL    HW149232   2.731   6.161   0.401 -0.0449  0.7381 -0.6149
12526SOL    HW249233   2.611   6.070   0.336  0.1917 -0.7674  1.0250
12527SOL     OW49234   2.182   7.044   2.189  0.0728 -0.0089 -0.4355
12527SOL    HW149235   2.213   7.092   2.271 -1.9131  0.3803  0.1224
12527SOL    HW249236   2.261   7.010   2.138  1.3874  1.1382  0.7938
12528SOL     OW49237   5.819   7.625   3.047  0.2862 -0.1166 -0.5790
12528SOL    HW149238   5.812   7.556   2.975  0.8140 -0.4562 -0.3062
12528SOL    HW249239   5.738   7.620   3.106  0.0982 -0.1830 -0.8416
12529SOL     OW49240   2.532   3.746   9.745 -0.3155  1.3529 -0.0648
12529SOL    HW149241   2.542   3.834   9.698  0.6824  0.6571 -1.1874
12529SOL    HW249242   2.435   3.725   9.756 -0.5664  1.4541 -1.9662
12530SOL     OW49243   0.295   0.874   6.910 -0.4601 -0.6486  0.7071
12530SOL    HW149244   0.211   0.828   6.880 -2.0226  2.3230  0.2825
12530SOL    HW249245   0.271   0.956   6.962  2.2286 -0.9548  2.5296
12531SOL     OW49246   3.277   1.285   7.180  0.4238 -0.7144  0.8203
12531SOL    HW149247   3.220   1.311   7.258  0.6404  1.0765  0.3917
12531SOL    HW249248   3.332   1.205   7.205 -1.3083 -1.6857  1.6600
12532SOL     OW49249   3.544   0.271   5.385  0.5766 -0.0610 -0.4096
12532SOL    HW149250   3.499   0.348   5.342  0.3310 -0.4953 -0.9361
12532SOL    HW249251   3.613   0.233   5.322  1.2745  0.2459  0.1645
12533SOL     OW49252   2.745   8.473   4.389  0.4990  1.2810 -0.1484
12533SOL    HW149253   2.671   8.469   4.322  0.5082  2.7549 -0.2786
12533SOL    HW249254   2.820   8.415   4.359 -0.1263  0.7097 -0.6213
12534SOL     OW49255   3.388   7.918   1.410 -0.2931 -0.3008  0.3107
12534SOL    HW149256   3.377   7.857   1.332  1.1284 -0.3838  0.1644
12534SOL    HW249257   3.372   8.012   1.381 -2.4489 -0.5865  0.5303
12535SOL     OW49258   1.293   1.157   1.283 -0.0335 -0.0154 -0.2428
12535SOL    HW149259   1.283   1.058   1.271 -0.5361  0.2834 -2.3651
12535SOL    HW249260   1.203   1.199   1.288  0.1870  0.4208  0.1104
12536SOL     OW49261   6.746   8.375   4.640  0.9027 -0.0096  0.2961
12536SOL    HW149262   6.670   8.400   4.700  0.5680 -0.1929 -0.0467
12536SOL    HW249263   6.716   8.380   4.545  0.2311 -3.4942  0.2315
12537SOL     OW49264   9.521   8.574   7.744 -0.3437  0.2311  0.0083
12537SOL    HW149265   9.520   8.664   7.701 -0.0429  0.1013 -0.2751
12537SOL    HW249266   9.510   8.584   7.843 -2.5879  0.4398 -0.2427
12538SOL     OW49267   4.256   6.024   0.573 -0.2350 -0.1892  0.5217
12538SOL    HW149268   4.300   6.113   0.571  0.7641 -0.6644  0.9430
12538SOL    HW249269   4.186   6.023   0.644 -1.3833  0.7739 -0.5739
12539SOL     OW49270   9.503   0.552   7.689 -0.6721 -0.1181  0.2461
12539SOL    HW149271   9.408   0.550   7.657 -0.3240  1.3570 -0.9387
12539SOL    HW249272   9.505   0.540   7.788 -2.0397 -0.9435  0.1922
12540SOL     OW49273   1.214   4.572   7.185  0.3478 -0.1432  0.3255
12540SOL    HW149274   1.288   4.518   7.227  1.3012 -0.1491 -1.3328
12540SOL    HW249275   1.185   4.529   7.100 -3.3650 -1.5311  2.1583
12541SOL     OW49276   7.195   8.397   6.354 -0.5536  0.2112 -0.6300
12541SOL    HW149277   7.287   8.434   6.366 -0.3186 -0.3295 -0.7800
12541SOL    HW249278   7.153   8.441   6.274 -0.7030  1.0003 -0.1221
12542SOL     OW49279   3.694   2.462   3.554  0.0626 -0.4470  0.0654
12542SOL    HW149280   3.725   2.552   3.525  1.2547 -0.3545  1.5639
12542SOL    HW249281   3.708   2.396   3.480  0.1919  0.3779 -0.6518
12543SOL     OW49282   6.432   8.355   2.787  0.5280  0.8113 -0.1181
12543SOL    HW149283   6.525   8.320   2.795  0.3115  0.4922  1.1001
12543SOL    HW249284   6.423   8.407   2.701  1.2962 -0.7284 -1.1562
12544SOL     OW49285   8.981   7.965   2.138  0.3207 -0.9069 -0.1098
12544SOL    HW149286   8.944   7.898   2.074 -0.2601  1.0914 -1.8887
12544SOL    HW249287   9.066   8.003   2.102  0.2864 -0.1801  0.5617
12545SOL     OW49288   7.025   0.745   3.078 -0.4977 -0.8181 -0.2877
12545SOL    HW149289   7.009   0.758   2.980 -1.8653 -0.3965 -0.0270
12545SOL    HW249290   7.036   0.647   3.098  1.2739 -0.7938 -1.0586
12546SOL     OW49291   8.440   6.322   5.037  0.0201 -0.0766  0.0457
12546SOL    HW149292   8.380   6.302   5.114 -1.0531  0.8892 -0.5103
12546SOL    HW249293   8.431   6.419   5.012  0.5350 -0.3156 -1.1262
12547SOL     OW49294   8.177   1.183   5.642  0.0410  0.1895  0.0967
12547SOL    HW149295   8.197   1.103   5.586 -0.3663 -0.4020  0.7954
12547SOL    HW249296   8.257   1.205   5.698  0.1760  0.3107 -0.1426
12548SOL     OW49297   9.762   0.251   0.503  0.2733 -0.2550 -0.3933
12548SOL    HW149298   9.829   0.324   0.493 -1.2556  0.9907 -1.5956
12548SOL    HW249299   9.670   0.287   0.488 -0.6819 -1.9618  1.1823
12549SOL     OW49300   2.989   2.473   1.231  0.1478 -0.2305 -0.2505
12549SOL    HW149301   3.060   2.472   1.301 -0.1684 -1.1293  0.0630
12549SOL    HW249302   3.031   2.489   1.142  0.5143  1.2598  0.1632
12550SOL     OW49303   2.467   9.805   6.491  0.4083  0.3824  0.2146
12550SOL    HW149304   2.499   9.739   6.558  0.6485 -0.0986 -0.3668
12550SOL    HW249305   2.519   9.795   6.406 -1.0737 -0.2237 -0.6464
12551SOL     OW49306   9.814   5.307   2.138  0.0600  0.0317  0.6736
12551SOL    HW149307   9.825   5.311   2.039  0.5784  0.7364  0.7585
12551SOL    HW249308   9.719   5.286   2.160 -0.8379  3.2345  0.0808
12552SOL     OW49309   5.019   2.016   1.407  0.4590  0.3706  0.0728
12552SOL    HW149310   5.045   1.985   1.499 -0.7903  0.3578  0.4288
12552SOL    HW249311   5.075   2.095   1.382  1.8603 -0.5588  0.2171
12553SOL     OW49312   3.920   4.732   3.317  0.7111  0.5753  0.2202
12553SOL    HW149313   3.996   4.715   3.380  0.6379 -1.3705 -0.1770
12553SOL    HW249314   3.834   4.709   3.362  0.5256  0.7802 -0.0295
12554SOL     OW49315   9.226   5.890   1.771 -0.0797  0.1550  0.2650
12554SOL    HW149316   9.201   5.863   1.679 -2.4824  2.2228  0.2727
12554SOL    HW249317   9.324   5.911   1.774  0.6632 -2.8562 -1.0434
12555SOL     OW49318   5.867   8.593   2.912 -0.1689 -0.3434 -0.3789
12555SOL    HW149319   5.914   8.614   2.826 -2.5097 -0.3458 -1.7068
12555SOL    HW249320   5.854   8.677   2.965 -1.2592  0.1346 -1.3769
12556SOL     OW49321   0.963   6.421   1.193  0.4846 -0.2488 -0.0689
12556SOL    HW149322   0.929   6.483   1.264  0.6669 -1.1067  0.7775
12556SOL    HW249323   1.024   6.471   1.131  0.6428  0.4161  0.6175
12557SOL     OW49324   9.956   3.929   5.079  0.1558 -0.3115 -0.3501
12557SOL    HW149325   9.927   3.991   5.006  1.2291 -0.2922 -0.7720
12557SOL    HW249326   9.992   3.983   5.155 -1.5751 -0.2996  0.4867
12558SOL     OW49327   8.667   5.518   5.079 -0.2730 -0.4446 -0.2068
12558SOL    HW149328   8.708   5.449   5.138  0.9146  0.5151  0.0981
12558SOL    HW249329   8.656   5.604   5.129  0.8275  0.4035 -1.3707
12559SOL     OW49330   8.043   8.081   0.691 -0.3363 -0.1560  0.0309
12559SOL    HW149331   7.952   8.123   0.701 -0.4906 -0.8656  1.6591
12559SOL    HW249332   8.089   8.080   0.780  1.3762  0.4286 -0.8337
12560SOL     OW49333   2.972   4.695   5.362 -0.2408 -0.0261  0.0539
12560SOL    HW149334   2.982   4.621   5.295 -1.5009  1.7875 -2.2066
12560SOL    HW249335   2.971   4.656   5.454  3.3214 -2.4344 -0.7996
12561SOL     OW49336   9.311   1.060   1.224  0.4234 -0.1824 -0.3647
12561SOL    HW149337   9.400   1.084   1.187  0.6720  1.2990  1.1374
12561SOL    HW249338   9.239   1.101   1.168  0.7556  0.9321  0.0183
12562SOL     OW49339   1.304   6.922   0.964  0.6218 -0.1505 -0.0799
12562SOL    HW149340   1.248   6.960   0.890  2.4006  0.0001 -1.3652
12562SOL    HW249341   1.290   6.823   0.968 -0.3970 -0.0078  0.1966
12563SOL     OW49342   8.710   9.268   0.833  0.3992  0.1552  0.3831
12563SOL    HW149343   8.804   9.236   0.842  0.6926  1.0855  0.7512
12563SOL    HW249344   8.694   9.343   0.898 -0.3646  0.5061 -0.1977
12564SOL     OW49345   2.911   2.144  10.027 -0.3790  1.0034  0.2781
12564SOL    HW149346   2.863   2.075   9.973  1.3009 -1.0677  1.3312
12564SOL    HW249347   2.892   2.129  10.124  2.2554  0.2113  0.7029
12565SOL     OW49348   0.735   6.439   0.111  0.6546  0.4536 -0.0754
12565SOL    HW149349   0.774   6.510   0.052  0.8591  0.1737 -0.2797
12565SOL    HW249350   0.750   6.349   0.069 -0.9650  0.4028 -0.5758
12566SOL     OW49351   1.578   0.837   2.749  0.3323  0.1375  0.1905
12566SOL    HW149352   1.642   0.892   2.802  0.1706  1.2416 -0.7503
12566SOL    HW249353   1.619   0.748   2.729  1.7549  0.9863 -0.7503
12567SOL     OW49354   6.042   8.662   3.955 -0.4124 -0.5641 -0.6280
12567SOL    HW149355   6.018   8.570   3.987 -0.3804 -0.7871 -1.2385
12567SOL    HW249356   6.007   8.675   3.862  1.6107 -0.8101 -1.4525
12568SOL     OW49357   5.167   8.608   2.720 -0.4696  0.2535 -0.4675
12568SOL    HW149358   5.188   8.524   2.671 -1.0864  0.9472 -1.9495
12568SOL    HW249359   5.074   8.604   2.756 -0.2119 -0.0249  0.1819
12569SOL     OW49360   3.224   0.593   3.030 -0.0228 -0.1183 -0.0419
12569SOL    HW149361   3.155   0.571   2.961 -0.2744  0.2060  0.1057
12569SOL    HW249362   3.197   0.676   3.079 -0.4556 -1.0094  1.2728
12570SOL     OW49363   8.723   7.650   5.281  0.6349 -0.4815 -0.4443
12570SOL    HW149364   8.690   7.603   5.200  0.0348 -1.7520  0.5184
12570SOL    HW249365   8.735   7.584   5.356  0.0741  0.8401  0.8393
12571SOL     OW49366   5.940   1.315   6.408 -0.4403  0.3124 -0.3915
12571SOL    HW149367   5.953   1.362   6.321  1.2029  0.5738 -0.0143
12571SOL    HW249368   5.843   1.291   6.418 -1.2107  2.9485 -0.9352
12572SOL     OW49369   2.944   8.908   7.148 -0.3164  0.3183  0.2700
12572SOL    HW149370   3.022   8.927   7.088  0.1033 -0.3526  0.5906
12572SOL    HW249371   2.975   8.909   7.243 -1.1321  2.1522  0.5326
12573SOL     OW49372   9.177   4.378   6.184  0.7666  0.0437 -0.0009
12573SOL    HW149373   9.097   4.390   6.124  0.0381 -1.0399  0.7340
12573SOL    HW249374   9.148   4.382   6.279  1.7330  0.4936  0.2799
12574SOL     OW49375   6.796   2.248   2.524  0.0683 -0.5294 -0.3831
12574SOL    HW149376   6.706   2.209   2.503  0.0002 -0.3852 -0.3561
12574SOL    HW249377   6.867   2.194   2.478  0.1058 -1.7487  1.0997
12575SOL     OW49378   8.282   3.824   1.942 -0.1204  0.5978  0.4629
12575SOL    HW149379   8.231   3.896   1.988  0.4217  2.0416 -1.1693
12575SOL    HW249380   8.380   3.847   1.941  0.0385 -0.0725 -0.2140
12576SOL     OW49381   0.697   1.782   1.822  0.2501  0.6838 -0.2387
12576SOL    HW149382   0.619   1.793   1.759  1.4710  0.3918 -1.8358
12576SOL    HW249383   0.764   1.720   1.780 -0.1484 -1.7553  2.5443
12577SOL     OW49384   5.081   5.532   3.965  0.2455 -0.1008 -0.0464
12577SOL    HW149385   5.139   5.540   3.884 -0.7855 -0.8662 -0.8754
12577SOL    HW249386   5.065   5.435   3.984 -1.6173  0.1094 -0.4602
12578SOL     OW49387   8.524   8.094   3.782  0.1611 -0.2786  0.1371
12578SOL    HW149388   8.468   8.103   3.864  0.8796 -0.6282  0.6737
12578SOL    HW249389   8.486   8.151   3.708  1.2874  2.6087  1.6741
12579SOL     OW49390   8.938   9.661   5.055  0.4197  0.1003 -0.3767
12579SOL    HW149391   8.962   9.713   4.972 -0.6707 -0.5057 -1.0843
12579SOL    HW249392   8.883   9.719   5.115  1.3979  0.6159  0.0383
12580SOL     OW49393   6.386   5.232   2.493 -0.1347 -0.3328  0.1201
12580SOL    HW149394   6.420   5.152   2.444 -1.2484 -1.9639  1.9035
12580SOL    HW249395   6.409   5.224   2.590 -0.9354  1.1406  0.4483
12581SOL     OW49396   4.363   7.096   2.143  0.1732 -0.3570 -0.1469
12581SOL    HW149397   4.447   7.142   2.170  0.3337 -0.7754  0.0742
12581SOL    HW249398   4.359   7.090   2.044  1.2123 -1.8114 -0.1173
12582SOL     OW49399   2.888   0.200   6.388  0.5088  0.2459  0.1686
12582SOL    HW149400   2.949   0.123   6.371  0.7457  0.6208 -0.7086
12582SOL    HW249401   2.849   0.231   6.302  0.2530  0.9739  0.5424
12583SOL     OW49402   4.038   0.135   6.671 -0.1898  0.3049  0.7084
12583SOL    HW149403   3.979   0.106   6.747 -1.6045 -2.1768 -1.2535
12583SOL    HW249404   3.992   0.209   6.620 -1.7710 -1.7495 -0.9263
12584SOL     OW49405   0.057   7.869   0.771 -0.1204 -0.2998 -0.5980
12584SOL    HW149406   0.080   7.773   0.787  1.3240  0.1854  0.3658
12584SOL    HW249407  -0.004   7.900   0.845 -0.4161 -0.4133 -0.7932
12585SOL     OW49408   3.377   1.325   6.481  0.3312  0.7891 -0.0278
12585SOL    HW149409   3.319   1.386   6.428 -0.2615  0.0627 -0.2191
12585SOL    HW249410   3.435   1.271   6.419 -0.5411 -0.2412  0.0301
12586SOL     OW49411   1.316   6.599   3.727 -0.5213 -0.2329  0.2590
12586SOL    HW149412   1.218   6.603   3.746 -0.4404 -1.4115  0.9647
12586SOL    HW249413   1.345   6.503   3.723  0.1815  0.0457 -2.1429
12587SOL     OW49414   4.228   0.434   7.265  0.0911  0.2801 -0.6465
12587SOL    HW149415   4.315   0.482   7.252 -0.2760  1.7357  1.9123
12587SOL    HW249416   4.169   0.449   7.185  1.5642  0.6070 -1.6982
12588SOL     OW49417   8.670   4.874   6.943 -0.1955  0.3815  0.3806
12588SOL    HW149418   8.593   4.822   6.980  0.3603 -1.1365 -0.5434
12588SOL    HW249419   8.747   4.871   7.007  0.3487 -1.2294 -0.3110
12589SOL     OW49420   7.266   7.230   2.451 -0.1424 -0.4491 -0.4714
12589SOL    HW149421   7.221   7.273   2.529  0.8995 -0.6335  0.2437
12589SOL    HW249422   7.201   7.219   2.377 -1.0056  0.2344  0.1787
12590SOL     OW49423   0.531   9.691   5.204 -0.0497 -0.2809  0.1375
12590SOL    HW149424   0.480   9.625   5.148 -0.5985 -1.7722  2.3664
12590SOL    HW249425   0.467   9.747   5.255  0.4877  0.2001  0.2826
12591SOL     OW49426   8.655   5.720   3.281  0.2878  0.4589 -0.2066
12591SOL    HW149427   8.654   5.818   3.263  2.0831  0.7364  1.0084
12591SOL    HW249428   8.640   5.704   3.378  2.5094 -0.2924  0.0528
12592SOL     OW49429   7.392   7.100   6.569  0.6712 -0.2183 -0.0261
12592SOL    HW149430   7.454   7.078   6.644  1.5900 -0.4661 -0.8432
12592SOL    HW249431   7.350   7.190   6.584  0.0041 -0.7422  1.3162
12593SOL     OW49432   9.978   1.414   3.021 -0.1382 -0.2470 -0.3151
12593SOL    HW149433   9.938   1.325   3.043  0.4332 -1.2743 -3.1898
12593SOL    HW249434  10.077   1.405   3.011  0.3135  1.3529  2.2692
12594SOL     OW49435   7.857   7.604   2.806 -0.1704  0.4300  0.0531
12594SOL    HW149436   7.770   7.624   2.761 -0.1371 -0.7898 -0.5604
12594SOL    HW249437   7.933   7.635   2.748 -0.1131 -1.6647 -1.0037
12595SOL     OW49438   7.516   1.305   1.304 -0.2032  0.4284  0.2536
12595SOL    HW149439   7.553   1.283   1.214 -0.7665  0.4157  0.0186
12595SOL    HW249440   7.568   1.380   1.345 -0.4078  0.9259 -0.3957
12596SOL     OW49441   9.292   9.823   1.591  0.0661 -0.1811  0.5193
12596SOL    HW149442   9.314   9.752   1.658 -1.7968 -1.8817 -0.5960
12596SOL    HW249443   9.216   9.792   1.534  0.0122  2.2427 -0.7916
12597SOL     OW49444   0.804   3.209   0.838  0.3504  0.5839 -0.0513
12597SOL    HW149445   0.873   3.228   0.907  0.6502  1.9204 -0.7059
12597SOL    HW249446   0.838   3.138   0.775  0.8284  0.7016  0.0718
12598SOL     OW49447   9.561   6.914   6.588  0.0584  0.4058 -0.1107
12598SOL    HW149448   9.626   6.853   6.543  1.1261 -0.1823  2.1723
12598SOL    HW249449   9.505   6.861   6.653  1.2267  1.8757  2.1598
12599SOL     OW49450   1.476   9.498   2.621  0.0886  0.2234 -0.1947
12599SOL    HW149451   1.491   9.416   2.677  2.2183  0.7665  0.0951
12599SOL    HW249452   1.427   9.472   2.537 -0.3667 -1.1257  0.4645
12600SOL     OW49453   1.348   9.936   1.942  0.0610 -0.0309 -0.2952
12600SOL    HW149454   1.409  10.016   1.944 -1.9310  1.5344  0.8564
12600SOL    HW249455   1.342   9.897   2.034  0.0793 -0.7787 -0.6085
12601SOL     OW49456   9.540   4.007   7.287 -0.3888  0.0319  0.2059
12601SOL    HW149457   9.535   3.936   7.357 -2.6362 -0.1404 -0.0956
12601SOL    HW249458   9.596   4.083   7.320 -0.1234 -0.7367  1.5591
12602SOL     OW49459   5.401   9.907   2.986 -0.3418 -0.5226 -0.0351
12602SOL    HW149460   5.303   9.886   2.988 -0.4238 -0.2024 -0.6089
12602SOL    HW249461   5.418   9.993   3.033 -0.2846 -0.7633  0.3914
12603SOL     OW49462   0.874   1.482   3.768  0.0934 -0.6636 -0.0676
12603SOL    HW149463   0.885   1.557   3.702  1.0555 -0.9829 -0.2855
12603SOL    HW249464   0.889   1.517   3.861  0.8362 -0.6301 -0.1905
12604SOL     OW49465   7.673   1.566   3.591  0.1179 -0.2293  0.4165
12604SOL    HW149466   7.644   1.652   3.549  1.2921 -0.7000 -1.4369
12604SOL    HW249467   7.607   1.539   3.662 -1.3061  1.1859 -0.3367
12605SOL     OW49468   3.883   2.346   3.976 -0.8503  0.0620 -0.7404
12605SOL    HW149469   3.932   2.413   3.920 -1.4803 -0.7878 -2.3617
12605SOL    HW249470   3.788   2.341   3.945 -1.1207 -0.6733  0.1999
12606SOL     OW49471   5.706   2.956   0.813  0.2219 -0.6309  0.5519
12606SOL    HW149472   5.654   2.879   0.776 -1.1400  1.5544 -2.3283
12606SOL    HW249473   5.795   2.961   0.768 -0.4851  0.5948 -0.7856
12607SOL     OW49474   1.866   8.989   5.715  0.6622 -0.1346  0.2263
12607SOL    HW149475   1.825   9.036   5.793 -1.7399 -0.5506 -0.7335
12607SOL    HW249476   1.857   9.045   5.633  1.0557 -0.6888 -0.2030
12608SOL     OW49477   2.085   5.972   1.245  0.0993  0.0999  0.2029
12608SOL    HW149478   2.180   5.949   1.268 -0.1521 -2.0370 -0.7714
12608SOL    HW249479   2.029   5.964   1.327  0.6736  0.8804  0.6773
12609SOL     OW49480   2.140   5.783  10.068 -0.4318 -0.8810  0.4121
12609SOL    HW149481   2.187   5.813   9.985 -0.6935 -0.8371  0.2794
12609SOL    HW249482   2.134   5.683  10.069 -2.3130 -0.7991 -0.6681
12610SOL     OW49483   4.656   4.395   3.540  0.4277 -0.3485  0.4004
12610SOL    HW149484   4.716   4.474   3.550  0.8241 -0.5797 -0.1540
12610SOL    HW249485   4.561   4.426   3.542  0.5535  0.0226  1.2218
12611SOL     OW49486   1.939   2.450   3.794  0.1004  0.2620 -0.0971
12611SOL    HW149487   2.003   2.418   3.864 -1.0038  0.7040  1.1236
12611SOL    HW249488   1.973   2.534   3.753  0.3119  0.4822  0.5307
12612SOL     OW49489   1.999   9.328   5.620  0.0935 -0.0700  0.3187
12612SOL    HW149490   2.035   9.417   5.647 -0.2287 -0.4399  2.0420
12612SOL    HW249491   2.004   9.265   5.698  0.4029 -1.5890 -0.9020
12613SOL     OW49492   8.904   0.453   3.755  0.0852 -0.3185  0.0843
12613SOL    HW149493   8.827   0.465   3.692 -0.1537 -0.5364  0.3313
12613SOL    HW249494   8.887   0.373   3.813 -0.1019  0.3799  1.0107
12614SOL     OW49495   1.299   1.444   0.482  0.2791 -0.1346 -0.0256
12614SOL    HW149496   1.224   1.494   0.524  1.1640  1.8722 -0.7652
12614SOL    HW249497   1.306   1.470   0.385  1.1007 -1.2868 -0.2836
12615SOL     OW49498   2.210   6.004   5.415  0.1051 -0.4555 -0.1549
12615SOL    HW149499   2.148   6.001   5.493 -0.8711 -0.2996 -0.9165
12615SOL    HW249500   2.177   6.070   5.348  1.6563  0.3928 -0.1058
12616SOL     OW49501   4.577   8.115   1.985 -0.4510  0.3193 -0.3322
12616SOL    HW149502   4.606   8.055   2.060 -0.2958  2.6645  1.5321
12616SOL    HW249503   4.596   8.210   2.009  0.4835  1.0734 -3.7707
12617SOL     OW49504   0.517   1.376   5.389 -0.4088  0.6656  0.4925
12617SOL    HW149505   0.482   1.422   5.471 -0.1866  0.8320  0.4953
12617SOL    HW249506   0.613   1.349   5.404 -0.4709  0.3949  0.4118
12618SOL     OW49507   3.149   0.750   1.079  0.2569  0.1605  0.3628
12618SOL    HW149508   3.129   0.656   1.107  0.7168 -0.1268 -0.2759
12618SOL    HW249509   3.247   0.761   1.066 -0.0974 -0.4039 -3.4967
12619SOL     OW49510   3.553   8.229   0.228 -0.2701  0.5105  0.1113
12619SOL    HW149511   3.478   8.284   0.193  1.9776  3.5153 -0.2015
12619SOL    HW249512   3.571   8.153   0.165 -2.2571  0.4392 -0.3908
12620SOL     OW49513   4.522   3.822   1.951 -0.5305 -0.6540 -0.0912
12620SOL    HW149514   4.599   3.759   1.961 -0.4059 -0.4951 -0.0533
12620SOL    HW249515   4.531   3.896   2.018 -0.8362 -0.7603  0.0658
12621SOL     OW49516   8.609   7.898   7.492 -0.4952 -0.0730  0.4726
12621SOL    HW149517   8.606   7.799   7.475  0.1365 -0.3379  1.8011
12621SOL    HW249518   8.628   7.946   7.407  0.1480 -1.1694 -0.0117
12622SOL     OW49519   9.112   4.343   2.689 -0.1814  0.1934  0.5929
12622SOL    HW149520   9.034   4.291   2.721  0.0057  0.0828  0.8674
12622SOL    HW249521   9.117   4.339   2.589 -0.3640 -0.0268  0.5951
12623SOL     OW49522   5.970   9.781   3.290 -0.1480  0.0040  0.4171
12623SOL    HW149523   5.923   9.804   3.205  0.2940 -2.6439 -0.5884
12623SOL    HW249524   5.903   9.766   3.362 -0.5426  1.7900  0.4620
12624SOL     OW49525   8.680   0.219   1.492  0.1422 -0.0569 -0.3922
12624SOL    HW149526   8.617   0.254   1.561 -1.0423 -3.0921  0.1466
12624SOL    HW249527   8.662   0.265   1.405 -0.6782  1.3462  0.4990
12625SOL     OW49528   3.940   6.574   0.602  0.0498  0.2416 -0.0411
12625SOL    HW149529   4.009   6.621   0.547  0.9864  2.0411  2.6077
12625SOL    HW249530   3.857   6.631   0.606 -0.2437 -0.1816 -0.1368
12626SOL     OW49531   0.032   3.102   5.945 -0.0716  0.3045  0.4546
12626SOL    HW149532  -0.018   3.017   5.928 -0.8299  0.9577 -0.6698
12626SOL    HW249533  -0.005   3.147   6.026  0.6313 -0.6518  1.3203
12627SOL     OW49534   2.212   4.041   4.728 -0.3640 -0.3759  0.0034
12627SOL    HW149535   2.179   4.132   4.704 -0.2047 -0.2256  0.3477
12627SOL    HW249536   2.304   4.047   4.765 -0.2076 -0.7229 -0.3270
12628SOL     OW49537   9.136   3.911   7.352 -0.5631  0.1324 -0.3638
12628SOL    HW149538   9.049   3.957   7.370 -2.4066 -2.6925 -1.5471
12628SOL    HW249539   9.205   3.944   7.416 -2.9135  1.3294  1.6798
12629SOL     OW49540   1.997   7.990   5.114  0.1082 -0.4908 -0.2262
12629SOL    HW149541   1.917   7.999   5.173  0.7566  0.2353  0.5647
12629SOL    HW249542   2.026   8.081   5.082  1.0968 -0.6509  0.1729
12630SOL     OW49543   6.682   0.329   1.959  0.2910  0.2232  0.0960
12630SOL    HW149544   6.710   0.247   2.010 -1.0778 -0.7254 -0.6374
12630SOL    HW249545   6.760   0.363   1.905  1.1886  0.0807  1.2745
12631SOL     OW49546   2.345   1.128   0.446  0.4324 -0.1048  0.2247
12631SOL    HW149547   2.438   1.117   0.481  0.6224  0.5930 -0.0490
12631SOL    HW249548   2.310   1.218   0.473 -0.4268 -0.6364  0.9262
12632SOL     OW49549   1.570   3.903   5.171 -0.1252 -0.6889  0.4469
12632SOL    HW149550   1.567   3.896   5.271 -1.6878 -0.5641  0.4094
12632SOL    HW249551   1.646   3.848   5.137  1.2203  0.2589  1.7844
12633SOL     OW49552   2.769   6.579  10.036  0.0631  0.3186  0.1709
12633SOL    HW149553   2.868   6.575  10.018 -0.0028  0.4713 -0.2483
12633SOL    HW249554   2.747   6.665  10.081  0.1003  0.3575  0.1153
12634SOL     OW49555   8.258   1.210   2.032 -0.8745 -0.0738 -0.1873
12634SOL    HW149556   8.160   1.225   2.022 -0.8812  0.2911  0.3916
12634SOL    HW249557   8.308   1.289   1.996 -0.8361  0.2831  0.6271
12635SOL     OW49558   1.777   2.185   3.094  0.4795  0.3376  0.1436
12635SOL    HW149559   1.839   2.216   3.165  0.0683 -1.1911  1.2014
12635SOL    HW249560   1.712   2.258   3.072 -0.2300  0.3898  2.3051
12636SOL     OW49561   8.051   9.956   4.607 -0.2452  0.1060  0.1966
12636SOL    HW149562   8.134  10.008   4.625 -0.0331  0.2110 -1.0519
12636SOL    HW249563   8.028   9.961   4.510 -0.5234 -1.6702  0.1508
12637SOL     OW49564   1.852   3.131   2.200  0.4276 -0.0332  0.1712
12637SOL    HW149565   1.837   3.070   2.278 -0.9404 -1.0659 -0.8545
12637SOL    HW249566   1.781   3.201   2.199 -1.7797 -2.1732 -2.1155
12638SOL     OW49567   4.042   0.756   5.938 -0.8187 -0.1359  0.2703
12638SOL    HW149568   3.950   0.724   5.963  0.3738 -3.2092  1.0172
12638SOL    HW249569   4.107   0.726   6.007  1.1641 -0.4050 -1.6600
12639SOL     OW49570   4.481   5.848   0.673 -0.1485 -0.0561 -0.5216
12639SOL    HW149571   4.400   5.899   0.643  1.4170  0.5554 -3.9236
12639SOL    HW249572   4.481   5.758   0.631 -0.2633 -1.0083  1.4295
12640SOL     OW49573   1.572   3.000   4.451 -0.0796 -0.7725  0.3381
12640SOL    HW149574   1.620   3.048   4.525 -1.3215 -0.6201  1.0459
12640SOL    HW249575   1.628   2.923   4.420  0.9723 -0.1380  0.6431
12641SOL     OW49576   6.231   2.811   0.810  0.2561 -0.5372 -0.1618
12641SOL    HW149577   6.157   2.797   0.876 -0.1609 -3.3337 -1.1783
12641SOL    HW249578   6.319   2.801   0.856  0.0029 -0.0765  0.4363
12642SOL     OW49579   8.813   6.461   6.447  0.2411 -0.3964  0.0501
12642SOL    HW149580   8.892   6.407   6.476  0.5815 -0.5170 -1.0829
12642SOL    HW249581   8.744   6.400   6.407  0.5882 -0.0245 -1.1480
12643SOL     OW49582   4.191   3.189   3.255 -0.2147  0.0227 -0.5209
12643SOL    HW149583   4.175   3.234   3.167 -1.6647  1.2853  0.3543
12643SOL    HW249584   4.109   3.137   3.282  0.9025 -1.9194 -0.7971
12644SOL     OW49585   2.675   0.345   3.022  0.0233  0.1711 -0.0481
12644SOL    HW149586   2.597   0.293   3.058 -0.1464  1.3419  1.3255
12644SOL    HW249587   2.757   0.321   3.074 -0.0435  1.1996  0.5530
12645SOL     OW49588   0.771   5.583   0.522  0.1988 -0.4674  0.3274
12645SOL    HW149589   0.764   5.580   0.622 -0.4536 -0.1662  0.2915
12645SOL    HW249590   0.755   5.491   0.485 -0.9843 -0.3033  0.4137
12646SOL     OW49591   5.762   0.620   7.043 -0.0451 -0.6056 -0.3528
12646SOL    HW149592   5.752   0.719   7.034 -1.0291 -0.5003  1.5920
12646SOL    HW249593   5.684   0.574   7.000  0.1256 -0.5122 -0.7621
12647SOL     OW49594   6.042   1.698   1.301  0.1180 -0.8207 -0.4221
12647SOL    HW149595   6.072   1.730   1.211 -0.1470 -1.4881 -0.7456
12647SOL    HW249596   6.106   1.629   1.335  1.8061  1.3916  1.1442
12648SOL     OW49597   9.988   2.346   6.754 -0.0649  0.5307 -0.6789
12648SOL    HW149598   9.895   2.310   6.756 -0.2827  1.1156 -0.0674
12648SOL    HW249599  10.052   2.271   6.740 -0.4389 -0.2452  1.5147
12649SOL     OW49600   8.791   8.806   1.285  0.4023  0.3893  0.1230
12649SOL    HW149601   8.759   8.900   1.278  0.5220  0.4318  0.1436
12649SOL    HW249602   8.715   8.746   1.311  0.3130  0.4711  0.0506
12650SOL     OW49603   2.425   3.488   4.550  0.1747  0.4735  0.5189
12650SOL    HW149604   2.425   3.457   4.645 -0.1388  0.8184  0.6322
12650SOL    HW249605   2.464   3.580   4.545  1.0850  0.0758  0.1864
12651SOL     OW49606   8.320   3.123   4.276  0.3442 -0.1275  0.3190
12651SOL    HW149607   8.257   3.158   4.345 -1.4543 -1.2876 -0.6958
12651SOL    HW249608   8.317   3.023   4.275  2.1615 -0.2005  0.2120
12652SOL     OW49609   7.378   5.571   2.522  0.6426  0.3903 -0.3747
12652SOL    HW149610   7.443   5.619   2.581  0.4732  0.1585  0.0054
12652SOL    HW249611   7.290   5.618   2.524  0.1330 -0.5823  0.9236
12653SOL     OW49612   3.755   1.926   6.996 -0.3717  0.5620 -0.0308
12653SOL    HW149613   3.790   1.836   7.021  0.0068  0.9002  0.6689
12653SOL    HW249614   3.688   1.956   7.064  0.0528  1.1244  0.1471
12654SOL     OW49615   1.962   9.071   3.391 -0.4291 -0.3945  0.6107
12654SOL    HW149616   1.999   9.155   3.429 -2.0489  0.8528 -0.5138
12654SOL    HW249617   1.968   8.998   3.459 -0.1394  0.9314  2.0295
12655SOL     OW49618   9.106   4.384   5.070 -0.5491 -0.1298  0.3378
12655SOL    HW149619   9.096   4.472   5.022  0.9759  0.6203  1.3523
12655SOL    HW249620   9.067   4.311   5.014  2.3017  0.5180 -2.6448
12656SOL     OW49621   9.027   5.651   3.874 -0.0162 -0.3043 -0.1298
12656SOL    HW149622   8.995   5.556   3.870  1.3594 -0.9624  2.8326
12656SOL    HW249623   9.126   5.653   3.861  0.0091  0.6836  0.2211
12657SOL     OW49624   7.862   5.464   1.174  0.0447  0.1904 -0.5256
12657SOL    HW149625   7.831   5.416   1.256 -1.4061 -0.9499 -1.7014
12657SOL    HW249626   7.788   5.520   1.138  1.1666  1.9201 -0.2041
12658SOL     OW49627   2.771   2.163   0.976  0.3786 -0.2834 -0.4099
12658SOL    HW149628   2.869   2.152   0.959  0.8870  1.5184  1.2147
12658SOL    HW249629   2.748   2.260   0.979 -1.2500 -0.6745  0.4959
12659SOL     OW49630   0.218   5.433   1.996  0.6112  0.1373 -0.0088
12659SOL    HW149631   0.205   5.470   1.904  0.2565  2.0690  0.7772
12659SOL    HW249632   0.306   5.385   2.001  1.3532  1.3680 -0.9609
12660SOL     OW49633   1.625   6.199   1.697  1.1059  0.3709 -0.5123
12660SOL    HW149634   1.684   6.123   1.670  0.5415 -1.3394  2.7729
12660SOL    HW249635   1.674   6.258   1.761 -0.0036  0.1102  0.6025
12661SOL     OW49636   7.109   8.725   5.146  0.0623  0.2675 -0.2098
12661SOL    HW149637   7.111   8.794   5.074  0.8398  0.5614  0.0864
12661SOL    HW249638   7.082   8.768   5.232 -0.9009 -0.0900 -0.3282
12662SOL     OW49639   2.865   9.137   2.931 -0.6039 -0.1715  0.5101
12662SOL    HW149640   2.906   9.228   2.930 -0.8130 -0.0781 -0.4073
12662SOL    HW249641   2.829   9.118   3.022 -2.5906  1.5867  0.1306
12663SOL     OW49642   9.877   4.023   1.052 -0.0037  0.7520 -0.3265
12663SOL    HW149643   9.952   4.088   1.043 -1.4517  2.4330 -0.5083
12663SOL    HW249644   9.791   4.072   1.063 -1.0768 -1.1434  0.0770
12664SOL     OW49645   1.290   8.949   1.692 -0.1696  0.2612 -0.5862
12664SOL    HW149646   1.384   8.917   1.679 -0.1128 -0.4531  1.4284
12664SOL    HW249647   1.253   8.912   1.777 -1.3160  2.8587  0.0960
12665SOL     OW49648   2.948   3.625   5.513 -0.0401  0.4068 -0.1551
12665SOL    HW149649   2.919   3.573   5.594  1.6697 -0.6070 -0.1613
12665SOL    HW249650   3.043   3.601   5.491  0.5603  3.0238 -0.5774
12666SOL     OW49651   4.400   2.426   6.065 -0.2330 -0.2341  0.2495
12666SOL    HW149652   4.389   2.328   6.077  1.3527 -0.4580  0.0038
12666SOL    HW249653   4.477   2.459   6.120 -1.1031  0.9751  0.7805
12667SOL     OW49654   7.078   8.004   5.025 -0.0226 -0.5158 -0.3178
12667SOL    HW149655   7.115   8.063   5.096 -0.3898 -0.8982  0.1970
12667SOL    HW249656   7.090   8.047   4.936  0.9560 -0.2942 -0.0837
12668SOL     OW49657   7.021   5.267   1.994  0.1541  0.4187 -0.0764
12668SOL    HW149658   7.115   5.237   1.979 -0.6603 -2.1881 -0.1866
12668SOL    HW249659   6.974   5.203   2.055 -2.2034  0.3817 -1.8299
12669SOL     OW49660   6.542   4.708   9.653 -0.5361 -0.4460 -0.2080
12669SOL    HW149661   6.538   4.660   9.565 -0.9063 -1.4490  0.3450
12669SOL    HW249662   6.637   4.728   9.675 -0.3790 -0.8920 -0.4638
12670SOL     OW49663   0.162   9.158   4.361  1.3010  0.1208 -0.1869
12670SOL    HW149664   0.156   9.156   4.261 -1.6392  0.7778 -0.0667
12670SOL    HW249665   0.198   9.071   4.394 -0.7869 -1.3547 -1.6846
12671SOL     OW49666   1.833   4.975   2.545 -0.1143  0.0277  0.4462
12671SOL    HW149667   1.925   4.973   2.504 -1.0587 -0.7507 -1.6824
12671SOL    HW249668   1.794   5.067   2.533  0.1020  0.1577  0.7287
12672SOL     OW49669   9.449   7.389   5.370  0.5061  0.7906 -0.0722
12672SOL    HW149670   9.488   7.377   5.462 -4.6270 -0.0626  2.1683
12672SOL    HW249671   9.457   7.303   5.319 -4.1989 -1.6285  2.8850
12673SOL     OW49672   1.139   4.595   1.342 -0.2432  0.0386  0.0458
12673SOL    HW149673   1.144   4.574   1.244  2.3675  0.9530 -0.0681
12673SOL    HW249674   1.143   4.694   1.355 -2.1534 -0.0060  1.0209
12674SOL     OW49675   3.340   3.403   1.710 -0.2660  0.1920  0.1745
12674SOL    HW149676   3.286   3.440   1.635 -0.0920 -1.7931 -0.9758
12674SOL    HW249677   3.383   3.317   1.681  1.9104  0.7167  1.7044
12675SOL     OW49678   6.396   0.105   2.441  0.4257 -0.1083  0.1770
12675SOL    HW149679   6.358   0.179   2.385  2.3517  0.4071 -0.4855
12675SOL    HW249680   6.421   0.141   2.531 -1.5076 -0.6597  0.9517
12676SOL     OW49681   0.195   4.445   6.178  0.2680 -0.1576 -0.5335
12676SOL    HW149682   0.113   4.395   6.148  0.8497 -0.4901 -1.5846
12676SOL    HW249683   0.273   4.416   6.124  1.2211 -0.2837  0.8957
12677SOL     OW49684   7.719   3.393   2.355 -0.0380  0.6032 -0.8164
12677SOL    HW149685   7.762   3.466   2.407 -0.4924  1.5840 -1.7992
12677SOL    HW249686   7.744   3.401   2.259 -2.6184  1.3907 -1.4776
12678SOL     OW49687   4.541   6.277   1.471  0.3682 -0.0668 -0.4602
12678SOL    HW149688   4.454   6.323   1.451 -0.8795 -2.2155 -0.0760
12678SOL    HW249689   4.574   6.231   1.389  1.1887  0.7895 -0.6190
12679SOL     OW49690   9.872   5.250   7.568 -0.4544 -0.3396  0.2356
12679SOL    HW149691   9.876   5.151   7.579 -2.3923 -0.4958 -0.3120
12679SOL    HW249692   9.882   5.294   7.657 -0.6532 -1.0560  0.6109
12680SOL     OW49693   9.201   7.652   2.315 -0.3711 -0.7737  0.2336
12680SOL    HW149694   9.124   7.640   2.378 -0.0447 -0.7859  0.6325
12680SOL    HW249695   9.234   7.746   2.320  0.7466 -1.2089  1.3519
12681SOL     OW49696   2.487   4.873   5.669 -0.1118  0.0003  0.3237
12681SOL    HW149697   2.428   4.806   5.715 -1.0951 -0.2889 -1.3254
12681SOL    HW249698   2.581   4.838   5.666 -0.4316 -0.8818  0.3097
12682SOL     OW49699   7.912   1.696   4.852  0.0820 -0.2267  0.0155
12682SOL    HW149700   7.878   1.751   4.929 -0.3903  0.5608 -0.7358
12682SOL    HW249701   8.011   1.687   4.858  0.3457  1.8891 -0.5760
12683SOL     OW49702   2.743   7.711   6.517 -0.4175 -0.3203  0.5572
12683SOL    HW149703   2.829   7.734   6.563 -0.5554  1.5971 -0.1434
12683SOL    HW249704   2.666   7.739   6.574 -0.5850  1.3681 -0.4733
12684SOL     OW49705   3.175   8.999   7.381  0.4419 -0.4663  0.7889
12684SOL    HW149706   3.269   8.974   7.407  0.3974 -0.0789  1.3242
12684SOL    HW249707   3.135   9.057   7.451  0.5655  1.1641 -0.4645
12685SOL     OW49708   1.580   8.870   0.246 -0.2449  0.2651  0.3370
12685SOL    HW149709   1.558   8.854   0.150  0.9994  0.2868  0.0325
12685SOL    HW249710   1.605   8.783   0.289 -1.0318  0.2186  0.7051
12686SOL     OW49711   3.654   2.877   0.830 -0.2168 -0.6451 -0.5083
12686SOL    HW149712   3.662   2.913   0.923 -0.3940  1.7821 -1.3882
12686SOL    HW249713   3.590   2.934   0.778  0.0208 -1.8588 -2.1639
12687SOL     OW49714   8.403   0.226   3.356  0.3231 -0.5478  0.0506
12687SOL    HW149715   8.425   0.134   3.324  1.6176 -0.1824 -0.1201
12687SOL    HW249716   8.321   0.223   3.413  0.4135 -1.8130  0.1126
12688SOL     OW49717   1.469   7.986   6.868  0.3118 -0.3336  0.4470
12688SOL    HW149718   1.410   7.906   6.876  0.5136 -0.5871 -0.5985
12688SOL    HW249719   1.499   7.997   6.773 -0.4420  1.4963  0.3922
12689SOL     OW49720   8.908   8.849   0.939  0.2270 -0.0982 -0.3330
12689SOL    HW149721   8.960   8.835   1.024 -0.4614 -1.6723 -0.1613
12689SOL    HW249722   8.961   8.815   0.862  0.4562  0.4817 -0.4332
12690SOL     OW49723   0.876   4.089   1.690  0.1343 -0.2593  0.0073
12690SOL    HW149724   0.857   4.177   1.735  1.2564  0.6014 -1.1596
12690SOL    HW249725   0.878   4.016   1.758 -1.8942  0.4437  0.8575
12691SOL     OW49726   7.928   4.857   4.350  0.1302 -0.0305 -0.2491
12691SOL    HW149727   7.955   4.899   4.436  2.0455 -1.0415 -0.3297
12691SOL    HW249728   7.919   4.758   4.361 -2.4156  0.1288 -0.5423
12692SOL     OW49729   0.694   9.237   2.015 -0.2499  1.3892 -0.0506
12692SOL    HW149730   0.594   9.236   2.019 -0.2681  0.7065 -0.5725
12692SOL    HW249731   0.724   9.215   1.922  0.4333 -0.9802  0.6978
12693SOL     OW49732   1.586   8.048   5.773  0.1647 -0.2915  0.1508
12693SOL    HW149733   1.668   8.057   5.830  0.2440  1.2420 -0.1810
12693SOL    HW249734   1.557   8.139   5.743 -0.7546 -0.9648 -1.0095
12694SOL     OW49735   2.317   2.897   4.392  0.2677 -0.6127 -0.0378
12694SOL    HW149736   2.278   2.842   4.466  1.4874  0.1476  1.1937
12694SOL    HW249737   2.380   2.964   4.430 -0.5614  1.0933 -1.6139
12695SOL     OW49738   5.340   4.833   0.109  0.1645  0.4112  0.2647
12695SOL    HW149739   5.413   4.896   0.082  1.1120 -0.8392 -0.1606
12695SOL    HW249740   5.256   4.884   0.127  0.4653  1.6496 -1.6578
12696SOL     OW49741   4.735   8.674   7.592 -0.4508  0.0726  0.3255
12696SOL    HW149742   4.755   8.613   7.668 -1.6381  0.5767  1.0467
12696SOL    HW249743   4.652   8.644   7.545 -0.9032  0.9807  0.5319
12697SOL     OW49744   4.909   9.696   5.382 -0.0101 -0.0855 -0.4982
12697SOL    HW149745   5.005   9.679   5.358 -0.3426 -1.2875 -1.0165
12697SOL    HW249746   4.862   9.736   5.303 -0.7502 -2.6759 -1.4105
12698SOL     OW49747   9.130   0.896   3.164  0.2034  0.7982  0.4436
12698SOL    HW149748   9.217   0.926   3.201  0.8070  1.7203 -1.6324
12698SOL    HW249749   9.063   0.970   3.172  0.2896  0.9421 -0.1172
12699SOL     OW49750   0.500   4.638   2.348 -0.6199  0.4069 -0.1415
12699SOL    HW149751   0.575   4.587   2.306 -2.1127 -0.4752 -1.7836
12699SOL    HW249752   0.522   4.735   2.350  1.2331 -0.0050  0.8543
12700SOL     OW49753   2.295   1.023   1.381  0.2789 -0.2031 -0.3877
12700SOL    HW149754   2.234   1.096   1.413  0.5974 -0.3486  0.5673
12700SOL    HW249755   2.382   1.063   1.352  0.1950 -0.1310 -0.5427
12701SOL     OW49756   2.376   7.086   3.485  0.2165  0.2280 -0.0490
12701SOL    HW149757   2.362   7.180   3.454  0.2695  0.5997  1.0228
12701SOL    HW249758   2.445   7.042   3.428 -0.3139  0.6119 -0.9975
12702SOL     OW49759   5.749   1.967   6.485  0.5432 -0.3953 -0.6059
12702SOL    HW149760   5.786   1.896   6.545  1.1153 -0.9168 -1.5607
12702SOL    HW249761   5.686   1.924   6.419  1.7847 -0.1894 -1.9335
12703SOL     OW49762   0.067   7.055   7.197  0.1427 -0.9211 -0.2391
12703SOL    HW149763   0.124   7.111   7.257  1.2427 -1.9437 -0.3025
12703SOL    HW249764   0.049   6.967   7.241 -1.2947 -0.6588 -0.2777
12704SOL     OW49765   7.901   3.957   3.383  0.1670 -0.5918 -0.0906
12704SOL    HW149766   7.926   3.926   3.291 -0.5822  0.0434 -0.5124
12704SOL    HW249767   7.830   4.027   3.377  0.2461 -0.4044  0.9654
12705SOL     OW49768   9.806   0.088   7.412  0.4560  1.2671  0.3832
12705SOL    HW149769   9.888   0.047   7.372  0.2685  0.2458  1.0305
12705SOL    HW249770   9.738   0.100   7.340  1.3928  2.7140 -0.2875
12706SOL     OW49771   2.331   4.538   1.250 -0.0991 -1.0119  0.3148
12706SOL    HW149772   2.422   4.550   1.289 -0.4569  0.8518  0.5981
12706SOL    HW249773   2.338   4.535   1.150  0.2991 -1.0968  0.3448
12707SOL     OW49774   3.456   4.003   0.040 -0.6750  0.0895  0.2178
12707SOL    HW149775   3.527   4.073   0.036 -1.8992  1.2994 -0.9301
12707SOL    HW249776   3.373   4.041   0.079 -1.6929 -0.4028 -1.3885
12708SOL     OW49777   0.918   7.355   7.464  0.1084  0.5193  0.3830
12708SOL    HW149778   1.009   7.391   7.487  0.1641 -0.1402  1.2300
12708SOL    HW249779   0.848   7.421   7.491  0.2626  0.4168  1.0392
12709SOL     OW49780   2.983   2.838   7.585  0.3960 -0.1671 -0.0405
12709SOL    HW149781   3.012   2.918   7.533 -1.1564  0.2782 -0.2439
12709SOL    HW249782   2.919   2.784   7.530  2.7993 -2.5379 -0.6248
12710SOL     OW49783   5.100   7.783   5.196  0.9714  0.3954 -0.2854
12710SOL    HW149784   5.050   7.808   5.113  0.1561  1.7722  0.5899
12710SOL    HW249785   5.045   7.721   5.251 -0.9099  3.7539  1.8209
12711SOL     OW49786   8.273   9.154   5.551 -0.6222 -0.2396 -0.1286
12711SOL    HW149787   8.234   9.063   5.558 -2.1194  0.2320 -1.8875
12711SOL    HW249788   8.357   9.151   5.497 -1.0369 -0.5022 -0.7709
12712SOL     OW49789   0.526   7.522   4.751  0.1455 -0.0727 -0.5507
12712SOL    HW149790   0.488   7.489   4.665 -3.2858  2.1081  0.0328
12712SOL    HW249791   0.475   7.480   4.827  0.6590  0.8800  0.3211
12713SOL     OW49792   8.926   2.873   5.023 -0.0929  0.0593 -0.7249
12713SOL    HW149793   9.020   2.872   5.058  0.7076  1.7130 -2.6686
12713SOL    HW249794   8.919   2.812   4.944 -0.5092  0.3425 -0.9103
12714SOL     OW49795   6.524   3.225   3.047  0.0000  0.2888 -0.1665
12714SOL    HW149796   6.566   3.281   2.976  1.5378 -1.8621 -1.0000
12714SOL    HW249797   6.592   3.202   3.116 -0.9827  0.6518  0.9445
12715SOL     OW49798   9.288   2.170   4.174  0.5438 -0.2977  0.5615
12715SOL    HW149799   9.270   2.265   4.200  1.3367  0.2291 -0.7589
12715SOL    HW249800   9.208   2.131   4.130  0.9872  0.5136 -0.9908
12716SOL     OW49801   1.756   0.310   6.946 -0.3868  0.4504  0.2696
12716SOL    HW149802   1.795   0.244   7.011 -0.3183  1.4399  1.2499
12716SOL    HW249803   1.675   0.270   6.903  0.1529 -0.6025  0.2035
12717SOL     OW49804   4.701   7.221   0.790  0.5591  0.7114  0.0636
12717SOL    HW149805   4.754   7.161   0.851  0.8415  1.6496  0.7505
12717SOL    HW249806   4.762   7.268   0.727  0.2334 -0.5085 -1.1799
12718SOL     OW49807   9.805   3.678   1.776 -0.0055  0.5142 -0.2193
12718SOL    HW149808   9.809   3.591   1.827  0.3943  0.5273 -0.2206
12718SOL    HW249809   9.779   3.660   1.682 -0.4982  0.4600 -0.0746
12719SOL     OW49810   3.206   0.627   0.659  0.3181  0.5359 -0.1604
12719SOL    HW149811   3.232   0.611   0.754  0.9924  2.1450 -0.0449
12719SOL    HW249812   3.230   0.721   0.634 -0.7594  0.4392 -1.6187
12720SOL     OW49813   4.022   4.083   2.545 -0.1465  0.2788 -0.0920
12720SOL    HW149814   4.121   4.082   2.561 -0.2515  0.4826  0.6167
12720SOL    HW249815   3.988   4.177   2.552 -0.1501  0.4316 -1.9328
12721SOL     OW49816   6.232   9.776   4.104  0.2938  0.0965 -0.0520
12721SOL    HW149817   6.300   9.774   4.178 -1.9184 -3.9709  2.0928
12721SOL    HW249818   6.163   9.845   4.124  0.0069 -0.6074  1.4614
12722SOL     OW49819   6.031   5.308   0.454  0.2947  0.0425  0.3286
12722SOL    HW149820   5.953   5.315   0.391  1.0389 -0.5329 -0.6740
12722SOL    HW249821   6.065   5.399   0.476  1.2059  0.2057 -1.6130
12723SOL     OW49822   3.864   8.814   1.185 -0.1791 -0.1826 -0.1550
12723SOL    HW149823   3.855   8.727   1.136 -1.6393  0.1781 -0.5273
12723SOL    HW249824   3.917   8.878   1.129 -0.8673 -0.1521 -0.7808
12724SOL     OW49825   3.732   2.815   4.147  0.5026  0.0981  0.4614
12724SOL    HW149826   3.687   2.742   4.199 -1.9461  1.1634 -0.1059
12724SOL    HW249827   3.735   2.898   4.202  0.9583  0.2980  0.1392
12725SOL     OW49828   9.636   8.232   5.708  0.0022 -0.2858  0.2582
12725SOL    HW149829   9.724   8.185   5.701 -0.3029 -0.9348  0.6454
12725SOL    HW249830   9.646   8.327   5.681  0.7836 -0.4044  0.1253
12726SOL     OW49831   9.480   4.454   1.189 -0.0800  0.2197 -0.4540
12726SOL    HW149832   9.444   4.537   1.231 -1.6116 -0.7616  0.2097
12726SOL    HW249833   9.459   4.375   1.246  2.9075 -0.4547 -0.1799
12727SOL     OW49834   8.619   5.200   0.399 -0.0540  0.4075  0.6477
12727SOL    HW149835   8.680   5.145   0.342  0.7888  0.5503  1.4025
12727SOL    HW249836   8.548   5.142   0.438  0.8721 -0.1634  1.4954
12728SOL     OW49837   9.387   6.032   6.599  0.2875  0.2305  0.0435
12728SOL    HW149838   9.371   5.944   6.553 -0.2394  0.9822 -1.2618
12728SOL    HW249839   9.397   6.017   6.697 -1.6839 -1.0930  0.0791
12729SOL     OW49840   5.080   3.590   7.373 -0.0214  0.0553  0.2719
12729SOL    HW149841   5.041   3.603   7.282 -1.0294 -0.6580  0.5897
12729SOL    HW249842   5.027   3.641   7.440  0.2408 -0.0572  0.5696
12730SOL     OW49843   7.032   8.187   5.760  0.1379 -0.2439  0.1648
12730SOL    HW149844   6.937   8.179   5.729  0.0788 -1.0748  0.5426
12730SOL    HW249845   7.093   8.150   5.690  0.3675  2.4053 -1.0988
12731SOL     OW49846   8.787   7.691   4.387  0.3415  0.0581  0.3478
12731SOL    HW149847   8.880   7.654   4.382  0.0837 -0.7943  1.4826
12731SOL    HW249848   8.727   7.623   4.430 -0.6346  0.9103  0.3490
12732SOL     OW49849   2.677   6.012   0.839 -0.6184  0.1967  0.3653
12732SOL    HW149850   2.755   5.952   0.823 -0.6259  0.3665 -0.3456
12732SOL    HW249851   2.594   5.971   0.800 -0.7119  0.4413  0.3033
12733SOL     OW49852   3.773   6.080   7.437 -0.2491  0.2600 -0.3979
12733SOL    HW149853   3.718   5.998   7.422 -0.4407  0.3021  0.0648
12733SOL    HW249854   3.849   6.082   7.373 -0.2536 -0.2760 -0.4163
12734SOL     OW49855   9.342   7.326   6.592 -0.1807 -0.1040  0.3134
12734SOL    HW149856   9.243   7.324   6.579 -0.0548 -0.0443 -0.7001
12734SOL    HW249857   9.382   7.397   6.534  0.4065  0.2030  1.0808
12735SOL     OW49858   9.687   1.175   4.337  0.6750  0.2388  0.0867
12735SOL    HW149859   9.614   1.186   4.270  0.1904  0.2051  0.5984
12735SOL    HW249860   9.657   1.212   4.425  2.2604  2.7318 -0.3539
12736SOL     OW49861   8.215   5.044   7.516 -0.0937  0.3997 -0.0652
12736SOL    HW149862   8.255   5.135   7.530 -1.7317  1.0135  0.7498
12736SOL    HW249863   8.134   5.034   7.574 -1.5364 -0.5672 -2.1927
12737SOL     OW49864   2.605   3.236   4.469  0.7216 -0.3649 -0.5944
12737SOL    HW149865   2.689   3.288   4.484  0.2643  0.4306 -0.7677
12737SOL    HW249866   2.546   3.284   4.404  0.3519 -1.1691 -0.8735
12738SOL     OW49867   9.547   6.252   6.958 -0.2869  0.1118 -0.3246
12738SOL    HW149868   9.559   6.249   6.859 -1.4092  1.0751 -0.4967
12738SOL    HW249869   9.515   6.163   6.990 -0.3095 -0.0802 -0.8716
12739SOL     OW49870   7.974   1.354   6.685  0.2570  0.5186  0.5087
12739SOL    HW149871   7.880   1.321   6.681  1.3059 -2.6711  0.6459
12739SOL    HW249872   8.013   1.356   6.593  0.9246 -1.0202  0.7258
12740SOL     OW49873   1.052   1.601   1.389 -0.6604 -0.7145 -0.4904
12740SOL    HW149874   0.991   1.560   1.321  0.1895 -1.9695 -0.4999
12740SOL    HW249875   1.078   1.533   1.458 -1.6039  0.5702  1.1798
12741SOL     OW49876   3.906   7.770   4.250 -0.1976 -0.1889  0.0969
12741SOL    HW149877   3.870   7.681   4.278  0.1938  0.6383  3.4319
12741SOL    HW249878   3.978   7.757   4.181 -0.2778 -2.4320  0.4134
12742SOL     OW49879   9.392   5.348   0.133 -0.2282 -0.3570 -0.2172
12742SOL    HW149880   9.419   5.377   0.225  0.4758 -1.7693  0.0252
12742SOL    HW249881   9.303   5.302   0.138 -0.5089  0.1678 -0.3429
12743SOL     OW49882   7.647   7.013   4.189  0.4069 -0.9758 -0.2272
12743SOL    HW149883   7.609   7.067   4.114 -0.2567 -0.2605  0.6161
12743SOL    HW249884   7.649   6.916   4.163 -0.2915 -0.7941 -0.9678
12744SOL     OW49885   0.456   1.485   2.326 -0.1579 -0.4905 -0.1034
12744SOL    HW149886   0.419   1.468   2.417  1.1405  1.8021  0.8899
12744SOL    HW249887   0.382   1.483   2.259 -1.6522  1.0707  1.4578
12745SOL     OW49888   3.890   9.926   3.461  0.3506 -0.6533 -0.0987
12745SOL    HW149889   3.814   9.904   3.523  0.5572  0.5043  0.5738
12745SOL    HW249890   3.871  10.011   3.413  0.6526 -1.0246 -0.8845
12746SOL     OW49891   9.884   7.872   2.464 -0.8079  0.2134 -0.2246
12746SOL    HW149892   9.923   7.885   2.373 -1.1036 -2.1623 -0.7194
12746SOL    HW249893   9.879   7.774   2.485 -0.2784  0.7532  2.5641
12747SOL     OW49894   8.280   3.772   5.308 -0.2973  0.1335  0.5490
12747SOL    HW149895   8.229   3.857   5.310 -0.3971  0.1081 -0.7121
12747SOL    HW249896   8.367   3.784   5.356  0.3468  1.3822 -0.9227
12748SOL     OW49897   3.728   2.105   0.733 -0.0532  0.1811 -0.3763
12748SOL    HW149898   3.631   2.128   0.724 -0.2518 -0.5790 -0.2424
12748SOL    HW249899   3.775   2.177   0.784 -0.4385  0.8182 -0.9205
12749SOL     OW49900   0.187   8.873   5.775  0.0712  0.2162 -0.9025
12749SOL    HW149901   0.257   8.806   5.752 -1.0696 -1.7207  1.0754
12749SOL    HW249902   0.216   8.925   5.855 -1.7322 -2.2590  1.4315
12750SOL     OW49903   2.704   3.189   1.370 -0.4646  0.2995 -0.3858
12750SOL    HW149904   2.638   3.151   1.304 -1.5027  0.9175  0.2816
12750SOL    HW249905   2.655   3.241   1.440  0.6677  0.0102  0.6419
12751SOL     OW49906   4.432   8.136   4.634 -0.2942 -0.6363 -0.2292
12751SOL    HW149907   4.521   8.124   4.678  0.2668 -1.6997 -1.6090
12751SOL    HW249908   4.439   8.114   4.537 -1.7501  0.6440 -0.6631
12752SOL     OW49909   5.153   5.181   1.243 -0.2954 -0.8345 -0.5043
12752SOL    HW149910   5.067   5.151   1.201 -0.2753 -0.6397 -0.6885
12752SOL    HW249911   5.221   5.197   1.171 -1.0239  1.9832 -0.6128
12753SOL     OW49912   1.651   0.169   2.765  0.1724 -0.8714  0.5985
12753SOL    HW149913   1.633   0.126   2.676  1.0733 -0.9758  0.4519
12753SOL    HW249914   1.649   0.268   2.755 -2.6291 -0.8544  1.0897
12754SOL     OW49915   2.985   6.065   6.365 -0.0866 -0.0673 -0.1304
12754SOL    HW149916   3.006   5.990   6.302 -0.4789  0.2429 -0.6401
12754SOL    HW249917   2.915   6.036   6.429 -1.0742  0.2268 -1.0592
12755SOL     OW49918   4.154   5.516   6.936  0.7286 -0.1715 -0.0047
12755SOL    HW149919   4.121   5.428   6.968  1.1027  0.1613  1.3319
12755SOL    HW249920   4.078   5.581   6.933  0.3043 -0.7311 -1.7127
12756SOL     OW49921   1.821   8.808   0.543  0.6827 -0.6312  0.0327
12756SOL    HW149922   1.794   8.897   0.580  0.3366 -0.2699 -1.0731
12756SOL    HW249923   1.807   8.737   0.613 -0.2925 -0.0127  0.4711
12757SOL     OW49924   8.232   5.332   7.572 -0.2278  0.1853  0.2341
12757SOL    HW149925   8.294   5.410   7.565 -1.9364  1.4626 -1.1737
12757SOL    HW249926   8.142   5.364   7.603 -0.2262 -1.6229  2.2228
12758SOL     OW49927   1.141   1.174   1.874 -1.2804 -0.4566 -0.1809
12758SOL    HW149928   1.187   1.125   1.800 -2.0079 -2.3397  0.5940
12758SOL    HW249929   1.176   1.142   1.962 -1.7021  0.4829  0.3304
12759SOL     OW49930   4.926   3.334   2.386  0.2315 -0.8645 -0.2405
12759SOL    HW149931   4.980   3.396   2.444  1.8894 -1.1971 -1.3789
12759SOL    HW249932   4.947   3.240   2.410 -0.1537 -0.9982 -0.4272
12760SOL     OW49933   0.928   5.499   6.369 -0.0278 -0.2624  0.4571
12760SOL    HW149934   0.830   5.512   6.384 -0.0534 -1.0856  1.0357
12760SOL    HW249935   0.953   5.534   6.279 -1.1291 -1.3553 -0.2836
12761SOL     OW49936   4.855   7.104   3.469  0.3776 -0.2094 -0.1429
12761SOL    HW149937   4.873   7.180   3.407  2.5823 -1.7809 -1.5405
12761SOL    HW249938   4.935   7.089   3.527 -0.4710 -0.7701  0.9096
12762SOL     OW49939   6.961   2.001   5.020 -0.4459 -0.1166 -0.2177
12762SOL    HW149940   6.978   1.966   5.112  1.9457  1.9321  0.1896
12762SOL    HW249941   6.864   2.019   5.008 -0.8454 -0.8431  1.7360
12763SOL     OW49942   8.599   5.345   1.147 -0.2373  0.0057  0.0120
12763SOL    HW149943   8.630   5.440   1.141  1.7669 -0.6161  0.2614
12763SOL    HW249944   8.650   5.297   1.218  0.8337 -2.0432 -2.0827
12764SOL     OW49945   6.559   4.119   2.926  0.0375  0.8708 -0.5809
12764SOL    HW149946   6.606   4.185   2.868 -0.9509  0.5177 -1.8140
12764SOL    HW249947   6.461   4.140   2.928 -0.6217 -1.7473 -2.6820
12765SOL     OW49948   7.075   6.771   2.326 -0.5860  0.0975 -0.1368
12765SOL    HW149949   6.981   6.800   2.305 -0.6511  1.0258  1.3471
12765SOL    HW249950   7.139   6.839   2.289 -0.4365 -1.0504 -2.0288
12766SOL     OW49951   6.946   5.646   2.331  0.2706 -0.7215 -0.1385
12766SOL    HW149952   6.997   5.615   2.251  1.6663 -0.6186  0.7067
12766SOL    HW249953   7.007   5.655   2.410 -1.0137 -0.4694  0.8614
12767SOL     OW49954   8.210   9.542   5.885 -0.0042  0.0190  0.4308
12767SOL    HW149955   8.131   9.497   5.928 -0.1739 -0.1774 -0.0847
12767SOL    HW249956   8.179   9.624   5.836 -0.1991 -1.2557 -1.5960
12768SOL     OW49957   5.649   9.316   3.345  0.2065  0.5081  0.6735
12768SOL    HW149958   5.706   9.387   3.305 -1.3774  1.9304  0.9020
12768SOL    HW249959   5.590   9.277   3.275  0.3217  0.1442  0.7750
12769SOL     OW49960   3.451   9.307   3.080 -0.1579  0.1515  0.0549
12769SOL    HW149961   3.387   9.311   3.003  0.3539  0.4245 -0.3613
12769SOL    HW249962   3.444   9.218   3.124  1.5905 -1.1180 -2.0855
12770SOL     OW49963   3.366   8.798   3.931 -0.1690 -0.0248  0.2307
12770SOL    HW149964   3.321   8.871   3.879  0.8357  0.8227  0.5263
12770SOL    HW249965   3.388   8.832   4.022 -0.0743 -0.8443  0.5131
12771SOL     OW49966   5.649   7.525   4.345  0.3818 -0.6098  0.4589
12771SOL    HW149967   5.618   7.538   4.439  1.9598 -0.6080  0.9956
12771SOL    HW249968   5.731   7.467   4.345  0.5647 -0.3555 -0.8839
12772SOL     OW49969   2.209   0.752   3.297  0.3733  0.1966  0.2829
12772SOL    HW149970   2.139   0.724   3.362 -0.8479 -1.0542 -1.5246
12772SOL    HW249971   2.168   0.811   3.228  1.5584  1.1481  0.3748
12773SOL     OW49972   2.771   8.270   2.217  0.6642  0.1603 -0.0252
12773SOL    HW149973   2.850   8.326   2.244  0.4420  0.2938  0.3383
12773SOL    HW249974   2.800   8.206   2.146  1.0146  0.4652 -0.1617
12774SOL     OW49975   1.465   0.385   0.527  0.3173  0.1408  0.1699
12774SOL    HW149976   1.463   0.286   0.513  0.5880  0.3493 -1.4703
12774SOL    HW249977   1.474   0.431   0.438  1.7398  1.5828  1.0319
12775SOL     OW49978   2.903   0.303   0.567  0.0801  0.1891 -0.5985
12775SOL    HW149979   2.837   0.294   0.493 -1.3967 -0.4694  0.7730
12775SOL    HW249980   2.965   0.225   0.567  0.9738  0.8759 -1.9715
12776SOL     OW49981   2.106   5.645   6.211  0.3360 -0.0486  0.0246
12776SOL    HW149982   2.149   5.736   6.211 -1.0586  0.6332 -1.0558
12776SOL    HW249983   2.123   5.600   6.298  0.7960  1.3710  0.6901
12777SOL     OW49984   9.791   8.720   3.212 -0.4264  0.5504 -0.2048
12777SOL    HW149985   9.706   8.769   3.192 -0.5965  0.5251  0.4506
12777SOL    HW249986   9.854   8.780   3.261  0.1394  0.7326 -1.1468
12778SOL     OW49987   0.550   9.067   6.921  0.3981  0.4016 -0.2007
12778SOL    HW149988   0.586   9.120   6.998 -3.1492  0.8270  1.2114
12778SOL    HW249989   0.549   8.970   6.945 -1.6052  0.6254  0.7023
12779SOL     OW49990   2.392   1.672   0.444  0.8211  0.0175  1.2008
12779SOL    HW149991   2.375   1.699   0.349  1.3774 -1.2092  0.7392
12779SOL    HW249992   2.446   1.744   0.490 -1.3988  1.6775  1.2820
12780SOL     OW49993   4.935   8.696   1.606  0.5397  0.0466  0.2658
12780SOL    HW149994   4.981   8.766   1.661  0.3730  0.9366 -0.7013
12780SOL    HW249995   5.001   8.626   1.578  0.9145  0.3356  0.4261
12781SOL     OW49996   9.758   6.477   6.104 -0.0912  0.5898 -0.6817
12781SOL    HW149997   9.828   6.529   6.054 -0.2171  0.7187 -0.7238
12781SOL    HW249998   9.703   6.539   6.159  2.0615  0.1255  2.1204
12782SOL     OW49999   3.570   3.637   2.136 -0.7693 -0.8931 -0.0430
12782SOL    HW150000   3.473   3.662   2.136 -0.6126 -0.2702 -0.9794
12782SOL    HW250001   3.586   3.565   2.204 -0.9634  2.5782  3.8606
12783SOL     OW50002   0.805   4.940   7.819  0.4183 -0.4966 -0.1772
12783SOL    HW150003   0.779   5.007   7.750  1.5650 -1.3894 -1.5249
12783SOL    HW250004   0.724   4.892   7.852 -0.1642  0.0575 -0.7885
12784SOL     OW50005   0.540   8.904   1.581  0.4526 -0.4850  0.2352
12784SOL    HW150006   0.515   8.917   1.677  0.0220  0.5864 -0.0128
12784SOL    HW250007   0.464   8.861   1.532  0.3775 -0.3206  0.2078
12785SOL     OW50008   6.751   3.116   1.195  0.1632 -0.1883 -0.2511
12785SOL    HW150009   6.805   3.038   1.227  0.0335 -0.7631 -1.3945
12785SOL    HW250010   6.658   3.109   1.231  0.5137  0.1344  0.7088
12786SOL     OW50011   0.098   4.385   7.921 -0.3542 -0.6832 -0.6233
12786SOL    HW150012   0.184   4.370   7.871 -0.4716 -0.3008 -0.9414
12786SOL    HW250013   0.071   4.481   7.913 -0.7762 -0.7872 -0.4620
12787SOL     OW50014   4.159   8.594   4.260 -1.0413 -0.0784 -0.5227
12787SOL    HW150015   4.111   8.648   4.328  0.6899  0.7343  0.0632
12787SOL    HW250016   4.127   8.499   4.264  0.2754 -0.4563  2.6411
12788SOL     OW50017   2.965   3.491   4.612  0.4197 -0.0974  0.0853
12788SOL    HW150018   2.899   3.508   4.539  1.7770  0.1154 -1.1163
12788SOL    HW250019   3.040   3.435   4.577  0.7355 -0.6016  1.5113
12789SOL     OW50020   6.150   1.089   6.246 -0.0206  0.3609 -0.5435
12789SOL    HW150021   6.135   1.085   6.345 -0.3857  0.0570 -0.6081
12789SOL    HW250022   6.177   1.181   6.220  2.1922 -0.0668  0.1229
12790SOL     OW50023   8.885   6.591   4.106  0.1795 -0.4783 -0.2273
12790SOL    HW150024   8.800   6.543   4.127 -0.2110  0.7739  1.0652
12790SOL    HW250025   8.897   6.595   4.006 -0.3493 -2.2437 -0.3721
12791SOL     OW50026   1.620   6.351   4.563  0.1487  0.3588 -0.0641
12791SOL    HW150027   1.649   6.257   4.581 -1.0434  0.2490  1.3422
12791SOL    HW250028   1.672   6.414   4.621 -1.8397  0.2235  1.9002
12792SOL     OW50029   8.103   0.433   3.325  0.5175  0.0006  0.1306
12792SOL    HW150030   8.113   0.352   3.382 -0.2678  0.1374  0.4824
12792SOL    HW250031   8.191   0.480   3.318  0.8575 -0.5969  0.3559
12793SOL     OW50032   2.510   0.682   6.231  0.3185 -0.3671  0.5396
12793SOL    HW150033   2.481   0.683   6.327  0.0580  0.4159  0.4595
12793SOL    HW250034   2.543   0.773   6.206 -1.1796 -0.1280 -0.5861
12794SOL     OW50035   4.668   9.035   6.508 -1.1214 -0.1214 -0.2878
12794SOL    HW150036   4.645   8.962   6.443  0.3369 -0.3327 -0.5743
12794SOL    HW250037   4.680   9.121   6.458  0.6501 -0.4211 -0.3835
12795SOL     OW50038   3.290   6.598   7.011  0.5857 -0.1716  0.3222
12795SOL    HW150039   3.252   6.676   7.060  1.3732 -0.9196  2.1554
12795SOL    HW250040   3.266   6.605   6.914 -0.3570  1.7104  0.6686
12796SOL     OW50041   9.322   4.577   3.421  0.3012  0.4669  0.3837
12796SOL    HW150042   9.369   4.520   3.488  2.7537  1.6755 -0.2294
12796SOL    HW250043   9.330   4.673   3.448  2.3564  1.0977 -2.1441
12797SOL     OW50044   9.354   9.555   1.730 -0.0886  0.2354 -0.3238
12797SOL    HW150045   9.284   9.491   1.700  1.0116 -0.0298 -2.4094
12797SOL    HW250046   9.431   9.505   1.771 -0.0233  0.3486 -0.3064
12798SOL     OW50047   6.614   1.375   6.073  0.4137  0.4140 -0.1905
12798SOL    HW150048   6.679   1.443   6.039  0.9447 -0.3025 -0.6299
12798SOL    HW250049   6.556   1.344   5.997 -0.6271  1.2521  0.2576
12799SOL     OW50050   8.888   1.090   4.134 -0.2797  0.4394 -0.0316
12799SOL    HW150051   8.956   1.118   4.067 -1.9009  1.2417 -1.3835
12799SOL    HW250052   8.890   0.991   4.144  0.6219  0.3999 -0.5452
12800SOL     OW50053   3.077   6.164   3.276 -0.2695  0.0465 -0.0242
12800SOL    HW150054   3.015   6.205   3.343  1.1501  0.9737  0.7474
12800SOL    HW250055   3.036   6.171   3.185 -0.7716  1.7454  0.3027
12801SOL     OW50056   3.490   8.503   7.781 -0.9536  0.4951  0.1907
12801SOL    HW150057   3.483   8.531   7.685 -0.5784 -0.0702 -0.0025
12801SOL    HW250058   3.582   8.521   7.815 -0.8831  0.0567  0.2386
12802SOL     OW50059   1.317   5.003   5.675 -0.3724 -0.4933  0.4805
12802SOL    HW150060   1.258   4.984   5.753 -2.3725 -0.3293 -0.9498
12802SOL    HW250061   1.308   4.930   5.608  1.9031 -1.0152  0.7067
12803SOL     OW50062   9.748   5.528   4.853 -0.0767  0.0333  0.1495
12803SOL    HW150063   9.797   5.546   4.938 -1.4952 -0.3332  1.0594
12803SOL    HW250064   9.741   5.613   4.800  0.3356  0.3861  0.6509
12804SOL     OW50065   9.216   2.751   3.321  0.0536 -0.0809  0.1683
12804SOL    HW150066   9.220   2.711   3.413 -0.9380  0.8399  0.6278
12804SOL    HW250067   9.296   2.809   3.306 -0.2623  0.5359  0.8290
12805SOL     OW50068   8.053   4.538   2.975 -0.1577 -0.2262  0.3668
12805SOL    HW150069   8.112   4.509   3.050  0.0972  0.4255  0.4187
12805SOL    HW250070   7.962   4.561   3.010 -0.9935 -2.8703  0.0698
12806SOL     OW50071   7.968   4.683   2.403  0.4183  0.3165 -0.3560
12806SOL    HW150072   7.893   4.650   2.460  1.2075  0.2334  0.6374
12806SOL    HW250073   7.930   4.731   2.324 -0.7410 -1.9405 -1.2288
12807SOL     OW50074   2.858   5.791   0.807  0.1629 -0.2785 -0.2348
12807SOL    HW150075   2.913   5.741   0.740  1.8614 -0.6856  1.4099
12807SOL    HW250076   2.791   5.729   0.848  0.4094 -0.4971 -0.1659
12808SOL     OW50077   1.959   1.437   4.953  0.0988 -0.0295 -0.4361
12808SOL    HW150078   1.924   1.360   5.007  1.3904 -0.2781  0.0497
12808SOL    HW250079   1.905   1.446   4.869 -2.1508  0.5668  1.0310
12809SOL     OW50080   4.094   7.539   2.990  0.4744  0.6391 -0.4286
12809SOL    HW150081   4.168   7.475   2.969 -0.1517 -0.6558  1.1946
12809SOL    HW250082   4.132   7.631   3.002  1.5055  0.4187 -1.8689
12810SOL     OW50083   7.609   8.403   6.862 -0.0961  0.0201 -0.2729
12810SOL    HW150084   7.654   8.317   6.837 -0.2933 -0.3472  0.6184
12810SOL    HW250085   7.596   8.459   6.780 -0.4222 -1.0186 -0.9394
12811SOL     OW50086   9.719   6.729   0.938  0.0992 -0.1668 -0.0186
12811SOL    HW150087   9.815   6.737   0.963  0.7091 -3.7305 -0.9393
12811SOL    HW250088   9.668   6.687   1.012 -0.4443  0.2773 -0.1368
12812SOL     OW50089   9.968   3.184   7.572 -0.3982 -0.0188 -0.5620
12812SOL    HW150090   9.983   3.157   7.667  2.0839  1.1113 -0.5749
12812SOL    HW250091   9.911   3.266   7.570  0.1894  0.4153  0.0214
12813SOL     OW50092   5.000   1.442   5.291 -0.5662  0.2768 -0.1767
12813SOL    HW150093   5.090   1.467   5.256  0.1421 -0.9677  0.7263
12813SOL    HW250094   4.965   1.362   5.241 -1.3013  0.9208 -0.7127
12814SOL     OW50095   3.659   1.493   0.934 -0.6248  0.0334  0.3733
12814SOL    HW150096   3.647   1.394   0.944 -2.4212  0.0404 -1.5251
12814SOL    HW250097   3.726   1.512   0.863  1.0198  0.1883  1.9260
12815SOL     OW50098   1.706   1.252   5.646  0.6055 -0.2127  0.6295
12815SOL    HW150099   1.794   1.286   5.678 -0.4696  2.1108  1.1877
12815SOL    HW250100   1.634   1.283   5.708 -0.9007  0.0272 -1.2085
12816SOL     OW50101   4.354   7.933   1.326 -0.0015 -0.3375 -0.6826
12816SOL    HW150102   4.272   7.932   1.269  0.2277 -1.4427 -1.0090
12816SOL    HW250103   4.402   8.021   1.315 -0.7308  0.0146 -1.0671
12817SOL     OW50104   6.540   1.238   2.365 -0.3273 -0.5177  0.5498
12817SOL    HW150105   6.600   1.163   2.393 -0.2796 -1.4441 -1.8918
12817SOL    HW250106   6.549   1.253   2.266 -2.2403  1.0035  0.5739
12818SOL     OW50107   3.098   9.464   3.190 -0.2027  0.0559  0.5025
12818SOL    HW150108   3.131   9.549   3.149  0.8741 -0.0392  1.1653
12818SOL    HW250109   3.072   9.400   3.117 -0.6255  0.7923 -0.0033
12819SOL     OW50110   7.325   9.167   2.152  0.0440 -0.0938 -0.0879
12819SOL    HW150111   7.338   9.212   2.240  1.2677  1.4692 -1.0435
12819SOL    HW250112   7.230   9.176   2.123 -0.4673 -1.0289  1.2881
12820SOL     OW50113   3.371   5.723   5.389 -0.2551 -0.2087  0.2204
12820SOL    HW150114   3.377   5.817   5.423  2.0880 -0.5394  0.7778
12820SOL    HW250115   3.300   5.674   5.439 -3.5052  2.0385 -1.9978
12821SOL     OW50116   2.009   6.426   0.732  0.4464  0.3847 -0.2066
12821SOL    HW150117   2.020   6.479   0.816  0.0768  0.7691 -0.3966
12821SOL    HW250118   1.916   6.438   0.697  0.7398  0.6096 -0.9228
12822SOL     OW50119   9.302   8.188   4.661 -0.1327 -0.2247  0.4172
12822SOL    HW150120   9.274   8.119   4.594  0.2452 -0.6494  0.6871
12822SOL    HW250121   9.256   8.274   4.642 -0.1242 -0.3774 -0.3131
12823SOL     OW50122   8.846   6.170   0.128  0.1744  0.2396 -0.1049
12823SOL    HW150123   8.851   6.109   0.208 -1.5812  0.2730  0.0543
12823SOL    HW250124   8.859   6.265   0.158  1.2709  0.1026 -0.1211
12824SOL     OW50125   1.409   0.772   3.159  0.2914  0.5752  0.2642
12824SOL    HW150126   1.450   0.863   3.171  0.2063  0.4346  1.6624
12824SOL    HW250127   1.364   0.768   3.070  0.3708  1.8805  0.1480
12825SOL     OW50128   3.703   3.372   3.017  0.4133 -0.0833  0.2225
12825SOL    HW150129   3.792   3.415   3.004 -0.3981  1.8923  0.8861
12825SOL    HW250130   3.698   3.287   2.965  2.4708  0.0789 -0.2628
12826SOL     OW50131   3.144   4.275   3.395  0.2481  0.6014 -0.0015
12826SOL    HW150132   3.129   4.288   3.297  0.2886 -0.4651 -0.1502
12826SOL    HW250133   3.219   4.333   3.425  2.2069 -1.2674 -1.1983
12827SOL     OW50134   8.747   9.034   1.948  0.1837  0.7419  0.2164
12827SOL    HW150135   8.815   8.986   1.893 -0.4716 -3.2588  2.6858
12827SOL    HW250136   8.785   9.121   1.980  3.3822 -0.4755 -0.1121
12828SOL     OW50137   2.120   9.413   5.923 -0.2028  0.1967  0.2095
12828SOL    HW150138   2.039   9.444   5.973  0.4918 -0.7309  1.9233
12828SOL    HW250139   2.114   9.315   5.907  0.8222  0.0355  0.7915
12829SOL     OW50140   1.181   7.433   2.404 -0.5060 -0.5072 -0.2494
12829SOL    HW150141   1.126   7.464   2.327  0.5968 -0.4862 -1.0465
12829SOL    HW250142   1.196   7.508   2.468 -0.2648 -0.1587 -0.7164
12830SOL     OW50143   0.034   8.085   6.825 -0.2329 -0.2259  0.5105
12830SOL    HW150144   0.094   8.015   6.787 -0.2261 -2.0206  3.6298
12830SOL    HW250145   0.088   8.164   6.854  0.0527  0.0836 -0.8527
12831SOL     OW50146   7.779   8.493   6.134  0.3195  0.1897  0.3417
12831SOL    HW150147   7.726   8.419   6.175  1.5835 -1.5230 -1.0604
12831SOL    HW250148   7.871   8.494   6.173  0.9409 -0.2696 -1.0815
12832SOL     OW50149   4.031   2.680   7.301 -0.4772  0.0993 -0.3119
12832SOL    HW150150   4.078   2.763   7.269  0.0311 -0.2969 -0.5942
12832SOL    HW250151   3.938   2.679   7.266 -0.4194  0.4523 -0.4771
12833SOL     OW50152   4.207   3.498   1.484 -0.4358 -0.3055 -0.8934
12833SOL    HW150153   4.290   3.454   1.519  1.0354  0.0836 -3.7985
12833SOL    HW250154   4.197   3.588   1.527 -0.5751 -1.2334  1.0871
12834SOL     OW50155   2.675   3.948   4.948 -0.0350  0.4465 -0.5567
12834SOL    HW150156   2.674   3.997   5.035 -1.0511 -1.4667  0.5468
12834SOL    HW250157   2.735   3.995   4.883  2.7825  0.4905  2.0153
12835SOL     OW50158   7.561   5.995   2.487 -0.0565  0.3362 -0.2891
12835SOL    HW150159   7.648   6.018   2.444  0.0961  0.3575  0.0295
12835SOL    HW250160   7.499   5.956   2.419 -0.4231  1.9517 -0.8867
12836SOL     OW50161   4.628   1.208   0.644 -0.2985 -0.0235 -0.0439
12836SOL    HW150162   4.539   1.173   0.675 -1.5248  2.0263 -1.1239
12836SOL    HW250163   4.696   1.193   0.715 -1.5825 -1.3588  0.9294
12837SOL     OW50164   2.626   6.924   4.727 -0.7503 -0.2585  0.1572
12837SOL    HW150165   2.632   6.944   4.825 -0.3882  0.5481 -0.0204
12837SOL    HW250166   2.600   7.008   4.679 -1.5914 -0.8153 -0.3654
12838SOL     OW50167   1.585   4.171   1.900  0.0888 -0.0986 -0.3017
12838SOL    HW150168   1.577   4.242   1.970  2.7632  2.1386 -2.1962
12838SOL    HW250169   1.557   4.207   1.812  2.5222 -0.9964 -1.5020
12839SOL     OW50170   1.207   1.539   7.297  0.0151 -0.2732 -0.6051
12839SOL    HW150171   1.161   1.453   7.317 -1.3303  0.5844  0.0573
12839SOL    HW250172   1.151   1.615   7.329  0.1536  0.9536 -3.1598
12840SOL     OW50173   7.698   7.406   2.945 -0.4923  0.0941  0.2469
12840SOL    HW150174   7.642   7.367   2.872 -0.6374 -0.2646  0.5443
12840SOL    HW250175   7.774   7.456   2.905  1.5143 -3.1225 -0.1775
12841SOL     OW50176   7.331   0.842   2.549 -0.0400 -0.3387  0.2453
12841SOL    HW150177   7.311   0.746   2.530  1.6899 -0.7469  0.3730
12841SOL    HW250178   7.340   0.855   2.648 -0.3835 -0.0334  0.2342
12842SOL     OW50179   2.625   4.105   1.305  0.1294 -0.3594 -0.2353
12842SOL    HW150180   2.532   4.114   1.341  0.0772  1.4683 -0.7656
12842SOL    HW250181   2.688   4.087   1.381  0.0428  3.6816  0.9127
12843SOL     OW50182   7.190   2.626   5.421  0.0640  0.4767  0.1919
12843SOL    HW150183   7.106   2.599   5.374 -1.0542  2.1763  1.1416
12843SOL    HW250184   7.266   2.627   5.357 -1.3890  2.5459 -1.5795
12844SOL     OW50185   1.280   7.701   1.732 -0.2674  0.0931  0.3241
12844SOL    HW150186   1.255   7.794   1.759 -1.0658 -0.2182  0.6585
12844SOL    HW250187   1.265   7.639   1.809 -1.9470 -0.6977 -0.6172
12845SOL     OW50188   2.366   6.716   1.505  0.1921 -0.0182 -0.4974
12845SOL    HW150189   2.449   6.663   1.486 -0.6713 -2.7632  2.8721
12845SOL    HW250190   2.391   6.803   1.546  1.4242 -0.6557  0.1297
12846SOL     OW50191   0.581   5.464   3.651 -0.3433  0.5187 -0.4607
12846SOL    HW150192   0.678   5.447   3.670 -0.3078  2.5967  1.5308
12846SOL    HW250193   0.562   5.445   3.555  1.9125 -0.4384 -0.7654
12847SOL     OW50194   0.495   4.460   5.728  0.2971 -0.3958 -0.1649
12847SOL    HW150195   0.522   4.384   5.787 -0.0543 -0.0495  0.4356
12847SOL    HW250196   0.489   4.544   5.781 -0.1343 -0.1039 -0.6686
12848SOL     OW50197   6.029   4.660   2.963  0.0740  0.6712 -0.4558
12848SOL    HW150198   5.991   4.573   2.932  1.5882 -0.4360  0.7147
12848SOL    HW250199   5.959   4.712   3.013  0.1815 -1.5499  2.0999
12849SOL     OW50200   0.934   9.122   2.091  0.6238  0.5210  0.4649
12849SOL    HW150201   0.997   9.178   2.037  1.6459  0.0842  1.2181
12849SOL    HW250202   0.841   9.160   2.082  1.2312  2.0679  0.6008
12850SOL     OW50203   9.539   4.903   4.623 -0.0785 -0.1023  0.6177
12850SOL    HW150204   9.611   4.972   4.613 -1.4996  1.3863  0.4831
12850SOL    HW250205   9.468   4.938   4.684 -0.1118 -2.0442  1.7063
12851SOL     OW50206   1.410   1.140   3.189 -0.0438  0.3838 -0.4568
12851SOL    HW150207   1.338   1.111   3.253 -0.6966 -0.1991 -1.4513
12851SOL    HW250208   1.496   1.148   3.239 -0.7549  0.9393  0.7125
12852SOL     OW50209   2.779   1.066   4.281 -0.4609 -0.5847 -0.2767
12852SOL    HW150210   2.858   1.103   4.330  0.2740 -0.9195 -1.1886
12852SOL    HW250211   2.800   0.974   4.248 -0.9925 -0.4094 -1.1110
12853SOL     OW50212   8.201   2.718   0.736  0.1431 -0.2146  0.2488
12853SOL    HW150213   8.196   2.622   0.763  0.5867 -0.4990 -0.6631
12853SOL    HW250214   8.122   2.742   0.680 -0.9796  0.4791  2.0784
12854SOL     OW50215   6.090   0.780   3.769  0.3948 -0.2189 -0.1904
12854SOL    HW150216   6.130   0.688   3.775  1.7685  0.3414 -0.4975
12854SOL    HW250217   6.141   0.833   3.702 -0.9479  0.5005 -0.6383
12855SOL     OW50218   2.915   7.904   7.307  0.4081  0.5516 -0.4786
12855SOL    HW150219   2.961   7.918   7.220  1.2481  1.6468  0.1464
12855SOL    HW250220   2.927   7.809   7.336 -0.8955 -0.1481 -2.1280
12856SOL     OW50221   0.523   5.818   1.134  0.3118 -0.5914  0.4675
12856SOL    HW150222   0.516   5.749   1.062 -2.0208  0.8518 -0.7579
12856SOL    HW250223   0.484   5.782   1.219 -0.6060 -0.8963 -0.0797
12857SOL     OW50224   9.039   7.289   5.280  0.3580 -0.1012 -0.3240
12857SOL    HW150225   9.086   7.346   5.347  1.1018 -2.5219  1.2853
12857SOL    HW250226   8.946   7.270   5.312 -0.5514  1.7226 -1.7776
12858SOL     OW50227   1.997   0.484   7.179  0.0097  0.2383 -0.1941
12858SOL    HW150228   2.062   0.547   7.222 -0.6801  0.4976  0.4688
12858SOL    HW250229   2.007   0.488   7.080  0.3218  1.0011 -0.1319
12859SOL     OW50230   5.440   0.456   3.173 -0.1813 -0.0105 -0.4842
12859SOL    HW150231   5.375   0.383   3.198 -1.3277  0.7583 -1.1915
12859SOL    HW250232   5.447   0.521   3.249 -0.6637  0.2013 -0.6179
12860SOL     OW50233   2.945   7.322   5.747 -0.4475 -0.2544  0.1154
12860SOL    HW150234   3.035   7.316   5.703  0.6942 -0.9868  2.4225
12860SOL    HW250235   2.915   7.417   5.749  0.2916  0.0070 -0.6444
12861SOL     OW50236   8.032   0.546   1.604  0.8595 -0.4033 -0.0600
12861SOL    HW150237   8.005   0.620   1.664  0.8670  1.2006 -2.0016
12861SOL    HW250238   7.956   0.482   1.593  0.4719 -0.0732  0.6739
12862SOL     OW50239   9.644   2.470   4.395  0.5139 -0.3669  0.4875
12862SOL    HW150240   9.653   2.371   4.406 -0.5627 -0.5477 -0.1374
12862SOL    HW250241   9.583   2.506   4.465 -1.2537 -0.5628 -0.9249
12863SOL     OW50242   9.538   2.373   0.284  0.2740  0.0493 -0.4217
12863SOL    HW150243   9.503   2.466   0.273 -0.0089 -0.1202 -0.9336
12863SOL    HW250244   9.584   2.344   0.200  0.2069 -0.3409 -0.3241
12864SOL     OW50245   3.627   8.590   0.015  0.2058 -0.3883  0.1873
12864SOL    HW150246   3.640   8.671  -0.042  0.8939 -0.6327 -0.0182
12864SOL    HW250247   3.714   8.568   0.060  0.8172 -2.7185 -2.0188
12865SOL     OW50248   1.692   3.687   7.772  0.6310  0.2305  0.8920
12865SOL    HW150249   1.655   3.623   7.839 -0.1540 -0.2176  0.0439
12865SOL    HW250250   1.739   3.637   7.700 -0.5637  0.5393 -0.1297
12866SOL     OW50251   2.434   7.960  10.073 -0.1665 -0.3944  0.0490
12866SOL    HW150252   2.469   8.000  10.157 -0.3970  1.8023 -0.8700
12866SOL    HW250253   2.343   7.995  10.054  0.0324 -0.5650 -1.3154
12867SOL     OW50254   2.910   0.313   3.205  0.1030  0.7063 -0.2726
12867SOL    HW150255   2.892   0.219   3.235 -0.2056  0.7542 -0.3073
12867SOL    HW250256   2.969   0.358   3.272 -2.2602  1.4661  1.3409
12868SOL     OW50257   9.354   9.682   1.164 -0.1355 -0.2062 -0.4075
12868SOL    HW150258   9.432   9.661   1.105  0.1793 -0.8843  0.2493
12868SOL    HW250259   9.381   9.749   1.233 -0.0257 -0.7368  0.0665
12869SOL     OW50260   8.036   7.226   1.166 -0.0371  0.0246 -0.3344
12869SOL    HW150261   8.007   7.322   1.164 -1.7672 -0.4667 -0.2340
12869SOL    HW250262   8.057   7.195   1.073  0.2696  0.4290 -0.3979
12870SOL     OW50263   4.374   0.423   3.204 -0.3218 -0.3052  0.1972
12870SOL    HW150264   4.417   0.336   3.229  1.5477  0.4153 -0.3623
12870SOL    HW250265   4.439   0.497   3.220 -2.6223  1.2519  2.6975
12871SOL     OW50266   1.234   6.776   6.137  0.2127 -0.1476 -0.3441
12871SOL    HW150267   1.320   6.726   6.147  0.6240  0.7086  0.4818
12871SOL    HW250268   1.171   6.724   6.080  0.8643 -1.3101 -0.0056
12872SOL     OW50269   4.791   5.232   1.332  0.0432 -0.1585  0.4421
12872SOL    HW150270   4.694   5.217   1.311  0.0933 -0.4082  0.3805
12872SOL    HW250271   4.843   5.150   1.307  0.3694  0.2378 -0.1888
12873SOL     OW50272   6.210   0.265   6.819  0.3758 -0.2197  0.2572
12873SOL    HW150273   6.174   0.354   6.792 -2.3965 -0.4913  2.6867
12873SOL    HW250274   6.305   0.274   6.849  0.9897  1.3932 -2.0772
12874SOL     OW50275   4.631   0.505   2.859  0.1713 -0.3545 -0.3303
12874SOL    HW150276   4.617   0.413   2.897 -0.9240 -0.8707 -1.9400
12874SOL    HW250277   4.726   0.532   2.873 -0.1045 -0.6615  2.4411
12875SOL     OW50278   3.208   3.564   5.424 -0.2122  0.0806  0.7025
12875SOL    HW150279   3.273   3.634   5.393 -0.9100  1.2346  1.7893
12875SOL    HW250280   3.225   3.543   5.520 -0.9919 -0.1404  0.7928
12876SOL     OW50281   7.152   2.378   2.233 -0.0092  0.6233 -0.2314
12876SOL    HW150282   7.104   2.351   2.150  1.4708  2.7973 -1.8721
12876SOL    HW250283   7.201   2.300   2.271 -1.0966 -0.5056 -1.1267
12877SOL     OW50284   7.039   6.030   6.650 -0.1238 -0.3375  0.3192
12877SOL    HW150285   7.089   6.093   6.591  0.0999 -1.0468 -0.2493
12877SOL    HW250286   7.001   6.081   6.728 -0.2079  0.5594 -0.2931
12878SOL     OW50287   2.605   4.175   2.016  0.2425 -0.2358  0.2286
12878SOL    HW150288   2.535   4.244   2.035  1.1187  0.5857  0.5277
12878SOL    HW250289   2.629   4.128   2.101  0.2574 -0.3177  0.1791
12879SOL     OW50290   2.292   9.107   4.955  0.0885  0.2322  0.0277
12879SOL    HW150291   2.346   9.105   5.039 -0.9246  1.7035  0.7291
12879SOL    HW250292   2.197   9.132   4.977 -0.4615 -0.5263 -1.4157
12880SOL     OW50293   7.448   0.519   6.138 -0.3050 -0.1974 -0.2618
12880SOL    HW150294   7.351   0.535   6.159 -0.1562 -0.9065  1.0139
12880SOL    HW250295   7.482   0.593   6.081 -1.4158  0.4461 -0.1066
12881SOL     OW50296   4.207   2.661   4.227  0.2521  0.1448 -0.6701
12881SOL    HW150297   4.251   2.666   4.317 -0.9142 -0.3449 -0.0566
12881SOL    HW250298   4.148   2.580   4.224 -0.2221  0.5244 -1.6456
12882SOL     OW50299   6.827   8.818   1.695  0.1730  0.5238  0.5068
12882SOL    HW150300   6.879   8.904   1.689 -0.4578  0.8495 -0.3194
12882SOL    HW250301   6.732   8.835   1.666 -0.0365 -0.3860  0.6647
12883SOL     OW50302   7.248   5.186   1.189 -0.2977  0.0846 -0.1235
12883SOL    HW150303   7.295   5.221   1.108 -2.0868 -0.5702 -1.4718
12883SOL    HW250304   7.248   5.086   1.187 -0.6297  0.0689  0.5263
12884SOL     OW50305   9.564   5.695   6.818  0.0784  0.6726  0.1091
12884SOL    HW150306   9.599   5.773   6.765 -1.8582  0.4684 -1.5263
12884SOL    HW250307   9.479   5.662   6.776 -0.9218 -0.1981  2.7354
12885SOL     OW50308   7.927   1.543   3.633 -0.2234 -0.8355  0.0627
12885SOL    HW150309   7.832   1.560   3.607  0.0413  2.4764  0.9939
12885SOL    HW250310   7.930   1.470   3.701 -2.2199 -0.3207  0.7415
12886SOL     OW50311   7.663   2.950   0.901 -0.5585  0.0745 -0.0346
12886SOL    HW150312   7.696   2.974   0.810 -0.7367  1.1918  0.1894
12886SOL    HW250313   7.726   2.985   0.970 -0.6566 -0.3847  0.2948
12887SOL     OW50314   0.208   9.289   6.259 -0.3907 -0.1699 -0.1148
12887SOL    HW150315   0.187   9.382   6.289  0.8925  0.0691  0.0732
12887SOL    HW250316   0.307   9.274   6.263 -0.3909 -0.8546 -2.1726
12888SOL     OW50317   0.753   1.335   4.650 -0.4187  0.0589  0.1237
12888SOL    HW150318   0.662   1.368   4.626 -0.5864  0.4983  1.3533
12888SOL    HW250319   0.808   1.411   4.684 -0.2068 -0.5723  1.2144
12889SOL     OW50320   9.512   3.913   3.137  0.5863 -0.0099  0.4032
12889SOL    HW150321   9.578   3.926   3.211  0.4874  1.5385  0.2393
12889SOL    HW250322   9.508   3.996   3.081 -2.1339  0.2943  0.9521
12890SOL     OW50323   2.428   3.995   5.257 -0.2159  0.1682 -0.3725
12890SOL    HW150324   2.484   4.067   5.216  1.6873 -1.2178 -0.3009
12890SOL    HW250325   2.340   3.990   5.211  0.4566  1.1364 -1.7876
12891SOL     OW50326   0.141   3.992   2.152 -0.2066  0.0904 -0.2740
12891SOL    HW150327   0.051   3.952   2.138  0.2036 -0.7466 -0.5310
12891SOL    HW250328   0.163   4.051   2.075 -0.6339  0.4972 -0.0913
12892SOL     OW50329   9.473   4.146   2.045 -0.7120  0.1839  0.1286
12892SOL    HW150330   9.452   4.130   2.141 -0.8652 -0.8779 -0.0702
12892SOL    HW250331   9.569   4.124   2.028 -1.1015 -1.2874 -0.2934
12893SOL     OW50332   0.338   9.724   6.921  0.1972 -0.4476 -0.4879
12893SOL    HW150333   0.384   9.810   6.899 -1.0295  0.0952 -0.9575
12893SOL    HW250334   0.387   9.648   6.878  0.8504  0.0803 -0.6857
12894SOL     OW50335   4.459   0.710   3.947 -0.1232 -0.4475  0.5334
12894SOL    HW150336   4.482   0.711   4.045  0.9775 -2.4486  0.3015
12894SOL    HW250337   4.406   0.629   3.926  0.1047 -0.2952 -0.6513
12895SOL     OW50338   3.232   9.323   5.209 -0.7784 -0.3880 -0.7084
12895SOL    HW150339   3.272   9.291   5.123 -1.7670  0.8258 -1.6361
12895SOL    HW250340   3.297   9.384   5.256  0.3398 -2.1830  0.1363
12896SOL     OW50341   7.490   8.690   2.604 -0.4071  0.5225  0.5302
12896SOL    HW150342   7.517   8.771   2.551 -1.5873  0.9010  0.4823
12896SOL    HW250343   7.437   8.628   2.546 -1.0109  0.5536  1.0390
12897SOL     OW50344   7.177   8.415   7.585 -0.0192 -0.2577  0.2060
12897SOL    HW150345   7.276   8.427   7.578  0.6575 -4.6183  0.8231
12897SOL    HW250346   7.149   8.424   7.681  0.4157 -2.5563  0.5945
12898SOL     OW50347   2.544   4.549   2.556  0.3401  0.1566 -0.3496
12898SOL    HW150348   2.467   4.496   2.519  0.9727 -0.8529 -0.2309
12898SOL    HW250349   2.628   4.525   2.508  0.3338  2.4101 -1.5472
12899SOL     OW50350   0.716   6.009   1.077  0.1382 -0.1139  0.0344
12899SOL    HW150351   0.671   5.926   1.111  2.5969 -0.6015  2.2228
12899SOL    HW250352   0.705   6.082   1.143  0.7700  0.3588 -0.3786
12900SOL     OW50353   3.173   0.592   7.714 -0.0673 -0.1541  0.3190
12900SOL    HW150354   3.222   0.643   7.643 -1.1514 -0.2452 -0.5039
12900SOL    HW250355   3.173   0.645   7.799 -2.6257  2.0305 -0.9659
12901SOL     OW50356   7.679   1.607   2.722 -0.2947  0.2488 -0.0904
12901SOL    HW150357   7.753   1.551   2.685 -1.7499 -0.9872 -1.1999
12901SOL    HW250358   7.706   1.645   2.811  1.1536 -1.2515  0.1253
12902SOL     OW50359   7.278   0.264   2.591 -0.0394 -0.2765 -0.6547
12902SOL    HW150360   7.206   0.255   2.521 -1.2733 -0.3223  0.5994
12902SOL    HW250361   7.367   0.257   2.547 -0.7935 -2.2579 -1.9967
12903SOL     OW50362   1.237   8.349   1.352 -0.0269 -0.1583 -0.2183
12903SOL    HW150363   1.321   8.402   1.350  0.9955 -1.6633  1.0024
12903SOL    HW250364   1.234   8.287   1.273  0.0962 -0.2143 -0.1784
12904SOL     OW50365   3.756   0.145   2.431 -0.2498 -0.3627  0.1848
12904SOL    HW150366   3.665   0.109   2.414 -0.5859  0.5304  0.0496
12904SOL    HW250367   3.762   0.176   2.526 -0.6499  1.1806 -0.2842
12905SOL     OW50368   0.994   7.573   2.247 -0.3026  0.4769  0.2544
12905SOL    HW150369   0.961   7.667   2.235 -0.1735  0.4205 -0.5438
12905SOL    HW250370   0.918   7.509   2.232 -0.3147  0.4361  0.4818
12906SOL     OW50371   9.095   5.123   5.536  0.0262  0.6712  0.3717
12906SOL    HW150372   9.164   5.089   5.473 -1.5530  0.3620 -1.2199
12906SOL    HW250373   9.077   5.219   5.517  0.0212  0.7594  0.8056
12907SOL     OW50374   7.568   1.676   4.787  0.1770  0.0783 -0.1226
12907SOL    HW150375   7.496   1.692   4.855 -0.0470 -0.6015 -0.1991
12907SOL    HW250376   7.646   1.631   4.831 -0.7193 -2.0713 -0.7040
12908SOL     OW50377   2.110   7.492   6.442 -0.4946  0.1133  0.4219
12908SOL    HW150378   2.033   7.429   6.448 -0.3924  0.0086  0.6414
12908SOL    HW250379   2.194   7.442   6.421 -0.2584  0.0588  1.4435
12909SOL     OW50380   4.189   3.742   1.619 -0.1360 -0.5403 -0.4752
12909SOL    HW150381   4.151   3.795   1.544 -1.5166  0.0951  0.6398
12909SOL    HW250382   4.276   3.783   1.648  0.8115 -1.2629 -2.2226
12910SOL     OW50383   9.067   1.732   6.894  0.3933 -0.3304  0.2960
12910SOL    HW150384   9.166   1.723   6.906  0.3259  1.2752  2.3315
12910SOL    HW250385   9.020   1.692   6.973 -0.5899 -0.8285 -0.5284
12911SOL     OW50386   7.837   1.152   5.185 -0.2987  0.3858 -0.0343
12911SOL    HW150387   7.886   1.188   5.105 -0.1001 -1.2617 -0.6742
12911SOL    HW250388   7.883   1.183   5.269 -0.0467  1.4792 -0.5621
12912SOL     OW50389   4.914   6.168   3.505 -0.2271  0.3121 -0.2156
12912SOL    HW150390   4.936   6.093   3.443 -0.1166  0.0242  0.1740
12912SOL    HW250391   4.875   6.132   3.590 -2.1092  0.7948 -0.8305
12913SOL     OW50392   3.890   2.056   0.262 -0.3242 -0.3720 -0.0090
12913SOL    HW150393   3.982   2.029   0.235  0.0015 -2.1333  2.6525
12913SOL    HW250394   3.896   2.123   0.336 -1.1960  2.6427 -2.5796
12914SOL     OW50395   7.776   2.996   0.068 -0.1796  0.7000 -0.0228
12914SOL    HW150396   7.714   3.024   0.142 -0.6877  1.3878 -0.7041
12914SOL    HW250397   7.870   3.013   0.096 -0.1636 -1.6809  1.6049
12915SOL     OW50398   1.145   9.979   4.919 -0.1438 -0.3919 -0.0936
12915SOL    HW150399   1.211  10.054   4.915  0.2630 -0.7493 -0.1159
12915SOL    HW250400   1.066  10.007   4.973 -0.6967  0.6050 -1.3949
12916SOL     OW50401   8.356   5.625   6.697 -0.3150 -0.2937  0.2580
12916SOL    HW150402   8.361   5.526   6.705 -0.1185 -0.4661 -1.8125
12916SOL    HW250403   8.261   5.654   6.696 -0.3713 -0.4186  1.0607
12917SOL     OW50404   4.705   4.173   3.073 -0.2536 -0.3209  0.1242
12917SOL    HW150405   4.773   4.246   3.063 -1.3178  0.5056 -1.1548
12917SOL    HW250406   4.627   4.207   3.126 -1.9162  0.2953 -2.6542
12918SOL     OW50407   3.365   9.991   6.850 -0.2091 -0.1917  0.4851
12918SOL    HW150408   3.434   9.936   6.898  0.0202 -1.1513 -0.8935
12918SOL    HW250409   3.292  10.016   6.914  1.5005  1.0175  2.0155
12919SOL     OW50410   3.844   8.726   6.041 -0.5933 -0.3088  0.5954
12919SOL    HW150411   3.816   8.652   6.102 -1.0821  0.5232  1.3926
12919SOL    HW250412   3.764   8.768   6.000 -0.1920 -2.3422 -2.4529
12920SOL     OW50413   2.198   1.170   6.279 -0.5987  0.4137 -0.3942
12920SOL    HW150414   2.202   1.221   6.365  0.9269  3.4993 -2.2400
12920SOL    HW250415   2.275   1.107   6.274 -0.1203  0.9670  0.0210
12921SOL     OW50416   3.558   1.755   2.094 -0.1246 -0.0358  0.3067
12921SOL    HW150417   3.487   1.812   2.133  0.5377 -0.3984  2.1239
12921SOL    HW250418   3.517   1.682   2.039 -1.1427 -0.0597  1.0938
12922SOL     OW50419   6.363   0.466   4.373  0.1004 -0.0661  0.0944
12922SOL    HW150420   6.335   0.483   4.278 -0.9708 -1.6590  0.1067
12922SOL    HW250421   6.428   0.389   4.374  0.0979 -0.0595  0.6589
12923SOL     OW50422   1.799   0.602   3.766  0.6031 -0.2001  0.2481
12923SOL    HW150423   1.734   0.544   3.716  0.0165  0.3271  0.3938
12923SOL    HW250424   1.810   0.689   3.717  0.7104 -0.0385  0.5565
12924SOL     OW50425   8.288   1.408   2.475 -0.0060 -0.1580  0.1008
12924SOL    HW150426   8.295   1.331   2.410  2.5835 -0.7768  1.0382
12924SOL    HW250427   8.251   1.488   2.428 -1.3472 -1.5493 -1.2775
12925SOL     OW50428   2.168   4.453   0.279 -0.8721  1.0637 -0.3672
12925SOL    HW150429   2.157   4.362   0.240 -0.3628  0.3283  1.1727
12925SOL    HW250430   2.197   4.446   0.374  2.6075  2.8773 -1.2181
12926SOL     OW50431   5.606   0.312   4.012 -0.2850  0.1936  0.1592
12926SOL    HW150432   5.621   0.213   4.022  0.4773  0.4681  1.7905
12926SOL    HW250433   5.508   0.332   4.014 -0.4076 -0.4474  0.5557
12927SOL     OW50434   1.704   8.154   0.582  0.5471 -0.2241 -0.0533
12927SOL    HW150435   1.729   8.249   0.567  2.5211 -0.4577  1.4966
12927SOL    HW250436   1.722   8.129   0.678 -0.4342 -2.0006 -0.3018
12928SOL     OW50437   5.483   8.845   5.001 -0.5915 -0.2998  0.1848
12928SOL    HW150438   5.573   8.841   4.958 -0.1494  0.2766  1.0544
12928SOL    HW250439   5.460   8.756   5.040 -0.4880 -0.5027 -0.2179
12929SOL     OW50440   3.536   0.505   4.016  0.2895 -0.4806 -0.0263
12929SOL    HW150441   3.527   0.521   4.114  0.0074  0.0162 -0.1357
12929SOL    HW250442   3.623   0.459   3.998  1.0521  0.8217  0.2881
12930SOL     OW50443   2.334   8.075   4.383  0.2789 -0.6135 -0.0700
12930SOL    HW150444   2.244   8.037   4.361  1.3702 -2.0203 -2.2301
12930SOL    HW250445   2.335   8.172   4.358 -0.4829 -0.7026 -0.4692
12931SOL     OW50446   8.478   1.650   7.277  0.0158  0.8214  0.3203
12931SOL    HW150447   8.551   1.703   7.233  0.2859 -1.1345 -1.6482
12931SOL    HW250448   8.517   1.567   7.316 -0.9795  0.3616  0.3375
12932SOL     OW50449   0.732   6.242   1.717  0.4023 -0.1546 -0.3237
12932SOL    HW150450   0.825   6.248   1.755  0.6036  2.1112 -1.0721
12932SOL    HW250451   0.666   6.240   1.791  0.9612  0.5079  0.2005
12933SOL     OW50452   3.717   9.871   6.130 -0.1134  0.1980 -0.1721
12933SOL    HW150453   3.743   9.779   6.102 -0.7895 -0.5275  1.5138
12933SOL    HW250454   3.799   9.927   6.139  0.3686 -0.4547 -0.4269
12934SOL     OW50455   6.074   8.417   2.547 -0.8623 -0.5903  0.3291
12934SOL    HW150456   6.066   8.324   2.582 -0.8964 -1.3028 -1.5291
12934SOL    HW250457   6.169   8.435   2.523 -1.0736 -0.5607 -0.4708
12935SOL     OW50458   3.503   2.025   5.845 -0.0942 -0.4757 -0.4486
12935SOL    HW150459   3.545   2.109   5.811  1.8202 -1.2817 -0.1535
12935SOL    HW250460   3.490   1.961   5.769  1.2873 -1.0739 -0.1960
12936SOL     OW50461   7.725   7.978   1.163 -0.2835  0.5194  0.7170
12936SOL    HW150462   7.686   7.948   1.076 -2.4690  0.0515  1.8356
12936SOL    HW250463   7.752   8.074   1.156 -0.2251  0.4157 -0.5427
12937SOL     OW50464   0.617   1.307   6.514 -0.6030  1.0336 -0.0719
12937SOL    HW150465   0.584   1.284   6.423  0.6499  1.6370 -0.6985
12937SOL    HW250466   0.647   1.224   6.561 -1.2675  0.7189 -0.2033
12938SOL     OW50467   6.842   2.538   2.254  0.7723  0.0816 -0.3542
12938SOL    HW150468   6.791   2.532   2.339  0.1775  0.3385 -0.6842
12938SOL    HW250469   6.933   2.576   2.271  0.3212  0.9846  0.0259
12939SOL     OW50470   4.109   5.245   5.352  0.1097  0.1523 -0.4813
12939SOL    HW150471   4.033   5.204   5.403  0.4886  0.3723  0.2605
12939SOL    HW250472   4.111   5.207   5.259 -2.2267  1.7088 -1.2289
12940SOL     OW50473   7.435   7.839   7.639  0.6717 -0.2579 -0.3074
12940SOL    HW150474   7.434   7.878   7.730  2.7482  0.5981 -0.6207
12940SOL    HW250475   7.362   7.879   7.584  1.2869  1.4126  0.0884
12941SOL     OW50476   8.740   0.680   2.564  0.5995 -0.6098 -0.2622
12941SOL    HW150477   8.643   0.660   2.551  0.5807 -0.6512 -0.0582
12941SOL    HW250478   8.794   0.603   2.530  0.5344 -0.9482  0.3917
12942SOL     OW50479   3.746   1.544   0.034 -0.0030 -0.2096  0.0096
12942SOL    HW150480   3.835   1.503   0.012  0.5291 -0.0738  1.8710
12942SOL    HW250481   3.712   1.507   0.120 -0.5586  1.6061  0.5873
12943SOL     OW50482   6.751   9.099   8.113 -0.1369 -0.3710  0.4872
12943SOL    HW150483   6.824   9.163   8.138 -2.3649  1.9314  1.2935
12943SOL    HW250484   6.733   9.106   8.015 -0.0149 -0.1391  0.4804
12944SOL     OW50485   4.956   9.156   3.690  0.3038 -0.3922 -0.6096
12944SOL    HW150486   5.039   9.119   3.732  0.6606  0.2486 -0.7322
12944SOL    HW250487   4.902   9.082   3.651  0.5557 -0.8714 -0.0542
12945SOL     OW50488   9.978   3.349   1.835  0.3027 -0.2654  0.2465
12945SOL    HW150489   9.911   3.404   1.885  1.2895  1.7785 -0.6019
12945SOL    HW250490  10.070   3.368   1.869  0.8983  0.5066 -1.6934
12946SOL     OW50491   0.612   1.202   2.555  0.0072 -0.1482 -0.3564
12946SOL    HW150492   0.599   1.196   2.456  1.3526  1.9568 -0.6954
12946SOL    HW250493   0.675   1.130   2.584  0.8090  0.1436 -1.2985
12947SOL     OW50494   5.458   9.148   8.220  0.8392 -0.0591 -0.1807
12947SOL    HW150495   5.443   9.101   8.134  0.5238  0.2843 -0.3131
12947SOL    HW250496   5.497   9.084   8.287 -1.9717 -1.2077  0.4438
12948SOL     OW50497   5.880   9.168   2.272  0.1026 -0.1658  0.6765
12948SOL    HW150498   5.966   9.216   2.289  1.4680 -2.0090 -0.8650
12948SOL    HW250499   5.888   9.073   2.303 -1.7017 -0.1124  1.3586
12949SOL     OW50500   1.353   0.391   2.530  0.4199 -0.4564  0.0012
12949SOL    HW150501   1.359   0.291   2.519  0.4250 -0.3748 -0.7503
12949SOL    HW250502   1.290   0.428   2.463 -0.4523 -0.0719  1.0119
12950SOL     OW50503   4.501   6.919   3.957 -0.4592  0.0057  0.4575
12950SOL    HW150504   4.588   6.882   3.927 -1.0759 -1.0090 -0.1265
12950SOL    HW250505   4.512   6.965   4.045  0.7948  0.4888  0.0546
12951SOL     OW50506   2.571   2.887   1.155  0.3556  0.2766  0.4336
12951SOL    HW150507   2.668   2.875   1.175  0.2087  0.4017  1.2359
12951SOL    HW250508   2.549   2.984   1.148  0.6485  0.2136 -1.5853
12952SOL     OW50509   5.112   8.933   3.335  0.1254  0.1115 -0.3603
12952SOL    HW150510   5.198   8.982   3.350  0.1907 -0.1884  0.2628
12952SOL    HW250511   5.066   8.920   3.423 -0.9007  0.8919 -0.7733
12953SOL     OW50512   3.307   5.743   5.786 -0.1893 -0.3865 -0.3083
12953SOL    HW150513   3.406   5.754   5.791 -0.4105  0.8798  2.2115
12953SOL    HW250514   3.284   5.646   5.784  1.0827 -0.7035  0.1018
12954SOL     OW50515   4.770   3.866   0.385 -0.0352  0.5072  0.9506
12954SOL    HW150516   4.749   3.947   0.332 -1.0259 -0.4819 -0.1793
12954SOL    HW250517   4.814   3.798   0.327 -0.5588 -0.3472  1.5451
12955SOL     OW50518   8.403   4.598   6.402 -0.0731  0.3730  0.1229
12955SOL    HW150519   8.436   4.510   6.436  0.0359 -0.0869 -1.1489
12955SOL    HW250520   8.479   4.647   6.358  0.4230  2.0994  2.7738
12956SOL     OW50521   5.209   7.758   2.135  0.1105  0.3668 -0.2809
12956SOL    HW150522   5.134   7.790   2.193  0.3363  0.9446 -0.3070
12956SOL    HW250523   5.180   7.760   2.039  0.2041  0.7222 -0.3027
12957SOL     OW50524   8.792   2.125   7.133  0.3950 -0.1054  0.4398
12957SOL    HW150525   8.818   2.158   7.042  1.9965  0.4664  1.0868
12957SOL    HW250526   8.698   2.153   7.152  0.2119  0.2023 -0.8346
12958SOL     OW50527   6.120   8.629   6.517 -0.1378  1.2731 -0.4899
12958SOL    HW150528   6.065   8.642   6.434 -0.5804  0.5911 -0.3071
12958SOL    HW250529   6.070   8.571   6.581  1.4123 -0.5758 -0.9277
12959SOL     OW50530   9.402   1.320   6.722 -0.1490 -0.4181 -0.6438
12959SOL    HW150531   9.423   1.223   6.710  0.0104 -0.4462 -0.1581
12959SOL    HW250532   9.451   1.374   6.653  0.6496 -0.5847 -0.2063
12960SOL     OW50533   0.160   9.648   5.970  0.3805  0.4009 -0.5505
12960SOL    HW150534   0.096   9.726   5.971 -1.3645 -0.9911 -0.7581
12960SOL    HW250535   0.108   9.563   5.974  2.2272 -0.7877 -1.3442
12961SOL     OW50536   2.079   9.917   4.528 -0.1702  0.0559  0.4969
12961SOL    HW150537   2.119   9.826   4.522  3.5015  1.6222  0.0355
12961SOL    HW250538   2.005   9.917   4.595 -0.9823 -3.4814 -0.3175
12962SOL     OW50539   7.890   7.812   7.058 -0.1946  0.4104 -0.0029
12962SOL    HW150540   7.844   7.896   7.032 -1.1698  0.0103  0.3826
12962SOL    HW250541   7.941   7.827   7.143  0.1624  0.7750 -0.2763
12963SOL     OW50542   2.957   6.141   3.024 -0.7542 -0.6142 -0.2418
12963SOL    HW150543   2.924   6.191   2.944  1.2652 -0.1663 -0.8234
12963SOL    HW250544   2.901   6.059   3.038 -1.1534 -0.6673 -2.0962
12964SOL     OW50545   8.842   6.886   6.128  0.1441 -0.1547  0.3566
12964SOL    HW150546   8.776   6.922   6.061 -0.2448  0.1917  0.9169
12964SOL    HW250547   8.849   6.787   6.119 -1.2295 -0.3203  0.9732
12965SOL     OW50548   9.526   2.279   6.928 -0.6265  0.2815  0.1020
12965SOL    HW150549   9.483   2.195   6.959 -0.2604 -0.3266 -0.9994
12965SOL    HW250550   9.561   2.331   7.007 -0.5335 -0.7727  0.7567
12966SOL     OW50551   6.422   0.635   7.452  0.3098  0.0688 -0.1149
12966SOL    HW150552   6.508   0.658   7.407  0.3326 -0.9589 -0.6235
12966SOL    HW250553   6.433   0.550   7.504 -0.4012 -0.0908 -0.2141
12967SOL     OW50554   4.622   0.315   7.900 -0.5769  0.5567  0.0980
12967SOL    HW150555   4.542   0.307   7.960 -1.7246 -1.5429 -1.6344
12967SOL    HW250556   4.614   0.248   7.826  1.5506  2.0817 -1.5506
12968SOL     OW50557   4.119   2.720   6.779  0.0565  0.3582  0.6479
12968SOL    HW150558   4.146   2.796   6.720  1.4042 -1.1923 -0.7805
12968SOL    HW250559   4.170   2.638   6.753 -1.5724 -1.1085  1.9879
12969SOL     OW50560   2.039   5.998   6.968 -0.1028 -0.4812 -0.2764
12969SOL    HW150561   2.019   6.096   6.964 -0.8229 -0.6600 -1.0490
12969SOL    HW250562   2.118   5.983   7.028  0.0689  0.5778 -0.2262
12970SOL     OW50563   8.515   7.658   6.114 -0.2346  0.2208 -0.0147
12970SOL    HW150564   8.571   7.576   6.124 -0.0612  0.0350 -2.2483
12970SOL    HW250565   8.554   7.717   6.044 -1.4668  1.2493  0.1415
12971SOL     OW50566   5.613   1.224   1.980 -0.0309 -0.3157  0.0721
12971SOL    HW150567   5.602   1.153   2.049  0.9180 -1.1728 -0.6360
12971SOL    HW250568   5.619   1.182   1.889  0.7125  0.6525 -0.3372
12972SOL     OW50569   6.529   8.688   5.777 -0.3391  0.0772  0.2377
12972SOL    HW150570   6.429   8.688   5.768 -0.1674 -0.1502 -1.9663
12972SOL    HW250571   6.565   8.772   5.737  0.4459 -0.4161 -0.0790
12973SOL     OW50572   0.095   9.839   7.879  0.1382  0.4510 -0.2521
12973SOL    HW150573   0.089   9.788   7.793 -0.9671  0.3999 -0.1550
12973SOL    HW250574   0.003   9.865   7.909  0.4846  0.1417  1.1131
12974SOL     OW50575   4.261   9.511   4.784  0.0919 -0.4029  0.0821
12974SOL    HW150576   4.311   9.481   4.703  1.9452 -0.5033  1.2559
12974SOL    HW250577   4.305   9.590   4.824 -1.2233  0.0845  0.6105
12975SOL     OW50578   1.341   8.152   1.832  0.0183  0.3520  0.2013
12975SOL    HW150579   1.287   8.216   1.887 -1.2532 -1.4759  1.1152
12975SOL    HW250580   1.330   8.174   1.735 -1.1024  0.9982  0.4623
12976SOL     OW50581   8.966   2.789   3.722 -0.6142  0.1434 -0.5688
12976SOL    HW150582   8.933   2.707   3.676  0.6413 -0.4321 -0.4523
12976SOL    HW250583   8.948   2.869   3.664  0.3760 -0.4985 -1.7929
12977SOL     OW50584   4.336   8.404   5.133  0.0919  0.1345 -0.1430
12977SOL    HW150585   4.369   8.486   5.181  0.6160 -0.6579  0.8681
12977SOL    HW250586   4.397   8.383   5.057  0.2592  0.3694 -0.0751
12978SOL     OW50587   7.526   1.810   5.474  0.1628 -0.3974 -0.1608
12978SOL    HW150588   7.578   1.739   5.521 -0.9006 -1.7926 -1.0399
12978SOL    HW250589   7.557   1.819   5.380 -1.0966 -1.1713 -0.6630
12979SOL     OW50590   5.647   5.179   0.299 -0.0210 -0.1267  0.4305
12979SOL    HW150591   5.675   5.184   0.203  1.2530 -0.7490  0.7637
12979SOL    HW250592   5.705   5.239   0.354  0.2718 -0.9851  1.0501
12980SOL     OW50593   0.399   5.203   1.274  0.0835  0.3382  0.3811
12980SOL    HW150594   0.481   5.151   1.298 -0.2547 -0.0519  0.6941
12980SOL    HW250595   0.320   5.163   1.319 -0.5462 -0.3324 -1.3004
12981SOL     OW50596   9.010   6.686   2.472  0.1192  0.2132 -0.2895
12981SOL    HW150597   8.995   6.589   2.489 -1.8211  0.4150 -0.7529
12981SOL    HW250598   9.069   6.697   2.391  1.7813 -0.5745  0.7811
12982SOL     OW50599   2.422   4.051   6.605 -0.0359 -0.0039 -0.3018
12982SOL    HW150600   2.449   3.990   6.531 -3.0491 -2.1817  0.3136
12982SOL    HW250601   2.494   4.119   6.620  3.2458 -3.1230 -1.2682
12983SOL     OW50602   3.047   2.869   2.413  0.1615 -0.4954 -0.2396
12983SOL    HW150603   3.010   2.780   2.388 -0.2793 -0.6433  0.9021
12983SOL    HW250604   3.128   2.888   2.359 -0.1487 -1.2764 -0.9928
12984SOL     OW50605   4.629   5.849   3.128 -0.0169 -0.3029  0.0021
12984SOL    HW150606   4.692   5.920   3.097 -0.2666  0.3716  1.0212
12984SOL    HW250607   4.535   5.882   3.118 -0.1731 -0.8825 -0.4647
12985SOL     OW50608   9.653   3.279   5.851 -0.4829 -0.4842 -0.0167
12985SOL    HW150609   9.656   3.335   5.934 -2.1349  0.6220 -0.6744
12985SOL    HW250610   9.629   3.185   5.875 -1.7563  0.0073  0.6973
12986SOL     OW50611   6.310   9.146   6.070 -0.2667  0.5304 -0.2800
12986SOL    HW150612   6.277   9.219   6.131 -0.8785  1.3096 -1.5170
12986SOL    HW250613   6.234   9.115   6.012 -0.1105 -1.3765  0.4967
12987SOL     OW50614   4.883   7.170   4.367  0.6377  0.4998 -0.1218
12987SOL    HW150615   4.907   7.098   4.301  1.4939 -0.1622  0.9073
12987SOL    HW250616   4.796   7.211   4.340  1.1614  0.5083 -1.8992
12988SOL     OW50617   0.379   6.305   0.343 -0.0622  0.4910 -0.0798
12988SOL    HW150618   0.431   6.381   0.380 -0.6662 -0.1323  2.1345
12988SOL    HW250619   0.439   6.226   0.330  0.3264  0.9723 -1.2872
12989SOL     OW50620   4.792   9.853   3.308 -0.5975 -0.5505  0.1588
12989SOL    HW150621   4.884   9.855   3.270 -0.9616 -2.6072 -0.8982
12989SOL    HW250622   4.795   9.878   3.405  1.0110 -0.2204  0.0237
12990SOL     OW50623   4.334   2.151   5.497 -0.3064  0.4606 -0.3367
12990SOL    HW150624   4.262   2.104   5.547 -0.4003 -1.0367 -1.8564
12990SOL    HW250625   4.422   2.136   5.542 -0.5515  0.0650  0.0095
12991SOL     OW50626   2.460   4.816   6.876 -0.1228  0.0862 -0.6137
12991SOL    HW150627   2.419   4.733   6.837  1.2679 -0.0947 -1.7029
12991SOL    HW250628   2.552   4.795   6.910  0.6641  1.4130 -1.8581
12992SOL     OW50629   0.693   6.728   3.949 -0.7195 -0.1801  0.3063
12992SOL    HW150630   0.736   6.817   3.963  0.1373 -0.5848  0.2872
12992SOL    HW250631   0.631   6.709   4.025 -0.1784  0.0118  0.8017
12993SOL     OW50632   7.665   5.491   2.783  0.4689  0.1731  0.0405
12993SOL    HW150633   7.646   5.487   2.881 -1.0881 -0.9013 -0.3012
12993SOL    HW250634   7.759   5.524   2.769  0.4500  1.0524  1.8572
12994SOL     OW50635   7.176   8.257   5.528  0.6712 -0.5486 -1.0140
12994SOL    HW150636   7.117   8.188   5.488  0.3970 -3.0224  3.3809
12994SOL    HW250637   7.271   8.225   5.528  0.7890 -0.2201 -0.4743
12995SOL     OW50638   3.926   5.840   5.284  0.3118  0.5621  0.1329
12995SOL    HW150639   3.941   5.770   5.354 -0.7348  0.1790 -0.0157
12995SOL    HW250640   3.904   5.927   5.328  0.9342  0.6306  0.3059
12996SOL     OW50641   9.568   4.966   5.288 -0.1691 -0.2708  0.1702
12996SOL    HW150642   9.633   4.897   5.320  0.4545 -0.0063 -0.5216
12996SOL    HW250643   9.533   4.940   5.198 -0.1692  0.1627  0.0448
12997SOL     OW50644   7.493   8.969   2.038 -0.1102 -0.0035 -0.4065
12997SOL    HW150645   7.502   8.884   2.091 -0.7990 -0.6919 -1.3748
12997SOL    HW250646   7.431   9.031   2.085 -2.0446 -1.2902 -1.2339
12998SOL     OW50647   1.290   1.545   3.563 -0.2041 -0.6269  0.0415
12998SOL    HW150648   1.222   1.479   3.532  0.0059 -1.1408  0.6481
12998SOL    HW250649   1.362   1.554   3.494 -0.7673 -0.2444 -0.5046
12999SOL     OW50650   9.313   4.964   4.736 -0.6468 -0.0244 -0.0873
12999SOL    HW150651   9.330   4.954   4.834 -2.6962  0.3245  0.3218
12999SOL    HW250652   9.279   5.056   4.717  0.9033  0.3148 -1.3075
13000SOL     OW50653   2.123   1.249   7.698  0.1856 -0.1326  0.0979
13000SOL    HW150654   2.126   1.298   7.785 -2.6261 -0.2938  0.3113
13000SOL    HW250655   2.082   1.159   7.711  0.3388 -0.4150 -1.2820
13001SOL     OW50656   0.805   3.327   4.520 -0.1604  0.1938  0.7380
13001SOL    HW150657   0.738   3.253   4.530  0.8531 -0.9120 -0.5281
13001SOL    HW250658   0.896   3.290   4.536  0.4246  0.9947 -0.7519
13002SOL     OW50659   9.651   8.412   7.309 -0.9005 -0.7267 -0.2242
13002SOL    HW150660   9.607   8.358   7.237 -0.8172 -1.0491 -0.0335
13002SOL    HW250661   9.592   8.490   7.333 -0.5134 -0.0942 -1.2822
13003SOL     OW50662   0.988   5.477   5.698 -0.2331 -0.0437 -0.7067
13003SOL    HW150663   0.938   5.526   5.627 -0.6300  1.2107  0.4349
13003SOL    HW250664   1.059   5.421   5.656 -2.3688 -1.6388 -2.3452
13004SOL     OW50665   7.126   6.328   5.498 -0.2964  0.1939 -0.0050
13004SOL    HW150666   7.066   6.329   5.418  0.4573 -1.2873 -0.6057
13004SOL    HW250667   7.164   6.419   5.512  1.1734  0.0504 -2.5975
13005SOL     OW50668   2.053   4.481   5.872  0.0727 -0.1059 -0.0999
13005SOL    HW150669   2.134   4.435   5.910 -1.4455 -2.8583 -0.0536
13005SOL    HW250670   2.026   4.436   5.787 -1.0087  1.2408 -0.4831
13006SOL     OW50671   3.101   0.792   0.053  1.1880  0.4716 -0.7962
13006SOL    HW150672   3.053   0.877   0.075  1.9191  0.1354  2.4092
13006SOL    HW250673   3.037   0.727   0.013 -0.3797  1.0123  0.7561
13007SOL     OW50674   3.869   8.995   9.962 -0.0055  0.6107  0.1768
13007SOL    HW150675   3.808   8.944  10.023 -2.2944  0.0757 -2.4565
13007SOL    HW250676   3.963   8.964   9.977 -0.8977 -1.7675  1.2286
13008SOL     OW50677   7.491   9.518   2.738  0.0865  0.3277  0.3167
13008SOL    HW150678   7.501   9.448   2.809 -0.7072 -0.1236 -0.0090
13008SOL    HW250679   7.570   9.580   2.740  0.4320 -0.1363  1.0912
13009SOL     OW50680   4.844   9.657   2.066 -0.1066 -0.2143  0.3875
13009SOL    HW150681   4.874   9.683   1.975 -1.2926  0.6813  0.2304
13009SOL    HW250682   4.859   9.734   2.129 -0.2372 -0.4618  0.7234
13010SOL     OW50683   0.639   7.725   5.890  0.4264 -0.5155  0.8125
13010SOL    HW150684   0.539   7.720   5.900  0.5775 -0.2676  2.5402
13010SOL    HW250685   0.681   7.740   5.979  1.9692  0.2626 -0.0283
13011SOL     OW50686   1.499   3.867   1.149  0.0442  0.3692 -0.5961
13011SOL    HW150687   1.454   3.813   1.220  0.9472 -0.4256 -0.6242
13011SOL    HW250688   1.470   3.833   1.059  0.2976  0.1931 -0.6117
13012SOL     OW50689   2.405   2.218   7.763 -0.7383  0.6160  0.1964
13012SOL    HW150690   2.361   2.142   7.715 -1.0862  0.4237  0.8173
13012SOL    HW250691   2.504   2.214   7.746 -0.8228  0.3723 -0.2528
13013SOL     OW50692   4.872   2.865   7.392  0.5546 -0.0584 -0.5892
13013SOL    HW150693   4.818   2.893   7.471 -1.4760 -0.4756 -1.7828
13013SOL    HW250694   4.944   2.932   7.375 -0.3373  1.1454  0.3390
13014SOL     OW50695   4.182   9.175   4.823  0.2284  0.4069 -0.2727
13014SOL    HW150696   4.216   9.082   4.834  0.7124  0.9352  3.1079
13014SOL    HW250697   4.259   9.237   4.806  0.1686  0.5261 -0.1129
13015SOL     OW50698   1.347   8.810   6.795 -0.2613  0.4635 -0.1982
13015SOL    HW150699   1.396   8.814   6.708 -0.2855  0.0615 -0.2326
13015SOL    HW250700   1.337   8.902   6.832  0.3830  0.5604 -0.2627
13016SOL     OW50701   0.354   5.225   2.641  0.0708 -0.2119 -0.8976
13016SOL    HW150702   0.352   5.125   2.631 -0.9460 -0.6249  2.5291
13016SOL    HW250703   0.438   5.261   2.600  2.5723 -3.0014  1.5056
13017SOL     OW50704   9.927   8.413   3.482 -0.4204 -0.0024  0.2196
13017SOL    HW150705   9.879   8.501   3.481 -0.6509 -0.1382 -0.7745
13017SOL    HW250706   9.895   8.356   3.407  0.5865 -0.4851  0.1474
13018SOL     OW50707   2.726   8.365   3.120 -0.1217  0.3457 -0.1418
13018SOL    HW150708   2.751   8.287   3.061 -0.8467 -1.2498  1.6101
13018SOL    HW250709   2.692   8.440   3.063  1.3239 -0.3066 -1.9343
13019SOL     OW50710   9.382   0.393   6.046  0.4940  0.0776 -0.2334
13019SOL    HW150711   9.413   0.356   6.133 -0.2672  0.1919  0.0954
13019SOL    HW250712   9.363   0.491   6.057 -1.7628 -0.3616  0.0838
13020SOL     OW50713   8.442   7.156   7.867  0.0815  0.3046  0.7378
13020SOL    HW150714   8.393   7.082   7.821 -0.9521  1.6398 -0.3483
13020SOL    HW250715   8.444   7.139   7.966 -2.1088 -0.0397  0.7298
13021SOL     OW50716   6.151   3.425   2.217  0.2678  0.0266  0.1250
13021SOL    HW150717   6.117   3.374   2.296  1.1335  0.3952  0.7477
13021SOL    HW250718   6.085   3.418   2.142  0.5148 -2.2301  0.0963
13022SOL     OW50719   2.312   2.818   1.651 -0.5398  0.0382 -0.3287
13022SOL    HW150720   2.252   2.755   1.702  1.1890 -1.2309  0.1732
13022SOL    HW250721   2.329   2.781   1.560 -0.1176  0.1661 -0.2986
13023SOL     OW50722   9.378   5.626   6.628 -0.0653 -0.1573 -0.2398
13023SOL    HW150723   9.319   5.548   6.649 -2.8453  1.5009 -1.4820
13023SOL    HW250724   9.422   5.611   6.539  0.7015 -1.0278  0.2846
13024SOL     OW50725   6.702   0.081   7.454  0.0948  0.4999 -0.2067
13024SOL    HW150726   6.647   0.145   7.400  0.7950 -0.3334 -1.9521
13024SOL    HW250727   6.678  -0.012   7.428  1.3533  0.1159  0.0125
13025SOL     OW50728   2.633   6.241   3.939  0.2365 -0.0370  0.0372
13025SOL    HW150729   2.676   6.312   3.995  1.6899 -0.9033  0.0595
13025SOL    HW250730   2.574   6.283   3.871  1.8782  1.2716 -0.6294
13026SOL     OW50731   0.994   0.501   4.925  0.2445 -0.0858 -0.1534
13026SOL    HW150732   0.989   0.454   4.837  0.0357 -0.5427  0.1019
13026SOL    HW250733   1.044   0.587   4.914 -1.9134  1.0679 -1.2267
13027SOL     OW50734   9.020   7.478   3.762  0.2275 -0.1094 -0.0756
13027SOL    HW150735   9.098   7.513   3.814  0.7178 -0.5464 -0.5018
13027SOL    HW250736   8.979   7.552   3.709  1.4300 -0.2250 -1.1917
13028SOL     OW50737   2.970   4.945   4.790  0.0706 -0.4544  0.4426
13028SOL    HW150738   2.988   4.975   4.696  1.2221 -0.1108  0.7576
13028SOL    HW250739   3.052   4.960   4.846 -0.2543 -1.6093  1.2629
13029SOL     OW50740   9.265   3.880   6.688  0.3550 -0.3362 -0.4768
13029SOL    HW150741   9.275   3.828   6.773 -1.0998 -1.2391 -0.8169
13029SOL    HW250742   9.291   3.975   6.703  1.6654 -0.8372  0.5480
13030SOL     OW50743   3.059   0.159   5.749 -0.7255 -0.3279 -0.1869
13030SOL    HW150744   3.031   0.167   5.654 -0.5810 -2.9886 -0.4753
13030SOL    HW250745   3.155   0.189   5.758 -1.2822  1.6322 -0.5199
13031SOL     OW50746   1.658   5.699   6.948 -0.3826  0.2287  0.6951
13031SOL    HW150747   1.709   5.624   6.905 -0.7223  1.0316 -1.1774
13031SOL    HW250748   1.722   5.764   6.988  0.0492  0.5110 -0.4155
13032SOL     OW50749   2.786   3.042   9.831 -0.4585 -0.6053  0.5828
13032SOL    HW150750   2.785   3.027   9.930  0.1494  1.8207  1.0036
13032SOL    HW250751   2.729   3.121   9.809 -0.1566 -0.7973 -0.9285
13033SOL     OW50752   3.065   9.576   3.866  0.5791  1.0270 -0.6538
13033SOL    HW150753   3.039   9.543   3.775 -0.7434 -0.9004  0.3784
13033SOL    HW250754   3.154   9.539   3.890  0.2928  0.3546 -0.6014
13034SOL     OW50755   4.439   3.228   4.797  0.6806  0.1751 -0.0660
13034SOL    HW150756   4.399   3.279   4.720  1.4488 -1.3395 -1.5018
13034SOL    HW250757   4.463   3.291   4.870  1.8361  1.9294 -1.9093
13035SOL     OW50758   1.500   5.624   5.889  0.0014  0.7692  0.4959
13035SOL    HW150759   1.447   5.650   5.809 -0.9620 -0.4706  0.7202
13035SOL    HW250760   1.477   5.684   5.965 -0.3224  0.8806  0.3102
13036SOL     OW50761   9.978   9.408   5.208 -0.3086  1.0176  0.0277
13036SOL    HW150762   9.913   9.345   5.167 -1.6227  1.5908  1.1965
13036SOL    HW250763  10.064   9.359   5.228 -0.4558  0.2085 -1.2979
13037SOL     OW50764   7.482   9.800   4.661 -0.1770  0.4521  0.2509
13037SOL    HW150765   7.534   9.881   4.636  0.6871 -0.3653 -0.6510
13037SOL    HW250766   7.535   9.746   4.727 -0.1882 -0.0156 -0.1183
13038SOL     OW50767   2.326   9.041   0.516 -0.5274  0.3156 -0.1526
13038SOL    HW150768   2.338   9.112   0.585  0.4969  0.7080 -0.7162
13038SOL    HW250769   2.229   9.032   0.494 -0.7167  1.1930  0.2916
13039SOL     OW50770   0.444   9.861   3.223  0.3558  0.1356  0.8045
13039SOL    HW150771   0.392   9.908   3.152  1.8384  2.9489  1.5197
13039SOL    HW250772   0.490   9.781   3.184 -0.6911  0.3298 -0.8616
13040SOL     OW50773   8.819   6.624   5.874  0.0001 -0.2060 -0.1313
13040SOL    HW150774   8.907   6.668   5.860 -0.2157  0.9047  1.8014
13040SOL    HW250775   8.833   6.529   5.902  0.6213  0.2113  1.0047
13041SOL     OW50776   4.539   8.153   4.366  0.3251  0.6825 -0.5875
13041SOL    HW150777   4.533   8.133   4.268  3.0276  1.0677 -0.8791
13041SOL    HW250778   4.556   8.250   4.379 -1.5149  0.8963  0.3527
13042SOL     OW50779   2.658   4.029   1.775 -0.7386 -0.0732  0.0603
13042SOL    HW150780   2.686   4.082   1.695  0.6085 -0.3824  0.3157
13042SOL    HW250781   2.667   4.085   1.857 -2.0076  0.2060  0.0226
13043SOL     OW50782   2.896   0.648   0.501 -0.8943  0.3453 -0.0570
13043SOL    HW150783   2.943   0.584   0.440  0.9984  1.6695 -0.0129
13043SOL    HW250784   2.883   0.606   0.591  0.4743  0.0899  0.0179
13044SOL     OW50785   9.201   6.357   0.531 -0.4686 -0.7248  0.1196
13044SOL    HW150786   9.116   6.410   0.529 -0.8786 -1.1859  3.0965
13044SOL    HW250787   9.265   6.398   0.595  0.3588 -2.1365  0.2262
13045SOL     OW50788   3.088   6.444  10.067  0.6412  0.3084  0.3653
13045SOL    HW150789   3.111   6.347  10.052 -0.6744 -0.2474  1.8619
13045SOL    HW250790   3.167   6.501  10.042  1.2614 -1.1099 -0.9890
13046SOL     OW50791   0.566   9.632   3.160 -0.4356 -0.3483 -1.0417
13046SOL    HW150792   0.581   9.596   3.068 -0.4080  0.3300 -1.3059
13046SOL    HW250793   0.560   9.556   3.225 -0.1601 -0.8166 -1.5576
13047SOL     OW50794   0.467   4.685   2.984  0.3136  0.1656  0.5447
13047SOL    HW150795   0.438   4.708   2.891 -1.5192 -1.4468  0.6856
13047SOL    HW250796   0.534   4.611   2.981 -0.0683 -0.1792  0.5318
13048SOL     OW50797   1.186   5.932   2.403  0.0632  0.1210  0.1079
13048SOL    HW150798   1.270   5.940   2.349  0.8101 -1.5695  0.9634
13048SOL    HW250799   1.135   5.852   2.371 -1.0981  0.9887 -0.2230
13049SOL     OW50800   3.919   8.893   6.627  0.4952  0.8598 -0.0173
13049SOL    HW150801   3.887   8.853   6.713 -1.1926  1.6225 -0.2739
13049SOL    HW250802   3.842   8.907   6.566  1.5567  1.2036 -1.3120
13050SOL     OW50803   3.269   4.179   7.300  0.3461  0.2150  0.2841
13050SOL    HW150804   3.297   4.084   7.285  0.3836  0.3445 -0.5159
13050SOL    HW250805   3.262   4.197   7.398 -0.9955 -0.9954  0.4264
13051SOL     OW50806   9.339   6.694   0.531 -0.2288 -0.4424  0.5909
13051SOL    HW150807   9.258   6.742   0.564 -0.6627 -0.7304 -0.0583
13051SOL    HW250808   9.322   6.659   0.439  0.7352 -0.2467  0.3345
13052SOL     OW50809   8.464   3.719   6.865  0.0919  0.1215 -0.2994
13052SOL    HW150810   8.558   3.752   6.861 -0.1627  0.7966 -0.7862
13052SOL    HW250811   8.405   3.778   6.811 -0.6735 -0.1012  0.2720
13053SOL     OW50812   1.340   5.587   4.047 -0.1660 -0.2580  0.0345
13053SOL    HW150813   1.384   5.537   4.121 -0.5075  0.4535  0.7262
13053SOL    HW250814   1.247   5.551   4.033 -0.0262 -0.5329 -0.1915
13054SOL     OW50815   2.021   5.596   4.088  0.3110 -0.4742  0.3015
13054SOL    HW150816   2.077   5.678   4.075 -2.1516  1.2502  0.1266
13054SOL    HW250817   2.032   5.562   4.181  3.9398 -2.0202 -0.5745
13055SOL     OW50818   9.659   2.173   5.731 -0.2846  0.3039  0.1143
13055SOL    HW150819   9.652   2.219   5.820  1.2931 -0.3622  0.6039
13055SOL    HW250820   9.719   2.226   5.671  0.9689 -0.7142  0.4419
13056SOL     OW50821   1.969   6.729   6.244 -0.8045 -0.2985  0.0651
13056SOL    HW150822   1.880   6.687   6.265 -0.3848 -0.9514  0.5586
13056SOL    HW250823   1.994   6.791   6.318  0.3517 -2.0724  1.1819
13057SOL     OW50824   0.225   9.786   5.012 -0.3132  0.5514 -0.2667
13057SOL    HW150825   0.150   9.811   5.073  0.7360 -0.1031  1.3372
13057SOL    HW250826   0.213   9.691   4.982  1.2148 -0.4392  2.1096
13058SOL     OW50827   1.640   7.968   4.014 -0.1851  0.8533 -0.2576
13058SOL    HW150828   1.595   8.048   4.055 -1.2386  0.0275  0.2230
13058SOL    HW250829   1.661   7.902   4.085  2.1581  1.3787 -0.4314
13059SOL     OW50830   3.497   7.020   4.538 -0.0209 -0.1181  0.1144
13059SOL    HW150831   3.463   7.112   4.516  0.5157 -0.0596 -0.4588
13059SOL    HW250832   3.558   6.989   4.466  0.7326 -0.4490  0.8872
13060SOL     OW50833   4.690   8.902   4.626  0.1461 -0.2898 -0.0894
13060SOL    HW150834   4.661   8.984   4.576  0.2950 -1.0598 -1.4633
13060SOL    HW250835   4.774   8.921   4.675  0.8196  0.0531 -1.3494
13061SOL     OW50836   7.611   0.676   2.377  0.0224  0.3309 -0.0659
13061SOL    HW150837   7.517   0.643   2.384  0.1100  0.3794  1.5247
13061SOL    HW250838   7.623   0.757   2.434  1.9228 -1.7898  2.7320
13062SOL     OW50839   9.504   7.059   5.826  0.3181  0.5080  0.1263
13062SOL    HW150840   9.447   7.088   5.749  0.1797 -1.1783 -0.4210
13062SOL    HW250841   9.476   7.107   5.909 -1.1334  0.5362 -0.3817
13063SOL     OW50842   1.816   1.513   4.738  0.2179 -0.8664  0.5642
13063SOL    HW150843   1.721   1.542   4.727  0.1984 -1.2243 -0.2014
13063SOL    HW250844   1.857   1.496   4.649  1.3026  0.2232  0.8382
13064SOL     OW50845   7.838   8.688   2.928 -0.5341 -0.1945  0.2958
13064SOL    HW150846   7.742   8.674   2.904 -0.1494 -0.1337 -1.4117
13064SOL    HW250847   7.857   8.646   3.016 -1.8260 -1.3702  0.0405
13065SOL     OW50848   7.770   3.110   1.562  0.2474 -0.4369 -0.5435
13065SOL    HW150849   7.739   3.040   1.498  0.8981 -0.1511 -1.1826
13065SOL    HW250850   7.776   3.198   1.514 -2.0742  0.4028  0.6246
13066SOL     OW50851   7.939   0.685   3.811 -0.4936  0.3632 -0.2757
13066SOL    HW150852   7.975   0.758   3.753 -0.0759  2.3570  2.4122
13066SOL    HW250853   8.009   0.616   3.825 -0.5069  0.0032 -1.8844
13067SOL     OW50854   8.842   6.330   7.686 -0.0375  0.4522  0.2261
13067SOL    HW150855   8.756   6.372   7.658  0.5279  1.4502 -0.0055
13067SOL    HW250856   8.825   6.235   7.714 -0.9618  0.1392 -1.3499
13068SOL     OW50857   8.764   8.946   5.342  0.1976  0.0717  0.1295
13068SOL    HW150858   8.673   8.953   5.382 -0.6526 -2.5638 -1.2595
13068SOL    HW250859   8.788   9.033   5.298 -1.7383  0.7121  0.2867
13069SOL     OW50860   9.213   9.581   6.974  0.7608 -0.2395 -0.2223
13069SOL    HW150861   9.157   9.509   6.934 -0.3151  0.1074  0.6445
13069SOL    HW250862   9.287   9.605   6.910 -0.9212  0.3122 -2.0094
13070SOL     OW50863   4.049   1.651   0.518 -0.4912 -0.1753 -0.3674
13070SOL    HW150864   4.008   1.594   0.447  0.5985  0.5570 -1.6022
13070SOL    HW250865   3.985   1.723   0.544 -0.1746  0.7055 -1.9842
13071SOL     OW50866   0.417   1.263   6.025  0.5040 -0.0165 -0.0470
13071SOL    HW150867   0.459   1.263   6.116 -0.9837 -0.0691  0.6621
13071SOL    HW250868   0.319   1.245   6.034  0.3344  0.0191 -1.6676
13072SOL     OW50869   7.232   1.761   1.849 -0.1251 -0.3658 -0.3013
13072SOL    HW150870   7.154   1.822   1.856 -0.8826 -1.3259 -0.3258
13072SOL    HW250871   7.216   1.693   1.777 -0.4434 -2.2382  1.4766
13073SOL     OW50872   5.625   7.713   5.623 -0.7619 -0.1111 -0.4042
13073SOL    HW150873   5.611   7.614   5.614 -0.9548  0.0799 -2.4454
13073SOL    HW250874   5.717   7.737   5.593 -0.8399  0.3789 -0.2529
13074SOL     OW50875   5.564   9.731   3.244  0.2083 -0.0418  0.1479
13074SOL    HW150876   5.501   9.677   3.300  0.7608  0.0926  0.9151
13074SOL    HW250877   5.607   9.673   3.176 -1.4356  0.0477 -1.0001
13075SOL     OW50878   3.871   0.598   0.510  0.4428  0.6826  0.0913
13075SOL    HW150879   3.799   0.540   0.550 -0.6852  1.7140 -0.3994
13075SOL    HW250880   3.928   0.634   0.583  0.8725 -0.6713  0.4403
13076SOL     OW50881   6.535   5.339   1.723  0.0286  0.1327  0.4645
13076SOL    HW150882   6.587   5.412   1.767 -0.4899  1.7449 -1.5119
13076SOL    HW250883   6.591   5.257   1.717  1.9383  1.4840 -0.5678
13077SOL     OW50884   5.007   5.807   3.554 -1.0480 -0.4082  0.4165
13077SOL    HW150885   4.952   5.838   3.632  0.1672  1.2099  0.6627
13077SOL    HW250886   4.998   5.872   3.479  0.8168  0.1048  0.6080
13078SOL     OW50887   8.689   2.825   5.427 -0.0751  0.2272  0.6561
13078SOL    HW150888   8.602   2.827   5.477  0.3845 -1.0302  1.5194
13078SOL    HW250889   8.683   2.886   5.348 -0.9524  1.9434  2.0064
13079SOL     OW50890   9.244   2.861   6.214  0.3505  0.2741  0.5708
13079SOL    HW150891   9.222   2.804   6.293  1.5836  0.0481  0.7636
13079SOL    HW250892   9.300   2.939   6.243  1.8392 -0.4738 -0.2421
13080SOL     OW50893   1.944   2.436   5.735  0.0667 -0.1011 -0.0097
13080SOL    HW150894   2.042   2.424   5.719  0.2267  1.1397 -0.0396
13080SOL    HW250895   1.902   2.472   5.651 -0.4617 -0.8480 -0.0718
13081SOL     OW50896   7.434   6.307   4.844  0.2742  0.3666 -0.6838
13081SOL    HW150897   7.450   6.220   4.798  2.8778  0.0730  0.6772
13081SOL    HW250898   7.372   6.293   4.921  2.0080 -0.6291  0.5524
13082SOL     OW50899   8.952   6.155   2.529  0.4691 -0.3264 -0.0333
13082SOL    HW150900   8.948   6.255   2.522  1.0388 -0.0553  2.7925
13082SOL    HW250901   9.033   6.129   2.581 -1.5766 -2.0316  2.4526
13083SOL     OW50902   2.078   9.084   7.437 -0.1750 -0.1278  0.4130
13083SOL    HW150903   1.980   9.105   7.437 -0.1400  0.0293  0.3341
13083SOL    HW250904   2.092   8.993   7.476 -0.2615  0.2924  1.4493
13084SOL     OW50905   0.338   9.300   3.775 -0.3262 -0.1380  0.4260
13084SOL    HW150906   0.370   9.302   3.681 -1.2852  0.4611  0.0990
13084SOL    HW250907   0.374   9.219   3.822 -0.9204 -1.1605 -0.8448
13085SOL     OW50908   0.684   5.251   9.681 -0.5420 -0.5318 -0.7322
13085SOL    HW150909   0.720   5.195   9.755 -1.4545 -0.0391  0.0938
13085SOL    HW250910   0.646   5.191   9.610  1.4768 -1.0470 -1.4296
13086SOL     OW50911   0.474   3.194   7.071  0.6897 -0.6679 -0.4810
13086SOL    HW150912   0.517   3.260   7.009  0.6589 -0.5638 -0.3918
13086SOL    HW250913   0.462   3.107   7.023  1.0729 -0.7215 -0.4809
13087SOL     OW50914   9.244   1.111   7.298  0.3708 -0.3006  0.1215
13087SOL    HW150915   9.145   1.117   7.288  0.3513 -0.2644  0.3300
13087SOL    HW250916   9.288   1.124   7.209  0.3195  2.5867  0.4588
13088SOL     OW50917   3.989   3.034   3.379 -0.3874 -0.3791 -0.8264
13088SOL    HW150918   3.889   3.035   3.386 -0.3158  1.2562  0.2181
13088SOL    HW250919   4.028   2.999   3.464 -0.0158  1.5882 -0.1532
13089SOL     OW50920   7.130   4.188   3.091 -0.5549  0.0652 -0.3609
13089SOL    HW150921   7.184   4.272   3.090 -2.1947  1.1631 -1.1046
13089SOL    HW250922   7.059   4.194   3.162 -0.7790 -0.6145 -0.5203
13090SOL     OW50923   3.116   8.027   5.533 -0.1455 -0.4919 -0.0273
13090SOL    HW150924   3.208   8.020   5.494  0.1591 -0.2249  0.6322
13090SOL    HW250925   3.097   7.947   5.589 -0.2241 -0.4374  0.0243
13091SOL     OW50926   2.901   2.956   9.605 -0.1874  0.2880  0.3431
13091SOL    HW150927   2.846   2.890   9.554  2.4866 -3.1005  1.6536
13091SOL    HW250928   2.861   2.970   9.696  0.1072 -0.7851  0.6428
13092SOL     OW50929   8.881   0.644   0.662 -0.2337 -0.3329 -0.4287
13092SOL    HW150930   8.782   0.628   0.672  0.1231 -4.3110 -2.4054
13092SOL    HW250931   8.915   0.689   0.745 -3.2708 -1.1264  1.3654
13093SOL     OW50932   9.918   3.511   2.752  0.3620 -0.4759  0.4199
13093SOL    HW150933   9.993   3.449   2.732  0.3783 -0.1318 -0.6253
13093SOL    HW250934   9.954   3.598   2.785  0.5145  0.1841 -1.4015
13094SOL     OW50935   5.246   0.885   4.821 -0.4015 -0.0188  0.1628
13094SOL    HW150936   5.215   0.948   4.750  0.4306  0.0216 -0.1741
13094SOL    HW250937   5.345   0.873   4.813 -0.5663 -1.4776  0.1219
13095SOL     OW50938   2.694   9.712   4.414 -0.1848  0.1227  0.1004
13095SOL    HW150939   2.700   9.615   4.391  0.5055  0.2068 -0.1111
13095SOL    HW250940   2.617   9.754   4.366 -0.7186 -0.4036  0.4964
13096SOL     OW50941   5.640   8.077   7.052 -0.2165 -0.6398 -0.4112
13096SOL    HW150942   5.656   8.031   6.965  0.1615 -0.4572 -0.4363
13096SOL    HW250943   5.695   8.034   7.123 -0.9927 -1.1963 -0.1284
13097SOL     OW50944   6.309   7.413   6.297  0.3915  0.0484  0.6410
13097SOL    HW150945   6.217   7.452   6.305  0.4851  0.4889 -0.2806
13097SOL    HW250946   6.302   7.322   6.257  0.0811 -1.3663  3.8082
13098SOL     OW50947   5.107   7.774   1.880  0.4724  0.2813  0.2791
13098SOL    HW150948   5.055   7.691   1.902 -1.3139  1.0803 -0.8802
13098SOL    HW250949   5.161   7.758   1.797  1.2884 -0.1904  0.8869
13099SOL     OW50950   1.425   7.919   1.211  0.1876 -0.1080  0.3405
13099SOL    HW150951   1.327   7.913   1.232  0.3928 -2.6185  0.7521
13099SOL    HW250952   1.457   7.831   1.175  2.5116  0.3671  1.1528
13100SOL     OW50953   4.671   9.366   7.115  0.3626  0.2738  0.4016
13100SOL    HW150954   4.651   9.410   7.202  0.3437  1.5284 -0.2117
13100SOL    HW250955   4.608   9.401   7.045 -1.8886 -3.2380  0.5758
13101SOL     OW50956   6.046   6.005   0.619  0.0195  0.0107  0.2635
13101SOL    HW150957   5.978   6.064   0.574  1.4025  1.6052  0.2330
13101SOL    HW250958   6.104   5.962   0.550 -0.8663 -1.2720  0.2966
13102SOL     OW50959   6.275   7.255   6.981 -0.4462 -0.6557 -0.4052
13102SOL    HW150960   6.272   7.324   6.909 -1.9742  0.4597  0.6967
13102SOL    HW250961   6.270   7.300   7.071  0.4346 -2.0908  0.3827
13103SOL     OW50962   7.505   2.567   2.411  0.6158  0.5807  0.1704
13103SOL    HW150963   7.448   2.639   2.371 -1.2448 -1.0587 -0.1769
13103SOL    HW250964   7.453   2.516   2.479  1.4415 -1.3772 -0.6258
13104SOL     OW50965   2.400   5.319   2.160 -0.1827 -0.2907 -0.3877
13104SOL    HW150966   2.345   5.235   2.155  0.2711 -0.5602 -1.0503
13104SOL    HW250967   2.339   5.398   2.166 -0.5970 -0.7716  2.4270
13105SOL     OW50968   7.221   1.107   4.354  0.1784 -0.2647 -0.1618
13105SOL    HW150969   7.303   1.118   4.411  0.5486  0.3836 -0.8160
13105SOL    HW250970   7.176   1.022   4.378  0.2006  0.1106  1.2862
13106SOL     OW50971   9.032   6.788   5.803 -0.0592 -0.1972 -0.8475
13106SOL    HW150972   9.105   6.812   5.738  0.4940 -2.9364 -1.3004
13106SOL    HW250973   9.060   6.813   5.895  1.4210 -1.1039 -1.0330
13107SOL     OW50974   5.678   7.290   3.072 -0.4630 -0.1682  0.7461
13107SOL    HW150975   5.772   7.275   3.040  0.5221 -0.6926  3.7590
13107SOL    HW250976   5.636   7.364   3.019  1.5899  0.0037 -0.7038
13108SOL     OW50977   3.170   8.495   5.104  0.2078  0.0401  0.5232
13108SOL    HW150978   3.265   8.496   5.135  0.4209 -0.5292 -0.1183
13108SOL    HW250979   3.129   8.407   5.125 -0.0220  0.0982  0.3171
13109SOL     OW50980   5.917   1.902   1.466  0.2933  0.5838 -0.1802
13109SOL    HW150981   5.958   1.926   1.555 -0.9666 -0.2729  0.6550
13109SOL    HW250982   5.965   1.825   1.427  1.2498  1.3551 -0.5450
13110SOL     OW50983   0.304   3.555   4.002 -0.1323  0.0210 -0.1037
13110SOL    HW150984   0.353   3.540   4.088  0.6393  0.5145 -0.4540
13110SOL    HW250985   0.336   3.490   3.934 -0.5054 -0.1515 -0.1146
13111SOL     OW50986   0.709   5.455   2.602  0.7455  0.0362  0.2077
13111SOL    HW150987   0.808   5.452   2.591  0.8466 -1.8696  1.4455
13111SOL    HW250988   0.665   5.414   2.522  0.9607  0.4852 -0.1430
13112SOL     OW50989   1.769   6.674   0.951  0.4303  0.3020 -0.5549
13112SOL    HW150990   1.736   6.679   0.857  0.2383 -0.0518 -0.5089
13112SOL    HW250991   1.867   6.652   0.950  0.1625 -0.9559 -0.6602
13113SOL     OW50992   4.904   4.806   1.033  0.5807 -0.0474  0.0146
13113SOL    HW150993   4.906   4.815   0.933 -4.2775 -1.2772 -0.3316
13113SOL    HW250994   4.949   4.720   1.060  1.7538  0.2011 -1.1268
13114SOL     OW50995   2.466   2.308   4.302  0.4521 -0.0462  0.2618
13114SOL    HW150996   2.449   2.244   4.377 -0.2240  0.8191  0.8641
13114SOL    HW250997   2.487   2.398   4.340 -1.5724  0.8045 -0.6134
13115SOL     OW50998   8.215   4.345   2.801  0.6211  0.0840  0.7376
13115SOL    HW150999   8.145   4.278   2.776  0.6715  0.5779 -0.7641
13115SOL    HW251000   8.178   4.407   2.870 -0.0300 -0.3795  0.8090
13116SOL     OW51001   0.652   2.977   3.424  0.1677  0.2244  0.1467
13116SOL    HW151002   0.640   3.061   3.370 -0.1157 -1.1977 -2.1017
13116SOL    HW251003   0.750   2.960   3.437  0.2079  2.5240  3.3234
13117SOL     OW51004   1.352   5.631   0.190 -0.0893  0.3600 -0.2756
13117SOL    HW151005   1.385   5.651   0.098 -0.3457  0.8338 -0.2655
13117SOL    HW251006   1.306   5.711   0.227 -0.1050  0.1274  0.2152
13118SOL     OW51007   2.304   8.733   3.589  0.0996  0.2626 -0.4144
13118SOL    HW151008   2.363   8.813   3.580 -0.9226  1.0349 -0.3941
13118SOL    HW251009   2.269   8.707   3.498 -1.7163  1.5080 -0.0938
13119SOL     OW51010   1.462   9.877   6.061 -0.3475 -0.3664 -0.2713
13119SOL    HW151011   1.409   9.953   6.099 -1.9913 -1.6656  0.0353
13119SOL    HW251012   1.556   9.883   6.095 -1.1324  0.0058  1.8802
13120SOL     OW51013   5.818   1.433   5.252  0.0366 -0.2798 -0.0035
13120SOL    HW151014   5.871   1.517   5.245  0.6644 -0.6546  0.1825
13120SOL    HW251015   5.872   1.356   5.217 -1.0112 -0.4169 -1.3632
13121SOL     OW51016   7.412   5.231   2.275 -0.0990  0.4294  0.2436
13121SOL    HW151017   7.463   5.317   2.270  0.1540  0.2930  0.5192
13121SOL    HW251018   7.436   5.173   2.197  0.2477  0.3209  0.4294
13122SOL     OW51019   0.943   6.119   7.362 -0.0261  0.0602  0.9219
13122SOL    HW151020   0.981   6.136   7.271 -0.4578  1.3328  0.9661
13122SOL    HW251021   1.014   6.078   7.420  0.7900  0.8925  0.5303
13123SOL     OW51022   9.586   8.971   1.881 -0.3451  0.0551  0.0448
13123SOL    HW151023   9.578   8.950   1.979 -2.0760 -0.4493 -0.1852
13123SOL    HW251024   9.495   8.973   1.840  0.4571 -1.3631 -1.9059
13124SOL     OW51025   1.402   5.119   0.201  0.1935  0.5048  0.0878
13124SOL    HW151026   1.417   5.104   0.299 -1.6964 -1.5808  0.0903
13124SOL    HW251027   1.330   5.187   0.189  1.0865  1.4766  0.1122
13125SOL     OW51028   8.665   1.352   3.320  0.3915  0.0003  0.3893
13125SOL    HW151029   8.578   1.382   3.360 -1.5460 -3.6602 -0.8050
13125SOL    HW251030   8.727   1.325   3.394 -0.2996  0.5782  1.1955
13126SOL     OW51031   0.535   8.013   3.529 -0.1078 -0.4201  0.1695
13126SOL    HW151032   0.529   8.110   3.553  0.8369 -0.8822  2.3990
13126SOL    HW251033   0.618   7.997   3.477  0.4888 -0.2564  1.0483
13127SOL     OW51034   9.847   0.948   3.685  0.1544  0.2795 -0.4633
13127SOL    HW151035   9.908   0.986   3.755 -0.5590  1.1444 -0.2957
13127SOL    HW251036   9.797   0.870   3.724 -1.2375  1.5870  0.4546
13128SOL     OW51037   4.976   7.190   1.475  0.3408  0.2955 -0.9491
13128SOL    HW151038   5.059   7.220   1.429 -0.2926  0.5024 -1.9745
13128SOL    HW251039   4.934   7.267   1.523  0.1906  0.4371 -1.3009
13129SOL     OW51040   2.797   0.612   4.787 -0.2952  0.0109 -0.8342
13129SOL    HW151041   2.770   0.703   4.820 -1.1783 -0.6213  0.1962
13129SOL    HW251042   2.767   0.601   4.692 -1.7021  0.1636 -0.4157
13130SOL     OW51043   9.021   1.575   0.998 -0.6077  0.5750 -0.4462
13130SOL    HW151044   9.076   1.525   1.065 -0.0764  1.4505 -0.2167
13130SOL    HW251045   8.925   1.550   1.008 -0.4380  0.1511  0.1625
13131SOL     OW51046   2.722   0.168   0.000  0.1930  0.3235  0.2109
13131SOL    HW151047   2.809   0.175   0.050 -0.5223  1.3188  1.3469
13131SOL    HW251048   2.708   0.073  -0.029  0.7827 -0.2202  1.6497
13132SOL     OW51049   4.651   7.997   6.349  0.0261 -0.2482  0.1654
13132SOL    HW151050   4.641   7.947   6.435  1.0493  0.2245  0.5702
13132SOL    HW251051   4.699   8.083   6.366  0.4852 -0.2824 -0.9293
13133SOL     OW51052   5.679   9.899   8.022  0.3910 -0.1888 -0.1721
13133SOL    HW151053   5.658   9.809   7.983  0.4604 -1.5161  2.7182
13133SOL    HW251054   5.596   9.954   8.025  0.1798 -0.4349 -1.2000
13134SOL     OW51055   0.285   3.197   0.064 -0.0616 -0.2270  0.0539
13134SOL    HW151056   0.195   3.155   0.052 -0.6089  0.6951  0.8009
13134SOL    HW251057   0.326   3.166   0.150 -1.4994  2.4883  1.8151
13135SOL     OW51058   4.315   3.130   2.555 -0.0294 -0.1346 -0.4823
13135SOL    HW151059   4.381   3.177   2.496  1.0804 -0.7299  0.2522
13135SOL    HW251060   4.362   3.095   2.636 -1.3140 -0.3296  0.1950
13136SOL     OW51061   0.109   4.190   7.156 -0.1111  0.0958 -0.1087
13136SOL    HW151062   0.124   4.271   7.213  2.0715 -1.0824  1.0630
13136SOL    HW251063   0.019   4.197   7.111 -2.4646  0.5278  4.3679
13137SOL     OW51064   7.824   6.293   3.154 -0.0386 -0.6179  0.1390
13137SOL    HW151065   7.826   6.225   3.228 -0.3848  0.1998  0.9068
13137SOL    HW251066   7.733   6.333   3.148  0.8333  1.6552  1.4367
13138SOL     OW51067   2.366   3.153  10.013  0.7716 -0.0283  0.0703
13138SOL    HW151068   2.322   3.164   9.924  0.8491  0.7441  0.1172
13138SOL    HW251069   2.326   3.075  10.062 -2.0041  1.8521  0.9684
13139SOL     OW51070   1.405   3.086   5.480 -0.4667  0.2906  0.1214
13139SOL    HW151071   1.483   3.025   5.462 -0.4420  0.1679  0.6483
13139SOL    HW251072   1.432   3.156   5.546 -0.0230  1.8360 -1.6570
13140SOL     OW51073   3.451   4.449   5.849 -0.5415  0.2161 -0.5522
13140SOL    HW151074   3.352   4.449   5.863 -0.3703  2.2392  0.9725
13140SOL    HW251075   3.471   4.447   5.752 -2.0484 -1.0103 -0.8724
13141SOL     OW51076   9.833   9.659   7.995  0.3755 -0.4028  0.4265
13141SOL    HW151077   9.806   9.733   8.056  2.1103 -1.6143  2.7149
13141SOL    HW251078   9.797   9.677   7.903 -1.1441  2.1043  1.4682
13142SOL     OW51079   4.428   9.046   0.180  0.0253  0.1518  0.1719
13142SOL    HW151080   4.347   9.104   0.179  1.5729  2.6511  4.7698
13142SOL    HW251081   4.499   9.086   0.123 -0.2341  0.7333  0.2576
13143SOL     OW51082   1.719   2.329   1.071  0.3454  0.2361 -0.1852
13143SOL    HW151083   1.747   2.408   1.016  2.0252 -0.7489 -0.7822
13143SOL    HW251084   1.790   2.259   1.067 -0.4816 -0.7248  1.5254
13144SOL     OW51085   9.491   8.135   0.359  0.1011 -0.6210  0.3071
13144SOL    HW151086   9.523   8.147   0.452  1.7561 -0.6265 -0.2536
13144SOL    HW251087   9.569   8.129   0.297 -0.9808  0.0679 -1.1631
13145SOL     OW51088   1.457   3.226   7.169  0.3282  0.3112 -0.3101
13145SOL    HW151089   1.416   3.140   7.137  0.0432  0.1951  0.3537
13145SOL    HW251090   1.514   3.265   7.097  1.2553 -0.9425 -0.2651
13146SOL     OW51091   2.229   9.631   3.493 -0.3324  0.5097 -0.4009
13146SOL    HW151092   2.309   9.618   3.552  0.0249  0.7174 -0.8413
13146SOL    HW251093   2.244   9.585   3.405 -0.8630  0.2071 -0.3376
13147SOL     OW51094   9.894   0.724   0.877 -0.1043  0.6655  0.3308
13147SOL    HW151095   9.854   0.673   0.953 -1.0108  3.1115  1.5191
13147SOL    HW251096   9.827   0.731   0.803  0.0608  0.0892  0.1179
13148SOL     OW51097   7.008   8.825   2.250  0.0839  0.4853 -0.6562
13148SOL    HW151098   6.952   8.873   2.317  1.4265  0.5549  0.4276
13148SOL    HW251099   7.010   8.877   2.165 -0.1939  1.2843 -0.1771
13149SOL     OW51100   7.204   2.436   4.772  0.1393  0.0886 -0.5657
13149SOL    HW151101   7.240   2.407   4.684 -0.2500 -0.8027 -0.4413
13149SOL    HW251102   7.168   2.356   4.821 -0.7271  0.7523 -0.1104
13150SOL     OW51103   3.281   3.525   1.461 -0.0952  0.0438  0.0398
13150SOL    HW151104   3.206   3.504   1.399  0.5748 -0.8974 -0.4692
13150SOL    HW251105   3.358   3.564   1.409  0.1614  0.0267  0.3999
13151SOL     OW51106   4.885   6.622   1.087 -0.6234  0.3399 -0.5085
13151SOL    HW151107   4.961   6.687   1.083 -1.2364  1.1308  0.3415
13151SOL    HW251108   4.821   6.640   1.013 -0.9363  0.9047 -0.1084
13152SOL     OW51109   8.412   3.599   4.790 -0.1287 -0.0382  0.3199
13152SOL    HW151110   8.501   3.554   4.789 -0.4570 -0.6914 -1.6221
13152SOL    HW251111   8.375   3.597   4.883  1.5062 -0.4851  0.9856
13153SOL     OW51112   0.705   7.349   0.554  0.2431  0.5562  0.2708
13153SOL    HW151113   0.741   7.395   0.474  0.5734  1.7353  1.0887
13153SOL    HW251114   0.753   7.262   0.568  1.3631  1.1658  0.1923
13154SOL     OW51115   3.486   6.350   0.857  0.2001  0.6185 -0.1913
13154SOL    HW151116   3.485   6.348   0.957 -0.2296  0.7818 -0.1920
13154SOL    HW251117   3.441   6.269   0.821 -1.1449  1.3767 -0.2452
13155SOL     OW51118   6.285   0.454   5.558  0.3284 -0.2635  0.0594
13155SOL    HW151119   6.252   0.548   5.563 -0.6645 -0.6289  0.5076
13155SOL    HW251120   6.254   0.412   5.472  0.1906 -0.3968  0.1739
13156SOL     OW51121   5.316   5.189   2.246 -0.1441  0.0655  0.0902
13156SOL    HW151122   5.399   5.144   2.281  0.3913  0.3319 -0.8148
13156SOL    HW251123   5.342   5.272   2.196 -0.9282 -0.0556 -0.5201
13157SOL     OW51124   9.555   8.455   2.247 -0.6590  0.1214 -0.3076
13157SOL    HW151125   9.614   8.377   2.225  0.9657  1.1163  0.4455
13157SOL    HW251126   9.489   8.427   2.316  0.2909 -0.4496  0.3902
13158SOL     OW51127   2.678   1.185   3.220  0.5613 -0.1205 -0.0568
13158SOL    HW151128   2.602   1.200   3.157 -0.6142  0.2414  1.4140
13158SOL    HW251129   2.647   1.126   3.295  1.8616 -0.3247  0.3267
13159SOL     OW51130   2.154   8.108   1.445 -1.0555 -0.3049  0.2860
13159SOL    HW151131   2.111   8.066   1.365 -2.0316 -1.9211  1.6011
13159SOL    HW251132   2.195   8.036   1.501  1.7525  1.0473  0.0167
13160SOL     OW51133   9.286   4.610   5.201 -0.0877  0.1535 -0.2275
13160SOL    HW151134   9.203   4.560   5.178  0.7746 -1.5874  0.3777
13160SOL    HW251135   9.363   4.546   5.208  0.7815  1.3911  1.8355
13161SOL     OW51136   2.993   5.718   2.303 -0.5842  0.5913  0.4931
13161SOL    HW151137   3.089   5.702   2.326 -0.6163 -0.7524 -0.2718
13161SOL    HW251138   2.974   5.816   2.310  0.9928  0.9514  0.0804
13162SOL     OW51139   0.422   2.689   4.995 -0.0822  0.1748  0.0132
13162SOL    HW151140   0.327   2.714   4.976 -0.0206 -0.2606 -0.8837
13162SOL    HW251141   0.426   2.637   5.080 -0.6220  0.3839  0.1731
13163SOL     OW51142   8.370   8.714   5.026  0.1398 -0.1775  0.6019
13163SOL    HW151143   8.284   8.685   5.069 -0.7209  0.9171 -0.3368
13163SOL    HW251144   8.446   8.664   5.067 -0.8015 -0.2140  2.3754
13164SOL     OW51145   5.171   1.623   0.998  0.1214 -0.3028  0.1457
13164SOL    HW151146   5.146   1.579   1.085 -0.3458 -2.1856 -0.9166
13164SOL    HW251147   5.268   1.610   0.981 -0.5956 -3.9304 -1.7563
13165SOL     OW51148   7.666   3.425   1.754 -0.2132 -0.1136 -0.2719
13165SOL    HW151149   7.596   3.486   1.791  1.8117  0.9290  2.0153
13165SOL    HW251150   7.663   3.337   1.803  1.5687  0.7773  1.5131
13166SOL     OW51151   9.157   7.146   2.765  0.0037  0.8788 -0.4611
13166SOL    HW151152   9.207   7.062   2.743 -2.9890 -1.1260  0.0492
13166SOL    HW251153   9.116   7.184   2.682  0.3062  1.1342 -0.4949
13167SOL     OW51154   9.906   6.253   2.523 -0.6991 -0.0697 -0.2310
13167SOL    HW151155   9.942   6.160   2.528 -0.6983 -0.0245  0.6264
13167SOL    HW251156   9.868   6.269   2.432 -0.0702 -0.6749 -0.6042
13168SOL     OW51157   5.921   1.500   4.021  0.5050 -0.1917  0.1567
13168SOL    HW151158   5.965   1.590   4.021  0.8966 -0.3801  1.2574
13168SOL    HW251159   5.989   1.429   4.035  0.4295 -0.8040 -2.3343
13169SOL     OW51160   9.181   7.092   7.352 -0.4516 -0.5021 -0.1487
13169SOL    HW151161   9.136   7.161   7.294 -1.3540 -0.9473  0.0160
13169SOL    HW251162   9.272   7.072   7.315 -0.2120  0.7136 -0.2529
13170SOL     OW51163   4.232   8.758   0.377  0.2269  0.1295 -0.1996
13170SOL    HW151164   4.187   8.827   0.320 -0.8224 -0.0345  0.4155
13170SOL    HW251165   4.236   8.790   0.472  0.5870 -0.2460 -0.0862
13171SOL     OW51166   4.658   6.504   1.244 -0.6332 -0.5418  0.4259
13171SOL    HW151167   4.625   6.572   1.310  0.5178  1.1656 -0.7108
13171SOL    HW251168   4.727   6.546   1.184 -1.0256 -2.2966 -1.3154
13172SOL     OW51169   1.421   7.608   1.506 -0.4107  0.0259 -0.1985
13172SOL    HW151170   1.384   7.667   1.577 -0.4377 -0.8267  0.5054
13172SOL    HW251171   1.474   7.535   1.547  0.8957  0.4221 -1.1389
13173SOL     OW51172   0.775   4.003   5.515 -0.3413  0.4081 -0.1075
13173SOL    HW151173   0.829   4.004   5.431  1.7092  0.6697  1.1800
13173SOL    HW251174   0.678   3.993   5.493  0.1861  0.4305 -2.4858
13174SOL     OW51175   6.794   2.623   1.463 -0.3090  0.4644 -0.2291
13174SOL    HW151176   6.795   2.524   1.473 -0.4323  0.3776 -1.0397
13174SOL    HW251177   6.862   2.663   1.523  0.6305 -0.2091 -0.8278
13175SOL     OW51178   2.266   3.235   3.588 -0.2157 -0.4217  0.6626
13175SOL    HW151179   2.203   3.159   3.607  1.1100 -1.7678 -0.1308
13175SOL    HW251180   2.272   3.295   3.667  0.1662 -2.2252  2.0424
13176SOL     OW51181   8.982   0.254   8.058 -0.0389 -0.6156 -0.0871
13176SOL    HW151182   8.901   0.312   8.059 -1.2225 -2.2349  0.5348
13176SOL    HW251183   8.970   0.180   7.991  1.1269 -0.5855 -0.3427
13177SOL     OW51184   6.298   8.651   4.442 -0.3704 -0.6734 -0.4432
13177SOL    HW151185   6.216   8.695   4.405 -1.0650 -1.2525  0.3816
13177SOL    HW251186   6.362   8.721   4.474 -1.1216 -0.2428  0.1345
13178SOL     OW51187   6.948   9.720   3.251  0.0225  0.3000  0.2891
13178SOL    HW151188   6.900   9.682   3.330 -0.8809  0.5754 -0.1195
13178SOL    HW251189   7.040   9.748   3.278 -0.6456  1.3797  1.5059
13179SOL     OW51190   2.538   9.728   7.014 -0.0619 -0.0703 -0.4222
13179SOL    HW151191   2.634   9.749   6.995 -0.7371  1.6882 -2.1198
13179SOL    HW251192   2.531   9.634   7.048  2.4563  0.4601  1.7640
13180SOL     OW51193   2.798   3.190   2.448 -0.1872 -0.4474 -0.2151
13180SOL    HW151194   2.840   3.179   2.538  0.0903 -1.4046 -0.4560
13180SOL    HW251195   2.756   3.103   2.420 -1.9873  0.3777 -0.1456
13181SOL     OW51196   4.086   8.003   3.270 -0.1963 -0.2285 -0.0209
13181SOL    HW151197   4.155   8.057   3.318  0.1194 -0.1241 -0.5815
13181SOL    HW251198   3.996   8.023   3.307  0.0315 -0.0562  0.4390
13182SOL     OW51199   4.382   8.547   6.519 -0.8677  0.7232  0.3259
13182SOL    HW151200   4.384   8.537   6.618  1.0579  0.3591  0.2766
13182SOL    HW251201   4.388   8.644   6.495  1.4177  0.6655  0.5562
13183SOL     OW51202   1.336   0.209   0.166 -0.5639  0.0213  0.3404
13183SOL    HW151203   1.246   0.214   0.210 -0.3603 -1.7180  0.9814
13183SOL    HW251204   1.338   0.132   0.102  0.5190 -0.0365  0.4333
13184SOL     OW51205   3.685   1.141   2.417 -0.2135 -0.1844 -0.3025
13184SOL    HW151206   3.631   1.202   2.475 -0.5035 -0.9786  0.2672
13184SOL    HW251207   3.642   1.133   2.327 -1.7062 -1.7655  0.5372
13185SOL     OW51208   0.794   2.611   4.688 -0.0014 -0.2561 -0.4469
13185SOL    HW151209   0.757   2.528   4.730  0.8080  0.0247  0.8440
13185SOL    HW251210   0.719   2.672   4.661 -0.5144  0.1469  1.8088
13186SOL     OW51211   7.966   9.449   7.045 -0.4284  0.1689 -0.1667
13186SOL    HW151212   8.010   9.373   7.093 -2.4186  0.4266  2.1771
13186SOL    HW251213   8.014   9.534   7.068 -0.8596  0.1775  0.7259
13187SOL     OW51214   2.556   3.176   1.114  0.2837 -0.0985 -0.0610
13187SOL    HW151215   2.465   3.219   1.110  0.1121 -0.4384  0.1530
13187SOL    HW251216   2.608   3.201   1.033 -0.9663 -2.0820 -1.4993
13188SOL     OW51217   3.668   0.262   7.091  0.1298  0.5776 -0.3821
13188SOL    HW151218   3.572   0.287   7.098  0.0973  0.3662 -0.0639
13188SOL    HW251219   3.700   0.230   7.180  0.5262  0.7641 -0.4560
13189SOL     OW51220   1.591   2.129   3.295  0.0377 -0.1453  0.3967
13189SOL    HW151221   1.662   2.117   3.225 -0.0522  0.4823  0.1904
13189SOL    HW251222   1.509   2.080   3.268  0.2200 -0.4375  0.3759
13190SOL     OW51223   5.595   2.726   1.542  0.2773 -0.7704 -0.5431
13190SOL    HW151224   5.636   2.777   1.618 -0.0449 -1.1090 -0.1385
13190SOL    HW251225   5.625   2.765   1.456  1.7668 -1.2412 -0.2529
13191SOL     OW51226   9.882   2.902   7.759  0.1695  0.6718 -0.1820
13191SOL    HW151227   9.960   2.842   7.742 -0.5013 -0.5328  0.8772
13191SOL    HW251228   9.801   2.866   7.712 -0.5131  0.0577  1.4033
13192SOL     OW51229   3.120   0.356   4.219 -0.3776 -0.5959  0.2793
13192SOL    HW151230   3.136   0.422   4.293 -0.3478 -0.3731  0.0750
13192SOL    HW251231   3.022   0.351   4.200 -0.3385 -0.2624 -0.0217
13193SOL     OW51232   5.664   0.321   7.706  0.2368  0.5652 -0.1661
13193SOL    HW151233   5.713   0.408   7.696  0.7072  0.3061 -0.0941
13193SOL    HW251234   5.704   0.253   7.645  0.8459 -0.0285  0.8818
13194SOL     OW51235   7.617   6.648   5.560 -0.3795  0.0319 -0.3021
13194SOL    HW151236   7.630   6.740   5.523 -0.2901 -0.2653 -1.0145
13194SOL    HW251237   7.651   6.645   5.654 -0.3487  0.7187 -0.2899
13195SOL     OW51238   3.267   4.038   9.843 -0.7594  0.0977 -0.4897
13195SOL    HW151239   3.321   4.031   9.927 -0.2073 -0.9968 -0.9217
13195SOL    HW251240   3.309   3.982   9.772 -0.1825  2.4367 -2.0564
13196SOL     OW51241   5.649   1.294   0.526 -0.8350  0.5894  0.2536
13196SOL    HW151242   5.647   1.298   0.625 -3.5221  1.0521  0.2341
13196SOL    HW251243   5.591   1.366   0.488 -1.1524 -0.5814 -1.5959
13197SOL     OW51244   6.130   3.885   2.357  0.0760  0.3328  0.1217
13197SOL    HW151245   6.077   3.909   2.275 -0.3224 -0.7940  0.0378
13197SOL    HW251246   6.194   3.812   2.335 -0.7743 -0.7035  1.0709
13198SOL     OW51247   2.095   8.726   6.929 -0.4727 -0.0879 -0.1937
13198SOL    HW151248   2.181   8.697   6.970 -0.5027  1.8397  1.2582
13198SOL    HW251249   2.108   8.810   6.877 -1.0398 -0.9804 -1.8560
13199SOL     OW51250   7.606   6.664   7.445  0.1797  0.5325  0.2264
13199SOL    HW151251   7.565   6.674   7.355  1.2596  0.0921 -0.3236
13199SOL    HW251252   7.591   6.571   7.479  0.7618  0.3567  0.0042
13200SOL     OW51253   8.513   2.126   5.107 -0.1153 -0.2981  0.8366
13200SOL    HW151254   8.443   2.193   5.130 -0.0728 -0.0981  0.3999
13200SOL    HW251255   8.556   2.091   5.190 -1.5754 -1.3377  1.1650
13201SOL     OW51256   7.693   5.592   0.761  0.8961  0.0222  0.2000
13201SOL    HW151257   7.712   5.513   0.703  0.2426  1.0918 -1.5152
13201SOL    HW251258   7.778   5.626   0.801  1.2379 -1.2362  0.5577
13202SOL     OW51259   1.448   2.656   2.697 -0.0001 -0.4074 -1.0498
13202SOL    HW151260   1.392   2.733   2.668 -0.3117 -0.4831 -0.6588
13202SOL    HW251261   1.520   2.639   2.630  1.1697  1.3390 -0.2734
13203SOL     OW51262   9.623   2.617   0.798  0.0098 -0.1098 -0.3168
13203SOL    HW151263   9.567   2.576   0.725  0.6268 -0.5640 -0.5358
13203SOL    HW251264   9.704   2.658   0.757 -0.2859  0.7722 -0.0236
13204SOL     OW51265   8.268   0.657   3.586  0.0228 -0.4018 -0.2936
13204SOL    HW151266   8.291   0.582   3.525  1.2597  0.1812 -0.5667
13204SOL    HW251267   8.277   0.627   3.681  0.0457 -0.7369 -0.4020
13205SOL     OW51268   1.390   7.411   4.017 -0.2106  0.2887 -0.0037
13205SOL    HW151269   1.398   7.390   3.920  0.3051  1.9673 -0.3510
13205SOL    HW251270   1.434   7.339   4.071  0.4479 -0.1087 -1.0569
13206SOL     OW51271   9.705   3.594   0.536 -0.1773 -0.2568  0.0650
13206SOL    HW151272   9.614   3.633   0.543 -0.0362  0.5967 -2.2386
13206SOL    HW251273   9.746   3.588   0.627 -1.9112  0.8210  0.9543
13207SOL     OW51274   9.904   5.676   2.579  0.3200 -0.4387 -0.4590
13207SOL    HW151275   9.851   5.611   2.526  1.8377 -0.7953 -1.5530
13207SOL    HW251276  10.001   5.652   2.576  0.5720  0.1433  1.5943
13208SOL     OW51277   1.818   6.431   1.522  0.9843 -0.2129 -0.4979
13208SOL    HW151278   1.777   6.416   1.432  0.5145  0.2709 -0.3690
13208SOL    HW251279   1.784   6.364   1.587 -0.0909  0.5792 -0.2391
13209SOL     OW51280   5.309   7.787   2.435  0.2497 -0.0123  0.2150
13209SOL    HW151281   5.325   7.883   2.456 -0.9594  0.1587  0.4062
13209SOL    HW251282   5.289   7.777   2.337  1.0842 -0.1773  0.0503
13210SOL     OW51283   5.524   9.267   4.372 -0.1064  0.4721 -0.4514
13210SOL    HW151284   5.452   9.252   4.303  0.0546 -0.0070 -0.5154
13210SOL    HW251285   5.573   9.352   4.351  0.1944  0.1250 -1.1457
13211SOL     OW51286   3.885   5.847   4.264 -0.0969  0.5286  0.3755
13211SOL    HW151287   3.952   5.921   4.272  0.6325  0.0227 -1.0722
13211SOL    HW251288   3.799   5.884   4.229  0.4278  0.6128 -0.8481
13212SOL     OW51289   4.655   9.804   4.005  0.5629  0.1568 -0.8129
13212SOL    HW151290   4.730   9.788   4.069  1.2591  0.7901 -1.4573
13212SOL    HW251291   4.679   9.764   3.916 -0.2408 -0.4000 -0.7838
13213SOL     OW51292   8.489   7.495   0.544  0.3156  0.4638 -0.2513
13213SOL    HW151293   8.553   7.443   0.600  0.6310  1.3220  0.1975
13213SOL    HW251294   8.402   7.505   0.593 -0.2959 -0.9949 -1.0027
13214SOL     OW51295   4.925   2.683   5.260  0.1105  0.4801 -0.0388
13214SOL    HW151296   4.936   2.590   5.296 -0.6305  0.5117  0.2878
13214SOL    HW251297   4.987   2.697   5.184  1.3591  0.2481  0.9270
13215SOL     OW51298   5.800   7.952   6.387 -0.1721  0.7071  0.3439
13215SOL    HW151299   5.881   8.004   6.361 -0.9477  2.2286  0.9018
13215SOL    HW251300   5.747   8.004   6.454 -1.4152 -0.4237  0.2624
13216SOL     OW51301   8.339   8.324   4.842 -0.0477 -0.1035  0.6398
13216SOL    HW151302   8.298   8.233   4.830  0.3789 -0.0460 -1.5520
13216SOL    HW251303   8.351   8.367   4.752 -0.7130  2.3482  1.6789
13217SOL     OW51304   5.397   0.077   4.622 -0.0438  0.0403 -0.2162
13217SOL    HW151305   5.426   0.090   4.717  1.0687 -1.6851 -0.2951
13217SOL    HW251306   5.438  -0.007   4.586  1.6901  1.9936 -3.0462
13218SOL     OW51307   8.523   1.228   0.342  0.5903  0.2602 -0.2038
13218SOL    HW151308   8.595   1.272   0.395 -0.2974  1.8203 -0.2475
13218SOL    HW251309   8.525   1.130   0.357  0.8194  0.5962  2.1557
13219SOL     OW51310   2.082   7.686   2.943  0.4587 -0.0534 -0.4979
13219SOL    HW151311   2.100   7.588   2.950  0.6708  0.0401  0.4212
13219SOL    HW251312   2.163   7.733   2.911  1.1930  0.1062  1.4922
13220SOL     OW51313   3.286   8.092   3.805  0.2393  0.1845 -0.9189
13220SOL    HW151314   3.293   8.029   3.883 -1.0888  0.1069 -0.8461
13220SOL    HW251315   3.350   8.064   3.734 -0.5912 -1.4709 -1.0371
13221SOL     OW51316   2.339   3.299   3.868  0.2057  0.2989  0.1626
13221SOL    HW151317   2.330   3.395   3.841  0.1526 -0.2500 -1.8045
13221SOL    HW251318   2.303   3.288   3.961 -1.9565  1.7262 -0.4586
13222SOL     OW51319   2.785   5.578   2.200  0.2921  0.0158 -0.1667
13222SOL    HW151320   2.863   5.623   2.243 -1.9387  0.6941  3.4029
13222SOL    HW251321   2.773   5.487   2.240 -1.8792  0.6787  0.7684
13223SOL     OW51322   9.605   6.360   0.428 -0.2825 -0.1788 -0.4811
13223SOL    HW151323   9.616   6.261   0.423  0.0088 -0.1539 -0.3241
13223SOL    HW251324   9.596   6.388   0.524 -2.3039 -0.2649 -0.6221
13224SOL     OW51325   1.303   9.036   6.915 -0.0273 -0.1333  0.1813
13224SOL    HW151326   1.228   9.066   6.973  0.2700 -0.0385  0.5205
13224SOL    HW251327   1.359   9.115   6.889 -1.0629  0.0511 -1.5349
13225SOL     OW51328   0.882   5.432   9.944 -0.2969  0.0864  0.1001
13225SOL    HW151329   0.976   5.464   9.940 -0.2095 -0.3189 -1.1083
13225SOL    HW251330   0.822   5.496   9.896 -0.3217 -0.8036 -1.0744
13226SOL     OW51331   8.743   3.560   7.421  0.0653 -0.7497 -0.1706
13226SOL    HW151332   8.799   3.487   7.381  2.1595 -0.0027  1.3211
13226SOL    HW251333   8.683   3.521   7.492  0.7805 -1.1091  0.2394
13227SOL     OW51334   2.566   1.842   4.173 -0.3546  0.7143 -0.0529
13227SOL    HW151335   2.567   1.918   4.108 -0.4588  1.5368  0.8843
13227SOL    HW251336   2.479   1.844   4.224 -0.6798 -0.4894 -0.5537
13228SOL     OW51337   0.738   4.346   1.079  0.0316  0.1968  0.3181
13228SOL    HW151338   0.663   4.281   1.067 -1.2957  1.4588  1.4413
13228SOL    HW251339   0.778   4.334   1.170 -0.3855  1.0906  0.6270
13229SOL     OW51340   7.646   8.773   8.067 -0.2204  0.1311 -0.3623
13229SOL    HW151341   7.613   8.679   8.066  2.6094 -0.9743  2.2194
13229SOL    HW251342   7.724   8.782   8.005  0.2826  0.4499  0.3062
13230SOL     OW51343   0.901   6.007   4.934 -0.5701  0.1911 -0.0902
13230SOL    HW151344   0.981   5.999   4.994 -0.7015 -0.2031  0.0324
13230SOL    HW251345   0.819   5.978   4.983 -1.1045  2.5723  0.4512
13231SOL     OW51346   8.375   8.720   3.262 -0.2578 -0.1439 -0.0946
13231SOL    HW151347   8.278   8.738   3.280 -0.4303  0.3093 -1.4077
13231SOL    HW251348   8.429   8.802   3.282 -0.2302 -0.1739 -0.0419
13232SOL     OW51349   4.076   4.390   3.329  0.1666 -0.2300  0.1195
13232SOL    HW151350   4.168   4.429   3.323 -0.2229  0.5283 -1.0505
13232SOL    HW251351   4.011   4.450   3.282 -0.8406 -1.0220  0.4909
13233SOL     OW51352   8.435   6.542   7.854 -0.3304  0.1563 -0.5704
13233SOL    HW151353   8.462   6.446   7.866 -0.0405  0.2899 -0.1041
13233SOL    HW251354   8.343   6.546   7.815 -1.0259 -0.3305  0.9394
13234SOL     OW51355   4.270   7.940   5.515 -0.6606 -0.2454 -0.4959
13234SOL    HW151356   4.262   7.841   5.502  3.4947 -0.9446  1.6636
13234SOL    HW251357   4.326   7.979   5.442 -2.8606  0.7274 -1.7413
13235SOL     OW51358   7.340   8.608   4.811  0.2694 -0.1250 -0.0536
13235SOL    HW151359   7.427   8.620   4.858 -0.6418  2.2412  1.0931
13235SOL    HW251360   7.282   8.544   4.862  0.5139 -0.0639  0.2998
13236SOL     OW51361   2.867   8.255   2.912 -0.1435  0.0437  0.0381
13236SOL    HW151362   2.935   8.328   2.912  0.5096 -0.5165  3.0643
13236SOL    HW251363   2.912   8.167   2.903 -0.6045 -0.2150  0.2273
13237SOL     OW51364   6.241   1.010   2.530  0.2488 -0.4676 -0.5997
13237SOL    HW151365   6.296   1.067   2.591 -0.1424 -1.1733  0.4212
13237SOL    HW251366   6.272   0.915   2.534 -0.9449 -0.8541 -0.1161
13238SOL     OW51367   8.439   7.466   5.485 -0.2380  0.6634 -0.0818
13238SOL    HW151368   8.454   7.508   5.574  1.4929  0.8694 -0.4608
13238SOL    HW251369   8.429   7.537   5.415  1.0840  0.4673 -0.4722
13239SOL     OW51370   9.465   4.814   2.382 -0.2698 -0.4905  0.3881
13239SOL    HW151371   9.508   4.902   2.362 -0.8280 -0.6018 -1.3778
13239SOL    HW251372   9.381   4.806   2.329 -0.9639 -1.4875  1.6381
13240SOL     OW51373   3.210   2.621   2.603  0.2357 -0.1267  0.1185
13240SOL    HW151374   3.307   2.628   2.625  0.0344 -1.6058  1.5843
13240SOL    HW251375   3.160   2.695   2.649  0.6606  0.6250 -0.6248
13241SOL     OW51376   2.630   5.614   0.948 -0.2334  0.1201 -0.6375
13241SOL    HW151377   2.683   5.563   1.015 -0.6849 -0.2159 -0.5366
13241SOL    HW251378   2.579   5.687   0.994 -0.3940  0.0110 -0.6455
13242SOL     OW51379   5.710   7.769   6.041  0.2330  0.3717  0.1257
13242SOL    HW151380   5.612   7.749   6.036  0.3164  0.1063 -0.4917
13242SOL    HW251381   5.748   7.729   6.125 -0.1914  0.4982  0.3776
13243SOL     OW51382   4.558   1.033   5.616 -0.1781  0.2965 -0.1409
13243SOL    HW151383   4.585   1.069   5.705  1.7538  0.0854 -0.6292
13243SOL    HW251384   4.492   0.959   5.628  1.2042 -0.7173  1.1737
13244SOL     OW51385   4.660   7.699   5.275 -0.1869  0.6293 -0.2076
13244SOL    HW151386   4.720   7.777   5.263 -1.6178  1.5881 -1.1823
13244SOL    HW251387   4.632   7.663   5.186  1.3017 -1.6836  0.2000
13245SOL     OW51388   0.929   9.069   5.017 -0.0220 -0.3430 -0.0606
13245SOL    HW151389   0.839   9.026   5.016 -0.0267 -0.4825  3.1527
13245SOL    HW251390   0.923   9.157   5.064  1.6234 -0.5875  0.6235
13246SOL     OW51391   7.031   7.130   4.950  0.8607  0.3156  0.0644
13246SOL    HW151392   6.942   7.097   4.916  0.4848  1.3626 -0.0061
13246SOL    HW251393   7.100   7.059   4.938 -0.3552 -1.2135  1.8469
13247SOL     OW51394   9.278   3.137   5.503 -0.0585 -0.3895  0.3814
13247SOL    HW151395   9.283   3.231   5.468  0.6028 -0.8872 -0.9028
13247SOL    HW251396   9.220   3.082   5.443  2.1792 -1.5990 -0.7714
13248SOL     OW51397   3.368   8.194   1.871 -0.0236  0.0722 -0.2185
13248SOL    HW151398   3.388   8.154   1.782  0.3070 -0.6837  0.1952
13248SOL    HW251399   3.450   8.194   1.928  0.4194  2.8129 -0.7629
13249SOL     OW51400   8.850   0.936   3.032 -0.4648  0.9745  0.5217
13249SOL    HW151401   8.877   0.955   2.937 -0.0918  0.6396  0.5586
13249SOL    HW251402   8.776   0.997   3.058 -0.5911  1.0499 -0.0000
13250SOL     OW51403   9.701   6.142   4.597 -0.3293 -0.0781  0.3876
13250SOL    HW151404   9.752   6.184   4.521 -0.9979  0.0342 -0.0102
13250SOL    HW251405   9.618   6.099   4.561 -0.4885 -0.3032  1.0196
13251SOL     OW51406   8.789   9.188   3.877 -0.0415 -0.3506  0.2116
13251SOL    HW151407   8.726   9.239   3.935 -0.6097 -1.2797  0.4256
13251SOL    HW251408   8.877   9.178   3.924 -0.5551 -1.2534  1.0008
13252SOL     OW51409   2.171   1.261   1.426 -0.3232  0.0163  0.1250
13252SOL    HW151410   2.082   1.237   1.463 -0.7901  1.1714 -0.2193
13252SOL    HW251411   2.161   1.291   1.331  0.4761 -0.1813 -0.0260
13253SOL     OW51412   0.099   7.092   1.644 -0.1581 -0.3207 -0.5665
13253SOL    HW151413   0.191   7.130   1.636 -0.9942  1.7844 -0.5261
13253SOL    HW251414   0.100   7.017   1.710  0.9992  1.5399  1.6252
13254SOL     OW51415   6.257   1.352   2.835  0.2055  0.5615 -0.3385
13254SOL    HW151416   6.321   1.281   2.806  0.2166  0.2445  0.4667
13254SOL    HW251417   6.234   1.410   2.756  0.6244  0.0080 -0.8714
13255SOL     OW51418   8.543   1.905   4.433  0.1065 -0.2519 -0.0879
13255SOL    HW151419   8.480   1.949   4.498  0.1031  0.2003 -0.3910
13255SOL    HW251420   8.600   1.975   4.390 -1.0577 -0.3299 -1.8429
13256SOL     OW51421   3.685   2.231   1.778  0.7586  0.2022 -0.4499
13256SOL    HW151422   3.708   2.154   1.838 -1.9015 -0.5876 -0.3800
13256SOL    HW251423   3.748   2.231   1.700 -0.4042 -3.3525 -1.5166
13257SOL     OW51424   7.855   9.575   4.732 -0.0626 -0.2672  0.0968
13257SOL    HW151425   7.831   9.498   4.673 -0.1611  0.8697 -1.3951
13257SOL    HW251426   7.954   9.587   4.732 -0.1081  0.1704 -0.4430
13258SOL     OW51427   3.188   5.171   3.225 -0.1541  0.7874  0.7707
13258SOL    HW151428   3.142   5.084   3.244 -0.3596  0.9173  0.8656
13258SOL    HW251429   3.242   5.199   3.304  2.1109 -0.6275 -0.2279
13259SOL     OW51430   7.274   1.606   0.322 -0.2981 -0.7373  0.1708
13259SOL    HW151431   7.264   1.701   0.290  0.9225 -0.4750  0.5469
13259SOL    HW251432   7.201   1.585   0.386  0.2747  0.4417  1.2237
13260SOL     OW51433   7.050   3.919   2.738  0.1171  0.0038 -0.2762
13260SOL    HW151434   7.044   3.819   2.742  0.2660  0.0380  0.7997
13260SOL    HW251435   6.967   3.955   2.695  0.1088 -0.5859 -0.7624
13261SOL     OW51436   2.194   0.783   4.290  0.0354  0.0182 -0.0585
13261SOL    HW151437   2.210   0.881   4.302  1.3620 -0.4266  1.9834
13261SOL    HW251438   2.099   0.761   4.313 -0.3903  0.8600 -0.9411
13262SOL     OW51439   6.302   4.638   2.826 -0.0930 -0.2907  0.1606
13262SOL    HW151440   6.340   4.545   2.828  1.3295  0.2980  1.5532
13262SOL    HW251441   6.244   4.652   2.906 -0.4258 -0.0048 -0.1245
13263SOL     OW51442   1.615   1.765   0.991  0.7593 -0.0029  0.2723
13263SOL    HW151443   1.591   1.851   0.946 -1.3844 -0.5926  0.2335
13263SOL    HW251444   1.676   1.712   0.932  0.3337  0.5249 -0.6517
13264SOL     OW51445   7.896   2.659   0.868 -0.0113 -0.1704  0.1347
13264SOL    HW151446   7.799   2.657   0.893  0.2381 -1.3962  1.0010
13264SOL    HW251447   7.952   2.657   0.951  0.7733 -0.1192 -0.3915
13265SOL     OW51448   2.082   2.313   8.056 -0.0052 -0.0693 -0.0258
13265SOL    HW151449   2.102   2.288   8.151  0.4208  2.3075  0.5356
13265SOL    HW251450   2.166   2.337   8.009 -0.5121  1.4435 -0.1879
13266SOL     OW51451   6.850   0.945   4.247 -0.0191  0.2122  0.4565
13266SOL    HW151452   6.871   1.037   4.282 -0.5417  0.7054 -0.4846
13266SOL    HW251453   6.782   0.953   4.174  1.1594 -0.7506 -0.7758
13267SOL     OW51454   5.780   9.682   6.119  0.1326  0.1499  0.1349
13267SOL    HW151455   5.752   9.697   6.024  0.5380  0.5422  0.0749
13267SOL    HW251456   5.709   9.715   6.181 -0.8191 -1.5030 -0.0383
13268SOL     OW51457   2.136   1.373   6.046  0.1836  0.0479  0.4946
13268SOL    HW151458   2.164   1.323   6.128  1.0581  0.1525  0.2618
13268SOL    HW251459   2.163   1.321   5.964 -2.1489 -0.8634  0.2710
13269SOL     OW51460   8.537   0.973   3.146 -0.0587  0.2998 -0.2321
13269SOL    HW151461   8.501   0.977   3.240 -1.6207  2.3244 -0.8652
13269SOL    HW251462   8.480   0.910   3.092  0.4591 -0.3863  0.0159
13270SOL     OW51463   9.314   0.591   3.527 -0.1629  0.2467 -0.3589
13270SOL    HW151464   9.350   0.684   3.523 -2.1240  1.0680  0.5410
13270SOL    HW251465   9.229   0.590   3.579 -0.5470 -1.9344 -0.9738
13271SOL     OW51466   3.718   6.058   3.701 -0.1488  0.2752  0.3308
13271SOL    HW151467   3.649   5.986   3.688  0.8470 -0.5727 -0.3594
13271SOL    HW251468   3.672   6.144   3.725 -1.5089 -0.0622 -0.9599
13272SOL     OW51469   8.804   6.902   4.426 -0.4522  0.5482  0.2410
13272SOL    HW151470   8.805   6.876   4.330  1.3320  0.0021  0.3939
13272SOL    HW251471   8.760   6.991   4.436 -2.3268 -0.2115 -0.8415
13273SOL     OW51472   0.927   4.580   0.188 -0.2259  0.4887 -0.3098
13273SOL    HW151473   0.917   4.596   0.090  0.7529 -1.8240 -0.8133
13273SOL    HW251474   1.015   4.535   0.207 -1.7463 -1.9790  1.2351
13274SOL     OW51475   5.640   1.404   0.807  0.3454  0.1283 -0.4857
13274SOL    HW151476   5.547   1.372   0.788  0.0606  0.3486  0.4797
13274SOL    HW251477   5.638   1.464   0.887  1.6383 -1.6165  0.8881
13275SOL     OW51478   9.897   7.804   7.249  0.5441  0.4959 -0.0118
13275SOL    HW151479   9.928   7.798   7.344  0.9147 -0.4956 -0.1847
13275SOL    HW251480   9.859   7.895   7.232  1.0275  0.8832  0.9157
13276SOL     OW51481   8.648   6.619   3.439 -0.6140 -0.0529 -0.1157
13276SOL    HW151482   8.577   6.549   3.452 -1.1433  0.5574  0.3737
13276SOL    HW251483   8.652   6.678   3.520  1.6017 -1.0783  0.5492
13277SOL     OW51484   3.704   6.291   1.775  0.1453 -1.1473  0.6877
13277SOL    HW151485   3.793   6.244   1.780 -0.0715 -1.5134  1.1383
13277SOL    HW251486   3.648   6.248   1.705 -0.2402 -1.8928  1.4390
13278SOL     OW51487   8.636   3.173   7.039 -0.2988 -0.1306 -0.6080
13278SOL    HW151488   8.692   3.147   6.961 -0.2432  0.4669 -0.7751
13278SOL    HW251489   8.639   3.273   7.050  1.9312 -0.4266  1.8535
13279SOL     OW51490   2.206   3.888   5.800 -0.4826  0.0148 -0.2841
13279SOL    HW151491   2.284   3.837   5.838 -1.6383 -1.0212  0.7753
13279SOL    HW251492   2.238   3.975   5.763  1.4795 -1.2505 -1.6693
13280SOL     OW51493   6.852   9.928   1.445  0.6126  0.4664 -0.3919
13280SOL    HW151494   6.905   9.919   1.360  1.3517 -1.9032  0.2779
13280SOL    HW251495   6.886   9.862   1.512 -1.7945  0.3753  0.7927
13281SOL     OW51496   9.257   0.216   0.393  0.1859 -0.4600  0.4242
13281SOL    HW151497   9.267   0.157   0.313  1.0017  0.4004 -0.1095
13281SOL    HW251498   9.200   0.169   0.461  1.0644 -2.0009  0.1356
13282SOL     OW51499   1.911   4.936   5.435  0.3694  0.1326  0.1032
13282SOL    HW151500   1.931   4.943   5.337 -2.1473  0.5922 -0.4100
13282SOL    HW251501   1.920   4.841   5.465  1.8686  0.1080 -0.3886
13283SOL     OW51502   9.425   7.892   1.059  0.4785 -0.4396 -0.3837
13283SOL    HW151503   9.439   7.835   1.140  1.6174  0.2083 -0.1202
13283SOL    HW251504   9.492   7.867   0.989  0.7196  0.3036 -0.4151
13284SOL     OW51505   8.708   9.583   3.875 -0.3314  0.4121 -0.8844
13284SOL    HW151506   8.673   9.513   3.938  0.2675  0.1078 -0.8863
13284SOL    HW251507   8.776   9.639   3.923 -1.5207  1.6278 -0.5813
13285SOL     OW51508   4.593   1.127   4.196 -0.3098  0.2032 -0.0601
13285SOL    HW151509   4.528   1.203   4.189  1.0185  1.4764  1.0062
13285SOL    HW251510   4.551   1.051   4.245 -0.7878  1.2728  1.2357
13286SOL     OW51511   2.126   2.866   5.563  0.1714 -0.4656  1.0386
13286SOL    HW151512   2.209   2.813   5.549  0.2440  0.0065 -0.4008
13286SOL    HW251513   2.143   2.962   5.540 -1.2386 -0.6754 -1.0626
13287SOL     OW51514   1.359   1.897   0.767 -0.0944 -0.1627 -0.1437
13287SOL    HW151515   1.344   1.986   0.811 -1.8613 -0.1132 -0.8205
13287SOL    HW251516   1.304   1.827   0.812 -1.3743 -0.2480 -1.7898
13288SOL     OW51517   8.306   3.835   0.503 -0.5842  0.7657  0.2432
13288SOL    HW151518   8.242   3.800   0.571 -0.5223 -1.4130 -0.7823
13288SOL    HW251519   8.397   3.798   0.520 -0.6327 -0.0623 -1.2082
13289SOL     OW51520   1.788   2.797   0.605 -0.2292 -0.1648  0.2982
13289SOL    HW151521   1.859   2.728   0.611 -0.7146 -0.7912 -0.9818
13289SOL    HW251522   1.721   2.783   0.679  0.5176 -0.0802  0.9926
13290SOL     OW51523   1.985   5.099   2.230  0.1760  0.1709  0.2828
13290SOL    HW151524   1.996   5.034   2.305 -0.8311  1.0226  1.1861
13290SOL    HW251525   1.927   5.059   2.159  0.2963 -0.2483  0.4224
13291SOL     OW51526   0.782   8.033   5.959  0.1124 -0.4574  0.0626
13291SOL    HW151527   0.862   8.086   5.988 -0.2197 -0.2993  0.6907
13291SOL    HW251528   0.811   7.941   5.932  0.8125  0.3187 -1.8839
13292SOL     OW51529   4.289   7.698   5.762  0.4213  0.1721 -0.5497
13292SOL    HW151530   4.205   7.750   5.747 -0.9080 -1.5474  0.7369
13292SOL    HW251531   4.319   7.658   5.676  0.1066  1.0480 -1.0749
13293SOL     OW51532   5.664   9.345   5.985 -0.1266  0.4525  0.4888
13293SOL    HW151533   5.594   9.387   5.926 -0.8709  0.9433  1.6899
13293SOL    HW251534   5.754   9.367   5.949 -0.5468  1.7046  0.1504
13294SOL     OW51535   3.535   0.969   6.786  0.7036  0.0965  0.2411
13294SOL    HW151536   3.507   0.878   6.816  1.7072 -0.2612  0.0882
13294SOL    HW251537   3.454   1.020   6.755  0.2202 -0.9421 -0.2328
13295SOL     OW51538   0.255   9.894   2.485  0.2328 -0.5551 -0.0839
13295SOL    HW151539   0.355   9.898   2.495  0.1224 -0.5804  0.9876
13295SOL    HW251540   0.230   9.932   2.395  1.0771  1.0371  0.3283
13296SOL     OW51541   8.459   0.874   3.387  0.2266 -0.3357  0.6131
13296SOL    HW151542   8.490   0.856   3.480  1.3772 -2.0717 -0.0837
13296SOL    HW251543   8.458   0.789   3.334  0.6703  0.7874 -1.2778
13297SOL     OW51544   1.668   1.509   2.731  0.2668  0.0273 -0.1144
13297SOL    HW151545   1.687   1.595   2.684  0.5734  0.5455  0.9405
13297SOL    HW251546   1.731   1.439   2.699  0.8449  0.5213 -0.0541
13298SOL     OW51547   7.222   3.359   3.886 -0.0996 -0.3841  0.4074
13298SOL    HW151548   7.127   3.387   3.902 -0.2320 -1.0421  0.8245
13298SOL    HW251549   7.264   3.333   3.973 -0.4872 -3.0228 -0.1509
13299SOL     OW51550   2.689   7.929   1.654 -0.5434  0.7510 -0.4610
13299SOL    HW151551   2.776   7.882   1.639 -0.9674 -0.2304  0.0732
13299SOL    HW251552   2.699   7.993   1.730 -0.4498  0.1459  0.0494
13300SOL     OW51553   8.641   9.448   0.598  0.0870  0.3353  0.3173
13300SOL    HW151554   8.700   9.420   0.522 -0.6295  0.7520 -0.4059
13300SOL    HW251555   8.660   9.390   0.678  0.8345 -0.1212 -0.1772
13301SOL     OW51556   5.098   9.590   1.338 -0.7803 -0.3674  0.7970
13301SOL    HW151557   5.046   9.543   1.409  1.3466 -3.0023  0.6962
13301SOL    HW251558   5.092   9.539   1.252  0.8314  0.0011  0.4429
13302SOL     OW51559   7.575   1.863   3.793 -0.3572 -0.1293 -0.1532
13302SOL    HW151560   7.669   1.832   3.801 -0.3844 -0.2008 -0.0997
13302SOL    HW251561   7.513   1.791   3.826 -0.3428  0.7038  1.7870
13303SOL     OW51562   9.028   4.060   5.677  0.1679 -0.3353  0.0904
13303SOL    HW151563   9.126   4.079   5.668  0.0677  0.3650  0.4120
13303SOL    HW251564   8.978   4.102   5.601  0.2726 -1.9828 -0.9116
13304SOL     OW51565   8.447   7.626   4.894  0.0401 -0.0884 -0.0339
13304SOL    HW151566   8.525   7.571   4.926 -0.8324 -1.6239 -0.5218
13304SOL    HW251567   8.420   7.690   4.966 -0.9782 -2.5174  1.8032
13305SOL     OW51568   8.245   9.984   2.302  0.1974 -0.3172 -0.4626
13305SOL    HW151569   8.188  10.042   2.243  0.3915  0.0950 -0.2506
13305SOL    HW251570   8.223   9.888   2.286  0.0465 -0.1964 -1.0015
13306SOL     OW51571   2.791   7.920   2.047  0.0374  0.2868 -0.6926
13306SOL    HW151572   2.865   7.986   2.065 -2.1242  2.5182  0.2513
13306SOL    HW251573   2.725   7.961   1.984 -1.3004 -0.9976 -0.1489
13307SOL     OW51574   0.116   0.455   6.394  0.2707  0.1520  0.6837
13307SOL    HW151575   0.058   0.472   6.314 -1.7464  1.3393  2.3511
13307SOL    HW251576   0.161   0.540   6.421  1.9174 -0.5144  0.1043
13308SOL     OW51577   7.308   7.274   1.731 -0.3501 -0.1989 -0.2133
13308SOL    HW151578   7.349   7.307   1.646 -0.4946  0.2815 -0.0981
13308SOL    HW251579   7.348   7.186   1.756  0.2368  0.0184 -0.3797
13309SOL     OW51580   1.921   5.604   5.692 -0.3659 -0.1141 -0.0901
13309SOL    HW151581   1.881   5.661   5.764 -2.4590 -0.8684 -0.6219
13309SOL    HW251582   2.012   5.639   5.669 -0.9742  2.0703  0.6748
13310SOL     OW51583   0.210   8.143   1.665 -0.7071 -0.4329 -0.5980
13310SOL    HW151584   0.308   8.152   1.680 -0.7366 -0.9067 -0.1236
13310SOL    HW251585   0.167   8.233   1.670 -0.1858 -0.1097 -1.6472
13311SOL     OW51586   7.911   6.002   6.689  0.2148  0.0592 -0.2219
13311SOL    HW151587   7.902   5.944   6.608 -2.1293 -0.0556  0.0943
13311SOL    HW251588   8.001   5.987   6.730  0.4329 -1.8259 -1.3062
13312SOL     OW51589   8.568   8.615   3.629  0.5509 -0.4193 -0.0888
13312SOL    HW151590   8.595   8.706   3.660  0.8620  0.0921 -1.8200
13312SOL    HW251591   8.541   8.559   3.708 -1.4326  1.7466  0.8335
13313SOL     OW51592   8.431   1.828   3.383  0.0932  1.0411 -1.0544
13313SOL    HW151593   8.384   1.740   3.392 -0.0484  1.2377  0.3068
13313SOL    HW251594   8.366   1.902   3.395  0.8637  1.3160  1.8838
13314SOL     OW51595   7.154   1.754   0.759 -0.2671  0.0776 -0.6113
13314SOL    HW151596   7.196   1.707   0.836 -1.5489 -0.8656 -0.4677
13314SOL    HW251597   7.175   1.852   0.763 -0.0466 -0.0240  0.7393
13315SOL     OW51598   0.171   1.224   3.085 -0.4531 -0.0304  0.4118
13315SOL    HW151599   0.241   1.294   3.097 -0.1988  0.2027 -2.0868
13315SOL    HW251600   0.161   1.171   3.170  0.0730  2.3378  1.9888
13316SOL     OW51601   2.485   4.393   4.192  0.1840  0.0678 -0.0595
13316SOL    HW151602   2.476   4.309   4.138  1.2460 -1.0201  1.4424
13316SOL    HW251603   2.439   4.468   4.144 -0.8869 -1.3870 -1.3579
13317SOL     OW51604   4.984   8.358   6.694  0.1065  0.1689  0.2510
13317SOL    HW151605   4.914   8.410   6.646  0.0617 -0.6574 -0.5931
13317SOL    HW251606   4.945   8.321   6.779 -0.1633  0.6293  0.3294
13318SOL     OW51607   3.714   7.160   6.532 -0.2783  0.2912  0.0462
13318SOL    HW151608   3.649   7.218   6.483 -0.6647  1.1527  1.5713
13318SOL    HW251609   3.792   7.215   6.561  0.5620 -0.4870 -0.7013
13319SOL     OW51610   3.771   8.614   3.702  0.3070  0.2172  0.4431
13319SOL    HW151611   3.683   8.609   3.750 -0.4563  1.2314 -0.8047
13319SOL    HW251612   3.755   8.642   3.607  1.9159 -0.3963 -0.0126
13320SOL     OW51613   9.710   1.591   1.084 -0.1163  0.0152 -0.1085
13320SOL    HW151614   9.721   1.673   1.141  0.7939  0.1335 -0.4466
13320SOL    HW251615   9.625   1.598   1.032 -0.3509  0.4606  0.3287
13321SOL     OW51616   7.141   7.111   5.771  0.4677  0.2564  0.5302
13321SOL    HW151617   7.194   7.038   5.729  2.1455  1.0565  1.2020
13321SOL    HW251618   7.044   7.087   5.770  0.6163 -0.4300 -2.3578
13322SOL     OW51619   9.895   3.099   4.407  0.0247  0.1524 -0.0852
13322SOL    HW151620   9.989   3.070   4.423  0.5238  1.0096 -1.3333
13322SOL    HW251621   9.858   3.142   4.490  1.8424  2.6900 -0.5298
13323SOL     OW51622   9.486   0.070   1.238 -0.5291 -0.4498  0.1247
13323SOL    HW151623   9.527   0.160   1.253 -1.0937  0.3407 -2.9086
13323SOL    HW251624   9.403   0.062   1.293 -1.1820  1.3935 -0.5552
13324SOL     OW51625   5.000   9.160   2.002 -0.4310 -0.0679 -0.3066
13324SOL    HW151626   5.080   9.193   1.951 -0.5499  1.6940  0.6173
13324SOL    HW251627   5.025   9.148   2.098 -0.9202 -0.8896 -0.2721
13325SOL     OW51628   5.850   3.069   2.455  0.2057  0.2180 -0.0431
13325SOL    HW151629   5.836   3.066   2.357  0.2085  2.1422 -0.1331
13325SOL    HW251630   5.786   3.008   2.501  0.3633 -0.8651 -1.2380
13326SOL     OW51631   9.781   1.627   2.076  0.2864 -0.0101  0.3176
13326SOL    HW151632   9.716   1.551   2.082  0.0476  0.2477  0.9612
13326SOL    HW251633   9.740   1.710   2.113  0.3964  0.5439 -0.7533
13327SOL     OW51634   8.357   7.965   5.383  0.1296 -0.3690  0.1268
13327SOL    HW151635   8.406   7.957   5.470 -3.7767 -0.0554  2.4843
13327SOL    HW251636   8.357   8.060   5.352  0.8538 -0.3508  0.1829
13328SOL     OW51637   1.256   7.821   7.873  0.0469  0.2954  0.3494
13328SOL    HW151638   1.278   7.816   7.775  0.1870 -1.7095  0.4628
13328SOL    HW251639   1.305   7.749   7.922  0.8690  1.9855  2.0970
13329SOL     OW51640   5.512   6.663   1.743  0.2485 -0.2780 -0.0097
13329SOL    HW151641   5.447   6.622   1.807 -1.2073 -1.6199 -2.2970
13329SOL    HW251642   5.476   6.749   1.709  0.8772  0.2723  0.6880
13330SOL     OW51643   4.873   8.046   3.757 -0.5777  0.4030  0.1189
13330SOL    HW151644   4.824   8.029   3.843 -1.0905 -0.9549 -0.4289
13330SOL    HW251645   4.835   7.988   3.685  1.1504  0.0908 -0.5706
13331SOL     OW51646   5.490   7.381   2.691  0.1040  0.0585 -0.7182
13331SOL    HW151647   5.398   7.350   2.665  0.1359 -0.5691 -0.1027
13331SOL    HW251648   5.526   7.442   2.621 -0.6822  0.1022 -1.0897
13332SOL     OW51649   7.365   2.158   5.030  0.2034  0.0656  0.7131
13332SOL    HW151650   7.458   2.129   5.053  1.1558  3.2732  1.1625
13332SOL    HW251651   7.321   2.196   5.111 -0.5984  0.8384 -0.0735
13333SOL     OW51652   8.293   5.379   6.483  0.4081 -0.1751 -0.0385
13333SOL    HW151653   8.281   5.368   6.582  1.5916  0.4578  0.1944
13333SOL    HW251654   8.218   5.432   6.446 -1.0127 -1.9594  0.2085
13334SOL     OW51655   0.552   6.258   1.932 -0.3405  0.2275 -0.2053
13334SOL    HW151656   0.503   6.296   1.854 -0.3482  1.7467  0.5292
13334SOL    HW251657   0.495   6.265   2.014  1.5554  3.2008  0.9248
13335SOL     OW51658   9.579   2.286   0.544 -0.2621  0.2155 -0.0919
13335SOL    HW151659   9.523   2.205   0.561  0.1746 -0.1404 -0.3652
13335SOL    HW251660   9.553   2.327   0.456  1.7111 -1.4544 -1.4859
13336SOL     OW51661   2.916   8.992   5.412  0.4804 -0.3848  0.5099
13336SOL    HW151662   2.906   8.963   5.508  1.9378 -0.0458  0.7814
13336SOL    HW251663   2.945   8.915   5.356  1.6817 -0.1047  0.7337
13337SOL     OW51664   1.758   8.632   2.957 -0.0774 -0.4315 -0.3539
13337SOL    HW151665   1.752   8.536   2.983  0.4485 -0.2711  0.3630
13337SOL    HW251666   1.794   8.686   3.033 -2.1651  0.6431 -0.0734
13338SOL     OW51667   1.265   2.249   2.309 -0.2889  0.3340 -0.0528
13338SOL    HW151668   1.317   2.275   2.390  0.0038 -1.8304  0.5057
13338SOL    HW251669   1.175   2.215   2.338  0.0431 -1.0079 -0.5737
13339SOL     OW51670   4.517   9.552   4.385 -0.4481 -0.0370  0.4965
13339SOL    HW151671   4.598   9.604   4.410  1.1099 -2.3229  0.3350
13339SOL    HW251672   4.518   9.535   4.287 -2.3733  1.9185  0.0861
13340SOL     OW51673   8.755   1.384   1.037 -0.2268 -0.9079  0.6047
13340SOL    HW151674   8.791   1.350   1.124  0.2404 -0.8630  0.4344
13340SOL    HW251675   8.674   1.440   1.054  0.1553 -0.4831  1.0551
13341SOL     OW51676   9.356   1.721   5.012 -0.5109  0.4111  0.7656
13341SOL    HW151677   9.418   1.645   5.033  0.1449  1.3761  2.3889
13341SOL    HW251678   9.372   1.752   4.919  0.8370  0.0613  0.8645
13342SOL     OW51679   0.554   5.198   7.127  0.3997  0.0419 -0.9836
13342SOL    HW151680   0.620   5.189   7.053  1.0243  0.9559 -0.5500
13342SOL    HW251681   0.574   5.130   7.198  1.7800  1.2444 -0.1902
13343SOL     OW51682   0.150   0.811   2.749  0.1884  0.5954 -0.1078
13343SOL    HW151683   0.168   0.902   2.785  0.0742  0.2566  0.8299
13343SOL    HW251684   0.086   0.763   2.809 -2.1889  1.0062 -2.2422
13344SOL     OW51685   1.234   9.695   6.418  0.1826  0.2229  0.2698
13344SOL    HW151686   1.300   9.768   6.435  0.4624 -0.1681  0.8819
13344SOL    HW251687   1.283   9.613   6.387 -0.1591  0.3937 -0.7213
13345SOL     OW51688   7.449   1.702   6.895  0.3241 -0.4116  0.8263
13345SOL    HW151689   7.410   1.793   6.880 -0.2494 -0.8846 -0.7144
13345SOL    HW251690   7.375   1.637   6.914  0.5415 -0.9166 -0.0315
13346SOL     OW51691   1.912   0.355   4.602  0.0451 -0.5121 -0.5136
13346SOL    HW151692   1.822   0.371   4.562 -0.0517 -1.5018 -0.7037
13346SOL    HW251693   1.905   0.287   4.675  0.8111 -1.4288 -1.2788
13347SOL     OW51694   2.688   4.687   0.498 -0.1811 -0.1433  0.3027
13347SOL    HW151695   2.673   4.588   0.499 -1.0445 -0.0179  1.8018
13347SOL    HW251696   2.754   4.710   0.427 -1.6108 -1.5502 -1.5190
13348SOL     OW51697   3.782   5.742   3.907  0.5442  0.4173  0.2307
13348SOL    HW151698   3.817   5.657   3.947 -0.3729 -0.2788 -0.4003
13348SOL    HW251699   3.856   5.790   3.859  0.5492 -1.2882 -1.5295
13349SOL     OW51700   3.794   2.650   2.372  0.0266  0.3454 -0.3244
13349SOL    HW151701   3.815   2.643   2.275 -0.3817 -1.3137 -0.3102
13349SOL    HW251702   3.699   2.678   2.384 -0.4263 -1.0853 -0.4311
13350SOL     OW51703   8.196   2.927   4.774  0.3970 -0.3945  0.3207
13350SOL    HW151704   8.137   2.937   4.693  1.5943  2.7015 -0.2466
13350SOL    HW251705   8.291   2.917   4.744  0.7735  0.1208  1.3154
13351SOL     OW51706   9.432   9.060   0.856  0.2078 -0.6091 -0.0848
13351SOL    HW151707   9.460   8.990   0.922  2.5760  0.4032  0.0529
13351SOL    HW251708   9.391   9.137   0.904  0.9664 -0.3311  0.1291
13352SOL     OW51709   5.443   0.033   2.329  0.2968  0.5322  0.0529
13352SOL    HW151710   5.520  -0.022   2.360  1.4698  1.5191 -1.0225
13352SOL    HW251711   5.444   0.038   2.229  0.4805  2.8406  0.1369
13353SOL     OW51712   3.413   4.760   3.398  0.4174  0.3840  0.0026
13353SOL    HW151713   3.395   4.847   3.351 -2.7010 -1.0661 -1.6810
13353SOL    HW251714   3.389   4.685   3.337 -0.1961 -1.6216  2.6363
13354SOL     OW51715   8.250   5.538   2.046  0.2726 -0.3284  0.3984
13354SOL    HW151716   8.312   5.463   2.069  1.0173  0.0340 -0.4226
13354SOL    HW251717   8.237   5.542   1.947  0.5862  0.9097  0.4032
13355SOL     OW51718   6.158   8.846   4.226  0.9073 -0.0290 -0.6128
13355SOL    HW151719   6.107   8.878   4.306  3.0447  1.9978  0.0118
13355SOL    HW251720   6.098   8.843   4.147 -0.0282  3.3327 -0.1405
13356SOL     OW51721   8.228   7.224   6.411  0.5997 -0.1261  0.1651
13356SOL    HW151722   8.174   7.280   6.474 -0.4688 -0.3509 -0.5397
13356SOL    HW251723   8.210   7.254   6.317 -0.2630 -1.8808 -0.2424
13357SOL     OW51724   5.472   9.235   2.609 -0.3964 -0.2782  0.0704
13357SOL    HW151725   5.411   9.173   2.659  0.0580 -3.4073 -3.0245
13357SOL    HW251726   5.567   9.209   2.626 -0.0960  1.0705  0.5339
13358SOL     OW51727   2.601   4.351   7.641  0.5544  0.2257 -0.5354
13358SOL    HW151728   2.566   4.412   7.570  1.3491  0.1770 -0.9752
13358SOL    HW251729   2.531   4.285   7.666  0.0754  0.6070 -0.8631
13359SOL     OW51730   4.865   9.917   2.183 -0.2267  0.0758  0.0048
13359SOL    HW151731   4.905  10.005   2.156 -3.1831  1.3504 -0.4221
13359SOL    HW251732   4.871   9.907   2.282  0.9124  0.3402 -0.0256
13360SOL     OW51733   8.275   6.303   4.648 -0.1224  0.0875  0.5416
13360SOL    HW151734   8.176   6.317   4.657  0.0855  0.9998  1.5892
13360SOL    HW251735   8.296   6.206   4.656 -0.9168 -0.0899  0.5175
13361SOL     OW51736   8.653   2.057   3.405 -0.0280  0.3082 -0.4803
13361SOL    HW151737   8.595   2.041   3.325 -1.6360 -1.8014  1.0318
13361SOL    HW251738   8.600   2.038   3.488  2.6138 -0.8833  0.9842
13362SOL     OW51739   8.095   8.059   7.372  0.9982 -0.6550 -0.8095
13362SOL    HW151740   8.162   8.129   7.398  1.2611 -0.8956 -0.8405
13362SOL    HW251741   8.010   8.103   7.344  0.8678 -0.3723  0.0188
13363SOL     OW51742   2.898   2.783   5.782  0.2256 -0.3795  0.5177
13363SOL    HW151743   2.803   2.798   5.809 -0.2339 -0.0158 -1.2397
13363SOL    HW251744   2.902   2.714   5.710  0.9888  1.6979 -1.4906
13364SOL     OW51745   1.506   7.764   2.777 -0.6085  0.1836  0.4811
13364SOL    HW151746   1.441   7.835   2.804 -1.0625 -0.1350  0.2550
13364SOL    HW251747   1.564   7.740   2.854  0.1451  1.4313  0.3044
13365SOL     OW51748   2.060   8.855   6.401  0.0667  0.1857  0.2230
13365SOL    HW151749   2.153   8.891   6.400  0.6290 -1.2415  0.1338
13365SOL    HW251750   2.062   8.757   6.378 -1.5664  0.4134 -0.9635
13366SOL     OW51751   6.685   1.919   0.712 -0.3641 -0.4189  0.6205
13366SOL    HW151752   6.726   1.903   0.623  2.7616 -0.4868  2.0070
13366SOL    HW251753   6.687   1.835   0.766 -0.4306  0.1067  1.4531
13367SOL     OW51754   6.338   0.765   2.498 -0.4904  0.3379 -0.4133
13367SOL    HW151755   6.291   0.742   2.413 -1.5212 -0.8247  0.4436
13367SOL    HW251756   6.373   0.681   2.540  1.0715  1.0390 -0.2952
13368SOL     OW51757   2.785   7.195   2.229 -0.2855  0.3528  0.6406
13368SOL    HW151758   2.776   7.096   2.240 -3.4613  0.3026 -1.7429
13368SOL    HW251759   2.767   7.240   2.317 -3.2028 -1.0175  0.8068
13369SOL     OW51760   3.922   9.157   1.337 -0.3962 -0.0646  0.3741
13369SOL    HW151761   3.955   9.250   1.349 -1.5356  0.3986  0.0294
13369SOL    HW251762   3.999   9.094   1.330  0.3743  0.7921  1.0629
13370SOL     OW51763   8.429   7.875   3.619  0.5976  0.7155 -0.0324
13370SOL    HW151764   8.478   7.787   3.619 -2.7016 -1.2353  1.0117
13370SOL    HW251765   8.456   7.929   3.698 -0.9169 -1.5293  2.0708
13371SOL     OW51766   3.415   3.665   5.267  0.2864 -0.1884  0.2695
13371SOL    HW151767   3.341   3.664   5.201  0.3819 -1.6206  0.1583
13371SOL    HW251768   3.484   3.731   5.239 -0.2569  0.0966 -0.4053
13372SOL     OW51769   6.645   6.221   1.551  0.4125  0.1034 -0.5871
13372SOL    HW151770   6.739   6.241   1.580  0.8400 -3.2613  0.5959
13372SOL    HW251771   6.647   6.168   1.466 -0.5109  1.3552 -1.4075
13373SOL     OW51772   8.045   2.238   0.247 -0.0472 -0.0389 -0.4526
13373SOL    HW151773   8.065   2.307   0.317 -0.6433 -0.9813  0.6543
13373SOL    HW251774   8.101   2.157   0.263 -0.3877 -0.3719 -0.9164
13374SOL     OW51775   4.168   5.946   2.902  0.2327 -0.0685 -0.5888
13374SOL    HW151776   4.077   5.952   2.942 -0.9460  0.5272 -3.2770
13374SOL    HW251777   4.179   6.016   2.831  2.4191 -0.7810 -1.0056
13375SOL     OW51778   2.832   4.430   5.098 -0.2096 -0.0488  0.0792
13375SOL    HW151779   2.885   4.508   5.064 -1.0365  0.7154  0.4932
13375SOL    HW251780   2.773   4.396   5.025 -1.1048  0.8276  0.3666
13376SOL     OW51781   5.412   3.296   0.514  0.3463  0.0508  0.0893
13376SOL    HW151782   5.359   3.295   0.599  1.6644 -0.1850  0.9308
13376SOL    HW251783   5.353   3.321   0.438 -0.7937  0.5464  1.1213
13377SOL     OW51784   4.074   2.818   2.057  0.4808 -0.4564  0.5529
13377SOL    HW151785   4.104   2.781   2.145  3.7599  0.5169 -0.0931
13377SOL    HW251786   4.078   2.918   2.059 -0.9635 -0.3674 -0.2093
13378SOL     OW51787   9.544   0.807   3.094  0.3025  0.0545  0.5870
13378SOL    HW151788   9.473   0.849   3.152  1.5005  2.4775  0.3878
13378SOL    HW251789   9.527   0.831   2.999  2.1395  1.8936  0.6744
13379SOL     OW51790   8.844   4.644   5.755 -0.1054  0.0673  0.0391
13379SOL    HW151791   8.752   4.622   5.788 -0.3035  1.9724  0.8198
13379SOL    HW251792   8.842   4.651   5.655 -0.9649  0.6942  0.0886
13380SOL     OW51793   9.662   9.789   0.187 -0.4276 -0.2620  0.0037
13380SOL    HW151794   9.627   9.786   0.280 -0.0819  2.4914  0.2549
13380SOL    HW251795   9.747   9.842   0.184  0.4070 -1.6293 -1.6232
13381SOL     OW51796   3.876   5.894   2.547 -0.2272 -0.3548 -0.0813
13381SOL    HW151797   3.911   5.950   2.621 -2.1442  0.3068  0.3592
13381SOL    HW251798   3.887   5.941   2.460  2.1304 -1.1807 -0.2608
13382SOL     OW51799   9.917   6.977   1.416  0.0103 -0.4320 -0.4511
13382SOL    HW151800   9.937   7.015   1.326  0.7944  0.7360  0.1982
13382SOL    HW251801  10.003   6.947   1.459 -0.1382  0.6543  0.6237
13383SOL     OW51802   7.764   8.503   4.056  0.8920 -0.0239  0.1201
13383SOL    HW151803   7.720   8.414   4.044  1.1402 -0.0235 -0.8451
13383SOL    HW251804   7.823   8.500   4.137  0.0015 -0.3723  0.7591
13384SOL     OW51805   3.037   0.624   2.389  0.1822 -0.0254 -0.0882
13384SOL    HW151806   3.014   0.698   2.325 -2.4454 -0.1628  0.6342
13384SOL    HW251807   3.051   0.663   2.480 -0.4656 -0.3243  0.1395
13385SOL     OW51808   3.364   6.901   6.685 -0.1871 -0.2323 -0.3256
13385SOL    HW151809   3.385   6.911   6.587  1.3460  0.8485  0.0878
13385SOL    HW251810   3.427   6.957   6.738 -0.0374 -1.9586  1.3825
13386SOL     OW51811   7.386   9.269   1.852  0.7302  0.0272  0.0265
13386SOL    HW151812   7.431   9.246   1.766 -1.0986  1.7708 -1.4507
13386SOL    HW251813   7.418   9.208   1.924  3.3493 -0.5434 -1.5629
13387SOL     OW51814   5.124   3.386   6.336  0.8764 -0.7057  0.3177
13387SOL    HW151815   5.191   3.405   6.265 -0.1254 -0.6726 -0.6340
13387SOL    HW251816   5.057   3.461   6.339  1.1229 -0.5312  1.5372
13388SOL     OW51817   8.133   6.196   2.762 -0.5289 -0.2349  0.2658
13388SOL    HW151818   8.047   6.219   2.808 -0.6522  0.9766 -0.5757
13388SOL    HW251819   8.176   6.119   2.810 -1.8138 -0.5133  1.0042
13389SOL     OW51820   2.648   6.263   4.380  0.2862 -0.1562 -0.3921
13389SOL    HW151821   2.676   6.224   4.468  0.5528  1.4466  0.2460
13389SOL    HW251822   2.551   6.286   4.383  0.4309  0.4584 -0.2960
13390SOL     OW51823   8.466   6.817   1.827  0.1286  0.0378  0.4205
13390SOL    HW151824   8.412   6.734   1.808  1.0777 -0.6650  0.7804
13390SOL    HW251825   8.453   6.845   1.922 -0.3318  0.4105  0.2507
13391SOL     OW51826   9.358   0.850   4.947 -0.4763 -0.2016 -0.3182
13391SOL    HW151827   9.384   0.783   4.878  3.0567  1.4932 -0.7506
13391SOL    HW251828   9.386   0.817   5.037  0.7628  0.4479 -0.4657
13392SOL     OW51829   2.393   2.741   3.115  0.2256  0.0537  0.0162
13392SOL    HW151830   2.323   2.723   3.046 -0.3346  1.3430  0.2439
13392SOL    HW251831   2.356   2.800   3.186  1.3567  0.2327  0.4652
13393SOL     OW51832   6.436   8.656   7.818  0.4010  0.2856 -0.1631
13393SOL    HW151833   6.349   8.629   7.860  1.9199 -0.9001  2.3467
13393SOL    HW251834   6.427   8.748   7.780 -1.4779  0.8847  1.5856
13394SOL     OW51835   9.532   9.435   4.345 -0.0889  0.4309 -0.7901
13394SOL    HW151836   9.625   9.450   4.311  0.2933  1.8336  0.8294
13394SOL    HW251837   9.536   9.391   4.434 -0.9399  1.8127 -0.0623
13395SOL     OW51838   2.991   6.763   6.774 -0.2616  0.4549 -0.3314
13395SOL    HW151839   3.023   6.777   6.681  0.6990  1.8454  0.2070
13395SOL    HW251840   2.925   6.834   6.798 -0.5362  0.0767  0.0487
13396SOL     OW51841   9.191   2.482   2.956  0.0711  0.5230  0.1984
13396SOL    HW151842   9.104   2.518   2.923 -0.7059 -1.1442  0.4019
13396SOL    HW251843   9.184   2.383   2.968  2.6280  0.0504 -1.8163
13397SOL     OW51844   0.365   8.254   4.558  0.5292 -0.0803  0.8917
13397SOL    HW151845   0.384   8.292   4.467 -1.9520 -2.8127 -0.8963
13397SOL    HW251846   0.320   8.322   4.615  1.8921  1.5976 -0.0015
13398SOL     OW51847   8.128   7.581   1.760 -0.3590  0.1491  0.2584
13398SOL    HW151848   8.203   7.639   1.730 -0.7797 -0.1840 -1.4793
13398SOL    HW251849   8.129   7.574   1.860  0.7354  1.7140  0.3731
13399SOL     OW51850   2.571   4.008   2.882 -0.0273 -0.5178 -0.0539
13399SOL    HW151851   2.498   3.940   2.884 -1.0216  0.4897 -1.0317
13399SOL    HW251852   2.538   4.091   2.836  1.5146  0.2050  0.1051
13400SOL     OW51853   3.084   0.276   2.985  0.0837 -0.5969  0.2601
13400SOL    HW151854   3.035   0.304   3.067  0.0574  0.8309 -0.2330
13400SOL    HW251855   3.170   0.232   3.011  0.4241  0.5139  1.0458
13401SOL     OW51856   2.104   9.923   5.862 -0.2664 -0.3717 -0.7567
13401SOL    HW151857   2.197   9.950   5.837  0.1102  1.3734  2.3493
13401SOL    HW251858   2.038   9.984   5.818  0.3074  1.6669  1.1594
13402SOL     OW51859   8.706   1.640   2.700 -0.3183 -0.6803 -0.3557
13402SOL    HW151860   8.621   1.643   2.752  0.9044 -0.7595  1.6996
13402SOL    HW251861   8.695   1.580   2.621 -2.8293  1.0391 -1.3716
13403SOL     OW51862   9.056   3.761   1.244  0.2717  0.1236 -0.4571
13403SOL    HW151863   9.002   3.681   1.220 -0.6540 -0.2027  2.4770
13403SOL    HW251864   9.003   3.821   1.304  2.0857  1.3342  0.0023
13404SOL     OW51865   2.345   7.842   1.663 -0.4022  0.2439 -0.1733
13404SOL    HW151866   2.380   7.912   1.725 -0.4601  0.1910 -0.0788
13404SOL    HW251867   2.419   7.807   1.606 -0.3571  0.3234 -0.1627
13405SOL     OW51868   9.256   8.031   6.727 -0.1526 -0.6383 -0.3537
13405SOL    HW151869   9.212   8.100   6.786 -0.3990 -0.9019 -0.2251
13405SOL    HW251870   9.185   7.975   6.684  0.0052 -0.0917 -1.3453
13406SOL     OW51871   5.103   8.527   5.801  0.3959  0.0513  0.3073
13406SOL    HW151872   5.151   8.611   5.775 -1.1936  0.5057 -1.2688
13406SOL    HW251873   5.007   8.533   5.772  0.4372 -2.5884 -0.5365
13407SOL     OW51874   6.572   3.920   1.895  0.0996 -0.0742 -0.0465
13407SOL    HW151875   6.512   3.929   1.975 -0.8864  0.1951 -0.8064
13407SOL    HW251876   6.565   4.003   1.839  0.7263 -0.2933 -0.4540
13408SOL     OW51877   3.966   8.839   1.471  0.2830  0.2179 -0.6532
13408SOL    HW151878   3.975   8.815   1.374 -0.3188 -0.3410 -0.5795
13408SOL    HW251879   3.873   8.817   1.502  1.3053 -2.3047  0.7855
13409SOL     OW51880   4.333   3.352   4.568 -0.4776  0.5665  0.0292
13409SOL    HW151881   4.238   3.353   4.599 -0.4950 -0.6308  0.0291
13409SOL    HW251882   4.345   3.280   4.500  0.4621  0.6084  0.1487
13410SOL     OW51883   6.794   5.969   6.944 -0.1789 -0.3628  0.5866
13410SOL    HW151884   6.729   5.964   6.868  0.2733  0.4188  0.1451
13410SOL    HW251885   6.857   6.045   6.929  0.7431 -1.0231  1.0946
13411SOL     OW51886   8.747   0.326   5.931  0.1954  0.7132  0.6640
13411SOL    HW151887   8.784   0.233   5.933  0.5598  0.8517  0.3517
13411SOL    HW251888   8.686   0.339   6.009 -3.5899 -1.3135 -1.7919
13412SOL     OW51889   3.533   5.261   5.754 -0.7531  0.4407 -0.0080
13412SOL    HW151890   3.606   5.229   5.815 -0.9174  0.5996  0.2730
13412SOL    HW251891   3.496   5.183   5.704 -0.8156  0.2633  0.3104
13413SOL     OW51892   5.025   8.631   1.992  0.4191 -0.5286 -0.5458
13413SOL    HW151893   5.109   8.641   2.045  0.3509 -2.8525  0.0166
13413SOL    HW251894   5.031   8.689   1.910  3.2268 -1.8692 -1.3538
13414SOL     OW51895   1.056   3.037   4.826 -0.0343  0.4929  0.1134
13414SOL    HW151896   1.025   2.955   4.779  0.2751 -0.7220  1.9869
13414SOL    HW251897   1.154   3.050   4.810  0.2227 -0.3195  0.9907
13415SOL     OW51898   2.172   1.067   5.429  0.1365  0.1333  0.1702
13415SOL    HW151899   2.213   1.142   5.377 -0.7948 -0.5073 -1.5517
13415SOL    HW251900   2.237   0.991   5.435  0.6163  0.5953  0.8131
13416SOL     OW51901   5.128   0.760   7.048 -0.1343 -0.5240 -0.2655
13416SOL    HW151902   5.188   0.832   7.084  1.2846 -1.7580 -0.0995
13416SOL    HW251903   5.153   0.742   6.953  0.3513 -1.6436  0.0679
13417SOL     OW51904   9.810   3.415   2.309 -0.0219 -0.2376 -0.3618
13417SOL    HW151905   9.772   3.373   2.392  0.0030  1.1629  0.3873
13417SOL    HW251906   9.739   3.471   2.265 -0.2379 -1.5283 -1.6874
13418SOL     OW51907   6.487   9.909   6.724  0.2984 -0.0845  0.0213
13418SOL    HW151908   6.482   9.844   6.799 -1.4718 -1.1635 -1.0229
13418SOL    HW251909   6.558   9.880   6.660  0.5644 -0.1441  0.3401
13419SOL     OW51910   3.201   1.438   3.316  0.5405 -0.4232  0.5952
13419SOL    HW151911   3.141   1.364   3.284 -0.5816 -0.1907  2.0870
13419SOL    HW251912   3.258   1.405   3.390  1.5301 -0.3502 -0.1298
13420SOL     OW51913   6.800   9.604   2.529 -0.2857  0.1328 -0.1525
13420SOL    HW151914   6.851   9.687   2.552  0.4212 -0.0514 -0.9868
13420SOL    HW251915   6.812   9.536   2.601 -1.2622  0.9228  0.7626
13421SOL     OW51916   8.552   4.651   5.020  0.1678  0.2182  0.2323
13421SOL    HW151917   8.516   4.652   4.927  3.6967 -3.0314 -1.3301
13421SOL    HW251918   8.606   4.734   5.036 -2.5944  2.0257  0.3560
13422SOL     OW51919   3.848   6.210   6.979 -0.5402 -0.6758 -0.2119
13422SOL    HW151920   3.924   6.274   6.982 -0.1797 -1.1463  3.4901
13422SOL    HW251921   3.764   6.257   7.007 -0.5317 -1.4304  1.1417
13423SOL     OW51922   1.654   0.286   3.936 -0.3127 -0.4018 -0.2240
13423SOL    HW151923   1.747   0.291   3.901  1.1850 -1.1061  3.3598
13423SOL    HW251924   1.617   0.194   3.923  0.8287 -1.1108  1.3595
13424SOL     OW51925   0.983   2.288   3.223 -0.9488 -0.1873  0.6060
13424SOL    HW151926   1.007   2.265   3.129  1.3691 -0.2118  1.1877
13424SOL    HW251927   0.941   2.379   3.225  1.6492  1.0583 -0.0995
13425SOL     OW51928   0.797   2.174   2.674 -0.4678 -0.2058 -0.2507
13425SOL    HW151929   0.734   2.223   2.614 -2.2325 -0.6085  1.2173
13425SOL    HW251930   0.779   2.075   2.666 -1.4124 -0.2181  1.6196
13426SOL     OW51931   5.329   0.392   6.882 -0.1735 -0.1228  0.4340
13426SOL    HW151932   5.366   0.485   6.886 -1.3305  0.3049  1.9061
13426SOL    HW251933   5.232   0.395   6.862 -0.5150 -0.9115  1.8355
13427SOL     OW51934   8.487   5.336   4.893 -0.0491  0.1660 -0.5555
13427SOL    HW151935   8.506   5.386   4.977 -2.2174 -0.5037  0.3723
13427SOL    HW251936   8.389   5.340   4.873  0.0781 -1.7406 -1.7064
13428SOL     OW51937   9.679   7.232  10.038 -0.4426  0.0682 -0.2731
13428SOL    HW151938   9.678   7.136  10.064 -0.7461  0.3310  0.7075
13428SOL    HW251939   9.770   7.256  10.004  0.6758  0.2405  2.6344
13429SOL     OW51940   9.255   1.602   5.819  0.3818  0.1419 -0.0524
13429SOL    HW151941   9.193   1.680   5.809  0.0458 -0.3607 -2.0780
13429SOL    HW251942   9.205   1.524   5.857  0.8304  1.0192  2.4293
13430SOL     OW51943   2.276   8.891   3.093  0.0142 -0.5516 -0.6013
13430SOL    HW151944   2.220   8.828   3.041 -0.5654 -0.8810  0.3969
13430SOL    HW251945   2.221   8.970   3.121  0.6056  0.1592 -1.4264
13431SOL     OW51946   0.889   8.545   6.778  0.3533 -0.1316  0.2464
13431SOL    HW151947   0.935   8.598   6.707  0.5415 -1.6080 -0.7631
13431SOL    HW251948   0.949   8.470   6.808 -1.4100 -2.2256 -1.2567
13432SOL     OW51949   1.493   1.520   3.904 -0.0540 -0.1030 -0.2465
13432SOL    HW151950   1.441   1.449   3.950 -0.3469 -0.6424 -1.4099
13432SOL    HW251951   1.465   1.610   3.940 -1.8637 -0.3716 -0.9417
13433SOL     OW51952   0.568   5.750   9.820  0.4087  0.3501 -0.0017
13433SOL    HW151953   0.594   5.654   9.826 -0.7071  0.0804  0.7197
13433SOL    HW251954   0.489   5.759   9.759 -0.8365  0.5200  1.6093
13434SOL     OW51955   8.024   4.619   6.662  0.1553 -0.3407  0.1119
13434SOL    HW151956   7.994   4.556   6.733 -1.8251 -0.7106 -1.0011
13434SOL    HW251957   8.097   4.678   6.697 -1.5067  0.2197  2.7757
13435SOL     OW51958   1.266   3.260   6.799  0.3742 -0.4092  0.0170
13435SOL    HW151959   1.356   3.245   6.840  0.0922 -0.4375  0.6380
13435SOL    HW251960   1.197   3.209   6.850 -0.2673  1.1637  0.7750
13436SOL     OW51961   0.911   1.508   1.191  0.4660 -0.1413 -0.0143
13436SOL    HW151962   0.932   1.517   1.094  1.1546 -1.3253  0.0157
13436SOL    HW251963   0.832   1.448   1.202  0.3315  0.0649  0.1577
13437SOL     OW51964   3.115   2.260   4.568  0.0771  0.3231  0.2863
13437SOL    HW151965   3.093   2.328   4.498 -0.6426  0.6848  0.8449
13437SOL    HW251966   3.202   2.216   4.547 -0.8075 -0.5828 -1.6041
13438SOL     OW51967   7.101   0.787   5.893 -0.3949 -0.2932 -0.2349
13438SOL    HW151968   7.118   0.846   5.815  0.9937  0.7226  0.8262
13438SOL    HW251969   7.007   0.800   5.925 -0.3044  0.8110 -0.4274
13439SOL     OW51970   0.279   6.578   2.739  0.6450 -0.4649  0.3021
13439SOL    HW151971   0.222   6.608   2.815  0.5629 -0.2235  0.1454
13439SOL    HW251972   0.326   6.657   2.699  0.9248 -0.6333  0.2971
13440SOL     OW51973   9.410   0.210   3.967  0.2973 -0.2157 -0.0128
13440SOL    HW151974   9.319   0.170   3.968  0.0690  0.2103 -1.9856
13440SOL    HW251975   9.425   0.261   4.052 -1.0635 -0.7595  0.5716
13441SOL     OW51976   5.685   3.972   2.512  0.0780 -0.7352 -0.1332
13441SOL    HW151977   5.607   3.921   2.546  0.5875 -0.0493  2.1236
13441SOL    HW251978   5.726   3.924   2.434 -1.0533 -2.3665  0.2803
13442SOL     OW51979   2.266   6.661   6.130 -0.2855  0.1410  0.3036
13442SOL    HW151980   2.192   6.712   6.173 -0.6330  0.9810 -1.2665
13442SOL    HW251981   2.243   6.643   6.035  2.1410  1.6415 -0.6050
13443SOL     OW51982   6.770   8.554   7.959  0.2523 -0.3158 -0.0797
13443SOL    HW151983   6.792   8.478   8.021  0.5563 -0.6966 -0.6492
13443SOL    HW251984   6.694   8.607   7.997 -1.3290 -2.1147 -0.6531
13444SOL     OW51985   1.963   2.849   6.577  0.6669 -0.4663 -0.0015
13444SOL    HW151986   1.915   2.923   6.625  0.3265 -0.0778 -0.9255
13444SOL    HW251987   2.061   2.860   6.587  0.5962 -0.7290  1.1058
13445SOL     OW51988   8.046   2.724   6.640  0.7739 -0.1209  0.5119
13445SOL    HW151989   8.056   2.746   6.738 -1.3163 -1.5293  1.0618
13445SOL    HW251990   8.019   2.629   6.630 -0.0353  0.2971 -1.4126
13446SOL     OW51991   9.790   3.927   2.228 -0.0639 -0.5909 -0.0089
13446SOL    HW151992   9.729   3.953   2.303 -0.7089 -0.6898 -0.4966
13446SOL    HW251993   9.813   3.830   2.236 -2.1402 -1.2224 -1.3332
13447SOL     OW51994   0.986   5.121   2.398 -0.1175 -0.3108 -0.1303
13447SOL    HW151995   0.982   5.104   2.300 -0.3500 -1.2879  0.0437
13447SOL    HW251996   0.999   5.035   2.446  0.2815  0.1941  0.6842
13448SOL     OW51997   8.802   4.669   0.276 -0.0032  0.6893 -0.2599
13448SOL    HW151998   8.823   4.581   0.232 -0.4684  0.5348 -0.1833
13448SOL    HW251999   8.851   4.675   0.363 -1.9124 -0.5946  0.9529
13449SOL     OW52000   7.081   7.586   7.767  0.3869 -0.4387 -0.6361
13449SOL    HW152001   7.094   7.681   7.794 -1.3425  0.0040 -1.3098
13449SOL    HW252002   7.106   7.575   7.671  0.4251 -0.6263 -0.6046
13450SOL     OW52003   8.027   1.096   6.694 -0.5750  0.0462  0.3351
13450SOL    HW152004   7.969   1.073   6.615  0.1757  2.4833 -0.9698
13450SOL    HW252005   8.023   1.194   6.711  2.4533  0.1258  0.7919
13451SOL     OW52006   0.581   4.664   3.916 -0.5050  0.2730  0.5429
13451SOL    HW152007   0.569   4.751   3.868  1.1359  1.1753  1.7615
13451SOL    HW252008   0.648   4.674   3.989 -1.1177 -1.7418  1.4254
13452SOL     OW52009   0.745   5.747   5.283 -0.2344  0.2912 -0.4700
13452SOL    HW152010   0.664   5.698   5.250  0.2490 -1.0786  0.3384
13452SOL    HW252011   0.732   5.846   5.270 -1.7799  0.0450 -0.8890
13453SOL     OW52012   8.034   5.123   2.701 -0.0950  0.6682  0.4111
13453SOL    HW152013   8.016   5.043   2.758 -0.8002 -0.0602 -0.8265
13453SOL    HW252014   7.953   5.145   2.647  1.3766 -0.2349 -2.2381
13454SOL     OW52015   2.572   5.854   4.408 -0.2789  0.4453  0.1854
13454SOL    HW152016   2.664   5.814   4.419 -0.1103  0.5992 -0.6292
13454SOL    HW252017   2.568   5.904   4.322 -1.1388  0.4249  0.2116
13455SOL     OW52018   7.853   6.077   1.554  0.4519 -0.2036  0.5303
13455SOL    HW152019   7.795   6.113   1.481  0.0338 -0.0741  0.9234
13455SOL    HW252020   7.867   5.979   1.540 -1.0207 -0.5214  1.1965
13456SOL     OW52021   1.334   6.296   0.260 -0.2309 -0.7504  0.2077
13456SOL    HW152022   1.390   6.311   0.341 -0.0971 -0.3915  0.0479
13456SOL    HW252023   1.242   6.267   0.288 -1.2133  2.5303  0.6122
13457SOL     OW52024   9.339   1.333   1.472 -0.1297  0.3540  0.0809
13457SOL    HW152025   9.423   1.384   1.454 -0.7778  1.2277 -0.5182
13457SOL    HW252026   9.262   1.396   1.476 -0.8772 -0.5308 -0.1646
13458SOL     OW52027   8.702   9.660   0.156 -0.4638  0.0694  0.0271
13458SOL    HW152028   8.780   9.716   0.127  0.8610 -0.1525  2.9650
13458SOL    HW252029   8.643   9.714   0.216  0.3276 -1.3080  2.1272
13459SOL     OW52030   0.518   8.934   5.151 -0.4759  0.0377  0.4777
13459SOL    HW152031   0.505   9.019   5.202  1.5848 -0.2128  1.4793
13459SOL    HW252032   0.590   8.947   5.082  1.2838 -1.4031  1.9767
13460SOL     OW52033   8.808   6.421   0.925 -0.5039 -0.2226 -0.6207
13460SOL    HW152034   8.852   6.511   0.920  0.7254 -0.8731 -1.4605
13460SOL    HW252035   8.834   6.366   0.846 -0.5821 -1.6370  0.3229
13461SOL     OW52036   0.478   2.404   4.884 -0.3070 -0.2845 -0.0732
13461SOL    HW152037   0.418   2.466   4.834 -0.0585 -0.3808 -0.4929
13461SOL    HW252038   0.444   2.392   4.977 -1.4665 -1.0681 -0.5871
13462SOL     OW52039   8.054   7.238   2.028  0.3283 -0.7071 -0.4522
13462SOL    HW152040   8.119   7.296   2.078  1.1661 -1.2349 -0.9200
13462SOL    HW252041   8.056   7.261   1.931  0.3441 -1.2207 -0.5746
13463SOL     OW52042   9.925   2.963   1.073  0.4730  0.0380  0.2794
13463SOL    HW152043   9.845   2.976   1.014  0.8687  1.0036 -0.0424
13463SOL    HW252044  10.005   2.944   1.017  0.5805 -0.4135  0.5794
13464SOL     OW52045   7.348   7.359   6.318  0.1735  0.3886  0.1359
13464SOL    HW152046   7.321   7.452   6.293 -0.9027  0.0160 -0.1019
13464SOL    HW252047   7.394   7.360   6.407 -1.7431  0.8783  1.1477
13465SOL     OW52048   8.153   2.696   1.366  0.0521  0.0371 -0.1146
13465SOL    HW152049   8.072   2.706   1.424 -1.5513  0.4728 -2.3735
13465SOL    HW252050   8.230   2.744   1.409 -1.0233  0.1936  1.7320
13466SOL     OW52051   5.047   8.705   7.091 -0.3116  1.0278  0.2461
13466SOL    HW152052   5.056   8.797   7.128 -0.3487  1.3299 -0.4714
13466SOL    HW252053   5.121   8.689   7.025  0.5316  0.0269  1.4081
13467SOL     OW52054   0.165   7.223   2.544 -0.1707 -0.1031 -0.3874
13467SOL    HW152055   0.259   7.190   2.532 -0.5582 -0.8742 -1.3978
13467SOL    HW252056   0.127   7.182   2.627  0.5733  0.6551  0.3315
13468SOL     OW52057   1.212   5.071   1.809  0.4695 -0.2803 -0.1257
13468SOL    HW152058   1.178   4.978   1.796  0.5752 -0.1029 -1.8321
13468SOL    HW252059   1.257   5.078   1.898 -1.4591 -1.2557  0.9640
13469SOL     OW52060   7.692   5.863   0.956  0.5078 -0.5617  0.6182
13469SOL    HW152061   7.604   5.910   0.961 -0.0754 -1.3910 -1.3981
13469SOL    HW252062   7.759   5.922   0.913  0.1469 -1.0263 -0.5969
13470SOL     OW52063   4.425   7.362   2.338 -0.1011 -0.5274 -0.0586
13470SOL    HW152064   4.408   7.365   2.240 -0.5508 -0.7190  0.0117
13470SOL    HW252065   4.384   7.279   2.377  0.9601 -0.9777  0.1216
13471SOL     OW52066   4.069   7.545   2.616  0.6821  0.4296 -0.2874
13471SOL    HW152067   4.054   7.641   2.594  1.2234  0.6333  0.2254
13471SOL    HW252068   4.049   7.529   2.713  0.8865  0.0838 -0.3014
13472SOL     OW52069   2.308   3.395   7.640 -0.6856 -0.1661  0.1893
13472SOL    HW152070   2.261   3.402   7.552  0.6071  0.6109 -0.4482
13472SOL    HW252071   2.250   3.346   7.704 -1.3296 -1.4621 -1.3348
13473SOL     OW52072   1.484   6.550   6.851 -0.1737 -0.1138 -0.2195
13473SOL    HW152073   1.479   6.647   6.825  0.4623 -0.2167 -0.7431
13473SOL    HW252074   1.531   6.542   6.938 -0.1948  0.0452 -0.1923
13474SOL     OW52075   7.864   9.241   3.176  0.4727  0.5079 -0.3320
13474SOL    HW152076   7.890   9.202   3.088  0.9846  1.9657 -0.8334
13474SOL    HW252077   7.930   9.213   3.246  0.6328  0.1798 -0.6167
13475SOL     OW52078   4.257   7.643   5.447 -0.3217 -0.0658  0.1901
13475SOL    HW152079   4.168   7.642   5.493  0.5267 -0.8113  1.8399
13475SOL    HW252080   4.261   7.567   5.381 -0.1201 -1.3840  1.6798
13476SOL     OW52081   0.658   9.719   1.158  0.3137  0.3369  0.2172
13476SOL    HW152082   0.698   9.632   1.128  1.9182  1.0602  0.1998
13476SOL    HW252083   0.721   9.794   1.137 -0.8601  1.4630  0.6288
13477SOL     OW52084   1.171   4.770   2.686  0.1736  0.3193  0.1523
13477SOL    HW152085   1.180   4.671   2.675  0.9076  0.3909  0.0586
13477SOL    HW252086   1.097   4.790   2.750 -0.0708 -0.2852  0.0618
13478SOL     OW52087   6.094   2.624   1.203  0.3458  0.0159 -0.0410
13478SOL    HW152088   6.170   2.688   1.207 -0.5524  1.0821  0.5221
13478SOL    HW252089   6.126   2.532   1.224  1.0749  0.8215  2.5390
13479SOL     OW52090   9.492   0.988   2.372  0.3305 -0.0884 -0.3533
13479SOL    HW152091   9.445   1.040   2.301  1.3245 -2.4018 -2.7856
13479SOL    HW252092   9.446   0.900   2.385  0.3655  0.1661  1.6604
13480SOL     OW52093   9.022   2.460   3.700  0.2081  0.1138 -0.3095
13480SOL    HW152094   8.927   2.490   3.704  0.0378 -0.1243 -1.9523
13480SOL    HW252095   9.075   2.526   3.647  0.5333 -0.7519 -1.0832
13481SOL     OW52096   0.144   6.669   2.945  0.0479  0.5104 -0.5008
13481SOL    HW152097   0.175   6.643   3.037  0.5062  0.7091 -0.6018
13481SOL    HW252098   0.048   6.643   2.934 -0.3682  1.5876  0.4659
13482SOL     OW52099   8.440   8.991   5.154  0.2736  0.2760 -0.6580
13482SOL    HW152100   8.423   8.893   5.165 -1.1255  0.5890  0.1086
13482SOL    HW252101   8.398   9.023   5.069  1.4993  0.0519 -1.3664
13483SOL     OW52102   2.183   3.573   3.327  0.2388  0.3456  0.5975
13483SOL    HW152103   2.172   3.474   3.335  2.8730 -0.1983 -1.5360
13483SOL    HW252104   2.149   3.603   3.238  1.7960  0.9085  0.1650
13484SOL     OW52105   9.279   1.516   5.282 -0.0111  0.3816  0.1126
13484SOL    HW152106   9.188   1.475   5.279  0.6680 -1.0958 -1.2420
13484SOL    HW252107   9.347   1.447   5.256  1.4341  1.6154  0.5877
13485SOL     OW52108   0.125   6.924   6.670 -0.5933  0.4174  0.3318
13485SOL    HW152109   0.128   6.945   6.572  1.8761 -0.9618  0.0946
13485SOL    HW252110   0.174   6.839   6.688 -1.4901  0.3650  2.7106
13486SOL     OW52111   2.942   0.518   1.007  0.1782  0.5835 -0.5119
13486SOL    HW152112   3.037   0.491   0.993 -0.2199 -0.8439 -0.5651
13486SOL    HW252113   2.895   0.520   0.919 -0.4617 -1.1723 -0.2303
13487SOL     OW52114   0.169   1.160   6.030  0.1644 -0.1617  0.3301
13487SOL    HW152115   0.219   1.073   6.038 -0.4992 -0.5523  0.2930
13487SOL    HW252116   0.088   1.157   6.088 -0.1411  0.2367 -0.0766
13488SOL     OW52117   8.107   3.731   0.650 -0.1922 -0.2991  0.1981
13488SOL    HW152118   8.048   3.808   0.670  0.8500  0.7373 -0.6627
13488SOL    HW252119   8.060   3.667   0.588 -0.7052  0.1028  0.1742
13489SOL     OW52120   4.569   2.192   1.388 -0.6747  0.3646  0.0677
13489SOL    HW152121   4.642   2.145   1.439  0.0893  0.0878 -1.2675
13489SOL    HW252122   4.594   2.198   1.291 -2.0955  0.9414 -0.2747
13490SOL     OW52123   9.109   9.085   5.822 -0.0551  0.0632 -0.7249
13490SOL    HW152124   9.180   9.088   5.751  0.4715  3.3877 -0.1607
13490SOL    HW252125   9.037   9.151   5.799 -1.2809 -0.8379  0.4503
13491SOL     OW52126   2.806   9.727   7.039 -0.7455  0.1943 -0.5273
13491SOL    HW152127   2.865   9.749   6.962 -2.2949  1.6793 -1.3166
13491SOL    HW252128   2.853   9.749   7.124  0.0406  0.8393 -1.1170
13492SOL     OW52129   1.358   7.654   6.457 -0.3946 -0.0560 -0.2945
13492SOL    HW152130   1.447   7.695   6.479 -0.1288 -1.1741  0.7341
13492SOL    HW252131   1.369   7.594   6.378 -0.3918  0.3607 -0.6154
13493SOL     OW52132   0.992   2.824   4.043 -0.0187  0.5018 -0.0960
13493SOL    HW152133   0.900   2.826   4.082 -0.3603 -1.5881 -0.7130
13493SOL    HW252134   1.059   2.811   4.116 -0.4155 -0.3849  0.1148
13494SOL     OW52135   7.744   3.511   4.384  0.7809  0.0205 -0.2500
13494SOL    HW152136   7.834   3.541   4.353  0.9075  0.0998  0.1813
13494SOL    HW252137   7.748   3.491   4.482  0.2902  0.1843 -0.1926
13495SOL     OW52138   9.722   9.601   3.193 -0.0043 -0.2721 -0.1308
13495SOL    HW152139   9.820   9.623   3.194 -0.2173  0.6789  0.7874
13495SOL    HW252140   9.674   9.663   3.132 -0.0303 -0.7703 -0.6183
13496SOL     OW52141   2.530   1.541   1.687  0.1007 -0.0027 -0.2161
13496SOL    HW152142   2.541   1.626   1.740  0.7784 -0.5215  0.5022
13496SOL    HW252143   2.560   1.556   1.593 -0.9790  0.8971 -0.4276
13497SOL     OW52144   9.471   6.432   5.250 -0.0634  0.3518  0.0484
13497SOL    HW152145   9.379   6.469   5.254 -0.6092 -0.8314 -1.2217
13497SOL    HW252146   9.516   6.462   5.166  1.5212  2.7037  1.6523
13498SOL     OW52147   1.431   4.868   4.559 -0.1564  0.7305 -0.1856
13498SOL    HW152148   1.436   4.964   4.588  1.6568  0.7358 -0.4346
13498SOL    HW252149   1.519   4.823   4.578 -1.2204 -1.0836  0.6028
13499SOL     OW52150   4.622   6.255   3.378  0.5069  0.4138  0.2250
13499SOL    HW152151   4.674   6.320   3.323  0.6639  0.2063  0.1290
13499SOL    HW252152   4.673   6.169   3.386  0.1055  0.1506 -0.0067
13500SOL     OW52153   6.397   9.902   3.909  0.5155  0.2561 -0.2110
13500SOL    HW152154   6.332   9.847   3.961  0.7349  0.8121  0.6457
13500SOL    HW252155   6.348   9.958   3.842  0.4166 -2.4999 -2.5447
13501SOL     OW52156   5.900   8.257   3.601  0.5815 -0.3370 -0.5245
13501SOL    HW152157   5.975   8.191   3.597  1.6345  0.6760  1.4645
13501SOL    HW252158   5.937   8.349   3.586 -0.3793  0.1017 -0.1973
13502SOL     OW52159   2.686   4.867   4.594  0.3461  0.1390 -0.5503
13502SOL    HW152160   2.628   4.803   4.544  0.5953 -1.2906  0.9276
13502SOL    HW252161   2.718   4.823   4.678  3.3791  0.9691 -1.2141
13503SOL     OW52162   3.565   0.881   5.049  0.3573  0.1366  0.2930
13503SOL    HW152163   3.580   0.957   5.112 -0.5449 -2.2212  3.4792
13503SOL    HW252164   3.630   0.808   5.069 -0.5320 -1.0148 -0.9375
13504SOL     OW52165   0.609   2.983   2.046  0.2296 -0.4355  0.7366
13504SOL    HW152166   0.514   3.009   2.033 -0.3606 -2.1119  1.4822
13504SOL    HW252167   0.644   3.024   2.130  0.6320  1.3450 -0.2692
13505SOL     OW52168   9.619   3.192   3.178 -0.0280  0.1164 -0.7549
13505SOL    HW152169   9.673   3.131   3.120 -1.4888 -2.7132  0.7382
13505SOL    HW252170   9.676   3.226   3.253  0.3584 -0.8490 -0.5996
13506SOL     OW52171   6.075   0.551   3.288  0.0450 -0.0428  0.5200
13506SOL    HW152172   6.035   0.640   3.308  0.7196  0.4883 -0.4396
13506SOL    HW252173   6.162   0.563   3.241  0.6840 -1.2021  1.3714
13507SOL     OW52174   7.036   8.215   3.060 -0.1797  0.0659  0.1270
13507SOL    HW152175   7.032   8.287   3.130  0.9628  0.1946  0.0600
13507SOL    HW252176   6.966   8.146   3.080 -2.1640  1.8226 -0.5100
13508SOL     OW52177   2.447   6.046   0.293  0.6421 -0.3524  0.2115
13508SOL    HW152178   2.429   6.144   0.277 -0.6268 -0.3068  1.8377
13508SOL    HW252179   2.372   5.992   0.256  0.1924 -0.5562  1.3975
13509SOL     OW52180   2.691   8.126   2.709  0.0811  0.0445  0.6881
13509SOL    HW152181   2.726   8.192   2.775  1.1647 -0.6189  0.7913
13509SOL    HW252182   2.684   8.170   2.619  0.8070  0.2974  0.7515
13510SOL     OW52183   3.202   8.612   6.350 -0.0581 -0.0170 -0.3228
13510SOL    HW152184   3.118   8.617   6.297 -0.7507  0.7507  0.8368
13510SOL    HW252185   3.276   8.657   6.299  0.0623 -2.0357 -2.0443
13511SOL     OW52186   8.519   8.123   6.472  0.4352 -0.1137  0.2913
13511SOL    HW152187   8.505   8.103   6.375  1.3217  0.2210  0.0864
13511SOL    HW252188   8.473   8.209   6.495 -0.4114 -0.5754  0.3497
13512SOL     OW52189   0.131   6.806   1.164 -0.0327  0.0279  0.0765
13512SOL    HW152190   0.069   6.885   1.170 -1.4535 -0.9314 -1.4760
13512SOL    HW252191   0.105   6.749   1.086  2.3236 -0.8459 -0.1171
13513SOL     OW52192   9.158   5.306   1.507  0.4516 -0.3197  0.5586
13513SOL    HW152193   9.084   5.345   1.452 -0.8174 -1.6183  1.2918
13513SOL    HW252194   9.122   5.281   1.597  1.7174 -1.2762  0.8017
13514SOL     OW52195   7.170   6.028   1.415 -0.2270  0.0697 -0.4216
13514SOL    HW152196   7.214   5.968   1.348  1.4211  0.5852  0.1671
13514SOL    HW252197   7.119   5.972   1.480 -0.2857 -0.5699 -1.0113
13515SOL     OW52198   8.937   9.744   3.960  0.1551  0.0083 -0.6231
13515SOL    HW152199   8.964   9.763   4.055 -0.6839 -0.3873 -0.3023
13515SOL    HW252200   9.018   9.750   3.901  0.3913  1.8926 -0.1352
13516SOL     OW52201   5.133   0.448   7.292  0.1281  0.0067  0.0430
13516SOL    HW152202   5.175   0.511   7.358 -1.2560 -0.2796  1.1977
13516SOL    HW252203   5.205   0.406   7.236  1.3265  0.1035  1.4928
13517SOL     OW52204   7.645   1.256   2.013 -0.4389  0.1214  0.3313
13517SOL    HW152205   7.683   1.348   2.004  1.1376 -0.5245  0.1300
13517SOL    HW252206   7.569   1.257   2.078 -1.5752  1.8845 -0.9739
13518SOL     OW52207   4.017   6.193   3.242  0.3685 -0.5149  0.3915
13518SOL    HW152208   3.921   6.201   3.268  0.1521  0.0599 -0.5564
13518SOL    HW252209   4.024   6.137   3.159  0.9225 -1.1984  0.8892
13519SOL     OW52210   4.233   2.912   7.297 -0.2486 -1.0972  0.3952
13519SOL    HW152211   4.280   2.875   7.377  1.2551 -1.8244 -0.7952
13519SOL    HW252212   4.300   2.930   7.224 -1.2683  1.7218  0.0945
13520SOL     OW52213   9.090   9.037   2.761 -0.6975 -0.3681 -0.2578
13520SOL    HW152214   9.055   9.083   2.842 -0.5297 -0.1938 -0.2847
13520SOL    HW252215   9.032   8.958   2.740  0.0779 -1.2518  0.8644
13521SOL     OW52216   0.364   9.457   5.557 -0.0371  0.2127  0.0564
13521SOL    HW152217   0.288   9.469   5.493  0.7648  0.6146 -0.8220
13521SOL    HW252218   0.448   9.495   5.518  0.5498  0.0986  1.1728
13522SOL     OW52219   1.793   3.776   5.692  0.1098 -0.0031  0.2387
13522SOL    HW152220   1.878   3.730   5.718  0.6737  1.0897  0.3835
13522SOL    HW252221   1.788   3.783   5.592  0.1775 -0.0906  0.2293
13523SOL     OW52222   8.194   3.232   4.491  0.0391 -0.3088  0.4309
13523SOL    HW152223   8.144   3.319   4.484 -0.7450 -0.8227 -0.4228
13523SOL    HW252224   8.256   3.236   4.569 -0.1782  0.9303  0.5565
13524SOL     OW52225   5.163   8.898   2.151 -0.3456  0.4597 -0.2823
13524SOL    HW152226   5.073   8.855   2.153 -0.5386  0.8491 -0.4487
13524SOL    HW252227   5.234   8.828   2.156 -0.6621  0.2041  0.8275
13525SOL     OW52228   9.210   1.196   0.230 -0.1349  0.0843  0.1608
13525SOL    HW152229   9.304   1.166   0.216  0.6334  1.3541  2.3570
13525SOL    HW252230   9.159   1.124   0.277  0.6344  0.6001  1.8422
13526SOL     OW52231   1.473   8.598   3.085  0.6185 -0.3669 -0.0484
13526SOL    HW152232   1.527   8.515   3.072 -0.4327 -0.9109 -0.9173
13526SOL    HW252233   1.473   8.651   3.000 -1.1860 -0.9406 -0.4111
13527SOL     OW52234   2.191   5.054   4.301 -0.0540  0.4637 -0.2184
13527SOL    HW152235   2.174   5.012   4.212  0.1785 -0.2820  0.0848
13527SOL    HW252236   2.108   5.099   4.334 -0.8916 -1.4767  0.3707
13528SOL     OW52237   5.668   0.976   4.535  0.3044 -0.0289 -0.2704
13528SOL    HW152238   5.661   1.028   4.449 -1.1595  0.9648  0.4265
13528SOL    HW252239   5.658   0.879   4.515  0.3242  0.1650 -1.2800
13529SOL     OW52240   0.626   4.429   3.790  0.3071  0.0825 -0.2892
13529SOL    HW152241   0.621   4.521   3.830  2.6625  0.8232 -1.5939
13529SOL    HW252242   0.643   4.437   3.691  1.9589 -1.7411 -0.1818
13530SOL     OW52243   5.590   7.976   2.116  0.2203 -0.0996  0.5757
13530SOL    HW152244   5.649   8.047   2.154  2.7049 -1.9454  0.2893
13530SOL    HW252245   5.610   7.964   2.019 -0.8055 -0.6098  0.4124
13531SOL     OW52246   1.515   4.115   4.810  0.1982 -0.1558  0.0256
13531SOL    HW152247   1.541   4.020   4.792  0.1559  0.0533 -1.1908
13531SOL    HW252248   1.532   4.137   4.906  2.3412 -0.7345 -0.1958
13532SOL     OW52249   6.414   5.277   0.541 -0.1363  0.5084 -0.4561
13532SOL    HW152250   6.458   5.360   0.574 -0.5328  0.5888 -0.1357
13532SOL    HW252251   6.407   5.210   0.615  0.6314 -0.0072 -0.8300
13533SOL     OW52252   0.447   6.855  10.079 -0.4194 -0.2015  0.4906
13533SOL    HW152253   0.468   6.773  10.026  0.6818 -0.8437  1.8936
13533SOL    HW252254   0.532   6.900  10.106 -1.0103  1.1237  0.1843
13534SOL     OW52255   6.619   1.087   1.718 -0.4144  0.4409  0.4865
13534SOL    HW152256   6.598   1.151   1.792  0.2294  0.0369  1.0215
13534SOL    HW252257   6.718   1.085   1.702 -0.2898 -1.3280  1.3159
13535SOL     OW52258   2.048   4.894   7.409  0.2181 -0.3160 -0.1843
13535SOL    HW152259   2.075   4.827   7.339  1.3204 -1.8787  1.6750
13535SOL    HW252260   2.106   4.975   7.402 -0.7965  0.2626 -2.1428
13536SOL     OW52261   9.355   5.934   4.759 -0.1717  1.0397 -0.4785
13536SOL    HW152262   9.397   5.899   4.843  0.4733  2.1028 -0.3538
13536SOL    HW252263   9.268   5.887   4.744  0.2542  0.0216  0.1648
13537SOL     OW52264   6.199   4.494   1.071 -0.4481 -0.6890 -0.1746
13537SOL    HW152265   6.235   4.586   1.089 -0.7567 -0.7709  0.9161
13537SOL    HW252266   6.185   4.482   0.973 -0.9303  0.6304 -0.2829
13538SOL     OW52267   9.500   0.603   1.238  0.1143 -0.8224  1.2094
13538SOL    HW152268   9.534   0.684   1.286 -0.6157 -0.1466  0.5961
13538SOL    HW252269   9.409   0.579   1.273  0.0225 -0.9481  0.8854
13539SOL     OW52270   3.557   9.490   5.769 -0.0113 -0.4365  0.0778
13539SOL    HW152271   3.652   9.507   5.740 -0.0883 -0.5661 -0.2435
13539SOL    HW252272   3.497   9.494   5.690 -0.2528 -0.5283  0.2586
13540SOL     OW52273   8.652   6.013   3.841 -0.0678 -0.1481  0.1917
13540SOL    HW152274   8.722   5.972   3.783 -1.5846 -1.5929 -0.6914
13540SOL    HW252275   8.625   5.946   3.911  0.0810  0.7322  1.0941
13541SOL     OW52276   9.327   5.424   1.965 -0.0046  0.0467 -0.2485
13541SOL    HW152277   9.319   5.327   1.939 -0.5153 -0.5742  2.0858
13541SOL    HW252278   9.423   5.448   1.977  0.1449 -0.0585 -1.2459
13542SOL     OW52279   3.448   6.483   0.590 -0.2616 -0.0274  0.0489
13542SOL    HW152280   3.514   6.466   0.663 -0.8136 -0.5797  0.4124
13542SOL    HW252281   3.356   6.458   0.620 -0.7841  1.5527 -0.1564
13543SOL     OW52282   6.560   9.271   6.974  0.4359  0.2859 -0.4383
13543SOL    HW152283   6.524   9.318   6.893 -0.4808  0.0959 -0.1479
13543SOL    HW252284   6.488   9.214   7.014  1.6412 -1.6889 -1.0128
13544SOL     OW52285   7.664   2.244   0.807  0.5257  0.2978  0.2385
13544SOL    HW152286   7.650   2.191   0.723  1.3021  0.6917 -0.1443
13544SOL    HW252287   7.649   2.341   0.787  1.4652  0.4681  0.3820
13545SOL     OW52288   2.238   5.135   0.573  0.4383  0.1315  0.2287
13545SOL    HW152289   2.149   5.102   0.604  0.8946 -1.2427  0.1238
13545SOL    HW252290   2.228   5.225   0.530 -0.6935  0.5666  1.3689
13546SOL     OW52291   2.704   7.376   4.672  0.4625  0.3922  0.5147
13546SOL    HW152292   2.657   7.453   4.713  1.1623  0.7225  0.7037
13546SOL    HW252293   2.650   7.293   4.684 -0.4271  0.8990  0.0595
13547SOL     OW52294   4.008   8.911   5.788 -0.8197 -0.2529  0.6982
13547SOL    HW152295   3.927   8.960   5.820 -1.3124 -0.5036 -0.1385
13547SOL    HW252296   4.001   8.815   5.816 -1.1624 -0.4319  0.0170
13548SOL     OW52297   8.015   1.065   5.963  0.0996  0.1215  0.5677
13548SOL    HW152298   8.018   1.029   6.056 -2.2925 -0.0324  0.6109
13548SOL    HW252299   7.920   1.068   5.931  0.6460  2.4399 -0.9830
13549SOL     OW52300   6.589   9.840   7.375  0.0191  0.2295 -0.0921
13549SOL    HW152301   6.631   9.831   7.284 -1.3276  1.2236 -0.8233
13549SOL    HW252302   6.491   9.857   7.365 -0.4627 -1.4193  1.5987
13550SOL     OW52303   0.944   0.775   4.310 -0.3330  0.2718 -0.6954
13550SOL    HW152304   0.899   0.705   4.366  1.4373  0.6198  1.2138
13550SOL    HW252305   1.043   0.760   4.311  0.0209  2.4611 -0.7203
13551SOL     OW52306   7.214   9.531   8.203  0.5770  0.1308 -0.2828
13551SOL    HW152307   7.291   9.485   8.159 -0.1439 -0.5403 -0.8687
13551SOL    HW252308   7.136   9.534   8.140 -0.0044  0.4402  0.4395
13552SOL     OW52309   4.486   8.218   6.149 -0.0297  0.2515 -0.2571
13552SOL    HW152310   4.463   8.223   6.246  0.5727 -0.9387 -0.0408
13552SOL    HW252311   4.540   8.136   6.132 -0.5354  0.1962 -1.6856
13553SOL     OW52312   9.644   4.216   0.459 -0.0091 -0.6197 -0.1320
13553SOL    HW152313   9.643   4.116   0.455  1.5841 -0.6973  0.9066
13553SOL    HW252314   9.589   4.247   0.536 -1.2555 -0.6418 -0.9958
13554SOL     OW52315   5.594   5.110   2.229 -0.1660 -0.2657 -0.3482
13554SOL    HW152316   5.623   5.148   2.317 -0.7936 -1.3974  0.3559
13554SOL    HW252317   5.635   5.163   2.155  2.8792 -1.2161  0.6143
13555SOL     OW52318   6.886   3.717   3.020 -0.1052 -0.0536 -0.5083
13555SOL    HW152319   6.930   3.806   3.015 -0.6169  0.1498 -1.7975
13555SOL    HW252320   6.916   3.661   2.942 -0.1054 -0.8446  0.0607
13556SOL     OW52321   2.267   0.148   2.587 -0.2647 -0.4329 -0.3424
13556SOL    HW152322   2.252   0.203   2.505 -1.4986  2.3961  1.7114
13556SOL    HW252323   2.304   0.206   2.660 -3.7803 -1.7714  2.6134
13557SOL     OW52324   9.794   4.082   0.675  0.3501  0.0468 -0.5294
13557SOL    HW152325   9.832   4.172   0.653 -0.8616  0.0561 -2.7522
13557SOL    HW252326   9.809   4.020   0.599 -0.7112 -1.0122  0.1054
13558SOL     OW52327   0.745   6.728   4.461  0.4716  0.2333  0.1879
13558SOL    HW152328   0.723   6.807   4.517 -0.0428 -0.9165  1.6407
13558SOL    HW252329   0.715   6.745   4.367  2.0469  2.4768  0.0674
13559SOL     OW52330   5.357   6.532   2.922 -0.1978 -0.0072 -0.0957
13559SOL    HW152331   5.403   6.616   2.951  0.4520 -0.6655  0.8072
13559SOL    HW252332   5.302   6.551   2.841  0.0758  1.2527 -0.0033
13560SOL     OW52333   4.994   9.943   7.063  0.0811  0.4005 -0.5503
13560SOL    HW152334   4.984  10.042   7.050 -0.7715  0.1608 -1.8563
13560SOL    HW252335   4.958   9.895   6.983 -0.2574 -1.0019  0.4189
13561SOL     OW52336   9.980   3.927   3.088  0.5266  0.2124  0.0782
13561SOL    HW152337   9.966   4.024   3.071  0.3634  0.0946 -0.4477
13561SOL    HW252338  10.022   3.915   3.178  0.4322  0.7613  0.1952
13562SOL     OW52339   9.591   6.652   1.234  0.1654  0.2591  0.2277
13562SOL    HW152340   9.497   6.631   1.262  0.1202  1.1075  0.7268
13562SOL    HW252341   9.645   6.676   1.315  0.9689 -0.8226  0.0146
13563SOL     OW52342   2.489   4.422   3.483 -1.1441 -0.1323  0.2472
13563SOL    HW152343   2.537   4.503   3.516 -0.6028 -0.2433 -0.2511
13563SOL    HW252344   2.435   4.382   3.558  1.1103 -1.1444  1.3970
13564SOL     OW52345   0.897   3.281   6.328 -0.2112 -0.8546 -0.0817
13564SOL    HW152346   0.997   3.290   6.334 -0.3368 -0.7754  2.3680
13564SOL    HW252347   0.857   3.368   6.300  0.2454 -0.1976  1.2757
13565SOL     OW52348   9.026   9.558   0.891  0.9041 -0.1428  0.1278
13565SOL    HW152349   8.987   9.488   0.952  0.9757 -0.7884 -0.5545
13565SOL    HW252350   9.060   9.634   0.945  1.3185 -0.8830  0.9193
13566SOL     OW52351   3.144   9.322   6.196 -0.2949  0.9944  0.3056
13566SOL    HW152352   3.102   9.412   6.186 -0.1639  1.2367  1.7399
13566SOL    HW252353   3.097   9.271   6.268 -0.0312  0.1115 -0.1348
13567SOL     OW52354   3.251   8.992   3.749 -0.1170 -0.0638  0.1108
13567SOL    HW152355   3.171   8.938   3.725 -0.0647 -0.3375  0.5425
13567SOL    HW252356   3.329   8.962   3.693 -0.4969  0.7285 -0.8510
13568SOL     OW52357   2.855   3.723   1.212 -0.9324 -0.2222  0.3848
13568SOL    HW152358   2.777   3.686   1.161 -0.6737 -0.3206  0.0596
13568SOL    HW252359   2.852   3.689   1.306  0.7467 -3.2146 -0.5743
13569SOL     OW52360   8.320   9.986   6.749  0.7155 -0.3622  0.2436
13569SOL    HW152361   8.345  10.082   6.736  1.0666 -0.4409  0.3508
13569SOL    HW252362   8.275   9.953   6.666  1.9562 -0.5408 -0.3709
13570SOL     OW52363   3.426   7.789   6.738  0.1381 -0.1998  0.0439
13570SOL    HW152364   3.475   7.704   6.720  0.5308  0.3956 -1.8500
13570SOL    HW252365   3.478   7.844   6.804  0.3183 -1.0304  0.6050
13571SOL     OW52366   9.896   0.285   7.579 -0.1709  0.3510  0.4745
13571SOL    HW152367   9.869   0.272   7.675 -0.8970 -0.1986  0.1968
13571SOL    HW252368   9.848   0.219   7.522 -1.2629  2.0249 -0.5421
13572SOL     OW52369   4.737   1.274   0.921 -0.0482 -0.0128  0.0346
13572SOL    HW152370   4.686   1.209   0.977  0.0089 -0.2592 -0.1943
13572SOL    HW252371   4.814   1.310   0.972  0.9959 -1.5187 -0.4563
13573SOL     OW52372   6.069   3.758   2.618  0.0188 -0.2402 -0.4662
13573SOL    HW152373   6.099   3.759   2.523  1.4207 -0.2289 -0.0468
13573SOL    HW252374   6.009   3.835   2.636  0.5157  0.2958 -1.1034
13574SOL     OW52375   3.065   1.646   6.642  0.4656  0.0526  0.2363
13574SOL    HW152376   3.003   1.693   6.579 -0.2903  0.8121  1.5182
13574SOL    HW252377   3.127   1.713   6.683  0.0047 -0.2161  1.3693
13575SOL     OW52378   1.467   4.401   4.801  0.1504  0.5197  0.7117
13575SOL    HW152379   1.431   4.402   4.708  0.0615  1.2943  0.7515
13575SOL    HW252380   1.516   4.316   4.817 -2.7353 -1.1323  1.0682
13576SOL     OW52381   8.044   0.729   1.869 -0.0374 -0.4028 -0.0621
13576SOL    HW152382   8.099   0.754   1.949  0.4270 -0.3393 -0.4021
13576SOL    HW252383   8.085   0.767   1.787 -2.3591  2.4294  0.0053
13577SOL     OW52384   8.330   7.817   5.079  0.0440  0.4635 -0.0337
13577SOL    HW152385   8.303   7.908   5.111 -0.7376  1.0411 -2.2375
13577SOL    HW252386   8.249   7.761   5.067  0.1606  0.7033 -2.2220
13578SOL     OW52387   8.310   3.546   4.530  0.5065  0.4556 -0.5059
13578SOL    HW152388   8.389   3.515   4.478  0.1422  0.4080 -1.0339
13578SOL    HW252389   8.339   3.572   4.622  1.0180 -0.2248 -0.4744
13579SOL     OW52390   2.310   6.830   3.559 -0.0634 -0.2396 -0.2918
13579SOL    HW152391   2.330   6.916   3.512  2.0209 -1.0599 -0.9938
13579SOL    HW252392   2.212   6.809   3.551 -0.1048  0.6640 -2.5507
13580SOL     OW52393   3.945   3.680   5.015 -0.0363  0.1575 -0.4112
13580SOL    HW152394   3.887   3.603   4.989 -0.9091 -0.5551  3.3410
13580SOL    HW252395   4.041   3.657   4.998 -0.3113 -1.6526  0.3798
13581SOL     OW52396   4.557   7.070   1.674  0.4493 -0.4227 -0.5225
13581SOL    HW152397   4.549   6.993   1.737  2.0404 -0.5431 -0.4456
13581SOL    HW252398   4.554   7.037   1.579  2.6108 -0.7738 -0.4940
13582SOL     OW52399   1.968   2.160   5.356 -0.4792  0.2029  0.1452
13582SOL    HW152400   1.876   2.127   5.332  0.8504 -1.9440 -2.1777
13582SOL    HW252401   2.006   2.211   5.279  0.9047 -0.2591  0.5077
13583SOL     OW52402   8.548   2.107   3.889  0.1675 -0.2721 -0.1213
13583SOL    HW152403   8.578   2.044   3.961  0.0316 -1.2273 -0.8824
13583SOL    HW252404   8.609   2.186   3.887 -0.3376  0.1907  1.5975
13584SOL     OW52405   2.441   0.356   0.463  0.2540  0.9306  0.5651
13584SOL    HW152406   2.456   0.343   0.561 -0.7286  1.5143  0.7940
13584SOL    HW252407   2.424   0.453   0.444 -0.7080  0.6542 -0.0228
13585SOL     OW52408   0.158   4.472   3.882 -0.3203 -0.5056 -0.3007
13585SOL    HW152409   0.080   4.449   3.824 -1.4162  1.0871  0.5234
13585SOL    HW252410   0.207   4.549   3.843  0.2735 -0.8823 -0.3019
13586SOL     OW52411   0.354   0.340   1.608 -0.0882 -0.4589  0.4031
13586SOL    HW152412   0.410   0.392   1.544 -0.4397  0.0648  0.5134
13586SOL    HW252413   0.315   0.402   1.676 -1.1873 -0.7421  0.0450
13587SOL     OW52414   2.287   2.242   4.109  0.5459  0.0370  0.9013
13587SOL    HW152415   2.338   2.187   4.043 -0.2726 -0.7716  0.9338
13587SOL    HW252416   2.351   2.287   4.172  1.2351 -0.5705  0.6409
13588SOL     OW52417   7.702   7.194   6.476 -0.0979 -0.7188 -0.4436
13588SOL    HW152418   7.792   7.182   6.434  0.3147  0.8053 -0.0155
13588SOL    HW252419   7.631   7.170   6.410  0.6155 -2.8342 -0.4903
13589SOL     OW52420   7.556   6.959   3.625  0.2403 -0.0229  0.6430
13589SOL    HW152421   7.606   7.044   3.612 -1.5822  0.6557 -2.5569
13589SOL    HW252422   7.591   6.890   3.561  0.3519 -1.0756  1.8164
13590SOL     OW52423   7.788   2.941   5.443  0.4223 -0.0304 -0.1907
13590SOL    HW152424   7.710   2.930   5.505 -1.4806  0.4282 -2.4318
13590SOL    HW252425   7.820   3.036   5.445  2.1898 -0.6249  2.1324
13591SOL     OW52426   0.026   3.851   5.469  0.2841 -0.5735  0.0255
13591SOL    HW152427   0.025   3.771   5.408 -1.1596 -0.8591  0.4176
13591SOL    HW252428  -0.066   3.867   5.505  0.6253  1.1069  0.1734
13592SOL     OW52429   4.955   2.341   5.026  0.5343  0.3719  0.4461
13592SOL    HW152430   4.879   2.403   5.049 -1.3181 -2.0668  1.0782
13592SOL    HW252431   4.977   2.350   4.929 -2.7934 -1.1834 -0.5462
13593SOL     OW52432   2.709   0.294   0.363  0.4356 -0.3855  0.3566
13593SOL    HW152433   2.635   0.329   0.306  2.5066  0.6402 -1.8133
13593SOL    HW252434   2.728   0.199   0.338 -0.7369 -0.9686  1.5884
13594SOL     OW52435   3.773   3.207   5.241 -0.5963  0.1842  0.1233
13594SOL    HW152436   3.735   3.299   5.257  2.4343  1.3215  1.2056
13594SOL    HW252437   3.852   3.214   5.180 -0.6341 -1.7751 -0.1589
13595SOL     OW52438   4.359   4.253   0.955 -0.0439  0.3942  0.6261
13595SOL    HW152439   4.347   4.331   1.017 -1.3981 -0.8568  1.9559
13595SOL    HW252440   4.270   4.219   0.925  0.5622 -0.0133 -0.7705
13596SOL     OW52441   8.920   3.142   2.555 -0.1414  0.1642  0.2777
13596SOL    HW152442   9.019   3.149   2.542  0.0848  0.5145  2.0209
13596SOL    HW252443   8.890   3.214   2.618 -1.4029 -0.3660  0.2852
13597SOL     OW52444   7.461   9.629   1.046  1.0333  0.1980  0.7298
13597SOL    HW152445   7.475   9.651   0.949  0.1240 -2.5631 -0.0603
13597SOL    HW252446   7.539   9.578   1.081  0.5248 -0.4339  0.9440
13598SOL     OW52447   3.887   7.295   6.164 -0.1782  0.1116  0.0729
13598SOL    HW152448   3.931   7.337   6.084  1.9641 -2.5063 -0.1986
13598SOL    HW252449   3.908   7.198   6.166 -0.6448  0.0141  3.5419
13599SOL     OW52450   1.611   2.123   5.628 -0.0631  0.4220  0.5381
13599SOL    HW152451   1.553   2.055   5.672  0.6847  0.4338  1.5726
13599SOL    HW252452   1.555   2.198   5.593 -0.8491 -0.5493 -0.2811
13600SOL     OW52453   7.685   6.603   7.819  0.2857  0.4471  0.0041
13600SOL    HW152454   7.744   6.648   7.887  1.2138  0.6982 -0.9531
13600SOL    HW252455   7.741   6.547   7.758 -0.5832 -0.0413 -0.3561
13601SOL     OW52456   9.353   9.028   3.072 -0.5467 -0.0678  0.3124
13601SOL    HW152457   9.371   9.098   3.004  0.1961 -0.0041  0.5737
13601SOL    HW252458   9.254   9.023   3.089 -0.4814  2.0226  1.4598
13602SOL     OW52459   3.058   1.045   3.880  0.1873  0.1921 -0.0035
13602SOL    HW152460   2.991   0.973   3.895 -1.0648  1.8264  2.7015
13602SOL    HW252461   3.150   1.006   3.876 -0.4858 -1.5638  1.2898
13603SOL     OW52462   2.693   2.424   7.267 -0.1091  0.4492  0.0400
13603SOL    HW152463   2.636   2.438   7.347  0.5383  1.1291  0.3893
13603SOL    HW252464   2.788   2.449   7.288 -0.0299  1.1329 -1.0834
13604SOL     OW52465   3.675   7.636   4.827 -0.1483 -0.1756  0.0674
13604SOL    HW152466   3.679   7.590   4.916 -0.0123  1.6643  1.0460
13604SOL    HW252467   3.604   7.593   4.771 -0.8272 -0.8196  1.3861
13605SOL     OW52468   4.757   8.343   7.567  0.0967  0.4604 -0.2633
13605SOL    HW152469   4.816   8.271   7.603 -1.1777 -0.3300  0.2534
13605SOL    HW252470   4.787   8.431   7.604  0.5730 -0.0050  0.4896
13606SOL     OW52471   8.927   9.980   6.619 -0.6501 -0.5817  0.2351
13606SOL    HW152472   8.934  10.078   6.606  1.3391 -0.9731 -2.1361
13606SOL    HW252473   8.831   9.953   6.625 -1.2216  1.4207  0.2864
13607SOL     OW52474   1.825   2.587   2.164  0.1746  0.2013  0.0020
13607SOL    HW152475   1.745   2.542   2.205  0.5566  0.3737  0.9487
13607SOL    HW252476   1.813   2.686   2.169  0.6619  0.2357  0.5990
13608SOL     OW52477   1.113   9.466   6.070  0.0447  0.3985  0.2104
13608SOL    HW152478   1.036   9.530   6.060 -0.8144 -0.1917  2.6012
13608SOL    HW252479   1.080   9.372   6.063  1.1053  0.1631 -2.0169
13609SOL     OW52480   3.981   9.185   2.632  0.2953  0.2357  0.0836
13609SOL    HW152481   4.012   9.191   2.537 -0.9036 -0.1623 -0.3463
13609SOL    HW252482   4.038   9.243   2.690 -0.6398  2.6458 -1.3242
13610SOL     OW52483   1.404   4.993   7.412 -0.3986 -0.1038 -0.6730
13610SOL    HW152484   1.460   5.054   7.469 -2.0724  0.0574  0.8426
13610SOL    HW252485   1.394   4.904   7.457 -0.3229 -0.5489 -1.5265
13611SOL     OW52486   2.426   4.053   6.953  0.2060  0.0325  0.0391
13611SOL    HW152487   2.411   4.023   6.859  0.3282  0.6204 -0.1729
13611SOL    HW252488   2.415   4.152   6.959  0.1863 -0.0002  0.6481
13612SOL     OW52489   1.549   0.130   2.502 -0.2552 -0.5945 -0.4122
13612SOL    HW152490   1.450   0.142   2.516 -0.1151 -0.7248  0.7322
13612SOL    HW252491   1.567   0.036   2.473 -0.3443 -0.9617  0.6875
13613SOL     OW52492   1.734   5.770   5.102  0.5737  0.1029  0.1453
13613SOL    HW152493   1.735   5.722   5.190 -1.7371  1.9973  1.2447
13613SOL    HW252494   1.771   5.862   5.113 -0.6433  0.6937 -0.6663
13614SOL     OW52495   6.213   9.321   6.262  0.2637  0.4485 -0.1149
13614SOL    HW152496   6.213   9.421   6.254 -1.2202  0.4802  0.2246
13614SOL    HW252497   6.124   9.290   6.294  1.0422 -0.9171  0.7922
13615SOL     OW52498   8.612   5.673   7.580  0.4180  0.2778  0.4582
13615SOL    HW152499   8.693   5.670   7.521  0.0970  1.2387 -0.0411
13615SOL    HW252500   8.640   5.664   7.676  1.2577  1.9897  0.3920
13616SOL     OW52501   2.189   9.778   7.800 -0.0120 -0.4354 -0.2835
13616SOL    HW152502   2.092   9.753   7.804  0.3264 -1.8923 -1.0087
13616SOL    HW252503   2.226   9.754   7.710  1.0822 -0.0501  0.0558
13617SOL     OW52504   7.222   7.316   6.638 -0.2399 -0.0352 -0.1092
13617SOL    HW152505   7.206   7.293   6.734 -2.4438  1.9064  0.0401
13617SOL    HW252506   7.140   7.295   6.585  1.0640 -1.3575 -1.6345
13618SOL     OW52507   5.967   8.738   7.037 -0.2271 -0.5697  0.1576
13618SOL    HW152508   6.032   8.676   7.080 -0.1641 -0.3947  0.3150
13618SOL    HW252509   5.905   8.687   6.978  1.8122 -0.4651 -2.1996
13619SOL     OW52510   6.425   0.946   2.142 -0.1695 -0.2945  1.1986
13619SOL    HW152511   6.510   0.997   2.152  0.2495 -0.9337  0.9769
13619SOL    HW252512   6.350   0.998   2.180 -0.0284  1.2194 -0.5213
13620SOL     OW52513   2.899   9.348   3.338  0.5147 -0.4212  0.3209
13620SOL    HW152514   2.819   9.408   3.335 -0.0683 -1.2329 -1.7772
13620SOL    HW252515   2.976   9.394   3.293  0.2251 -1.0068 -0.7881
13621SOL     OW52516   8.953   6.439   2.846 -0.0343  0.7090 -0.0131
13621SOL    HW152517   8.904   6.504   2.904 -2.1019  0.2854 -1.2196
13621SOL    HW252518   8.892   6.363   2.824  1.7047 -0.6246 -0.2852
13622SOL     OW52519   9.938   6.010   6.094 -0.1592  0.6674 -0.0160
13622SOL    HW152520  10.007   6.041   6.028 -0.7416 -0.5436 -1.2203
13622SOL    HW252521   9.874   6.085   6.112  0.4549  1.2527 -0.2488
13623SOL     OW52522   9.225   1.323   4.171 -0.2453  0.5675  0.1047
13623SOL    HW152523   9.169   1.324   4.088 -0.7950 -1.8696  0.3961
13623SOL    HW252524   9.165   1.329   4.251  0.1658  1.2486  0.3644
13624SOL     OW52525   6.211   0.747   4.759  0.1772  0.2897  0.2497
13624SOL    HW152526   6.185   0.654   4.784  0.0299 -0.0630 -1.1544
13624SOL    HW252527   6.173   0.811   4.825  0.7208 -0.6840  1.5238
13625SOL     OW52528   8.918   6.765   2.732 -0.1792 -0.1245 -0.3251
13625SOL    HW152529   8.871   6.682   2.761  1.7896 -1.5632 -1.1341
13625SOL    HW252530   8.950   6.755   2.638  1.5672  0.8557  0.1278
13626SOL     OW52531   3.525   3.337   7.603 -0.6514  0.5996 -0.0934
13626SOL    HW152532   3.425   3.333   7.593 -0.7758  2.4348  0.2534
13626SOL    HW252533   3.549   3.417   7.657  1.0349  0.2374 -0.3002
13627SOL     OW52534   8.477   7.525   6.646  0.3505 -0.2668  0.0406
13627SOL    HW152535   8.531   7.462   6.590 -0.0390  0.8887 -1.6960
13627SOL    HW252536   8.387   7.538   6.603 -0.5862 -0.6200  1.8296
13628SOL     OW52537   9.582   4.371   0.707 -0.3216 -0.0033 -0.2253
13628SOL    HW152538   9.553   4.288   0.756 -1.2594 -0.0279 -0.8139
13628SOL    HW252539   9.548   4.452   0.755 -1.6087 -0.0382 -1.0412
13629SOL     OW52540   4.038   4.945   3.690  0.2808 -0.6540  0.4654
13629SOL    HW152541   4.084   4.922   3.776  0.0443 -3.6712 -0.1550
13629SOL    HW252542   3.939   4.940   3.702  0.1976  0.7455  0.4629
13630SOL     OW52543   3.476   8.544   3.866  0.2186  0.1535  0.1732
13630SOL    HW152544   3.461   8.639   3.890 -0.2820 -0.1048  0.9062
13630SOL    HW252545   3.405   8.513   3.803  0.2897  0.2247  0.0590
13631SOL     OW52546   7.647   5.039   1.302  0.3316 -0.1590 -0.0803
13631SOL    HW152547   7.617   5.045   1.397  0.2941 -0.1206 -0.0947
13631SOL    HW252548   7.727   4.978   1.296  0.3274 -0.1691 -0.0258
13632SOL     OW52549   1.465   2.315   1.822 -0.0748 -0.1403 -0.4179
13632SOL    HW152550   1.412   2.243   1.866 -0.2485  0.1245 -0.1927
13632SOL    HW252551   1.414   2.349   1.742 -1.4222  1.8519  1.2442
13633SOL     OW52552   5.112   1.305   6.614 -0.2168 -0.4267  0.0098
13633SOL    HW152553   5.060   1.327   6.697 -1.6569 -2.8400 -0.2040
13633SOL    HW252554   5.056   1.325   6.534  0.5501  0.3090 -0.3567
13634SOL     OW52555   8.772   7.423   1.705  0.0776  0.7716 -0.3639
13634SOL    HW152556   8.802   7.513   1.675 -0.1572  1.1257  0.4407
13634SOL    HW252557   8.785   7.415   1.804  2.0811 -0.8677 -0.7366
13635SOL     OW52558   2.664   8.796   6.516  0.2307  0.3633 -0.0231
13635SOL    HW152559   2.591   8.728   6.513 -0.7601  1.4102  0.0437
13635SOL    HW252560   2.744   8.762   6.466 -0.4056 -0.6704 -0.3408
13636SOL     OW52561   5.103   9.147   6.656 -0.0461  0.0354 -0.0937
13636SOL    HW152562   5.199   9.171   6.648 -0.4557  0.8122 -2.9301
13636SOL    HW252563   5.050   9.229   6.680 -0.1889 -0.1231  0.1413
13637SOL     OW52564   4.667   9.158   1.361 -0.0601 -0.5282  0.0122
13637SOL    HW152565   4.696   9.233   1.421  0.7353 -2.8990  2.6729
13637SOL    HW252566   4.584   9.185   1.312  0.5004  2.2738  0.5115
13638SOL     OW52567   6.616   6.096   1.312 -0.1306  0.4409  0.3390
13638SOL    HW152568   6.637   5.999   1.316 -1.1740  0.2121  0.4714
13638SOL    HW252569   6.517   6.109   1.316 -0.0213  1.4863 -0.1461
13639SOL     OW52570   3.901   6.466   1.191 -0.3513 -0.0331 -0.0044
13639SOL    HW152571   3.923   6.522   1.111  0.0938  0.2594  0.3251
13639SOL    HW252572   3.985   6.429   1.231 -0.6862 -1.6077 -0.6982
13640SOL     OW52573   0.234   6.694   6.429 -0.5705 -0.3043  0.0624
13640SOL    HW152574   0.183   6.728   6.350  1.5439  1.5816 -0.5242
13640SOL    HW252575   0.310   6.638   6.399  0.4174  0.6571  0.7449
13641SOL     OW52576   4.151   0.489   1.963  0.0793 -0.5888 -0.2348
13641SOL    HW152577   4.193   0.507   1.874  0.4500 -1.0351 -0.1484
13641SOL    HW252578   4.057   0.525   1.963 -0.1307 -1.1245 -1.0089
13642SOL     OW52579   7.985   7.341   0.639  0.6801 -0.1291  0.6436
13642SOL    HW152580   7.967   7.431   0.677 -0.8203  0.0302 -0.3955
13642SOL    HW252581   7.964   7.271   0.708 -3.4660  0.0826 -0.2226
13643SOL     OW52582   9.396   0.700   6.297 -0.3988  0.2169  0.3832
13643SOL    HW152583   9.451   0.650   6.364 -1.2766  0.8965  1.6499
13643SOL    HW252584   9.322   0.642   6.264 -0.1170 -0.0410  0.2129
13644SOL     OW52585   4.052   9.394   3.447 -0.2139 -0.8040 -1.0955
13644SOL    HW152586   4.013   9.443   3.369 -0.3142  1.5244  0.3519
13644SOL    HW252587   4.138   9.436   3.473 -0.7759 -0.7753  0.7877
13645SOL     OW52588   3.326   8.705   7.324  0.8243  0.0674 -0.2156
13645SOL    HW152589   3.327   8.794   7.369  0.3977  0.4376 -0.9442
13645SOL    HW252590   3.315   8.717   7.225  0.2729 -0.8110 -0.2647
13646SOL     OW52591   3.186   4.712   5.081 -0.1811 -0.4828  0.3624
13646SOL    HW152592   3.238   4.665   5.153 -1.8853  0.4246  2.2470
13646SOL    HW252593   3.198   4.810   5.090 -1.2363 -0.3221  0.0552
13647SOL     OW52594   3.965   8.622   3.248  0.1235  0.6710  0.3293
13647SOL    HW152595   4.030   8.677   3.301  0.4173 -0.1056  0.7757
13647SOL    HW252596   4.009   8.590   3.164 -0.6697  2.7993 -0.9334
13648SOL     OW52597   1.723   7.088  10.015 -0.3410 -0.1388  0.5638
13648SOL    HW152598   1.755   6.997   9.987 -1.0734 -0.6134  1.2384
13648SOL    HW252599   1.775   7.158   9.967 -1.5205 -0.9175 -1.9661
13649SOL     OW52600   5.146   8.728   8.101  0.0331  0.1527 -0.0116
13649SOL    HW152601   5.236   8.760   8.130 -0.2516  0.4230  0.6024
13649SOL    HW252602   5.155   8.647   8.044  0.7042  0.5981 -0.5381
13650SOL     OW52603   3.036   0.809   1.886 -0.0208 -0.0527 -0.1270
13650SOL    HW152604   3.095   0.881   1.923  0.5277 -0.9922  0.8690
13650SOL    HW252605   2.941   0.830   1.906  0.1102  0.5576 -0.1347
13651SOL     OW52606   2.680   6.497   4.053  0.3193 -0.6515 -0.1142
13651SOL    HW152607   2.705   6.531   4.143 -1.8815  0.6496  0.0403
13651SOL    HW252608   2.761   6.490   3.995  1.2026  2.2327  0.7431
13652SOL     OW52609   2.270   2.921   0.049  0.4018 -0.1463 -0.3017
13652SOL    HW152610   2.284   2.939   0.146  1.5064 -0.9188 -0.3054
13652SOL    HW252611   2.306   2.830   0.027  0.4384  0.1525 -1.4967
13653SOL     OW52612   6.421   9.118   7.519 -0.8119 -0.3989  0.6530
13653SOL    HW152613   6.361   9.104   7.440 -0.5910 -1.7429  0.7079
13653SOL    HW252614   6.426   9.216   7.540 -0.5760  0.0325 -1.2355
13654SOL     OW52615   2.455   0.269   1.564 -0.9782 -0.5793  0.9422
13654SOL    HW152616   2.550   0.246   1.587 -0.1693  2.1840  0.5306
13654SOL    HW252617   2.434   0.232   1.473 -0.5089 -1.7445  1.2990
13655SOL     OW52618   3.095   9.395   2.073  0.1063  0.1409  0.0911
13655SOL    HW152619   3.039   9.453   2.013  0.9824 -1.1459 -2.0187
13655SOL    HW252620   3.036   9.345   2.136 -0.9960  0.0345 -1.0176
13656SOL     OW52621   7.769   7.141   5.106  0.3074 -0.0481 -0.0873
13656SOL    HW152622   7.710   7.088   5.167  0.3219  1.0467  0.8970
13656SOL    HW252623   7.798   7.083   5.030 -0.5532 -1.1314  0.3832
13657SOL     OW52624   3.846   3.537   6.010 -0.2195  0.2998 -0.4287
13657SOL    HW152625   3.898   3.463   5.966  0.4643  1.2786 -1.2866
13657SOL    HW252626   3.749   3.516   6.006 -0.0253 -0.6240 -0.5494
13658SOL     OW52627   1.297   8.236   2.529 -0.0159  0.0573  0.3729
13658SOL    HW152628   1.235   8.284   2.591 -0.8110 -1.7661  1.0095
13658SOL    HW252629   1.384   8.218   2.575 -0.0770  0.0131  0.4712
13659SOL     OW52630   3.740   7.381   0.454 -0.1715  0.0295 -0.2733
13659SOL    HW152631   3.695   7.372   0.365 -0.7627  0.0742  0.0190
13659SOL    HW252632   3.816   7.317   0.460  0.8124  1.0712 -1.3941
13660SOL     OW52633   9.726   7.905   0.477 -0.1093  0.6526 -0.2534
13660SOL    HW152634   9.825   7.914   0.465 -0.2316  1.9294 -0.3335
13660SOL    HW252635   9.685   7.995   0.489 -0.6621 -0.1106  4.8119
13661SOL     OW52636   4.764   5.268   3.099  0.4265 -0.0950 -0.8108
13661SOL    HW152637   4.731   5.247   3.006 -2.0873  0.1348 -0.0229
13661SOL    HW252638   4.705   5.339   3.139  0.7075 -1.0882  1.4148
13662SOL     OW52639   0.078   4.257   1.255  0.0851 -0.8615 -0.3073
13662SOL    HW152640   0.131   4.174   1.273  2.5967  1.3057  2.8664
13662SOL    HW252641   0.115   4.302   1.174  2.6104  0.1301  1.3311
13663SOL     OW52642   0.336   5.746   7.579 -0.0194 -0.3100  0.0227
13663SOL    HW152643   0.379   5.712   7.663 -0.6911  0.5542  0.7262
13663SOL    HW252644   0.380   5.703   7.500  2.2102  0.6453  0.7002
13664SOL     OW52645   9.013   7.110   4.302  0.6422 -0.6769 -0.2676
13664SOL    HW152646   9.106   7.087   4.331  0.3923 -3.6504 -1.5748
13664SOL    HW252647   8.950   7.039   4.334 -0.8155  0.1351 -1.2792
13665SOL     OW52648   8.822   5.684   7.201  0.2473 -0.3571 -0.2335
13665SOL    HW152649   8.872   5.611   7.155  2.4418  1.8115 -1.4704
13665SOL    HW252650   8.773   5.739   7.133  2.5730  2.1717  0.0033
13666SOL     OW52651   9.342   1.514   2.527 -0.4806  0.3278  0.2059
13666SOL    HW152652   9.321   1.432   2.580 -0.8373  0.2090 -0.1133
13666SOL    HW252653   9.260   1.571   2.520 -0.1569  0.8552  0.6769
13667SOL     OW52654   4.158   2.825   0.505  0.5195 -0.0542 -0.3511
13667SOL    HW152655   4.157   2.806   0.407  0.0450  2.8335 -0.9289
13667SOL    HW252656   4.225   2.895   0.526  1.8432 -1.8493  1.6764
13668SOL     OW52657   0.906   3.028   1.446 -0.1849 -0.2916 -0.3246
13668SOL    HW152658   0.867   3.076   1.525  0.2447 -0.0469 -0.2662
13668SOL    HW252659   0.868   2.935   1.443  1.5761 -1.1167  1.5493
13669SOL     OW52660   3.815   3.500   1.174  0.1188  0.6739  0.2522
13669SOL    HW152661   3.720   3.516   1.148  0.0244 -1.1480 -0.5880
13669SOL    HW252662   3.875   3.543   1.107 -0.1110  0.0871 -0.3289
13670SOL     OW52663   5.314   0.326   7.145 -0.3658  0.2124  0.1002
13670SOL    HW152664   5.316   0.342   7.046  0.7653  2.0092  0.3940
13670SOL    HW252665   5.354   0.236   7.165  2.0021  1.0081 -0.8613
13671SOL     OW52666   6.773   5.910   1.842  1.1802  0.5689  0.3865
13671SOL    HW152667   6.707   5.910   1.767  1.7254 -1.9244 -0.1410
13671SOL    HW252668   6.844   5.842   1.824  2.3950  1.3273  2.2293
13672SOL     OW52669   2.105   5.220   6.943 -0.2553  0.7138  0.1674
13672SOL    HW152670   2.027   5.169   6.907  0.9478 -1.0846  0.0385
13672SOL    HW252671   2.184   5.159   6.949  1.4393  2.8038 -0.7342
13673SOL     OW52672   7.761   6.341   1.121 -0.2919  0.0003  0.1890
13673SOL    HW152673   7.853   6.311   1.094 -0.9514 -2.8369  0.8923
13673SOL    HW252674   7.707   6.359   1.039  0.5552  0.5946 -0.2448
13674SOL     OW52675   9.435   9.630   1.463 -0.0249 -0.1652  0.1209
13674SOL    HW152676   9.421   9.665   1.555  1.3396  0.3517  0.1430
13674SOL    HW252677   9.522   9.664   1.427 -1.1382  0.7116 -1.8498
13675SOL     OW52678   9.070   2.130   1.594  0.2621 -0.5295  0.7608
13675SOL    HW152679   9.160   2.145   1.636  0.4893  1.4041 -0.3925
13675SOL    HW252680   9.000   2.176   1.649  0.2237 -0.3214  0.5381
13676SOL     OW52681   1.418   4.343   5.299  0.2552  0.2193 -0.5189
13676SOL    HW152682   1.327   4.352   5.260 -0.0264  0.1930  0.1306
13676SOL    HW252683   1.455   4.433   5.321  0.1767  0.2042 -0.3160
13677SOL     OW52684   4.900   1.530   1.496  0.0425 -0.3882  0.2329
13677SOL    HW152685   4.880   1.435   1.521 -0.1971 -0.3388  0.2312
13677SOL    HW252686   4.924   1.536   1.400 -3.3172  0.0228 -0.6506
13678SOL     OW52687   9.023   0.380   1.246  0.2978 -0.1257 -0.3973
13678SOL    HW152688   9.001   0.363   1.342  0.2357 -1.1080 -0.5806
13678SOL    HW252689   9.044   0.294   1.201  1.7869  0.4880 -0.9076
13679SOL     OW52690   9.756   9.305   1.226 -0.9129 -0.4586 -0.1221
13679SOL    HW152691   9.738   9.349   1.314  1.0858  3.2885 -1.4673
13679SOL    HW252692   9.721   9.363   1.152 -0.0582 -2.1752 -1.9109
13680SOL     OW52693   1.854   4.934  10.063 -0.4281  0.1352  0.5476
13680SOL    HW152694   1.901   4.894  10.142 -0.0619  0.8352  0.6871
13680SOL    HW252695   1.864   4.873   9.984  1.9120  0.9177  0.2056
13681SOL     OW52696   4.152   0.395   4.172  0.5813 -0.4089 -0.2481
13681SOL    HW152697   4.139   0.297   4.159  1.4154 -0.7110  1.0698
13681SOL    HW252698   4.188   0.412   4.264 -0.7149  1.2385 -0.0271
13682SOL     OW52699   9.721   0.992   7.805  0.2922 -0.1067  0.0846
13682SOL    HW152700   9.712   0.906   7.754  0.5869  0.3195 -0.7026
13682SOL    HW252701   9.631   1.020   7.839  0.5765 -2.0662  2.6116
13683SOL     OW52702   0.759   9.106   2.830 -0.1948 -0.0424  0.3424
13683SOL    HW152703   0.748   9.007   2.833  0.9616 -0.2866 -1.9934
13683SOL    HW252704   0.722   9.141   2.743  1.7502  1.2167 -0.0114
13684SOL     OW52705   5.623   8.128   3.191  0.3336  0.0141  0.0360
13684SOL    HW152706   5.689   8.152   3.120 -0.6264 -0.5926 -1.0822
13684SOL    HW252707   5.669   8.126   3.280  2.2087 -1.9831 -0.9186
13685SOL     OW52708   9.733   1.096   7.224 -0.5988 -0.4520  0.2367
13685SOL    HW152709   9.746   1.022   7.290 -3.2346 -0.0978  1.2292
13685SOL    HW252710   9.802   1.167   7.239  0.9583 -1.9473  0.3210
13686SOL     OW52711   5.326   3.711   1.862 -0.4761 -0.3627  0.8106
13686SOL    HW152712   5.283   3.726   1.951 -1.9619 -1.1806  0.2547
13686SOL    HW252713   5.424   3.732   1.868 -0.5454 -0.4789  2.6476
13687SOL     OW52714   8.633   5.036   5.875  0.1005  0.3770 -0.0754
13687SOL    HW152715   8.561   5.027   5.806 -0.7289 -0.2824  0.8488
13687SOL    HW252716   8.590   5.056   5.964  1.1730  1.6548  0.1637
13688SOL     OW52717   2.151   9.436   2.466 -0.4447 -0.2537 -0.2533
13688SOL    HW152718   2.121   9.350   2.507 -0.3589  0.0218  0.3918
13688SOL    HW252719   2.132   9.434   2.367  0.7719 -1.5358 -0.4795
13689SOL     OW52720   3.427   9.217   4.687 -0.7960  0.2238 -0.1187
13689SOL    HW152721   3.344   9.210   4.632 -0.2526 -0.7073 -0.8405
13689SOL    HW252722   3.466   9.308   4.679 -0.4117 -0.0787 -1.7445
13690SOL     OW52723   9.574   1.301   4.541  0.4389  0.1681  0.4706
13690SOL    HW152724   9.501   1.281   4.607 -1.6543  0.1871 -1.7740
13690SOL    HW252725   9.614   1.390   4.561  0.7422 -0.3752  2.4670
13691SOL     OW52726   6.700   2.080   1.054  0.0336 -0.5795 -0.1284
13691SOL    HW152727   6.759   2.055   0.978  0.3536 -0.3387  0.0377
13691SOL    HW252728   6.605   2.070   1.028  0.1452 -3.1547  0.3150
13692SOL     OW52729   2.368   1.546   2.637 -0.0765  0.1010 -0.0690
13692SOL    HW152730   2.333   1.636   2.663 -3.7883 -1.0665 -0.6576
13692SOL    HW252731   2.397   1.547   2.542 -2.0150  0.1820 -0.6718
13693SOL     OW52732   3.576   2.610   3.758  0.6353 -0.5147 -0.6671
13693SOL    HW152733   3.644   2.666   3.806 -1.1162 -0.7641  2.2694
13693SOL    HW252734   3.621   2.556   3.687  2.8609  2.2054 -1.4255
13694SOL     OW52735   4.534   6.296   2.532 -0.0306  0.6320  0.1867
13694SOL    HW152736   4.483   6.340   2.458 -0.2662 -1.1621 -0.7504
13694SOL    HW252737   4.512   6.199   2.533  2.5496  0.0422  0.4790
13695SOL     OW52738   8.977   5.824   2.182  0.1495  0.0707  0.2991
13695SOL    HW152739   9.039   5.790   2.112 -0.0016 -0.9390  0.6498
13695SOL    HW252740   8.902   5.758   2.196  0.7756 -0.2788  2.1875
13696SOL     OW52741   2.185   9.763   9.986 -0.3779 -0.2989  0.0696
13696SOL    HW152742   2.089   9.746   9.965 -0.2180 -2.2283  0.8487
13696SOL    HW252743   2.230   9.800   9.905 -0.8266 -3.3315 -1.6304
13697SOL     OW52744   6.808   1.877   6.747  0.1324 -0.4469 -0.1095
13697SOL    HW152745   6.825   1.915   6.838  1.4638  1.0914 -0.9690
13697SOL    HW252746   6.768   1.948   6.689 -1.1344 -1.5514 -0.6226
13698SOL     OW52747   2.659   8.069   6.581  0.0730  0.7808  0.4500
13698SOL    HW152748   2.601   7.993   6.609 -0.0841  0.8846  0.4082
13698SOL    HW252749   2.633   8.098   6.489  0.7518  0.2736  0.0957
13699SOL     OW52750   0.960   0.132   6.747  0.2908 -0.4669  0.0243
13699SOL    HW152751   0.876   0.078   6.747 -0.5092  0.7404 -1.1603
13699SOL    HW252752   1.013   0.112   6.829 -1.1156 -1.3100  0.7333
13700SOL     OW52753   4.061   0.736   6.310 -0.3803 -0.0559 -0.0634
13700SOL    HW152754   3.994   0.805   6.284  0.5541  1.5464  1.6420
13700SOL    HW252755   4.124   0.720   6.234 -1.0589  0.4393 -0.7276
13701SOL     OW52756   8.662   6.136   4.455  0.7474  0.1135 -0.0758
13701SOL    HW152757   8.623   6.212   4.507 -1.6354 -1.2533  0.2067
13701SOL    HW252758   8.599   6.111   4.381  1.4742 -1.6067 -0.1190
13702SOL     OW52759   0.580   0.377   6.057 -0.1063 -0.0932  0.7070
13702SOL    HW152760   0.639   0.416   6.128 -0.6772  0.7053  0.7384
13702SOL    HW252761   0.570   0.278   6.074  0.2335 -0.0138  1.4024
13703SOL     OW52762   2.001   7.507   2.263 -0.0655 -0.7176  0.0469
13703SOL    HW152763   2.014   7.606   2.273  0.7294 -1.0936  3.1097
13703SOL    HW252764   2.074   7.470   2.205  0.6509  0.2563  0.3097
13704SOL     OW52765   7.421   4.628   3.438  0.3516  0.3073 -0.3181
13704SOL    HW152766   7.467   4.617   3.350 -0.4471 -2.2481 -0.4492
13704SOL    HW252767   7.382   4.720   3.444  0.1322  0.3950 -2.7693
13705SOL     OW52768   8.097   0.793   4.104 -0.0593 -0.0473 -0.8286
13705SOL    HW152769   8.026   0.859   4.126 -0.5940 -0.5720 -0.9575
13705SOL    HW252770   8.055   0.704   4.085  0.5923 -0.2264 -1.4390
13706SOL     OW52771   6.994   8.867   5.664 -0.3443 -0.4012 -0.2856
13706SOL    HW152772   7.011   8.897   5.758  0.3541 -1.1283 -0.1706
13706SOL    HW252773   6.928   8.791   5.665  0.9120 -1.5066 -0.2361
13707SOL     OW52774   5.888   7.735   7.165  0.1364 -0.1743 -1.2490
13707SOL    HW152775   5.967   7.676   7.183  1.2697  1.6642  0.1284
13707SOL    HW252776   5.804   7.687   7.190  0.9215 -1.7018 -1.4873
13708SOL     OW52777   0.398   1.238   2.697 -0.1643  0.7532 -0.2762
13708SOL    HW152778   0.413   1.264   2.793 -0.4194  0.6959 -0.2203
13708SOL    HW252779   0.486   1.225   2.652 -0.0434  0.7099 -0.0284
13709SOL     OW52780   8.528   0.345   0.242  0.1190 -0.3828  0.1346
13709SOL    HW152781   8.459   0.416   0.257 -1.1688 -1.0937 -2.1561
13709SOL    HW252782   8.614   0.387   0.213  0.2592  0.4099  1.6454
13710SOL     OW52783   1.734   4.250   5.738  0.0090 -0.0850 -0.5027
13710SOL    HW152784   1.676   4.180   5.696 -0.0221 -0.3843  0.0416
13710SOL    HW252785   1.677   4.313   5.791  0.0274  0.3988 -1.0430
13711SOL     OW52786   0.523   8.791   0.400 -0.3044 -0.4542 -0.0094
13711SOL    HW152787   0.507   8.764   0.305 -0.3586 -0.4496 -0.0017
13711SOL    HW252788   0.543   8.710   0.454  2.2706 -0.1984 -0.5122
13712SOL     OW52789   6.098   1.075   2.828 -0.5194  0.5072  0.3977
13712SOL    HW152790   6.174   1.021   2.791 -1.2019 -2.0738  2.6136
13712SOL    HW252791   6.129   1.167   2.850  1.0109  0.6489 -2.2103
13713SOL     OW52792   1.010   8.023   1.507 -0.1679  0.4414  0.0648
13713SOL    HW152793   1.087   8.074   1.545  0.0884 -0.9734  1.5240
13713SOL    HW252794   0.924   8.069   1.530  0.1550  1.1999 -0.2413
13714SOL     OW52795   1.996   9.941   7.269 -0.3034 -0.1509 -0.2901
13714SOL    HW152796   1.935   9.914   7.343 -0.1226 -1.2322 -0.5257
13714SOL    HW252797   2.091   9.923   7.295  0.0224  2.5181  0.4995
13715SOL     OW52798   3.142   8.454   4.676 -0.5576 -0.9154  0.0023
13715SOL    HW152799   3.061   8.396   4.671 -0.0979 -1.4820 -1.0191
13715SOL    HW252800   3.154   8.501   4.588 -0.3078 -0.1072  0.4603
13716SOL     OW52801   2.292   7.393   3.901 -0.7408 -0.6095  0.7842
13716SOL    HW152802   2.371   7.333   3.913 -0.0938  0.3896  1.5816
13716SOL    HW252803   2.223   7.370   3.969 -0.2214 -0.0198  1.5160
13717SOL     OW52804   7.112   0.729   6.252  0.2695  0.1705  0.2200
13717SOL    HW152805   7.174   0.681   6.315 -0.8947  0.2878  1.4794
13717SOL    HW252806   7.126   0.695   6.159  1.3135 -0.7237  0.6905
13718SOL     OW52807   6.939   9.561   2.173 -0.0182 -0.1064 -0.0858
13718SOL    HW152808   7.033   9.540   2.198  0.6185  1.1368 -1.3328
13718SOL    HW252809   6.909   9.642   2.222 -1.5111 -2.2180  2.6077
13719SOL     OW52810   8.193   5.744   4.228 -0.1474 -0.4618 -0.0205
13719SOL    HW152811   8.166   5.764   4.133  1.6023  3.5236  0.2025
13719SOL    HW252812   8.291   5.724   4.231 -0.1718 -0.4453  0.9479
13720SOL     OW52813   5.580   5.775   9.876  0.1380 -0.3192  0.7158
13720SOL    HW152814   5.560   5.726   9.791 -0.7430  0.7474  0.2923
13720SOL    HW252815   5.551   5.720   9.954 -0.5835 -0.6029  0.2563
13721SOL     OW52816   5.269   8.407   3.485 -0.1150  0.5281 -0.2044
13721SOL    HW152817   5.330   8.403   3.405  0.4918  2.6487  0.1325
13721SOL    HW252818   5.324   8.413   3.568 -0.7704  2.1736  0.1214
13722SOL     OW52819   5.337   3.459   2.369  0.0438 -0.2565 -0.9181
13722SOL    HW152820   5.426   3.453   2.415  0.3954 -2.6086 -1.8155
13722SOL    HW252821   5.329   3.384   2.302 -2.5954 -0.0684 -0.8692
13723SOL     OW52822   2.275   9.631   3.202  0.1468 -0.2543  0.1359
13723SOL    HW152823   2.223   9.558   3.158 -0.7408  0.6973 -0.4319
13723SOL    HW252824   2.230   9.719   3.184 -0.0044  0.2151  2.5759
13724SOL     OW52825   8.791   1.764   6.251  0.2162  0.6715 -0.1970
13724SOL    HW152826   8.697   1.797   6.241  0.5801  1.2995 -1.7668
13724SOL    HW252827   8.791   1.673   6.290 -1.0708  0.5716 -0.4175
13725SOL     OW52828   0.919   2.900   3.451 -0.4353  0.0678 -0.1088
13725SOL    HW152829   0.928   2.855   3.540 -1.6406 -0.1458 -0.0960
13725SOL    HW252830   1.001   2.954   3.434 -0.4861  0.6651  1.4432
13726SOL     OW52831   2.507   9.430   3.571  0.7256 -0.3748 -0.0629
13726SOL    HW152832   2.579   9.435   3.502  2.0248 -0.1377  1.3001
13726SOL    HW252833   2.490   9.521   3.609  0.7439 -0.6815  0.6812
13727SOL     OW52834   5.964   2.944   1.771 -0.2217 -0.6666  0.0376
13727SOL    HW152835   5.989   2.861   1.821  0.8194 -0.3721  0.0201
13727SOL    HW252836   6.020   2.952   1.689 -0.9755 -0.4314 -0.4640
13728SOL     OW52837   8.894   8.511   5.904 -0.2294  0.0618  0.0090
13728SOL    HW152838   8.953   8.572   5.957  0.3379  0.0952 -0.6514
13728SOL    HW252839   8.901   8.418   5.940 -2.7262  0.7175  2.3948
13729SOL     OW52840   3.453   7.361   3.391  0.5654 -0.4579 -0.3105
13729SOL    HW152841   3.370   7.398   3.349  0.0115 -1.3340 -0.0159
13729SOL    HW252842   3.527   7.359   3.324 -0.1452 -1.3092 -1.0742
13730SOL     OW52843   8.705   3.459   2.753 -0.1874 -0.2805 -0.3252
13730SOL    HW152844   8.725   3.366   2.783  1.2548 -0.4618 -1.7477
13730SOL    HW252845   8.790   3.513   2.754 -0.9724  0.9632  0.2875
13731SOL     OW52846   0.235   0.477   4.373 -0.1043 -0.5100  0.3164
13731SOL    HW152847   0.256   0.460   4.276 -0.0826 -2.8831  0.6957
13731SOL    HW252848   0.313   0.447   4.429  0.1746  1.5136  1.0526
13732SOL     OW52849   0.681   4.395   4.711 -0.2745 -0.1120 -0.1055
13732SOL    HW152850   0.653   4.311   4.757 -1.5210 -0.0409 -0.7117
13732SOL    HW252851   0.633   4.473   4.752  2.3760  0.5986  1.8219
13733SOL     OW52852   0.973   2.084   2.345 -0.2495  0.3108  0.1609
13733SOL    HW152853   0.962   2.111   2.441 -0.1623 -0.3617  0.3630
13733SOL    HW252854   0.968   1.985   2.338  1.8095  0.2089 -0.2450
13734SOL     OW52855   0.930   2.181   3.699 -0.2762 -0.0104 -0.3499
13734SOL    HW152856   1.027   2.188   3.676  0.0279 -1.6203  0.3126
13734SOL    HW252857   0.917   2.200   3.797 -0.8339  1.6342 -0.7376
13735SOL     OW52858   9.782   0.536   6.940  0.1834 -0.4608  0.6907
13735SOL    HW152859   9.711   0.466   6.943  0.4379 -0.9400 -2.6192
13735SOL    HW252860   9.869   0.494   6.914  1.0500  0.6017  1.8151
13736SOL     OW52861   9.674   5.146   4.263  0.5193  0.0070  0.0735
13736SOL    HW152862   9.611   5.096   4.203  0.5748  0.0263 -0.0013
13736SOL    HW252863   9.751   5.180   4.209 -0.2211  1.3771 -0.1241
13737SOL     OW52864   6.050   0.603   1.077  0.4834  0.0728  0.0361
13737SOL    HW152865   6.002   0.516   1.067 -2.2904  1.6698 -1.0985
13737SOL    HW252866   6.089   0.610   1.169  0.3809 -2.1694  0.2656
13738SOL     OW52867   1.060   7.118   4.704 -0.0748  0.0049 -0.1615
13738SOL    HW152868   1.020   7.150   4.790  0.3444  1.7996 -0.6028
13738SOL    HW252869   1.149   7.077   4.722 -0.1548  0.0301  0.3016
13739SOL     OW52870   9.429   6.496   4.753  0.3529  0.5410 -0.2011
13739SOL    HW152871   9.436   6.398   4.770  2.2174  0.5372 -0.9264
13739SOL    HW252872   9.333   6.524   4.760 -0.0687 -1.1289  1.0494
13740SOL     OW52873   5.121   9.643   3.559 -0.7379  0.0019 -0.0758
13740SOL    HW152874   5.035   9.625   3.608 -1.1004 -1.1073 -1.1109
13740SOL    HW252875   5.144   9.565   3.502  1.2361  0.0915  0.5581
13741SOL     OW52876   4.886   9.369   1.104 -0.3648  0.3178 -0.2155
13741SOL    HW152877   4.904   9.456   1.057 -3.2918  0.2334 -1.6115
13741SOL    HW252878   4.959   9.351   1.170  2.5064  1.7286 -2.8796
13742SOL     OW52879   7.490   6.050   4.846 -0.5291  0.0216 -0.2842
13742SOL    HW152880   7.459   6.002   4.928  0.5617 -0.5880 -0.2231
13742SOL    HW252881   7.501   5.985   4.771  0.4221  0.2715 -0.3596
13743SOL     OW52882   8.333   0.807   7.096  0.4594 -0.1463  0.0355
13743SOL    HW152883   8.378   0.883   7.142 -0.3932  0.9917 -0.9522
13743SOL    HW252884   8.402   0.743   7.062  1.3037  1.2288 -0.8882
13744SOL     OW52885   6.601   0.777   0.674  0.4441 -0.0171  0.7257
13744SOL    HW152886   6.582   0.746   0.768 -0.1837 -0.1861  0.5462
13744SOL    HW252887   6.700   0.786   0.662  0.6148 -1.3494  0.9782
13745SOL     OW52888   2.153   0.253   6.037 -0.2284  0.3030 -0.3068
13745SOL    HW152889   2.242   0.273   6.079  0.3353 -1.1485 -0.7714
13745SOL    HW252890   2.155   0.280   5.941  0.0721 -0.6281 -0.5774
13746SOL     OW52891   2.190   0.370   4.566 -0.1042  0.2942  0.3791
13746SOL    HW152892   2.227   0.278   4.573 -1.0809 -0.1665 -0.4614
13746SOL    HW252893   2.103   0.375   4.614  0.3159  0.9953  1.0971
13747SOL     OW52894   2.290   2.560   6.637  1.0130  0.1694 -0.1884
13747SOL    HW152895   2.232   2.575   6.557 -1.1132 -3.1554  0.6016
13747SOL    HW252896   2.365   2.498   6.613  0.3201 -0.9054  0.3961
13748SOL     OW52897   0.270   5.760   1.667 -0.2970 -0.7261  0.6538
13748SOL    HW152898   0.360   5.720   1.685  0.0761 -0.4608 -0.5882
13748SOL    HW252899   0.228   5.715   1.589 -0.2579  0.6773 -0.1997
13749SOL     OW52900   2.201   9.281   1.327  0.4209 -0.2798  0.2837
13749SOL    HW152901   2.268   9.289   1.253 -1.0892 -0.2850 -1.0999
13749SOL    HW252902   2.216   9.354   1.394  0.9723  0.5024 -0.6953
13750SOL     OW52903   2.931   8.630   8.026 -0.4662 -0.6431 -0.0352
13750SOL    HW152904   2.953   8.592   7.936  1.0717 -0.2515  0.1550
13750SOL    HW252905   3.014   8.631   8.083 -0.6194  2.2234  0.2191
13751SOL     OW52906   3.800   1.818   5.611  0.3881  0.0106 -0.3372
13751SOL    HW152907   3.727   1.828   5.543  0.3855  2.0966 -0.0622
13751SOL    HW252908   3.775   1.747   5.676 -0.3016 -0.9577 -1.6471
13752SOL     OW52909   4.791   2.222   6.656  0.5044  0.3882 -0.2102
13752SOL    HW152910   4.815   2.302   6.601  2.5097  0.4508  0.7367
13752SOL    HW252911   4.706   2.182   6.620  0.4540  1.8648 -1.8126
13753SOL     OW52912   1.847   5.578   0.718 -0.4518  0.5041 -0.0590
13753SOL    HW152913   1.860   5.674   0.695 -0.3179  0.5950  0.3951
13753SOL    HW252914   1.820   5.570   0.814  0.5500  0.0177  0.1924
13754SOL     OW52915   4.905   7.822   6.366 -0.1954  0.0962  0.0064
13754SOL    HW152916   4.968   7.898   6.353  0.8168 -0.7776 -0.2762
13754SOL    HW252917   4.822   7.838   6.314  0.1173  0.8795 -0.2650
13755SOL     OW52918   5.193   6.528   0.451  0.0045  0.0082  0.0790
13755SOL    HW152919   5.144   6.612   0.428  2.4237  1.0834 -1.2629
13755SOL    HW252920   5.243   6.541   0.536  2.8740  1.0157 -1.7158
13756SOL     OW52921   2.335   3.717   1.645  0.3749  0.3643 -0.8282
13756SOL    HW152922   2.368   3.760   1.729  0.8169  1.0338 -1.3364
13756SOL    HW252923   2.412   3.704   1.582 -0.0306  0.2840 -1.3074
13757SOL     OW52924   4.109   2.181   3.211 -0.3784 -0.1486 -0.5410
13757SOL    HW152925   4.053   2.237   3.271 -1.1486 -1.7953  0.2994
13757SOL    HW252926   4.072   2.088   3.207  0.4938 -0.4469 -2.4206
13758SOL     OW52927   3.970   2.373   0.203  0.4169 -0.4680 -0.5864
13758SOL    HW152928   4.052   2.409   0.158 -0.7939  0.1132 -2.3766
13758SOL    HW252929   3.957   2.277   0.177  0.0792 -0.3186 -0.9838
13759SOL     OW52930   1.488   3.849   0.473  0.1108 -0.3914  0.1400
13759SOL    HW152931   1.584   3.864   0.449  0.0713 -1.9713 -1.1171
13759SOL    HW252932   1.430   3.869   0.394 -0.4820 -0.7386  0.4817
13760SOL     OW52933   8.539   9.457   3.080  0.0945 -0.3506  0.0617
13760SOL    HW152934   8.605   9.429   3.011  1.4969  1.9467  0.4358
13760SOL    HW252935   8.474   9.522   3.040 -0.6245 -0.9438  0.2588
13761SOL     OW52936   3.608   3.044   1.347 -0.0274 -0.2017  0.1700
13761SOL    HW152937   3.509   3.056   1.357 -0.4016 -0.9597 -2.3794
13761SOL    HW252938   3.652   3.133   1.347 -0.8500  0.2101 -0.0735
13762SOL     OW52939   8.770   9.840   5.177  0.2563 -0.0598  0.5558
13762SOL    HW152940   8.687   9.814   5.227 -0.1540 -2.0585 -1.1425
13762SOL    HW252941   8.789   9.937   5.193 -2.4545  0.4388  0.8777
13763SOL     OW52942   6.090   7.475   3.624  0.9922 -0.0946 -0.1495
13763SOL    HW152943   6.004   7.424   3.631  0.9625 -0.2523 -1.4897
13763SOL    HW252944   6.085   7.557   3.681  0.7323 -1.1455  1.3794
13764SOL     OW52945   5.698   5.716   0.506 -0.3772 -0.3497 -0.3442
13764SOL    HW152946   5.652   5.628   0.517 -0.1920 -0.3901  0.0723
13764SOL    HW252947   5.690   5.745   0.410 -0.7512 -0.6429 -0.4051
13765SOL     OW52948   4.767   8.503   1.799  0.2857  0.0069 -0.0720
13765SOL    HW152949   4.847   8.544   1.755 -0.5373  0.8324 -0.8057
13765SOL    HW252950   4.693   8.570   1.803 -0.4615 -0.8392  0.3647
13766SOL     OW52951   1.876   1.168   3.658 -0.1597  0.6043  0.1522
13766SOL    HW152952   1.841   1.234   3.592 -0.9725  1.0701  1.0295
13766SOL    HW252953   1.801   1.136   3.716  0.5142  0.1044  0.7572
13767SOL     OW52954   7.371   6.633   3.544 -0.5477  0.2794 -0.5244
13767SOL    HW152955   7.440   6.691   3.500 -1.6771  1.5239 -0.6718
13767SOL    HW252956   7.305   6.602   3.476 -1.5390  1.1154  0.0416
13768SOL     OW52957   9.192   2.409   2.067  0.1833  0.3586  0.3257
13768SOL    HW152958   9.114   2.382   2.010 -1.7508 -1.3463  3.6358
13768SOL    HW252959   9.163   2.419   2.162  3.0343  4.5047  0.8944
13769SOL     OW52960   1.538   4.248   2.781 -0.3556 -0.3070  0.1052
13769SOL    HW152961   1.598   4.229   2.703 -0.1254  1.8898 -0.2786
13769SOL    HW252962   1.549   4.343   2.810 -3.8363  0.2805 -0.1743
13770SOL     OW52963   9.187   0.114   2.386 -0.6658 -1.0229 -0.0400
13770SOL    HW152964   9.233   0.140   2.471  2.1216  1.8967 -2.3047
13770SOL    HW252965   9.088   0.124   2.397 -0.2767  0.4435  2.4807
13771SOL     OW52966   7.768   5.654   7.243  0.6000 -0.1655  0.5623
13771SOL    HW152967   7.783   5.575   7.184 -1.9237  0.4963 -1.0289
13771SOL    HW252968   7.852   5.674   7.295  1.8237 -2.7312 -0.3721
13772SOL     OW52969   1.447   0.694   1.098  0.8381 -0.1442 -0.0948
13772SOL    HW152970   1.369   0.633   1.082  1.0763 -0.3805 -0.3829
13772SOL    HW252971   1.520   0.644   1.145  0.4184  0.3610  1.1049
13773SOL     OW52972   1.631   6.204   1.039  0.0469  0.4056 -0.4148
13773SOL    HW152973   1.637   6.133   0.969 -0.8542  2.3629 -2.5314
13773SOL    HW252974   1.540   6.200   1.082  1.3142 -2.1741  2.2456
13774SOL     OW52975   0.058   6.220   4.495 -1.0330 -0.2428 -0.0932
13774SOL    HW152976   0.045   6.136   4.549  0.3014 -0.4755 -0.1301
13774SOL    HW252977   0.030   6.202   4.401  0.2866 -0.9901 -0.3580
13775SOL     OW52978   3.282   8.028   4.548  0.1822  0.1124  0.2028
13775SOL    HW152979   3.360   7.973   4.518  0.7853  1.6013 -0.9832
13775SOL    HW252980   3.213   8.031   4.476 -0.6871 -0.6081  0.9795
13776SOL     OW52981   6.122   9.376   3.678 -0.2394 -0.2090 -0.2740
13776SOL    HW152982   6.097   9.281   3.658  3.5953 -1.2562 -0.4332
13776SOL    HW252983   6.133   9.388   3.777  2.4166 -0.8365 -0.4515
13777SOL     OW52984   0.692   6.001   3.206 -0.0215 -0.0745 -0.2810
13777SOL    HW152985   0.676   5.957   3.117  0.7625 -0.9765  0.0125
13777SOL    HW252986   0.720   6.096   3.191  1.4609 -0.6078 -1.0827
13778SOL     OW52987   9.944   9.908   4.376  0.2851  0.4060  0.2662
13778SOL    HW152988   9.877   9.894   4.449  0.5306 -0.7432  0.2706
13778SOL    HW252989   9.906   9.875   4.289  0.4608  0.6719  0.0887
13779SOL     OW52990   6.685   7.098   7.431 -0.3253 -0.8485  0.0293
13779SOL    HW152991   6.782   7.090   7.407 -0.6439  1.2621 -2.2550
13779SOL    HW252992   6.676   7.127   7.526  1.3184 -0.0897 -0.0342
13780SOL     OW52993   6.913   4.577   1.479  0.0336  0.1628  0.2153
13780SOL    HW152994   6.941   4.591   1.574  1.6934 -0.8929 -0.0898
13780SOL    HW252995   6.838   4.639   1.457  0.0998  0.9192  1.9973
13781SOL     OW52996   2.671   5.876   1.854 -0.1878 -0.2039 -0.3539
13781SOL    HW152997   2.705   5.969   1.863  1.7734 -0.8467 -0.7302
13781SOL    HW252998   2.669   5.851   1.757  0.1385 -0.8362 -0.2032
13782SOL     OW52999   8.723   7.160   2.135  0.1647 -0.0545 -0.7042
13782SOL    HW153000   8.705   7.191   2.228 -3.3103 -1.4400 -0.8103
13782SOL    HW253001   8.784   7.081   2.137  1.0242  0.6207  0.2888
13783SOL     OW53002   3.710   3.974   5.405  0.5131 -0.0640 -0.7017
13783SOL    HW153003   3.762   4.044   5.355  1.1990 -0.3448 -0.3926
13783SOL    HW253004   3.769   3.894   5.420  0.5447  0.3071  1.2095
13784SOL     OW53005   3.095   4.377   0.872 -0.4859  0.4316 -0.6485
13784SOL    HW153006   3.169   4.311   0.857  0.1693  0.8523  0.7072
13784SOL    HW253007   3.027   4.338   0.933  0.7216  1.5916  1.4903
13785SOL     OW53008   5.864   0.008   5.128 -0.5583  0.3339  0.2378
13785SOL    HW153009   5.840  -0.036   5.041 -0.1097  1.4818 -0.4750
13785SOL    HW253010   5.877   0.106   5.114 -1.5551  0.7166  1.8186
13786SOL     OW53011   1.793   0.925   4.016 -0.3001  0.7264  0.1003
13786SOL    HW153012   1.732   0.903   4.092 -0.6958  1.5798  0.0340
13786SOL    HW253013   1.745   0.910   3.929  0.5507 -1.4622 -0.0371
13787SOL     OW53014   4.599   6.684   0.114  0.2867  0.2779 -0.4377
13787SOL    HW153015   4.692   6.649   0.121  0.1096 -0.2791 -0.9055
13787SOL    HW253016   4.596   6.757   0.046  0.0062 -0.9761 -1.7899
13788SOL     OW53017   0.606   8.289   7.653  0.0008  0.5964 -0.3086
13788SOL    HW153018   0.693   8.260   7.693  0.6997  1.0209 -1.4778
13788SOL    HW253019   0.534   8.227   7.683  1.1004 -1.1261 -1.1082
13789SOL     OW53020   9.632   9.411   2.669  0.1819 -0.2587  0.0071
13789SOL    HW153021   9.725   9.420   2.704 -0.8369  0.7136  2.6273
13789SOL    HW253022   9.601   9.317   2.682  0.3830 -0.2980  0.2040
13790SOL     OW53023   2.338   9.594   0.082  0.1366 -0.0779 -0.5088
13790SOL    HW153024   2.278   9.641   0.017 -1.2353 -0.9081  0.1477
13790SOL    HW253025   2.426   9.576   0.039 -0.8303 -0.8046 -2.2181
13791SOL     OW53026   6.606   1.540   5.424 -0.1587 -0.5793  0.1952
13791SOL    HW153027   6.666   1.478   5.374 -0.2502 -0.1839 -0.4224
13791SOL    HW253028   6.643   1.633   5.419 -0.3432 -0.4849  0.5837
13792SOL     OW53029   3.014   9.582   0.005 -0.0573  0.3123 -0.3337
13792SOL    HW153030   3.109   9.580  -0.026  0.5553 -0.9476  1.5568
13792SOL    HW253031   3.002   9.656   0.071 -0.4098  0.4874 -0.5897
13793SOL     OW53032   8.547   9.550   7.806 -0.1653  0.1811  0.2309
13793SOL    HW153033   8.548   9.506   7.716  0.1192 -0.3107  0.4748
13793SOL    HW253034   8.640   9.561   7.840 -0.3365 -1.0053  1.1281
13794SOL     OW53035   8.669   9.406   4.897 -0.0936 -0.2128 -1.0527
13794SOL    HW153036   8.632   9.316   4.922  1.6000 -0.1372  1.8655
13794SOL    HW253037   8.768   9.407   4.911 -0.1643  2.2723 -0.4901
13795SOL     OW53038   9.140   5.691   5.844 -0.2714 -0.0295 -0.3494
13795SOL    HW153039   9.092   5.728   5.924 -2.7284 -0.1501 -1.7064
13795SOL    HW253040   9.103   5.732   5.761 -0.7537 -3.0403 -1.6845
13796SOL     OW53041   3.621   6.305   3.351  0.0280  0.2958 -0.1513
13796SOL    HW153042   3.705   6.253   3.369 -0.2230  0.4266  1.5426
13796SOL    HW253043   3.549   6.275   3.414 -1.3274 -0.0770 -1.8475
13797SOL     OW53044   6.944   5.754   7.462 -0.6163  0.5761 -0.2430
13797SOL    HW153045   7.003   5.677   7.490 -3.4423 -1.4637  0.3546
13797SOL    HW253046   6.987   5.803   7.386  2.5923  0.1694  1.2168
13798SOL     OW53047   9.896   1.533   5.477  0.3334 -0.0614  0.1135
13798SOL    HW153048   9.963   1.607   5.475  0.3608 -0.1145 -2.6328
13798SOL    HW253049   9.804   1.571   5.485  0.4324  0.2012  0.0073
13799SOL     OW53050   6.068   4.500   2.557 -0.0645 -0.0419  0.2890
13799SOL    HW153051   6.027   4.477   2.645  0.4168  0.7726  0.7345
13799SOL    HW253052   6.068   4.600   2.546 -1.3596 -0.2044 -1.2341
13800SOL     OW53053   4.543   9.863   0.884 -0.2978  0.4570 -0.0988
13800SOL    HW153054   4.463   9.841   0.828 -1.1083 -0.1737  1.2739
13800SOL    HW253055   4.512   9.893   0.974  0.9912  1.3327  0.0510
13801SOL     OW53056   6.832   1.633   3.660 -0.1476  0.6452  0.2796
13801SOL    HW153057   6.771   1.582   3.721  0.8492  0.2317  0.9238
13801SOL    HW253058   6.839   1.584   3.573 -0.6667  0.6559  0.2256
13802SOL     OW53059   9.565   8.021   3.711 -0.0708  0.2216  0.3234
13802SOL    HW153060   9.577   7.924   3.688  0.0024  0.4530 -0.6395
13802SOL    HW253061   9.654   8.066   3.715  0.0233 -0.0751  2.3075
13803SOL     OW53062   0.265   2.441   3.153  0.2201  0.0299 -0.2810
13803SOL    HW153063   0.217   2.527   3.174 -1.3692 -0.3328 -2.1892
13803SOL    HW253064   0.360   2.461   3.129  0.3794  1.0487  1.1754
13804SOL     OW53065   3.300   9.965   1.253 -0.0920  0.0651 -0.6708
13804SOL    HW153066   3.397   9.941   1.251 -0.5589 -2.0028 -0.3869
13804SOL    HW253067   3.289  10.061   1.275  1.8952  0.3342 -0.7825
13805SOL     OW53068   1.419   1.920   5.248 -0.4898 -0.4488  0.5952
13805SOL    HW153069   1.326   1.955   5.234 -1.3136 -2.8535 -0.0866
13805SOL    HW253070   1.467   1.918   5.160  0.5840  1.7001  1.0862
13806SOL     OW53071   3.319   9.604   0.095 -0.3753  0.0438 -0.2467
13806SOL    HW153072   3.362   9.564   0.015  0.8623  0.9364 -0.0478
13806SOL    HW253073   3.362   9.568   0.178 -2.0970 -1.3952  0.0776
13807SOL     OW53074   2.796   9.761   2.014  0.4479 -0.2445  0.4660
13807SOL    HW153075   2.874   9.814   2.046 -1.7428  2.8495  0.9355
13807SOL    HW253076   2.711   9.803   2.047 -1.4505 -3.1877 -0.4738
13808SOL     OW53077   9.460   7.219   6.051  0.4993  0.4658  0.2867
13808SOL    HW153078   9.370   7.262   6.057 -0.5387 -1.6394  0.1723
13808SOL    HW253079   9.530   7.290   6.038 -1.1198  2.1233  0.4315
13809SOL     OW53080   3.502   7.012   5.235 -0.4703  0.0524  0.0198
13809SOL    HW153081   3.478   6.926   5.280 -0.4304 -0.0348 -0.1241
13809SOL    HW253082   3.494   7.087   5.300 -1.9314  0.1322 -0.2415
13810SOL     OW53083   2.274   5.859   4.734  0.2186  0.7205  0.0445
13810SOL    HW153084   2.181   5.876   4.704  0.4281  1.5774 -0.1342
13810SOL    HW253085   2.277   5.776   4.790 -0.5618  0.4195 -0.3586
13811SOL     OW53086   4.585   2.600   5.347  0.2932 -0.3821 -0.4162
13811SOL    HW153087   4.644   2.673   5.383 -0.4337 -0.0642  0.1312
13811SOL    HW253088   4.498   2.600   5.396 -0.2889 -0.6576 -1.4272
13812SOL     OW53089   4.209   9.702   7.198 -0.2139  0.2160  0.5915
13812SOL    HW153090   4.211   9.609   7.233  0.2173  0.3544  0.9494
13812SOL    HW253091   4.297   9.747   7.218 -1.3101  1.5176  2.6418
13813SOL     OW53092   5.606   8.891   2.788 -0.5160 -0.5375 -0.1761
13813SOL    HW153093   5.561   8.814   2.744 -2.0125 -0.5792  1.3905
13813SOL    HW253094   5.538   8.961   2.811  0.6048  0.5856 -0.2071
13814SOL     OW53095   8.305   2.779   2.464 -0.6602 -0.3037  0.8255
13814SOL    HW153096   8.327   2.869   2.503  0.9479 -0.1934 -0.2674
13814SOL    HW253097   8.235   2.735   2.520 -1.1262  1.4252  1.6541
13815SOL     OW53098   3.729   4.505   1.843 -0.8393  0.4552  0.1192
13815SOL    HW153099   3.800   4.440   1.817  1.6188  2.3214  1.8886
13815SOL    HW253100   3.657   4.458   1.894 -0.3058 -1.2838 -0.7147
13816SOL     OW53101   0.610   6.789   6.587 -0.1762 -0.1390  0.7931
13816SOL    HW153102   0.564   6.715   6.636 -0.8515 -0.1972  0.0883
13816SOL    HW253103   0.595   6.778   6.489  0.6748  0.3002  0.6034
13817SOL     OW53104   8.394   9.536   1.937  0.3949  0.5773  0.3254
13817SOL    HW153105   8.388   9.567   1.842  0.3353  0.8009  0.4014
13817SOL    HW253106   8.357   9.443   1.944 -1.4098  1.2866  0.4728
13818SOL     OW53107   5.584   1.331   5.313  0.0034 -0.5748  0.0888
13818SOL    HW153108   5.668   1.370   5.274  0.8766 -2.0337  0.4659
13818SOL    HW253109   5.510   1.398   5.306  1.6227  1.3904  1.3232
13819SOL     OW53110   3.628   9.135  10.010  0.1109  0.2744  0.0522
13819SOL    HW153111   3.650   9.233  10.014 -1.9155  0.8107 -1.0763
13819SOL    HW253112   3.699   9.087   9.959  0.8594  1.2455  0.1627
13820SOL     OW53113   1.244   5.923   4.404  0.4836  0.2849 -0.3546
13820SOL    HW153114   1.314   5.991   4.424  0.3644  0.7922 -1.6797
13820SOL    HW253115   1.222   5.873   4.488  1.3702  1.1169  0.3807
13821SOL     OW53116   2.883   0.660   2.633  0.4281 -0.2632 -0.2148
13821SOL    HW153117   2.838   0.620   2.713  3.6461 -0.4404  1.6053
13821SOL    HW253118   2.914   0.753   2.655  0.3045  0.1300 -1.6525
13822SOL     OW53119   2.429   0.286   5.786  0.0503 -0.1668  0.1996
13822SOL    HW153120   2.329   0.285   5.781  0.0329  0.2777  0.3962
13822SOL    HW253121   2.462   0.380   5.781  0.5129 -0.3760 -0.7856
13823SOL     OW53122   0.845   2.686   4.314  0.1269 -0.3259 -0.0767
13823SOL    HW153123   0.799   2.769   4.345 -0.7288 -0.4718 -0.9521
13823SOL    HW253124   0.781   2.610   4.313  0.7901 -0.8967  0.2629
13824SOL     OW53125   1.545   7.114   4.789  0.2869  1.1184 -0.7436
13824SOL    HW153126   1.601   7.193   4.813  1.8895  0.3315 -1.8099
13824SOL    HW253127   1.562   7.088   4.694 -1.7589  0.7363 -1.0362
13825SOL     OW53128   9.471   1.479   2.292  0.1550 -0.0012  0.4902
13825SOL    HW153129   9.413   1.496   2.212  0.5748 -0.9313 -0.0328
13825SOL    HW253130   9.418   1.490   2.376  0.0889  2.5047  0.1500
13826SOL     OW53131   9.868   7.964   2.027  0.2716  0.1154 -0.3215
13826SOL    HW153132   9.952   7.960   1.973  0.6160 -4.4648  0.3367
13826SOL    HW253133   9.876   7.902   2.105 -2.0539  2.9939  2.3313
13827SOL     OW53134   5.006   1.385   6.843  0.3099 -0.5310  0.1687
13827SOL    HW153135   4.920   1.435   6.839  0.1829 -0.6377  1.3910
13827SOL    HW253136   5.050   1.401   6.932 -0.0456 -3.1256  0.8356
13828SOL     OW53137   3.721   1.771   5.309  0.2723 -0.2969  0.6530
13828SOL    HW153138   3.743   1.861   5.273 -2.3527  0.2736  0.3739
13828SOL    HW253139   3.697   1.709   5.234 -1.8093 -0.0920  1.1351
13829SOL     OW53140   2.021   5.052   6.622 -0.2383 -0.3066 -0.0586
13829SOL    HW153141   2.053   5.131   6.570  1.0636 -1.2580 -0.7552
13829SOL    HW253142   2.094   5.019   6.682  0.2487 -2.6681 -1.8502
13830SOL     OW53143   8.987   3.904   0.528 -0.7650  0.4002 -0.4795
13830SOL    HW153144   9.022   3.938   0.441 -1.3668  1.4348 -0.3279
13830SOL    HW253145   9.055   3.917   0.599 -1.3171  2.1080 -0.2479
13831SOL     OW53146   3.576   3.385   5.061 -0.1232  0.6013 -0.1573
13831SOL    HW153147   3.507   3.362   5.129  0.0436  1.4832  0.3320
13831SOL    HW253148   3.532   3.417   4.977 -0.3278  2.8094  0.7455
13832SOL     OW53149   2.296   8.802   7.500  0.0393 -0.1835 -0.0042
13832SOL    HW153150   2.341   8.884   7.536  0.0791  0.3652 -1.2784
13832SOL    HW253151   2.280   8.738   7.575  1.5892  0.2413  0.7249
13833SOL     OW53152   3.969   1.745   4.991 -0.2591  0.3592  0.0393
13833SOL    HW153153   4.025   1.779   5.066 -0.9868  1.0476  0.2725
13833SOL    HW253154   3.945   1.820   4.929 -1.4932  0.2179  0.3199
13834SOL     OW53155   0.294   1.868   4.345 -0.4823 -0.1177  0.8608
13834SOL    HW153156   0.204   1.887   4.307 -0.2667 -2.0667 -0.7033
13834SOL    HW253157   0.331   1.952   4.387 -2.8703  0.7518  1.2712
13835SOL     OW53158   4.477   1.086   1.541 -0.7350 -0.3767 -0.0598
13835SOL    HW153159   4.437   1.175   1.523  0.0362  0.2775  1.3787
13835SOL    HW253160   4.455   1.057   1.635  1.4797 -0.3318  0.5161
13836SOL     OW53161   1.108   7.724   6.364 -0.2980 -0.2948  0.1967
13836SOL    HW153162   1.057   7.769   6.437 -1.0456  1.2859 -1.2838
13836SOL    HW253163   1.206   7.731   6.382 -0.4639  0.6061  0.7465
13837SOL     OW53164   9.105   0.629   3.750  0.0186  0.7540 -0.3137
13837SOL    HW153165   9.154   0.637   3.837 -0.0306  2.6127 -0.4371
13837SOL    HW253166   9.024   0.572   3.762  0.3916  0.4339  0.7053
13838SOL     OW53167   2.504   8.359   3.283  0.3418 -0.3421 -0.2440
13838SOL    HW153168   2.446   8.283   3.254 -0.0957  1.1420 -3.5578
13838SOL    HW253169   2.590   8.356   3.232  0.3292  1.3091 -0.3911
13839SOL     OW53170   7.672   0.808   6.998  0.4611 -0.5656  0.4407
13839SOL    HW153171   7.771   0.805   7.013  0.5337  0.2787  0.1605
13839SOL    HW253172   7.640   0.718   6.970  1.3843 -0.4766 -0.9349
13840SOL     OW53173   1.724   3.757   0.334  0.1476  0.7687  0.1855
13840SOL    HW153174   1.772   3.744   0.248 -0.8897  2.9786 -0.7583
13840SOL    HW253175   1.789   3.752   0.410  1.2927  0.2857 -0.8110
13841SOL     OW53176   9.498   8.671   0.464 -0.2696  0.5841  0.2048
13841SOL    HW153177   9.435   8.729   0.413 -0.6480  0.7139  0.8203
13841SOL    HW253178   9.447   8.600   0.513  0.2671 -1.0210 -1.4853
13842SOL     OW53179   7.832   8.297   8.177 -0.2092 -0.0999 -0.5071
13842SOL    HW153180   7.918   8.348   8.170 -1.3858  1.9188 -0.7786
13842SOL    HW253181   7.789   8.290   8.087  1.1192 -3.8050 -0.9464
13843SOL     OW53182   1.236   0.128   5.622 -0.4577  0.1905 -0.1545
13843SOL    HW153183   1.294   0.081   5.689 -0.1953 -0.0495 -0.5442
13843SOL    HW253184   1.140   0.102   5.638 -0.5068  0.8947  0.7386
13844SOL     OW53185   9.253   6.095   6.302 -0.4294 -0.1645 -0.5103
13844SOL    HW153186   9.290   6.110   6.394 -1.4896  0.6211 -0.1898
13844SOL    HW253187   9.221   6.001   6.294 -0.2050 -0.2757 -0.1188
13845SOL     OW53188   1.603   9.945   0.650  0.4742  0.0205 -0.4016
13845SOL    HW153189   1.574   9.849   0.646 -1.1247  0.3446  2.0777
13845SOL    HW253190   1.550   9.999   0.585 -0.9861 -0.2312  0.5731
13846SOL     OW53191   9.968   6.721   4.820  0.0043  0.2105  0.4750
13846SOL    HW153192   9.920   6.696   4.905  0.0286  0.4130  0.5481
13846SOL    HW253193   9.963   6.820   4.807  0.4739  0.2411  0.5238
13847SOL     OW53194   7.005   5.531   6.929 -0.1938  0.0859 -0.9884
13847SOL    HW153195   7.078   5.479   6.972 -1.0475  0.6260  1.1665
13847SOL    HW253196   6.953   5.472   6.868  0.3334 -0.9691 -0.4210
13848SOL     OW53197   9.097   5.532   1.676 -0.2040 -0.4418  0.4044
13848SOL    HW153198   9.196   5.533   1.670 -0.2294 -1.4680 -0.2934
13848SOL    HW253199   9.060   5.620   1.646  0.5092  0.1240  1.1666
13849SOL     OW53200   1.259   9.876   7.386  0.1110  0.2574  0.4797
13849SOL    HW153201   1.209   9.962   7.394 -0.2601  0.0357  0.5373
13849SOL    HW253202   1.354   9.896   7.361  0.0078  0.6774  0.4078
13850SOL     OW53203   7.194   4.162   2.621 -0.5132 -0.3503 -0.1055
13850SOL    HW153204   7.284   4.126   2.596 -0.6226 -0.5032 -0.2824
13850SOL    HW253205   7.148   4.098   2.682 -0.8978 -0.7434 -0.7900
13851SOL     OW53206   3.272   9.153   6.029 -0.0742 -0.3410  0.2548
13851SOL    HW153207   3.244   9.228   6.088  0.5064  0.1123 -0.0451
13851SOL    HW253208   3.302   9.188   5.941 -0.0413 -0.9442  0.0214
13852SOL     OW53209   1.632   0.493   3.588 -0.1850 -0.3174  0.3862
13852SOL    HW153210   1.560   0.424   3.600 -0.6181 -0.0338 -0.5102
13852SOL    HW253211   1.682   0.475   3.503  0.9659 -0.6462  1.1242
13853SOL     OW53212   0.903   8.941   6.617 -0.6217  0.0353  0.2434
13853SOL    HW153213   0.888   8.956   6.715 -2.2724  0.8995 -0.1168
13853SOL    HW253214   0.943   8.850   6.603 -0.8223 -0.2913  1.6847
13854SOL     OW53215   1.201   8.722   2.165 -0.2152 -0.2017 -0.0474
13854SOL    HW153216   1.159   8.808   2.193  0.2908  0.2603 -0.6646
13854SOL    HW253217   1.194   8.713   2.065  0.5111 -0.4503 -0.0819
13855SOL     OW53218   5.047   4.536   1.623  0.0555  0.2425  0.0761
13855SOL    HW153219   5.039   4.516   1.525 -0.0946 -1.1431  0.3613
13855SOL    HW253220   5.125   4.598   1.638  0.0496  0.5008 -0.9186
13856SOL     OW53221   9.235   2.327   0.208 -0.5670  0.4996  0.1425
13856SOL    HW153222   9.333   2.335   0.226 -1.2959  2.7980  3.7580
13856SOL    HW253223   9.204   2.407   0.156 -0.5254 -0.2171 -0.9857
13857SOL     OW53224   8.010   3.059   3.985  0.0611  0.2478 -0.4044
13857SOL    HW153225   8.038   3.154   3.969 -1.0329  0.6711  0.1500
13857SOL    HW253226   7.913   3.050   3.965  0.3804 -1.0116 -1.4619
13858SOL     OW53227   2.389   5.124   1.010  0.4635  0.1513  0.1601
13858SOL    HW153228   2.412   5.221   1.014 -1.0785  0.5296  0.2556
13858SOL    HW253229   2.422   5.078   1.092  0.8819  0.6717  0.2821
13859SOL     OW53230   0.472   2.259   0.156 -0.1804  0.0218  0.1436
13859SOL    HW153231   0.441   2.181   0.211 -1.1034 -0.9632 -1.7191
13859SOL    HW253232   0.420   2.341   0.183 -0.3067 -0.3437  1.0424
13860SOL     OW53233   7.055   6.583   5.114  0.3873  0.3223  0.2176
13860SOL    HW153234   7.006   6.588   5.201 -2.3778 -0.6421 -1.2111
13860SOL    HW253235   7.004   6.634   5.045  2.0895  0.3411 -1.0512
13861SOL     OW53236   3.461   7.702   4.156 -0.4305  0.2088  0.0835
13861SOL    HW153237   3.428   7.667   4.243 -0.8434 -2.1149 -0.9674
13861SOL    HW253238   3.554   7.668   4.139  0.7677  2.9164  0.8604
13862SOL     OW53239   1.161   1.137   3.356  0.2151  0.0198 -0.2457
13862SOL    HW153240   1.164   1.229   3.395 -0.6339  0.0171 -0.1720
13862SOL    HW253241   1.094   1.082   3.407  0.3173 -0.4722 -0.6454
13863SOL     OW53242   3.738   4.235   5.009  0.0032  0.6839  0.0599
13863SOL    HW153243   3.710   4.321   4.968 -1.3671 -0.0154 -0.4850
13863SOL    HW253244   3.795   4.184   4.944  0.7184  1.1091  0.3403
13864SOL     OW53245   6.803   9.705   5.642  0.2627  0.8034 -0.3273
13864SOL    HW153246   6.723   9.648   5.663  0.3763  0.3158 -1.1818
13864SOL    HW253247   6.886   9.661   5.676  0.2174  1.1168  0.2028
13865SOL     OW53248   0.346   3.883   9.868 -0.2948  0.0592  0.1540
13865SOL    HW153249   0.366   3.978   9.845  0.2713 -0.4235 -1.3511
13865SOL    HW253250   0.258   3.878   9.916 -0.8613  1.2151 -0.7477
13866SOL     OW53251   9.746   8.489   5.601 -0.0274  0.3178 -0.4010
13866SOL    HW153252   9.777   8.529   5.688  0.1424 -1.3009  0.2899
13866SOL    HW253253   9.825   8.463   5.547 -0.1434  0.8170 -0.8211
13867SOL     OW53254   9.918   2.543   3.311 -0.2927  0.0538  0.1066
13867SOL    HW153255   9.882   2.624   3.357  0.9829  0.8559 -0.2991
13867SOL    HW253256   9.927   2.560   3.213  0.3781 -0.4257  0.0748
13868SOL     OW53257   0.263   8.590   0.730 -0.1573  0.0829  0.2208
13868SOL    HW153258   0.317   8.590   0.646 -2.3656 -0.7232 -1.2310
13868SOL    HW253259   0.248   8.496   0.761 -0.3390  0.3205  0.8797
13869SOL     OW53260   9.978   0.383   3.094 -0.3261  0.0167 -0.0026
13869SOL    HW153261  10.056   0.383   3.032 -0.3993  0.6175 -0.0942
13869SOL    HW253262  10.009   0.360   3.186 -0.1037 -0.1486 -0.1202
13870SOL     OW53263   1.690   7.639   3.671 -0.6159 -0.4862  0.3614
13870SOL    HW153264   1.770   7.589   3.705  0.6961  1.3821  0.1108
13870SOL    HW253265   1.704   7.661   3.574 -1.3538  0.0052  0.3650
13871SOL     OW53266   3.927   1.409   7.130  0.4181 -0.0535  0.0231
13871SOL    HW153267   4.022   1.425   7.156  0.5161 -0.6645  0.0421
13871SOL    HW253268   3.923   1.342   7.055  0.0915  1.1321 -1.0396
13872SOL     OW53269   1.607   6.730   5.139  0.2170 -0.0904 -0.6471
13872SOL    HW153270   1.538   6.658   5.140  0.4762 -0.4276 -2.7409
13872SOL    HW253271   1.597   6.783   5.054 -0.5328  2.9210  1.2580
13873SOL     OW53272   1.476   2.541   7.784 -0.2031  0.3216 -0.2483
13873SOL    HW153273   1.558   2.484   7.787  0.5176  1.3689  0.0674
13873SOL    HW253274   1.474   2.602   7.863 -1.9535 -0.5951  0.4359
13874SOL     OW53275   0.882   4.640   5.814  0.3815 -0.1994 -0.3758
13874SOL    HW153276   0.920   4.557   5.855  0.3692 -0.8717 -1.6813
13874SOL    HW253277   0.803   4.670   5.867  0.5396 -0.8806  0.2577
13875SOL     OW53278   8.128   1.301   3.655  0.6136  0.3287 -0.0713
13875SOL    HW153279   8.096   1.242   3.729 -1.2029 -0.2096 -1.2605
13875SOL    HW253280   8.187   1.372   3.693  0.2991 -0.3693  1.8002
13876SOL     OW53281   7.512   6.905   4.705  0.3800 -0.0143 -0.2379
13876SOL    HW153282   7.595   6.935   4.659  1.1072 -1.3149  0.2103
13876SOL    HW253283   7.449   6.982   4.714  2.6683  1.7034  1.8856
13877SOL     OW53284   7.160   8.580   3.690 -0.5508  0.4433  0.2531
13877SOL    HW153285   7.155   8.672   3.727 -1.5510  0.3909  0.2448
13877SOL    HW253286   7.073   8.555   3.649 -0.6415 -0.9214  1.2475
13878SOL     OW53287   9.511   8.674   5.523 -0.0882 -0.3314 -0.2516
13878SOL    HW153288   9.547   8.580   5.523  2.3174  0.5317 -2.6601
13878SOL    HW253289   9.449   8.686   5.446 -0.3459  0.0983  0.0217
13879SOL     OW53290   6.568   4.804   2.782 -0.3047  0.1805  0.1680
13879SOL    HW153291   6.495   4.741   2.808 -1.8702  2.0924  0.4982
13879SOL    HW253292   6.543   4.897   2.808  1.9766  0.9597 -0.3004
13880SOL     OW53293   2.013   0.726   1.448 -0.2833 -0.0558 -0.0936
13880SOL    HW153294   2.094   0.761   1.401  0.0045  1.0161  1.1547
13880SOL    HW253295   2.039   0.690   1.538 -1.1879  0.3652  0.3525
13881SOL     OW53296   0.215   5.818   3.896 -0.1418 -0.3318  0.8152
13881SOL    HW153297   0.238   5.906   3.854 -1.8199 -0.5927 -0.7067
13881SOL    HW253298   0.252   5.743   3.840 -1.3453 -0.6549  0.4303
13882SOL     OW53299   7.964   9.898   2.371 -0.2805 -0.3273 -0.0581
13882SOL    HW153300   8.038   9.832   2.376 -0.8424 -1.0091 -0.7609
13882SOL    HW253301   7.975   9.966   2.445  0.8643 -0.5917  0.0169
13883SOL     OW53302   0.896   7.073   7.676  0.0288  0.2500 -0.4444
13883SOL    HW153303   0.845   7.118   7.602  1.9300  0.6601 -1.5283
13883SOL    HW253304   0.944   7.141   7.730  0.4856 -0.2380 -0.2336
13884SOL     OW53305   2.866   4.260   7.677 -0.0675  0.5514 -0.1222
13884SOL    HW153306   2.774   4.297   7.662  0.5153  2.2697  0.3387
13884SOL    HW253307   2.889   4.266   7.774  0.1832 -0.7070 -0.1046
13885SOL     OW53308   4.968   1.794   1.257  0.2490  0.0689  0.3701
13885SOL    HW153309   4.957   1.827   1.163 -3.4019  0.4377  0.8317
13885SOL    HW253310   4.996   1.869   1.316  1.3048  0.1284 -0.1954
13886SOL     OW53311   9.834   4.598   1.540 -0.5954 -0.6182  0.1075
13886SOL    HW153312   9.774   4.678   1.535 -1.9824 -1.7119 -1.1621
13886SOL    HW253313   9.811   4.535   1.467  2.5002 -0.8410 -0.7039
13887SOL     OW53314   1.486   5.154   2.669  0.0398  0.0515 -0.2525
13887SOL    HW153315   1.577   5.194   2.654  0.2169 -0.7198 -1.3128
13887SOL    HW253316   1.420   5.197   2.608  0.2939 -1.4571 -1.6321
13888SOL     OW53317   2.427   0.034   0.345 -0.0916 -0.2653 -0.4276
13888SOL    HW153318   2.416   0.127   0.310  0.9014  0.6239  1.5362
13888SOL    HW253319   2.344   0.007   0.394 -1.5018 -1.5292 -3.3888
13889SOL     OW53320   0.015   5.543   1.139 -0.2508  0.2311  0.1719
13889SOL    HW153321   0.040   5.615   1.075  0.9746 -0.3563 -0.0223
13889SOL    HW253322   0.076   5.465   1.127 -0.6809 -0.2939  1.3280
13890SOL     OW53323   6.088   9.005   3.089 -0.8399  0.2354 -0.2357
13890SOL    HW153324   6.050   9.049   3.007  0.0696  0.3663 -0.6024
13890SOL    HW253325   6.086   8.906   3.077 -2.1938  0.1960  0.2703
13891SOL     OW53326   2.538   6.781   6.022 -0.1176  0.0051 -0.0372
13891SOL    HW153327   2.458   6.779   6.083 -0.6080  0.0692 -0.6760
13891SOL    HW253328   2.512   6.747   5.932  1.1948 -2.4846  0.4679
13892SOL     OW53329   4.506   9.420   5.504  0.0824  0.4831  0.7792
13892SOL    HW153330   4.423   9.384   5.461  0.6003 -0.4639  0.5596
13892SOL    HW253331   4.493   9.518   5.524 -0.3432  0.8403 -1.1042
13893SOL     OW53332   2.941   6.962   3.943  0.0553 -0.0870 -0.0380
13893SOL    HW153333   2.921   6.865   3.931  0.7471 -0.1524 -0.6543
13893SOL    HW253334   3.021   6.987   3.888  0.7542  0.5162  1.2382
13894SOL     OW53335   3.957   6.067   9.870 -0.5761 -0.7794 -0.2000
13894SOL    HW153336   4.055   6.047   9.875 -0.0559  1.8459  1.2723
13894SOL    HW253337   3.905   5.986   9.896  1.2292 -1.9279 -0.0511
13895SOL     OW53338   8.023   3.623   3.423 -0.5023 -0.1856  0.0977
13895SOL    HW153339   7.937   3.579   3.450 -0.1398 -2.5333 -2.3754
13895SOL    HW253340   8.006   3.685   3.347 -0.0115 -0.6532 -0.3947
13896SOL     OW53341   5.279   3.788   6.655 -0.5761  0.4839 -0.2708
13896SOL    HW153342   5.256   3.693   6.634 -0.2711  0.0121  1.4278
13896SOL    HW253343   5.346   3.790   6.729 -1.6817  2.0474  0.7257
13897SOL     OW53344   0.835   6.514   2.495 -0.3863  0.3238  0.2825
13897SOL    HW153345   0.771   6.511   2.418 -0.4954 -0.4375  0.3936
13897SOL    HW253346   0.824   6.600   2.544  0.7644  1.4950 -1.4629
13898SOL     OW53347   1.133   2.579   6.122 -0.2323 -0.5299  0.2797
13898SOL    HW153348   1.070   2.656   6.109  0.9745  0.3626 -0.4921
13898SOL    HW253349   1.158   2.541   6.033  0.0766 -1.0668  0.5955
13899SOL     OW53350   8.699   2.492   1.416  0.3103 -0.0129 -0.6245
13899SOL    HW153351   8.622   2.557   1.414  0.6537  0.4411  0.4342
13899SOL    HW253352   8.783   2.539   1.390  0.7681  0.2877  1.2988
13900SOL     OW53353   5.744   3.916   1.725  0.2588 -0.1827 -0.5947
13900SOL    HW153354   5.729   3.873   1.635  1.1422  3.3887 -2.5404
13900SOL    HW253355   5.842   3.931   1.738 -0.1061  2.1851 -0.4549
13901SOL     OW53356   0.206   2.951   3.639  0.3095  0.7721  0.3548
13901SOL    HW153357   0.281   2.905   3.592 -0.4278  1.1524 -1.2155
13901SOL    HW253358   0.188   3.039   3.595 -2.9317 -0.5486 -1.1023
13902SOL     OW53359   5.197   0.732   5.836 -0.0568  0.7442 -0.0060
13902SOL    HW153360   5.190   0.747   5.738 -1.7735  0.6082  0.0764
13902SOL    HW253361   5.179   0.636   5.857  0.9143  0.6442  0.3877
13903SOL     OW53362   9.989   1.384   4.527 -0.0924 -0.9633 -0.2086
13903SOL    HW153363  10.079   1.389   4.570  0.9755 -0.9582 -2.3359
13903SOL    HW253364   9.920   1.358   4.594  1.0410  1.6843  2.0566
13904SOL     OW53365   3.268   2.193   7.235 -0.4832 -0.0011 -0.1209
13904SOL    HW153366   3.317   2.248   7.303  0.5419 -1.1522  0.1039
13904SOL    HW253367   3.328   2.177   7.157 -0.3466 -1.7358  0.3150
13905SOL     OW53368   5.773   2.009   1.962  0.0425 -0.0447 -0.0449
13905SOL    HW153369   5.761   1.964   2.050 -3.1098 -0.1167 -0.4577
13905SOL    HW253370   5.863   1.986   1.925  0.6663 -1.5174  2.2706
13906SOL     OW53371   8.641   3.901   1.249 -0.1842  0.3091 -0.2980
13906SOL    HW153372   8.585   3.913   1.167 -0.7407 -0.8332 -0.0961
13906SOL    HW253373   8.705   3.978   1.257  0.0918  0.2774 -1.9527
13907SOL     OW53374   7.599   4.592   2.182 -0.1656  0.0817  0.3517
13907SOL    HW153375   7.558   4.627   2.266  0.9854 -0.0281  0.9746
13907SOL    HW253376   7.602   4.492   2.186  0.2291  0.0920  0.3483
13908SOL     OW53377   4.856   3.147   5.859 -0.6487  0.3622  0.1524
13908SOL    HW153378   4.897   3.210   5.926 -1.6525  0.1000  1.0336
13908SOL    HW253379   4.760   3.131   5.883 -0.7070 -0.6351 -0.7043
13909SOL     OW53380   3.116   5.643   4.359  0.0452 -0.2147 -0.1832
13909SOL    HW153381   3.159   5.728   4.393  1.2747 -1.0827  0.4803
13909SOL    HW253382   3.018   5.646   4.377  0.2130  0.6998  0.6509
13910SOL     OW53383   3.203   8.075   5.820 -0.0098 -0.1137 -0.6174
13910SOL    HW153384   3.153   8.146   5.769  2.1536  1.4374 -0.6311
13910SOL    HW253385   3.153   7.989   5.814  0.2390 -0.0408 -5.5063
13911SOL     OW53386   5.515   9.688   6.943 -0.1889  0.4242  0.4006
13911SOL    HW153387   5.434   9.631   6.927  0.5131 -0.6352  0.5613
13911SOL    HW253388   5.594   9.647   6.898 -0.2067  2.7465 -1.8328
13912SOL     OW53389   0.660   7.342   5.745 -0.2611 -0.3341 -0.1224
13912SOL    HW153390   0.729   7.312   5.812  0.1618  0.3325 -0.2518
13912SOL    HW253391   0.675   7.438   5.723  0.1773 -0.7786 -1.8799
13913SOL     OW53392   5.297   1.003   4.101 -0.4155  0.8289  0.5673
13913SOL    HW153393   5.329   0.914   4.134 -0.6185  1.3733  2.2887
13913SOL    HW253394   5.370   1.070   4.112 -1.2623  1.5262  2.1671
13914SOL     OW53395   8.843   8.738   5.194 -0.3314 -0.3349  0.0389
13914SOL    HW153396   8.921   8.702   5.245  0.6992  0.6999 -0.7835
13914SOL    HW253397   8.815   8.826   5.233 -0.2228 -0.0565 -0.5190
13915SOL     OW53398   4.241   6.887   0.910  0.0942 -0.1939  0.4596
13915SOL    HW153399   4.223   6.986   0.910 -0.8945 -0.3545  2.0498
13915SOL    HW253400   4.170   6.841   0.964  2.2277 -1.4565  2.2693
13916SOL     OW53401   0.814   4.623   4.124 -0.0688 -0.1412 -0.3092
13916SOL    HW153402   0.752   4.546   4.111  0.1858 -0.3903 -0.0548
13916SOL    HW253403   0.838   4.630   4.221 -2.0904  1.7931  0.1005
13917SOL     OW53404   7.802   9.045   2.628 -0.1746 -0.5279 -0.3261
13917SOL    HW153405   7.799   8.995   2.541 -0.5364 -0.0709 -0.5775
13917SOL    HW253406   7.715   9.031   2.677 -1.2351  1.8253 -1.5012
13918SOL     OW53407   4.818   5.118   3.355  0.2900  0.3196 -0.1610
13918SOL    HW153408   4.829   5.197   3.415  2.1746 -0.1846  0.1970
13918SOL    HW253409   4.760   5.142   3.277 -0.0996  1.7042  0.5532
13919SOL     OW53410   8.773   2.178   0.029  0.4751  0.2095 -0.6060
13919SOL    HW153411   8.703   2.114   0.060 -0.5945  1.8259  0.3674
13919SOL    HW253412   8.733   2.244  -0.034  0.9140  1.6831  0.6414
13920SOL     OW53413   6.817   1.278   3.445 -0.4331 -0.0964  0.6826
13920SOL    HW153414   6.872   1.241   3.520  0.5324 -1.0537 -0.4692
13920SOL    HW253415   6.843   1.373   3.428 -1.5019  0.5173  2.3294
13921SOL     OW53416   7.058   1.153   6.314  0.5203  0.3156 -0.0748
13921SOL    HW153417   6.970   1.137   6.269  0.4091  0.2586  0.1617
13921SOL    HW253418   7.047   1.141   6.413  1.1608 -1.2359 -0.1869
13922SOL     OW53419   2.157   0.772   2.553  0.0451  0.1117 -0.2244
13922SOL    HW153420   2.193   0.681   2.571  1.2786  0.4194 -1.0704
13922SOL    HW253421   2.085   0.793   2.619  0.2588 -1.1744  0.4370
13923SOL     OW53422   0.807   9.154   6.047 -0.9721  0.5016  0.0959
13923SOL    HW153423   0.781   9.094   6.123 -2.9769 -1.8474 -2.3571
13923SOL    HW253424   0.726   9.203   6.015  0.4075  3.7115  1.2694
13924SOL     OW53425   7.971   4.093   5.852  0.3091 -0.5259 -0.1280
13924SOL    HW153426   8.005   4.187   5.856  0.1727 -0.3913 -1.8073
13924SOL    HW253427   8.018   4.037   5.921 -0.3045  0.9707  1.5674
13925SOL     OW53428   2.036   1.555   2.170 -0.0601 -0.3600 -0.7658
13925SOL    HW153429   2.084   1.573   2.256  0.0110  2.2676 -1.3045
13925SOL    HW253430   2.099   1.568   2.093 -0.3879 -1.6981 -1.2845
13926SOL     OW53431   2.940   7.220   9.769  0.4435 -0.4365 -0.4914
13926SOL    HW153432   2.947   7.126   9.801  0.6226 -1.1003 -2.4478
13926SOL    HW253433   2.864   7.228   9.705  1.1775  0.4887 -1.2632
13927SOL     OW53434   2.499   4.219   5.093  0.2211  0.3404  0.0608
13927SOL    HW153435   2.457   4.302   5.129  1.1498  1.2608 -0.9439
13927SOL    HW253436   2.597   4.219   5.114  0.4566  0.0903 -1.0114
13928SOL     OW53437   7.678   7.672   7.669  0.4232  0.5128  0.1298
13928SOL    HW153438   7.623   7.754   7.685 -0.3050  0.1459 -0.4923
13928SOL    HW253439   7.649   7.628   7.585  1.0710 -0.1850  0.2668
13929SOL     OW53440   6.601   8.597   7.613 -0.2959 -0.9621 -0.2489
13929SOL    HW153441   6.541   8.616   7.691 -0.2564 -2.1103  0.0693
13929SOL    HW253442   6.688   8.646   7.625 -1.2298  0.9051 -0.8331
13930SOL     OW53443   2.002   3.217   2.775 -0.3472 -0.1519  0.1986
13930SOL    HW153444   1.983   3.261   2.863 -0.2107  0.3759 -0.0363
13930SOL    HW253445   1.981   3.119   2.782 -1.2566  0.0608  0.5290
13931SOL     OW53446   9.547   2.793   6.354 -0.3243  0.2766  0.1125
13931SOL    HW153447   9.546   2.694   6.340 -1.7377  0.2087  0.5661
13931SOL    HW253448   9.530   2.813   6.450  0.1163  0.9573  0.0506
13932SOL     OW53449   1.798   5.125   1.569  0.2277  0.6514  0.1273
13932SOL    HW153450   1.830   5.138   1.663  0.9716  0.7753 -0.1355
13932SOL    HW253451   1.877   5.128   1.507 -0.1216 -0.6603 -0.3754
13933SOL     OW53452   1.955   6.941   5.586 -0.3029 -0.0056  0.4328
13933SOL    HW153453   1.890   6.967   5.514 -0.9918  0.6424  1.2802
13933SOL    HW253454   2.034   7.004   5.583  0.2208 -0.6953 -0.4925
13934SOL     OW53455   3.174   3.198   4.180  0.1047  0.5922  0.0703
13934SOL    HW153456   3.235   3.123   4.205 -1.3917 -0.2464  1.2807
13934SOL    HW253457   3.184   3.218   4.083  1.2628 -0.4833 -0.0427
13935SOL     OW53458   3.612   8.842   7.882  0.1592 -0.0675 -0.5031
13935SOL    HW153459   3.637   8.822   7.787 -0.7821  0.8739 -0.9691
13935SOL    HW253460   3.519   8.810   7.900  0.9863 -1.8518  0.6454
13936SOL     OW53461   8.272   3.880   3.435  0.1347 -0.4479  0.2754
13936SOL    HW153462   8.326   3.964   3.434 -0.0255 -0.3376  0.5970
13936SOL    HW253463   8.191   3.894   3.493 -1.6918  0.2837 -2.3626
13937SOL     OW53464   1.119   1.451   2.574 -0.3557  0.3253  0.0151
13937SOL    HW153465   1.205   1.449   2.523 -0.5166 -0.1866 -0.2419
13937SOL    HW253466   1.095   1.545   2.595  0.8262  0.4120  1.0377
13938SOL     OW53467   6.350   1.474   5.237  0.8782 -0.2958 -0.1428
13938SOL    HW153468   6.306   1.386   5.251  1.3673 -0.3862  0.8187
13938SOL    HW253469   6.402   1.499   5.318  0.7082  0.8992 -0.3891
13939SOL     OW53470   5.372   4.814   2.644 -0.1476 -0.8633 -0.2957
13939SOL    HW153471   5.274   4.815   2.668  0.2271 -1.4718  1.3662
13939SOL    HW253472   5.424   4.779   2.722  1.2210 -2.3196 -1.8375
13940SOL     OW53473   2.762   9.997   4.611  0.0629 -0.2530  0.2821
13940SOL    HW153474   2.797   9.925   4.670 -0.4143 -2.1774 -1.7269
13940SOL    HW253475   2.817  10.002   4.527 -0.7019  0.8455 -0.1747
13941SOL     OW53476   9.084   5.948   2.382 -0.0931 -0.6132  0.2326
13941SOL    HW153477   9.053   5.921   2.291 -1.6668 -0.4096  0.7023
13941SOL    HW253478   9.011   5.998   2.429  1.1506  0.3849  1.1337
13942SOL     OW53479   2.138   3.510   4.634 -0.3310  0.0164  0.0588
13942SOL    HW153480   2.211   3.551   4.580  1.0250 -1.3106  0.8383
13942SOL    HW253481   2.157   3.521   4.731 -1.6873  0.5363  0.2783
13943SOL     OW53482   5.160   9.677   5.237  1.1118  0.4471 -0.4049
13943SOL    HW153483   5.153   9.609   5.164 -0.8485 -0.5959  0.7173
13943SOL    HW253484   5.197   9.762   5.200  1.7621 -0.6038 -2.2357
13944SOL     OW53485   9.713   3.060   6.321  0.0397 -0.5686 -0.3564
13944SOL    HW153486   9.674   3.065   6.413  1.7367 -0.4540  0.3661
13944SOL    HW253487   9.797   3.005   6.324  0.5832  0.1916 -1.6773
13945SOL     OW53488   7.347   8.098   5.261  0.2169 -0.0599 -1.1322
13945SOL    HW153489   7.312   8.168   5.199 -2.6308  1.3394  1.9297
13945SOL    HW253490   7.355   8.011   5.212 -0.6670  1.3117 -3.7808
13946SOL     OW53491   0.997   8.458   5.384 -0.1325  0.3010  0.1192
13946SOL    HW153492   1.097   8.453   5.382 -0.1470  0.0494 -0.0820
13946SOL    HW253493   0.962   8.402   5.459 -0.2010 -1.0516 -0.8938
13947SOL     OW53494   4.480   7.805   0.356  0.4578 -0.2789 -0.1528
13947SOL    HW153495   4.431   7.726   0.392  1.2787 -0.5474  0.4023
13947SOL    HW253496   4.565   7.817   0.408  0.1972  1.1412 -0.0427
13948SOL     OW53497   2.719   5.124   5.450 -0.0234 -0.0655 -0.4917
13948SOL    HW153498   2.810   5.155   5.424  0.4601  1.2653  2.5009
13948SOL    HW253499   2.683   5.185   5.521 -2.8446 -1.1428 -0.9640
13949SOL     OW53500   2.975   9.709   5.634  0.2239 -0.7616  0.2488
13949SOL    HW153501   2.941   9.772   5.705 -1.7463 -1.7338  0.2152
13949SOL    HW253502   2.897   9.672   5.584  1.5653 -0.4470 -2.1404
13950SOL     OW53503   2.836   3.339   1.112  0.7274  0.2452  0.0311
13950SOL    HW153504   2.803   3.246   1.127  0.4145  0.3986  0.3304
13950SOL    HW253505   2.929   3.348   1.149  0.4086  0.2972  0.8364
13951SOL     OW53506   5.558   2.882   5.668  0.0906  0.6759  0.0233
13951SOL    HW153507   5.480   2.945   5.669 -0.8262 -0.4442 -0.0698
13951SOL    HW253508   5.590   2.870   5.574  0.2615  0.9911  0.0401
13952SOL     OW53509   4.630   5.544   2.205 -0.0337 -0.0809 -0.1760
13952SOL    HW153510   4.546   5.524   2.256  0.5145 -2.1645 -0.0531
13952SOL    HW253511   4.631   5.491   2.120  1.8885 -1.3288  0.5988
13953SOL     OW53512   1.720   5.513   4.659 -0.3489 -0.3674  0.4726
13953SOL    HW153513   1.752   5.553   4.746  0.8669  0.0621 -0.1576
13953SOL    HW253514   1.667   5.581   4.609 -0.5426 -0.4149  0.6169
13954SOL     OW53515   0.343   0.677   5.830 -0.3306  0.1631  0.2471
13954SOL    HW153516   0.440   0.693   5.810 -0.4107  1.7208  1.0227
13954SOL    HW253517   0.286   0.722   5.762 -0.5255  0.7010  0.7583
13955SOL     OW53518   3.752   3.626   1.900  0.5434 -0.0205 -0.3161
13955SOL    HW153519   3.796   3.537   1.910  1.1648  0.3264  0.0176
13955SOL    HW253520   3.737   3.666   1.990 -1.7254 -0.7488 -0.3233
13956SOL     OW53521   4.700   1.193   6.512 -0.6817 -0.1883 -0.2353
13956SOL    HW153522   4.786   1.178   6.465  0.4447  1.0683  1.3455
13956SOL    HW253523   4.686   1.291   6.526 -1.4338 -0.4701  1.1734
13957SOL     OW53524   7.035   7.401   4.928 -0.4024  0.3239  0.4495
13957SOL    HW153525   7.048   7.302   4.932  0.2438  0.3982  0.2584
13957SOL    HW253526   7.063   7.442   5.015  2.0402  0.6363 -0.4484
13958SOL     OW53527   0.090   5.680   5.569 -0.4642 -0.4470  0.0910
13958SOL    HW153528   0.016   5.637   5.620 -0.5395  0.6026  0.8902
13958SOL    HW253529   0.081   5.780   5.576 -0.5750 -0.2753 -2.1120
13959SOL     OW53530   4.057   5.484   2.582  1.0664  0.2035  0.1540
13959SOL    HW153531   4.038   5.399   2.533  0.5698  1.2670 -1.5490
13959SOL    HW253532   3.997   5.491   2.661  0.0284 -0.3193 -0.5747
13960SOL     OW53533   9.933   5.987   2.540  0.0924  0.1119 -0.1945
13960SOL    HW153534   9.912   6.024   2.630  0.6554  0.8091 -0.3479
13960SOL    HW253535   9.934   5.887   2.545 -0.6910  0.1235  0.3820
13961SOL     OW53536   9.176   2.550   1.702 -0.1196 -0.4059 -0.9543
13961SOL    HW153537   9.221   2.639   1.709 -1.6787  0.3729 -0.4856
13961SOL    HW253538   9.243   2.480   1.677  0.9244  1.0778 -2.3719
13962SOL     OW53539   3.472   3.191   2.337 -0.0163 -0.2027 -0.1764
13962SOL    HW153540   3.456   3.095   2.313 -2.4715  0.2688 -0.5400
13962SOL    HW253541   3.416   3.249   2.279 -0.3278  1.3391  1.6287
13963SOL     OW53542   9.062   2.881   2.504  0.2242 -0.6308  0.5431
13963SOL    HW153543   9.045   2.894   2.406  0.1467 -0.8853  0.5213
13963SOL    HW253544   9.059   2.783   2.525 -0.2822 -0.5433  0.8956
13964SOL     OW53545   3.159   9.404   4.168  0.0495  0.1310  0.1541
13964SOL    HW153546   3.223   9.377   4.241  1.1037 -0.1555 -0.8666
13964SOL    HW253547   3.204   9.395   4.079 -1.0033  1.1379 -0.4920
13965SOL     OW53548   1.775   3.943   6.363 -0.0743 -0.0295  0.6464
13965SOL    HW153549   1.816   4.011   6.303 -2.3718  1.7294  0.9833
13965SOL    HW253550   1.847   3.888   6.406  1.7313  0.9947 -0.9909
13966SOL     OW53551   2.095   5.453   1.867 -0.2643  0.1082 -0.1144
13966SOL    HW153552   2.043   5.446   1.783  0.3006 -0.2533 -0.4391
13966SOL    HW253553   2.046   5.406   1.941 -0.1552 -0.6790 -0.5349
13967SOL     OW53554   1.364   2.693   4.068 -0.6287 -0.0083 -0.0003
13967SOL    HW153555   1.288   2.702   4.133 -1.4948  0.6090 -1.0916
13967SOL    HW253556   1.441   2.748   4.100 -0.6921 -0.4868  1.0165
13968SOL     OW53557   7.742   2.010   4.483 -0.0037  0.0667  0.1972
13968SOL    HW153558   7.691   1.929   4.514  0.9636  0.0318  1.7291
13968SOL    HW253559   7.825   1.982   4.436  1.1542  0.1678  2.1455
13969SOL     OW53560   3.372   0.166   5.025 -0.2230  0.4891 -0.2798
13969SOL    HW153561   3.429   0.089   5.054 -1.0332 -0.4165 -1.0507
13969SOL    HW253562   3.316   0.196   5.101 -0.2874 -0.0320 -0.1165
13970SOL     OW53563   9.443   8.359   6.874  0.0964 -0.1414 -0.7553
13970SOL    HW153564   9.474   8.446   6.912  0.2549  0.4466 -2.1867
13970SOL    HW253565   9.389   8.376   6.791 -1.3872 -1.3221 -0.0434
13971SOL     OW53566   0.200   9.559   4.206  0.0229  0.0128 -0.3808
13971SOL    HW153567   0.109   9.566   4.249 -0.3450  0.0562 -1.1562
13971SOL    HW253568   0.230   9.650   4.178  1.0772  0.2398  1.4325
13972SOL     OW53569   9.170   4.970   0.940 -0.2343  0.9228 -0.0438
13972SOL    HW153570   9.219   4.935   0.861  0.7228  1.2599  0.3999
13972SOL    HW253571   9.208   5.058   0.967 -1.1670  1.2523  0.2227
13973SOL     OW53572   1.695   4.253   7.200 -0.0998  0.1465 -0.1072
13973SOL    HW153573   1.649   4.173   7.160  0.1427 -0.7466  1.3478
13973SOL    HW253574   1.669   4.335   7.150 -2.6042 -0.4715  0.1068
13974SOL     OW53575   6.680   3.395   2.908  0.1988 -0.3471 -0.2440
13974SOL    HW153576   6.766   3.388   2.958 -0.7822  0.4595  1.5894
13974SOL    HW253577   6.651   3.490   2.905 -1.2328 -0.7643  0.1854
13975SOL     OW53578   5.421   8.596   5.113  0.3064  0.8572  0.1522
13975SOL    HW153579   5.343   8.563   5.059  1.1061  1.3834 -1.3532
13975SOL    HW253580   5.388   8.637   5.198 -1.0113  0.4673 -0.1625
13976SOL     OW53581   9.106   6.908   0.859  0.2052 -0.7443 -0.3376
13976SOL    HW153582   9.190   6.895   0.807  0.6378 -1.3317  0.4826
13976SOL    HW253583   9.125   6.967   0.938  0.0809 -1.6645  0.3911
13977SOL     OW53584   4.511   2.289   0.355  0.2739  0.3217  0.0319
13977SOL    HW153585   4.536   2.316   0.448 -0.3388 -0.2913  0.3760
13977SOL    HW253586   4.559   2.204   0.331  0.2365  0.3437 -0.1219
13978SOL     OW53587   6.036   9.487   7.656 -0.1758 -0.0843  0.3043
13978SOL    HW153588   6.111   9.481   7.721  0.0169  0.6097  0.1553
13978SOL    HW253589   5.950   9.503   7.705 -0.6906 -3.6322  0.7004
13979SOL     OW53590   0.420   1.681   3.875 -0.3640 -0.3502  0.0424
13979SOL    HW153591   0.352   1.613   3.849 -0.6447 -0.0770  0.0529
13979SOL    HW253592   0.375   1.757   3.922 -0.0856 -0.0546 -0.1622
13980SOL     OW53593   2.662   6.245   7.433  0.0325 -0.0660  0.2554
13980SOL    HW153594   2.564   6.239   7.418 -0.2790  0.3533  1.9629
13980SOL    HW253595   2.696   6.335   7.402 -0.0464 -0.3654 -0.7005
13981SOL     OW53596   3.728   9.097   6.135  0.0091 -0.2906 -0.4282
13981SOL    HW153597   3.656   9.050   6.185  1.0300 -0.3331  1.0686
13981SOL    HW253598   3.695   9.186   6.104 -1.3532 -1.2186 -1.6871
13982SOL     OW53599   7.502   8.502   3.292  0.5514 -0.0730 -0.5365
13982SOL    HW153600   7.570   8.572   3.314 -1.8307  2.8038 -1.9934
13982SOL    HW253601   7.474   8.455   3.375  0.7984  2.0451  0.7915
13983SOL     OW53602   4.836   5.569   4.124  0.8171  0.4592  0.1600
13983SOL    HW153603   4.768   5.622   4.075  1.0307  0.8868  0.3210
13983SOL    HW253604   4.907   5.538   4.060  0.1882 -0.4470 -0.1029
13984SOL     OW53605   6.451   4.348   1.070  0.0468 -0.0435 -0.7328
13984SOL    HW153606   6.504   4.408   1.010 -1.6681  0.6572 -1.5940
13984SOL    HW253607   6.378   4.401   1.114  0.6822 -0.7551  1.2554
13985SOL     OW53608   6.975   5.096   2.742  0.4330  0.2556  0.2030
13985SOL    HW153609   6.971   5.156   2.662  0.5065  0.9087  0.6849
13985SOL    HW253610   6.893   5.109   2.797  1.5605  1.7404  1.5954
13986SOL     OW53611   5.463   9.489   4.603  0.0853  0.1043 -0.4060
13986SOL    HW153612   5.427   9.525   4.517 -0.5567  0.0198 -0.1749
13986SOL    HW253613   5.414   9.405   4.627  1.5112 -0.8731 -0.8897
13987SOL     OW53614   7.135   3.280   4.442 -0.1986 -0.3226  0.1042
13987SOL    HW153615   7.160   3.364   4.489 -3.5069  1.9984 -2.0298
13987SOL    HW253616   7.171   3.282   4.348 -3.3478  0.4946 -1.1556
13988SOL     OW53617   1.841   2.741   5.924 -0.3706 -0.1961 -0.0022
13988SOL    HW153618   1.919   2.740   5.862 -0.5079 -2.0443 -0.1861
13988SOL    HW253619   1.765   2.690   5.884 -1.3288  0.7055  0.6217
13989SOL     OW53620   6.365   8.417   2.458  0.2858 -0.1395  0.3932
13989SOL    HW153621   6.409   8.431   2.369 -1.0276 -0.0928 -0.2492
13989SOL    HW253622   6.354   8.319   2.475 -0.6147 -0.1204 -0.0663
13990SOL     OW53623   7.757   5.636   3.166 -0.1699 -0.1683  0.3577
13990SOL    HW153624   7.750   5.661   3.263 -3.8687 -0.7403  0.3109
13990SOL    HW253625   7.735   5.715   3.109  2.0278  0.1756 -0.0912
13991SOL     OW53626   9.423   0.569   3.180  0.3889 -0.4234 -0.3908
13991SOL    HW153627   9.490   0.640   3.157  0.5986 -0.5315 -0.1164
13991SOL    HW253628   9.461   0.509   3.250  0.3871 -1.1006 -0.9730
13992SOL     OW53629   1.904   9.379   3.067  0.2042 -0.9182 -0.4196
13992SOL    HW153630   1.819   9.429   3.053  0.5562 -0.6297 -1.6056
13992SOL    HW253631   1.900   9.292   3.018  1.5615  0.2256 -2.6709
13993SOL     OW53632   7.390   1.598   2.798 -0.1928 -0.3347  0.0456
13993SOL    HW153633   7.405   1.693   2.769 -1.6826  0.0444  0.4792
13993SOL    HW253634   7.475   1.546   2.787  1.3359  1.6293  1.9985
13994SOL     OW53635   9.871   1.464   6.887  0.3217  0.1023 -0.1738
13994SOL    HW153636   9.879   1.560   6.859  1.6988 -0.1193 -0.6079
13994SOL    HW253637   9.960   1.420   6.877 -0.4562 -1.3916 -0.5886
13995SOL     OW53638   0.944   3.917   6.695 -0.3115  0.3410  0.3660
13995SOL    HW153639   0.921   3.886   6.787 -1.7091  0.2005 -0.0113
13995SOL    HW253640   1.030   3.968   6.697  0.2484 -0.6256  1.5559
13996SOL     OW53641   3.622   2.215   5.149 -0.4635 -0.3222 -0.0743
13996SOL    HW153642   3.656   2.297   5.104  0.4516  0.1862  1.5325
13996SOL    HW253643   3.523   2.223   5.162 -0.5574  0.0092 -0.9444
13997SOL     OW53644   2.667   6.542   2.480 -0.1677  0.4850  0.5082
13997SOL    HW153645   2.729   6.575   2.551  1.4030  2.2317 -1.6081
13997SOL    HW253646   2.714   6.474   2.424 -0.5393  0.9069 -0.3336
13998SOL     OW53647   6.878   1.120   1.958  0.9316  0.4164 -0.1718
13998SOL    HW153648   6.956   1.147   2.015  2.2774 -0.3714 -1.5757
13998SOL    HW253649   6.912   1.074   1.875 -1.0492 -0.2268 -0.6570
13999SOL     OW53650   7.853   0.473   5.928 -0.3558 -0.1085  0.1778
13999SOL    HW153651   7.906   0.514   5.854 -0.5210 -0.8864 -0.3719
13999SOL    HW253652   7.824   0.545   5.992  1.0758  0.3560  0.3119
14000SOL     OW53653   2.237   4.812   1.344  0.5809 -0.2218  0.7378
14000SOL    HW153654   2.264   4.719   1.320 -0.8825 -0.3270 -0.5810
14000SOL    HW253655   2.319   4.869   1.352  1.4081 -1.3136  0.2736
14001SOL     OW53656   3.903   9.407   8.052  0.1337  0.0609  0.7448
14001SOL    HW153657   3.942   9.498   8.063 -0.0862  0.1685  0.6145
14001SOL    HW253658   3.978   9.340   8.045  0.3006 -0.0340  3.0417
14002SOL     OW53659   4.770   8.391   3.151  0.1925 -0.6738  0.0793
14002SOL    HW153660   4.864   8.358   3.157  0.2423 -0.4152  0.8148
14002SOL    HW253661   4.707   8.314   3.154  0.4134 -0.9393 -1.6441
14003SOL     OW53662   0.257   7.744   7.427 -0.3712  0.1256 -0.1811
14003SOL    HW153663   0.229   7.834   7.392 -1.6577 -0.6485 -1.2012
14003SOL    HW253664   0.342   7.716   7.382 -0.1978  0.6471 -0.1787
14004SOL     OW53665   0.712   4.634   0.595 -0.4361  0.3718  0.4042
14004SOL    HW153666   0.781   4.562   0.584  0.8147  1.7540 -0.8779
14004SOL    HW253667   0.654   4.636   0.514 -1.3700 -0.0970  1.0432
14005SOL     OW53668   0.663   2.512   4.331 -0.3140  0.5282 -0.4515
14005SOL    HW153669   0.672   2.418   4.364  2.0200  1.0139  0.4073
14005SOL    HW253670   0.567   2.530   4.308 -0.9377 -1.7852  0.1700
14006SOL     OW53671   4.590   8.801   6.767  0.2366 -0.6184  0.3778
14006SOL    HW153672   4.575   8.900   6.772 -0.2037 -0.6023 -1.0590
14006SOL    HW253673   4.664   8.775   6.829 -0.5007  0.4233  1.7152
14007SOL     OW53674   6.154   1.722   0.939 -0.0893 -0.3294  0.0542
14007SOL    HW153675   6.126   1.817   0.952  0.1893 -0.1414 -0.7063
14007SOL    HW253676   6.073   1.665   0.924 -0.4569 -0.5978  2.7760
14008SOL     OW53677   4.818   8.474   3.988  0.0337 -0.3319  0.5219
14008SOL    HW153678   4.886   8.520   4.046 -0.6518  1.3782 -0.0207
14008SOL    HW253679   4.863   8.401   3.936  1.2237  0.0250  1.0272
14009SOL     OW53680   9.924   8.297   2.640 -1.0265 -0.5873  0.2202
14009SOL    HW153681   9.934   8.379   2.584 -0.8061 -0.4482  0.4614
14009SOL    HW253682   9.857   8.313   2.712 -2.2110 -1.1618 -0.7295
14010SOL     OW53683   0.984   0.704   6.879  0.7388 -0.4644 -0.7231
14010SOL    HW153684   0.975   0.710   6.978 -1.0354 -0.4973 -0.8575
14010SOL    HW253685   1.047   0.774   6.846 -1.7062  2.2161  0.0582
14011SOL     OW53686   7.314   9.601   6.910  0.7161  0.3627  0.3107
14011SOL    HW153687   7.336   9.691   6.948  2.4598  0.2704 -0.4449
14011SOL    HW253688   7.271   9.545   6.981  1.0774  1.2486  1.2436
14012SOL     OW53689   9.991   4.504   7.629 -0.0301 -0.4137  0.7600
14012SOL    HW153690  10.042   4.437   7.574  1.5384 -0.2846  2.0174
14012SOL    HW253691  10.009   4.596   7.596 -0.5068 -0.4621  0.3647
14013SOL     OW53692   3.163   6.592   2.373 -0.4422 -0.1993 -0.5526
14013SOL    HW153693   3.091   6.661   2.371 -2.4172 -2.1425  1.4351
14013SOL    HW253694   3.236   6.623   2.434 -1.2768  0.1799  0.2643
14014SOL     OW53695   5.385   2.515   5.311 -0.0416 -0.0442  0.2332
14014SOL    HW153696   5.346   2.435   5.266 -1.1712  0.1839  0.7877
14014SOL    HW253697   5.399   2.588   5.244 -0.9751  0.0165  0.0956
14015SOL     OW53698   9.942   4.181   3.000 -0.3615 -0.0562  0.2144
14015SOL    HW153699   9.904   4.190   2.908  0.5395  1.7714 -0.0061
14015SOL    HW253700   9.942   4.271   3.045  0.0669 -0.7576  1.6625
14016SOL     OW53701   3.834   8.459   0.733  0.4894  0.0943 -0.5562
14016SOL    HW153702   3.880   8.467   0.821 -0.0851 -0.1130 -0.2381
14016SOL    HW253703   3.857   8.371   0.691 -0.8318 -0.6789  0.3018
14017SOL     OW53704   8.129   6.734   2.707 -0.0503 -0.0950  0.4482
14017SOL    HW153705   8.130   6.645   2.752 -0.8650  0.0842  0.8370
14017SOL    HW253706   8.044   6.743   2.654  0.5074  0.0365 -0.4292
14018SOL     OW53707   1.365   8.034   0.886  0.1497 -0.6474  0.1127
14018SOL    HW153708   1.427   7.961   0.915 -1.9100 -2.6572 -0.3852
14018SOL    HW253709   1.276   7.994   0.863 -1.2560  2.1412  0.5779
14019SOL     OW53710   7.696   3.478   1.021 -0.2514 -0.1784 -0.0192
14019SOL    HW153711   7.680   3.430   1.108  1.1701  0.8665  0.8448
14019SOL    HW253712   7.614   3.472   0.964 -1.8022  0.5401  2.0755
14020SOL     OW53713   8.406   5.301   2.088 -0.5073 -0.3072 -0.1929
14020SOL    HW153714   8.367   5.244   2.160 -0.5826 -0.2874 -0.2170
14020SOL    HW253715   8.486   5.349   2.122 -0.6505 -0.1570 -0.0686
14021SOL     OW53716   1.562   4.634   5.747 -0.4970  0.2292 -0.0063
14021SOL    HW153717   1.477   4.671   5.785 -0.8674 -2.1914  1.6425
14021SOL    HW253718   1.595   4.560   5.805  3.1375  1.5624 -0.2509
14022SOL     OW53719   4.332   1.427   6.457  0.2279  0.5854  0.3818
14022SOL    HW153720   4.273   1.507   6.446 -0.6796  0.1107  1.7209
14022SOL    HW253721   4.291   1.363   6.522  1.4873 -0.4610  0.1803
14023SOL     OW53722   6.035   9.317   8.001  0.0109 -0.0238  0.0015
14023SOL    HW153723   6.016   9.244   7.935 -0.3914 -0.8071  0.9864
14023SOL    HW253724   6.021   9.283   8.094  2.0036  0.6425  0.5797
14024SOL     OW53725   5.639   0.359   6.153  0.0926  0.3805 -0.1671
14024SOL    HW153726   5.666   0.264   6.168  0.4274  0.3937 -0.6677
14024SOL    HW253727   5.709   0.404   6.097  0.1998  1.0657  0.5137
14025SOL     OW53728   9.419   4.862   3.430  0.1446  0.0531  0.1055
14025SOL    HW153729   9.441   4.917   3.511 -3.6290 -0.4005  1.5602
14025SOL    HW253730   9.477   4.890   3.354  2.1925  2.1155  2.3180
14026SOL     OW53731   3.944   1.591   1.528 -0.1131 -0.0018  0.2921
14026SOL    HW153732   3.851   1.626   1.535 -0.6430 -0.5267 -3.0024
14026SOL    HW253733   4.010   1.665   1.540 -1.0118  0.7319  0.7048
14027SOL     OW53734   7.500   8.239   2.262 -0.5987 -0.0735  0.7188
14027SOL    HW153735   7.495   8.314   2.196  0.7269 -0.6785 -0.0826
14027SOL    HW253736   7.409   8.200   2.274 -0.2149 -3.0154 -4.3869
14028SOL     OW53737   0.855   5.902   0.601  0.0081  0.5656  0.1553
14028SOL    HW153738   0.881   5.853   0.518 -0.4085  0.8515 -0.1510
14028SOL    HW253739   0.761   5.936   0.591 -0.4578 -0.3916  1.2038
14029SOL     OW53740   7.921   5.833   0.219 -0.1904  0.1905  0.3205
14029SOL    HW153741   7.892   5.925   0.245  0.5958  0.7259 -0.6469
14029SOL    HW253742   7.852   5.793   0.159  1.0493  1.5112 -2.0738
14030SOL     OW53743   2.470   4.621   6.608  0.4366 -0.0657 -0.2980
14030SOL    HW153744   2.429   4.558   6.674  1.8369 -0.9565 -0.2361
14030SOL    HW253745   2.567   4.632   6.629  0.7256  0.2535 -1.7357
14031SOL     OW53746   6.628   7.873   5.032 -0.6168 -0.4222 -0.5469
14031SOL    HW153747   6.675   7.891   4.946 -0.0874 -0.2077 -0.2146
14031SOL    HW253748   6.681   7.807   5.086 -1.1231 -0.8244 -0.5371
14032SOL     OW53749   1.959   9.618   4.347 -0.3498  0.2561  0.2428
14032SOL    HW153750   1.892   9.627   4.421 -1.9248 -2.2372 -0.8287
14032SOL    HW253751   1.925   9.667   4.266  0.3845  1.1870  0.4819
14033SOL     OW53752   1.309   5.696   5.695 -0.0477 -0.5983  0.2552
14033SOL    HW153753   1.362   5.658   5.618  0.3951 -0.0398  0.2850
14033SOL    HW253754   1.224   5.735   5.660 -0.0352 -0.7071  0.0990
14034SOL     OW53755   7.490   9.719   7.927 -0.4115  0.6621 -0.3195
14034SOL    HW153756   7.521   9.810   7.956 -0.2041  0.2580  0.7472
14034SOL    HW253757   7.534   9.649   7.983 -0.0551 -0.1423 -1.5840
14035SOL     OW53758   8.542   3.377   5.616  0.0422 -0.3319 -0.6802
14035SOL    HW153759   8.503   3.464   5.646  0.9195  0.0280 -0.5587
14035SOL    HW253760   8.638   3.373   5.643  0.0977 -1.1945 -0.9911
14036SOL     OW53761   8.605   9.260   5.816  0.2464 -0.0108 -1.1549
14036SOL    HW153762   8.638   9.347   5.851  1.0683 -0.5705 -0.5136
14036SOL    HW253763   8.505   9.262   5.810  0.2212  0.7375 -0.5062
14037SOL     OW53764   4.805   1.768   5.007 -0.2189  0.1491  0.4884
14037SOL    HW153765   4.901   1.787   4.986 -0.6996  1.7055 -0.3114
14037SOL    HW253766   4.801   1.693   5.074  1.4920 -0.8469 -0.4823
14038SOL     OW53767   2.268   6.159   2.797  0.0146 -0.0545  0.1718
14038SOL    HW153768   2.330   6.105   2.740  0.6562  1.8090 -0.9236
14038SOL    HW253769   2.251   6.248   2.754 -0.4969  0.8965  2.2592
14039SOL     OW53770   6.394   3.551   0.922 -0.3063  0.8098  0.2055
14039SOL    HW153771   6.360   3.584   0.833 -0.8609  1.6995  0.7403
14039SOL    HW253772   6.484   3.510   0.909 -1.3463 -1.1234 -1.1517
14040SOL     OW53773   7.104   2.954   3.531  0.0559 -0.0232  0.1410
14040SOL    HW153774   7.176   2.970   3.465 -0.8207  0.9408 -0.6046
14040SOL    HW253775   7.116   3.016   3.609  0.6746 -0.6567  0.5554
14041SOL     OW53776   4.144   1.680   1.824  0.1467  0.2031  0.6147
14041SOL    HW153777   4.186   1.658   1.736 -1.4133  3.1923 -0.9492
14041SOL    HW253778   4.198   1.750   1.870 -1.4553  1.9347 -0.0757
14042SOL     OW53779   9.013   2.602   4.096  0.0612  0.4946 -0.3011
14042SOL    HW153780   9.011   2.667   4.173  0.7967  0.5382 -0.3148
14042SOL    HW253781   9.065   2.642   4.021  1.6890 -0.6702  0.1999
14043SOL     OW53782   0.064   0.743   6.901  0.2395 -0.2531 -0.1922
14043SOL    HW153783   0.087   0.742   6.998  0.2461  0.3626 -0.1860
14043SOL    HW253784   0.046   0.649   6.870  0.1048 -0.4358  0.4296
14044SOL     OW53785   7.757   8.558   4.473 -0.1031  0.0879  0.3883
14044SOL    HW153786   7.799   8.467   4.474  0.1870  0.2138 -0.3586
14044SOL    HW253787   7.763   8.598   4.565  0.2318 -0.4336  0.5954
14045SOL     OW53788   7.943   1.377   6.030  0.6399  0.2593 -0.2202
14045SOL    HW153789   8.029   1.327   6.039  0.1445 -0.5126  0.2491
14045SOL    HW253790   7.867   1.313   6.026  0.1639  0.8985 -1.6843
14046SOL     OW53791   1.761   6.466   0.608 -0.3651  0.0774  0.1489
14046SOL    HW153792   1.679   6.436   0.656 -0.7600  0.8860 -0.0068
14046SOL    HW253793   1.749   6.561   0.577  0.6016  0.1828  0.0722
14047SOL     OW53794   2.732   0.295   6.583 -0.6305 -0.0831  0.3556
14047SOL    HW153795   2.751   0.393   6.583 -0.1535 -0.1717 -0.1206
14047SOL    HW253796   2.791   0.249   6.516 -0.2644 -0.8039  1.1556
14048SOL     OW53797   2.256   0.740   2.283  0.1046  0.2050 -0.6689
14048SOL    HW153798   2.218   0.762   2.373  0.1145 -0.7716 -0.4260
14048SOL    HW253799   2.311   0.818   2.251 -0.6897  0.9418 -0.2689
14049SOL     OW53800   0.406   3.440   3.758 -0.4375 -0.1518  0.3356
14049SOL    HW153801   0.435   3.374   3.689 -1.0416  1.5082 -1.5604
14049SOL    HW253802   0.333   3.497   3.720 -0.1741  1.3537  2.0519
14050SOL     OW53803   7.162   1.943   1.091  0.1993 -0.0834  0.2773
14050SOL    HW153804   7.221   1.864   1.098 -0.2981 -0.6176 -1.3228
14050SOL    HW253805   7.216   2.027   1.098  1.3848 -0.5504 -2.6147
14051SOL     OW53806   5.598   8.848   6.310 -0.0217 -0.1490  0.5213
14051SOL    HW153807   5.684   8.849   6.360  0.0703 -1.6222  0.4255
14051SOL    HW253808   5.535   8.914   6.351  0.8629  0.3316  1.1214
14052SOL     OW53809   9.396   3.781   4.744  0.3537 -0.1354 -0.0502
14052SOL    HW153810   9.466   3.782   4.672 -0.9161  0.4987 -1.2750
14052SOL    HW253811   9.411   3.701   4.802  2.9467  0.7320  0.5515
14053SOL     OW53812   6.975   0.553   4.146 -0.0228  0.1381  0.4694
14053SOL    HW153813   6.899   0.591   4.093 -0.6801  0.4784  1.6281
14053SOL    HW253814   6.940   0.515   4.231  1.0169 -0.4149  0.6608
14054SOL     OW53815   7.770   3.827   4.160 -0.1719 -0.2039 -0.0730
14054SOL    HW153816   7.808   3.912   4.197 -0.8025  0.7387 -1.5601
14054SOL    HW253817   7.802   3.815   4.066 -0.6081 -1.2913 -0.0810
14055SOL     OW53818   0.431   4.843   4.174  0.3834  0.4019 -0.2588
14055SOL    HW153819   0.345   4.820   4.220  0.8128 -1.6331 -0.4317
14055SOL    HW253820   0.458   4.768   4.113  2.0340  1.2196 -0.5743
14056SOL     OW53821   6.321   2.355   4.518  0.1612 -0.1019  0.0589
14056SOL    HW153822   6.269   2.271   4.502 -1.6266  1.2265 -1.2980
14056SOL    HW253823   6.373   2.379   4.436 -1.0657  1.2912 -0.3293
14057SOL     OW53824   4.442   6.057   1.924  0.5477  0.2259 -0.0354
14057SOL    HW153825   4.520   5.996   1.934  0.5098  0.0636 -0.6738
14057SOL    HW253826   4.373   6.035   1.993  0.5872 -0.3734 -0.1847
14058SOL     OW53827   8.451   7.337   4.133 -0.1238 -0.1262 -0.0680
14058SOL    HW153828   8.499   7.249   4.132 -2.2086 -1.2850 -0.8328
14058SOL    HW253829   8.361   7.326   4.175 -1.0988  1.2698 -1.7198
14059SOL     OW53830   8.970   6.559   3.859  0.0019 -0.2613  0.4216
14059SOL    HW153831   8.939   6.595   3.771  1.2075 -2.0272 -0.7585
14059SOL    HW253832   9.065   6.588   3.874 -0.1915  0.0145  1.1470
14060SOL     OW53833   8.600   9.272   4.279  0.6070 -0.2567 -0.3582
14060SOL    HW153834   8.631   9.209   4.350 -0.2128 -0.3745 -0.1058
14060SOL    HW253835   8.506   9.251   4.254 -0.3387  2.0895  1.1225
14061SOL     OW53836   7.263   8.555   4.526  0.4252 -0.1844  0.0796
14061SOL    HW153837   7.228   8.627   4.467  1.0467 -0.9729 -1.2825
14061SOL    HW253838   7.244   8.577   4.621 -0.0896  1.3860 -0.3774
14062SOL     OW53839   9.468   5.032   0.234  0.2475  0.3099 -0.1121
14062SOL    HW153840   9.466   5.131   0.218  1.1561  0.3617  0.0532
14062SOL    HW253841   9.379   5.002   0.267 -0.3834  0.8857 -1.2593
14063SOL     OW53842   2.312   0.858   4.827 -0.2930  0.0238  0.7782
14063SOL    HW153843   2.285   0.875   4.922 -1.2095  1.0376  0.3396
14063SOL    HW253844   2.405   0.821   4.825  0.4859  1.8819  1.9437
14064SOL     OW53845   7.727   8.060   3.178  0.5467  0.8881 -0.4061
14064SOL    HW153846   7.815   8.027   3.146  0.6866  0.9792 -0.1123
14064SOL    HW253847   7.717   8.157   3.155  0.5814  0.9143 -0.3054
14065SOL     OW53848   5.544   5.584   0.023 -0.3236  0.6510 -0.5571
14065SOL    HW153849   5.617   5.604   0.089 -1.4133 -0.2735  0.9487
14065SOL    HW253850   5.458   5.570   0.072 -1.0070 -0.7494 -2.1354
14066SOL     OW53851   1.875   8.339   3.941 -0.3937 -0.3072  0.3028
14066SOL    HW153852   1.888   8.398   3.861 -1.9610  0.4159  0.5638
14066SOL    HW253853   1.960   8.291   3.961  0.6549  1.2144 -0.4306
14067SOL     OW53854   4.226   4.914   4.221 -0.0632  0.3059 -0.2799
14067SOL    HW153855   4.320   4.895   4.249  0.7605  0.5091 -2.8332
14067SOL    HW253856   4.197   5.002   4.258  1.4031  1.1253 -1.0773
14068SOL     OW53857   8.619   3.101   4.317 -0.1820 -0.2543  0.1113
14068SOL    HW153858   8.523   3.087   4.292  0.2696 -0.6963 -1.4741
14068SOL    HW253859   8.677   3.047   4.256  1.1660  1.5411 -0.2462
14069SOL     OW53860   5.464   1.552   5.119 -0.1512 -0.5644  0.9131
14069SOL    HW153861   5.542   1.556   5.056  0.0440  1.7406  1.2404
14069SOL    HW253862   5.396   1.620   5.091 -0.7751 -0.6150  2.2605
14070SOL     OW53863   0.839   4.907   1.172 -0.0078 -0.6850  0.3501
14070SOL    HW153864   0.880   4.926   1.261  1.2929 -2.7617  0.2198
14070SOL    HW253865   0.880   4.967   1.103 -1.6729  1.5739  1.2681
14071SOL     OW53866   6.337   3.901  10.049 -0.3601 -0.1880  0.4332
14071SOL    HW153867   6.251   3.924  10.096  0.8798 -0.8043  3.1395
14071SOL    HW253868   6.399   3.979  10.056  0.9815 -1.4189  2.6552
14072SOL     OW53869   5.323   6.860   2.043  0.2310 -0.9554 -0.3988
14072SOL    HW153870   5.228   6.857   2.011  0.6113  2.0575 -2.0020
14072SOL    HW253871   5.378   6.796   1.989 -0.3804 -0.6541 -1.4005
14073SOL     OW53872   6.063   6.195   0.818  0.2791 -0.5803  0.2474
14073SOL    HW153873   6.056   6.142   0.733 -0.0017  0.4801 -0.4044
14073SOL    HW253874   6.118   6.145   0.884  2.3033 -0.4793 -1.3070
14074SOL     OW53875   3.060   3.610   4.852 -0.0795 -0.3478 -0.1975
14074SOL    HW153876   3.047   3.576   4.759 -0.0808 -0.5877 -0.1103
14074SOL    HW253877   3.019   3.701   4.861  1.3434  0.3814 -0.8888
14075SOL     OW53878   7.474   2.835   6.000  0.2010 -0.1359 -0.1325
14075SOL    HW153879   7.493   2.794   6.090  0.7896 -0.0250 -0.2013
14075SOL    HW253880   7.560   2.861   5.957 -0.2185  2.2506  0.4096
14076SOL     OW53881   1.529   9.353   1.179 -0.1124  0.0083 -0.1541
14076SOL    HW153882   1.510   9.254   1.179  1.9838 -0.4647 -3.3418
14076SOL    HW253883   1.570   9.379   1.265 -0.7424 -1.8909  0.7547
14077SOL     OW53884   9.366   7.755   4.080 -0.1370  0.2628  0.8045
14077SOL    HW153885   9.337   7.832   4.136  0.9799  0.5914  0.9460
14077SOL    HW253886   9.455   7.722   4.113 -0.5405 -0.9988  0.6672
14078SOL     OW53887   0.195   6.338   5.950 -0.0651 -0.2797 -0.2218
14078SOL    HW153888   0.146   6.258   5.985 -1.0754  0.8395  0.9712
14078SOL    HW253889   0.285   6.343   5.994 -0.2971 -0.3391  0.2634
14079SOL     OW53890   6.596   9.418   7.257  0.0948  0.4221 -0.2829
14079SOL    HW153891   6.689   9.456   7.252 -0.5109  1.6047 -2.9628
14079SOL    HW253892   6.580   9.357   7.180 -1.9591  1.6045 -0.8310
14080SOL     OW53893   3.914   6.354   7.310 -0.3494  0.2369 -0.0956
14080SOL    HW153894   3.834   6.352   7.251 -1.3895 -0.7003  1.3095
14080SOL    HW253895   3.941   6.260   7.332  0.1207  0.5726  0.7902
14081SOL     OW53896   7.413   6.943   7.989  0.2142 -0.3922 -1.1462
14081SOL    HW153897   7.355   6.886   7.931  0.6955 -0.3220 -1.7030
14081SOL    HW253898   7.375   7.035   7.995 -0.7595 -0.8574  0.0424
14082SOL     OW53899   3.577   8.264   2.040  0.0866 -0.2879 -0.1557
14082SOL    HW153900   3.553   8.289   2.133 -1.3653  0.9531 -0.8342
14082SOL    HW253901   3.636   8.184   2.040  0.2758 -0.1568  1.8283
14083SOL     OW53902   8.245   4.808   2.028 -0.0502  0.1382  0.2586
14083SOL    HW153903   8.222   4.738   2.096  0.9267  1.3656  1.8926
14083SOL    HW253904   8.341   4.833   2.038 -0.1030  0.8967 -1.0787
14084SOL     OW53905   6.408   3.315   2.122 -0.1275 -0.2244  0.2429
14084SOL    HW153906   6.314   3.343   2.141  0.2760  1.7175 -0.4808
14084SOL    HW253907   6.440   3.361   2.039  0.6585 -2.7311 -0.8777
14085SOL     OW53908   3.729   9.853   4.361 -0.0938  0.1032 -0.0575
14085SOL    HW153909   3.701   9.903   4.443  4.8341  1.8653  0.7685
14085SOL    HW253910   3.739   9.756   4.383 -0.1544  0.3430  1.0520
14086SOL     OW53911   8.369   3.986   4.859 -0.0587 -0.3343 -0.1898
14086SOL    HW153912   8.278   3.945   4.854 -0.3869  0.5022 -1.2867
14086SOL    HW253913   8.363   4.077   4.899  0.3253 -0.3704 -0.0466
14087SOL     OW53914   3.078   2.368  10.007  0.5981 -0.0048  0.5033
14087SOL    HW153915   3.076   2.433   9.930  1.5002  0.0006  0.4757
14087SOL    HW253916   3.015   2.293   9.989 -0.7414  1.0648  0.7162
14088SOL     OW53917   9.283   4.214   7.565  0.1078 -0.5968  0.1874
14088SOL    HW153918   9.269   4.115   7.564  0.9963 -0.7426  0.9696
14088SOL    HW253919   9.365   4.236   7.618  0.9930  0.4327 -1.5650
14089SOL     OW53920   7.709   8.944   3.279 -0.2069 -0.1823 -0.3458
14089SOL    HW153921   7.619   8.988   3.284 -1.4330 -2.6627 -0.0248
14089SOL    HW253922   7.750   8.965   3.191 -2.4794 -1.5984 -1.7965
14090SOL     OW53923   2.922   9.295   4.279 -0.3046  0.4741 -0.2455
14090SOL    HW153924   2.885   9.209   4.243  1.2322 -0.1423 -0.4178
14090SOL    HW253925   3.007   9.317   4.230 -1.4821  2.8896 -1.2409
14091SOL     OW53926   8.758   7.654   2.804  0.1693 -0.2146 -0.1102
14091SOL    HW153927   8.834   7.594   2.829  0.0834 -0.6021 -0.7690
14091SOL    HW253928   8.787   7.717   2.732  0.4989  1.0898  1.1367
14092SOL     OW53929   1.801   0.183   0.722 -0.2017  0.2305 -0.5169
14092SOL    HW153930   1.804   0.169   0.622 -0.2321 -3.3914 -0.0905
14092SOL    HW253931   1.714   0.148   0.757  0.7832 -0.6960  1.0440
14093SOL     OW53932   8.728   7.071   1.026  0.3067 -0.0059  0.3172
14093SOL    HW153933   8.728   7.170   1.031  1.1469  0.0157 -0.0179
14093SOL    HW253934   8.644   7.035   1.068  0.1563  0.8232  0.7301
14094SOL     OW53935   6.750   0.185   4.169  0.1617  0.5559  0.2733
14094SOL    HW153936   6.666   0.204   4.118 -0.3027 -1.5129  0.1996
14094SOL    HW253937   6.829   0.188   4.107 -0.0255  1.1670  0.0694
14095SOL     OW53938   4.409   4.909   4.481 -0.2905 -0.1232  0.0712
14095SOL    HW153939   4.315   4.908   4.516  0.0467  0.9370  1.0258
14095SOL    HW253940   4.420   4.986   4.419 -0.0273 -0.1928  0.0329
14096SOL     OW53941   7.761   9.838   4.382 -0.3356 -0.0033  0.2903
14096SOL    HW153942   7.854   9.859   4.351 -0.9907 -0.9248 -2.4646
14096SOL    HW253943   7.756   9.741   4.407 -1.0301 -0.4685 -1.5608
14097SOL     OW53944   9.151   8.391   5.277 -0.2740  0.1037 -0.3320
14097SOL    HW153945   9.107   8.301   5.278  0.9570 -0.5433 -2.3999
14097SOL    HW253946   9.231   8.389   5.217  0.9625  2.0373  1.1918
14098SOL     OW53947   9.805   9.467   2.914  0.2572  0.2807  0.4483
14098SOL    HW153948   9.866   9.429   2.983  0.3037 -1.4479 -0.5177
14098SOL    HW253949   9.710   9.452   2.940  0.2756 -0.8694 -0.1104
14099SOL     OW53950   3.998   8.850   3.051 -0.1656 -0.1913  0.8447
14099SOL    HW153951   4.031   8.794   2.975 -1.1496  0.3323  0.0211
14099SOL    HW253952   3.969   8.790   3.127  1.4205 -0.6898  1.0720
14100SOL     OW53953   7.267   8.672   8.047 -0.2143  1.0566  0.1890
14100SOL    HW153954   7.330   8.616   8.100  1.6721  1.9966 -0.9717
14100SOL    HW253955   7.306   8.688   7.956 -2.4932  1.0565 -0.8166
14101SOL     OW53956   8.585   5.614   0.726 -0.0999  0.1472 -0.4686
14101SOL    HW153957   8.659   5.664   0.771  0.4670 -0.1580 -1.0456
14101SOL    HW253958   8.618   5.580   0.637  0.0706 -2.6392  0.6183
14102SOL     OW53959   6.236   8.119   3.813 -0.0706 -0.3031  0.0215
14102SOL    HW153960   6.293   8.168   3.880  0.6954 -0.7508 -0.3081
14102SOL    HW253961   6.231   8.172   3.729 -0.7567  0.0936  0.3025
14103SOL     OW53962   0.908   5.970   1.987 -0.3012  0.3804  0.0828
14103SOL    HW153963   0.816   6.008   1.989 -0.2321  0.5786 -0.4007
14103SOL    HW253964   0.915   5.897   2.054 -0.7067  0.6010  0.3703
14104SOL     OW53965   2.433   3.762   7.658 -0.3272  0.4666  0.0398
14104SOL    HW153966   2.491   3.752   7.578 -1.1717 -2.2558 -0.2702
14104SOL    HW253967   2.337   3.753   7.632 -0.8043  2.3717  0.9549
14105SOL     OW53968   2.172   8.514   1.873  0.4211  0.0407  0.4374
14105SOL    HW153969   2.078   8.538   1.896 -0.4588 -0.3705 -2.4932
14105SOL    HW253970   2.172   8.429   1.820  2.1452  1.4794 -1.9953
14106SOL     OW53971   7.801   4.409   4.267 -0.5376 -0.4907  0.5113
14106SOL    HW153972   7.757   4.491   4.232 -1.2480 -0.6900  0.9161
14106SOL    HW253973   7.735   4.333   4.267 -0.0563 -0.9141  0.6768
14107SOL     OW53974   4.792   7.932   5.244 -0.5528 -0.4902 -0.1623
14107SOL    HW153975   4.821   7.951   5.338 -1.0392  0.6654 -0.2310
14107SOL    HW253976   4.824   8.006   5.184 -2.0507 -0.1440 -0.5491
14108SOL     OW53977   9.228   3.998   4.751  0.5629 -0.3354  0.3954
14108SOL    HW153978   9.287   3.916   4.752  1.2624  0.1680  1.4297
14108SOL    HW253979   9.132   3.970   4.756  0.8425 -1.0625  1.8611
14109SOL     OW53980   8.130   8.879   2.388  0.0681 -0.1958 -0.0165
14109SOL    HW153981   8.095   8.967   2.358 -1.2540 -0.8674 -0.4916
14109SOL    HW253982   8.072   8.843   2.461  1.6925  0.1825  1.4966
14110SOL     OW53983   7.907   3.182   2.359  0.1657 -0.0981  0.2639
14110SOL    HW153984   7.947   3.211   2.446 -0.3423 -1.0592  0.8270
14110SOL    HW253985   7.827   3.239   2.338 -0.5627 -0.7893  1.1420
14111SOL     OW53986   9.582   4.352   5.347  0.4113  0.6218 -0.4788
14111SOL    HW153987   9.556   4.374   5.441  0.9063 -0.1781 -0.1525
14111SOL    HW253988   9.508   4.303   5.302  0.8978 -0.6749  0.1024
14112SOL     OW53989   7.387   7.512   5.813  0.5512  0.2346 -0.5613
14112SOL    HW153990   7.355   7.434   5.866  0.9038  0.1548 -0.4653
14112SOL    HW253991   7.362   7.501   5.717  2.5236 -1.0573 -0.9561
14113SOL     OW53992   0.104   3.442   7.348 -0.3098 -0.5293  1.0523
14113SOL    HW153993   0.005   3.438   7.337 -0.2181  2.1394 -1.3913
14113SOL    HW253994   0.148   3.380   7.284 -0.3846 -1.9316  2.3399
14114SOL     OW53995   2.931   6.966   4.804 -0.5405  0.5038  0.5396
14114SOL    HW153996   2.860   6.896   4.807 -0.3691  0.2756 -0.7750
14114SOL    HW253997   2.898   7.048   4.853 -0.8323 -0.3819  1.8549
14115SOL     OW53998   2.406   8.191   3.534  0.1232  0.0454  0.2188
14115SOL    HW153999   2.392   8.155   3.442  0.3138  0.1745  0.1396
14115SOL    HW254000   2.400   8.291   3.532  1.7988  0.1513  0.0589
14116SOL     OW54001   1.480   2.892   3.059  0.1637  0.7595 -0.4498
14116SOL    HW154002   1.562   2.906   3.114 -0.5858  3.4194  0.1047
14116SOL    HW254003   1.496   2.926   2.967  0.3571 -0.6854 -0.9585
14117SOL     OW54004   5.487   7.568   6.445 -0.2811 -0.7194 -0.0835
14117SOL    HW154005   5.425   7.606   6.377 -0.1066 -1.0587 -0.4289
14117SOL    HW254006   5.553   7.507   6.401  0.5948 -0.0070  0.2097
14118SOL     OW54007   3.174   9.718   5.275 -0.0893  0.0719 -0.3573
14118SOL    HW154008   3.136   9.660   5.346 -0.1301 -0.5447 -0.8834
14118SOL    HW254009   3.221   9.662   5.207  2.4963  0.8427  0.7106
14119SOL     OW54010   4.031   9.790   6.503  0.0906 -0.3209 -0.2112
14119SOL    HW154011   4.091   9.744   6.439 -0.2412 -0.1147 -0.6707
14119SOL    HW254012   4.085   9.834   6.575  0.6966  2.2839 -2.1809
14120SOL     OW54013   9.334   3.385   5.205  0.0001 -0.0421 -0.0553
14120SOL    HW154014   9.305   3.466   5.255 -0.7554 -1.7824  2.4305
14120SOL    HW254015   9.434   3.385   5.197 -0.0876  1.9348 -1.5712
14121SOL     OW54016   4.368   8.500   2.872 -0.0264 -0.5496 -0.3103
14121SOL    HW154017   4.294   8.433   2.878 -0.6157  0.1315  0.1254
14121SOL    HW254018   4.431   8.488   2.949 -0.4390 -0.2461  0.0753
14122SOL     OW54019   8.259   6.079   5.206  0.3882  0.0015  0.0738
14122SOL    HW154020   8.271   6.178   5.214  0.1071  0.0638 -0.2545
14122SOL    HW254021   8.232   6.056   5.113 -1.0938 -0.2153  0.5273
14123SOL     OW54022   3.680   3.666   0.946  0.0664 -0.1429 -0.2700
14123SOL    HW154023   3.600   3.720   0.973 -0.2421 -0.6835 -0.0929
14123SOL    HW254024   3.663   3.623   0.858 -0.4948 -1.5854  0.5226
14124SOL     OW54025   1.564   5.169   7.555 -0.3579 -1.1649  0.1469
14124SOL    HW154026   1.629   5.233   7.512 -0.6749 -1.6858 -1.1078
14124SOL    HW254027   1.610   5.121   7.630  0.8527 -1.8470 -1.0092
14125SOL     OW54028   5.953   8.839   1.968 -0.2837 -0.4668  0.0064
14125SOL    HW154029   6.034   8.848   2.026  0.5852 -0.5887 -1.1587
14125SOL    HW254030   5.912   8.748   1.980  0.3879 -0.7980 -0.2008
14126SOL     OW54031   0.430   7.355   2.940 -0.3840  0.6146  0.6426
14126SOL    HW154032   0.443   7.366   2.841  0.3419  1.6205  0.8394
14126SOL    HW254033   0.510   7.392   2.988 -0.4982 -0.3466  1.5893
14127SOL     OW54034   2.060   2.242   2.797  0.0456  0.0574 -0.0126
14127SOL    HW154035   2.158   2.224   2.804 -0.0550  0.0549  1.5734
14127SOL    HW254036   2.009   2.161   2.825 -0.4110  0.1828 -0.4763
14128SOL     OW54037   8.240   7.848   2.016  0.0569  0.0140 -0.3025
14128SOL    HW154038   8.329   7.894   2.026  0.1085  0.0887 -1.0151
14128SOL    HW254039   8.253   7.749   2.021  0.4600 -0.0521 -2.2344
14129SOL     OW54040   9.710   3.981   6.161  0.2843 -0.0756  0.4099
14129SOL    HW154041   9.783   4.004   6.225  0.2379 -0.5514  0.6287
14129SOL    HW254042   9.746   3.921   6.089 -0.0779 -0.9509  0.9560
14130SOL     OW54043   9.653   3.617   1.527 -0.0900 -0.3486 -0.8473
14130SOL    HW154044   9.601   3.541   1.566 -0.0816 -0.5000 -1.1265
14130SOL    HW254045   9.590   3.693   1.507 -0.3240 -0.8030 -1.8603
14131SOL     OW54046   2.172   1.736   7.247  0.6070 -0.1526  0.2633
14131SOL    HW154047   2.186   1.835   7.246 -1.2256  0.1255 -1.3746
14131SOL    HW254048   2.235   1.693   7.182  0.2207  0.1233 -0.2987
14132SOL     OW54049   7.225   2.720   2.733 -0.0997  0.0759  0.1142
14132SOL    HW154050   7.188   2.726   2.826  1.5158  1.0131  0.7101
14132SOL    HW254051   7.295   2.790   2.721  0.7153 -0.9732 -1.3452
14133SOL     OW54052   0.189   5.910   4.864  0.4138 -0.0413  0.7993
14133SOL    HW154053   0.156   6.004   4.858  0.4519 -0.1733 -1.8809
14133SOL    HW254054   0.113   5.849   4.888 -0.0730  0.3768  0.3270
14134SOL     OW54055   0.753   7.134   7.455 -0.2542 -0.0172 -0.4046
14134SOL    HW154056   0.790   7.227   7.458 -1.0815  0.3085 -0.2377
14134SOL    HW254057   0.656   7.137   7.434 -0.3342 -0.8349 -0.1721
14135SOL     OW54058   8.063   3.982   3.592 -0.4884  0.1985  0.5138
14135SOL    HW154059   8.068   4.081   3.607 -1.2918  0.0799  1.6846
14135SOL    HW254060   7.983   3.961   3.535 -0.4185  0.2185  0.4104
14136SOL     OW54061   3.759   6.326   1.368  0.0994 -0.4726 -0.1820
14136SOL    HW154062   3.780   6.364   1.458 -1.3258  0.8069 -0.3746
14136SOL    HW254063   3.802   6.383   1.297  1.5867 -1.7266 -0.3127
14137SOL     OW54064   7.657   6.335   6.036  0.0215  0.0529 -0.1432
14137SOL    HW154065   7.616   6.304   5.950 -1.6129 -0.6369  0.8712
14137SOL    HW254066   7.716   6.413   6.018 -2.7123  1.8897 -1.4820
14138SOL     OW54067   3.713   0.874   2.448 -0.1641  0.1229  0.1451
14138SOL    HW154068   3.676   0.838   2.534 -1.0159 -0.7135 -0.5658
14138SOL    HW254069   3.704   0.974   2.447  0.1309  0.1690  1.1523
14139SOL     OW54070   1.762   7.731   5.400  0.0109 -0.2707 -0.3700
14139SOL    HW154071   1.783   7.756   5.494 -3.1373  0.7179  0.1112
14139SOL    HW254072   1.722   7.810   5.353 -0.9891 -1.5498 -1.7141
14140SOL     OW54073   7.392   7.151   4.544  0.3395 -0.3703  0.0247
14140SOL    HW154074   7.365   7.197   4.629 -0.8461 -0.4481 -0.2961
14140SOL    HW254075   7.313   7.146   4.483  1.9735  2.6915 -2.4941
14141SOL     OW54076   2.973   4.625   4.167  0.1461  0.2551 -0.0548
14141SOL    HW154077   2.991   4.707   4.222  0.5784 -0.5319  1.0038
14141SOL    HW254078   3.031   4.551   4.199 -1.2008 -0.8430 -0.1022
14142SOL     OW54079   7.215   2.970   5.141 -0.3985 -0.5502 -0.0159
14142SOL    HW154080   7.309   2.971   5.174 -1.3329 -1.0889  2.8167
14142SOL    HW254081   7.212   3.003   5.047  2.6516 -0.8942 -0.2647
14143SOL     OW54082   8.067   4.571   3.914 -0.3027  0.0465 -0.0038
14143SOL    HW154083   8.160   4.554   3.947 -0.1810 -0.9235 -0.8233
14143SOL    HW254084   8.046   4.669   3.921  0.4563  0.1501  1.0070
14144SOL     OW54085   6.686   7.997   7.216  0.0112 -0.1785 -0.1627
14144SOL    HW154086   6.694   7.904   7.181 -0.3190 -0.6601  1.0108
14144SOL    HW254087   6.764   8.017   7.276 -0.8173 -0.3166  0.9672
14145SOL     OW54088   3.534   0.143   0.512  0.0136 -0.3629 -0.3933
14145SOL    HW154089   3.474   0.127   0.590  1.9225 -0.3497  1.1281
14145SOL    HW254090   3.586   0.059   0.492  1.5487  0.4253  0.1529
14146SOL     OW54091   3.980   7.051   9.943  0.0307 -0.4764  0.3581
14146SOL    HW154092   4.049   7.118   9.971  0.7559  0.1471 -2.6820
14146SOL    HW254093   3.905   7.098   9.896 -0.1504 -1.6387 -0.5500
14147SOL     OW54094   3.961   7.566   3.882 -0.3871  0.4861 -0.3445
14147SOL    HW154095   4.016   7.503   3.937  2.0224  1.7262 -1.2648
14147SOL    HW254096   3.934   7.521   3.797 -0.5233 -0.0228 -0.0359
14148SOL     OW54097   4.475   2.931   6.785 -0.4034  0.3611  0.2407
14148SOL    HW154098   4.565   2.912   6.745 -1.2203 -1.2965 -0.8268
14148SOL    HW254099   4.415   2.970   6.716 -0.1791  2.5948  1.2540
14149SOL     OW54100   5.930   8.993   7.189  0.0375 -0.4050 -0.6214
14149SOL    HW154101   5.882   8.949   7.265 -0.5161 -1.0935 -1.3422
14149SOL    HW254102   5.938   8.927   7.114 -1.9035  1.0766 -2.1987
14150SOL     OW54103   6.260   8.604   2.833 -0.1308 -0.1055  0.4134
14150SOL    HW154104   6.302   8.672   2.773 -0.5758 -2.0919 -2.2586
14150SOL    HW254105   6.323   8.527   2.844 -0.4717 -0.2050  1.6906
14151SOL     OW54106   2.098   6.036   3.962  0.3011 -0.1296 -0.2065
14151SOL    HW154107   2.035   6.063   3.889 -0.9291 -1.8915  0.1587
14151SOL    HW254108   2.143   6.117   3.999 -1.5253  1.1520 -0.7091
14152SOL     OW54109   0.559   9.125   3.424 -0.1852  0.0591  0.1872
14152SOL    HW154110   0.574   9.223   3.410 -0.5700  0.3630  1.7571
14152SOL    HW254111   0.644   9.082   3.455  0.3861 -0.4097 -1.9518
14153SOL     OW54112   3.833   1.917   4.390  0.3718 -0.1294  0.8070
14153SOL    HW154113   3.843   1.851   4.315 -2.1440 -1.1423  1.3058
14153SOL    HW254114   3.923   1.946   4.421  1.4742 -0.6547 -1.7607
14154SOL     OW54115   6.455   9.189   6.356 -0.6097  0.2415  0.0144
14154SOL    HW154116   6.527   9.169   6.289 -1.3098 -2.5898  0.0474
14154SOL    HW254117   6.380   9.236   6.311  0.5085  1.6996 -0.3766
14155SOL     OW54118   1.685   3.867   4.007  0.4596 -0.5599 -0.6005
14155SOL    HW154119   1.741   3.934   4.057 -2.1703 -0.4449  2.3945
14155SOL    HW254120   1.628   3.915   3.940 -0.3915  0.0727  0.5545
14156SOL     OW54121   0.253   0.718   5.554  0.4562 -0.5415 -0.0701
14156SOL    HW154122   0.329   0.672   5.508  0.6128  1.2359 -1.6455
14156SOL    HW254123   0.189   0.754   5.486 -0.0086  0.9603  1.1279
14157SOL     OW54124   3.759   8.740   1.958  0.3646 -0.3793 -0.2374
14157SOL    HW154125   3.839   8.791   1.928  0.7982  0.1225  1.7254
14157SOL    HW254126   3.783   8.644   1.969  0.6040 -0.2918  0.0025
14158SOL     OW54127   4.937   8.636   7.388 -0.3947 -0.6432 -0.2512
14158SOL    HW154128   4.890   8.598   7.309 -2.7959  2.5169 -0.4589
14158SOL    HW254129   4.870   8.656   7.460  1.1390  0.5533  0.8900
14159SOL     OW54130   7.213   9.620   6.397 -0.1330 -0.2411  0.3255
14159SOL    HW154131   7.226   9.703   6.452 -0.0924 -0.7083  1.0213
14159SOL    HW254132   7.196   9.646   6.302 -0.9362  0.5913  0.6861
14160SOL     OW54133   2.984   5.068   6.786  0.3138  0.0537 -0.7180
14160SOL    HW154134   2.925   5.122   6.847  0.6325 -0.8167  0.3844
14160SOL    HW254135   2.973   5.099   6.692 -2.1009 -0.2793 -0.5659
14161SOL     OW54136   9.780   9.967   4.613  0.0776 -0.3763 -0.0628
14161SOL    HW154137   9.872   9.972   4.649 -0.1120  2.3948  0.1591
14161SOL    HW254138   9.714   9.976   4.687 -0.3395  0.3371 -0.5105
14162SOL     OW54139   8.189   7.502   8.078 -0.0745 -0.4892 -0.3997
14162SOL    HW154140   8.266   7.461   8.126 -1.1527 -1.3431  0.6408
14162SOL    HW254141   8.168   7.449   7.996 -0.5534 -1.1963  0.1736
14163SOL     OW54142   1.138   5.976   3.252  0.5141 -0.2256 -0.2750
14163SOL    HW154143   1.056   5.926   3.224 -0.2834  0.4192  0.8550
14163SOL    HW254144   1.200   5.987   3.174 -0.9734  0.2313 -1.4048
14164SOL     OW54145   7.578   7.888   1.369  0.0240 -0.4223  0.2102
14164SOL    HW154146   7.639   7.898   1.447 -0.5431 -0.9439  0.7348
14164SOL    HW254147   7.621   7.924   1.287  1.0005 -0.7272  0.5886
14165SOL     OW54148   0.492   4.766   3.603  0.5474  0.2133  0.0382
14165SOL    HW154149   0.564   4.697   3.610  1.1277  1.0437  2.6600
14165SOL    HW254150   0.528   4.848   3.560  1.2466  0.6757  1.4669
14166SOL     OW54151   2.978   1.316   5.616 -0.3402 -0.2359 -0.3261
14166SOL    HW154152   2.920   1.235   5.608 -1.0070  0.3331 -1.3400
14166SOL    HW254153   2.926   1.390   5.659  0.4893 -0.5476  1.2674
14167SOL     OW54154   5.444   9.025   3.271 -0.1960 -0.4956  0.5629
14167SOL    HW154155   5.486   9.021   3.362 -0.7756  1.1579  0.9293
14167SOL    HW254156   5.453   9.118   3.235 -0.4866 -1.0009 -0.8300
14168SOL     OW54157   4.384   3.565   5.628  0.3903 -0.2139  0.1726
14168SOL    HW154158   4.402   3.647   5.681  1.4207  1.0649 -2.1028
14168SOL    HW254159   4.434   3.488   5.667  1.9958  0.9389  0.3994
14169SOL     OW54160   8.135   7.075   8.304  0.0834  0.0986 -0.2459
14169SOL    HW154161   8.228   7.113   8.298  0.7419 -1.4150  0.2951
14169SOL    HW254162   8.123   7.028   8.391 -1.4441  0.8799 -0.0082
14170SOL     OW54163   9.756   0.477   2.898  0.2044  0.3075 -0.4245
14170SOL    HW154164   9.750   0.385   2.937 -0.3154  0.2929 -0.5447
14170SOL    HW254165   9.825   0.529   2.948 -2.6141  1.3065  2.5671
14171SOL     OW54166   9.137   9.156   1.711 -0.1906  0.2380  0.1912
14171SOL    HW154167   9.128   9.214   1.792 -1.8267 -1.9262  1.6155
14171SOL    HW254168   9.197   9.078   1.732  0.5629  0.4463 -1.1428
14172SOL     OW54169   9.210   2.154   3.728 -0.3338  0.2956 -0.0138
14172SOL    HW154170   9.209   2.232   3.791 -2.0289  1.2779 -1.1848
14172SOL    HW254171   9.116   2.123   3.712  0.4598 -3.6328  2.3470
14173SOL     OW54172   4.117   7.790   3.536 -0.0188 -0.1369  0.0692
14173SOL    HW154173   4.158   7.833   3.616  0.9483  0.1224 -0.5572
14173SOL    HW254174   4.036   7.843   3.508 -0.5614 -0.4334  1.0799
14174SOL     OW54175   9.335   6.752   6.274 -0.0458  0.3917  0.1346
14174SOL    HW154176   9.303   6.842   6.245 -1.8331 -0.5681 -0.8877
14174SOL    HW254177   9.264   6.706   6.327  0.5759 -0.7264  0.0186
14175SOL     OW54178   9.230   5.466   0.407  0.1668  0.0258  0.5181
14175SOL    HW154179   9.211   5.415   0.323  0.2092  0.9945 -0.0935
14175SOL    HW254180   9.274   5.406   0.474  0.6825 -0.5955 -0.3712
14176SOL     OW54181   7.935   8.071   4.414 -0.7473  1.3819  0.2022
14176SOL    HW154182   7.851   8.064   4.359 -0.4592  0.1960 -0.0839
14176SOL    HW254183   8.014   8.068   4.354 -0.4254 -0.0410  0.6998
14177SOL     OW54184   9.988   3.266   3.834 -0.0363 -0.2695  0.4236
14177SOL    HW154185   9.976   3.343   3.772 -1.0414 -1.6856 -1.1973
14177SOL    HW254186   9.899   3.241   3.873 -0.4256 -2.9267 -1.9700
14178SOL     OW54187   7.741   3.755   4.594 -0.4289 -0.8268 -0.0241
14178SOL    HW154188   7.691   3.792   4.515  0.3928 -0.4856 -0.3868
14178SOL    HW254189   7.745   3.825   4.665 -1.6718 -1.3304  0.5556
14179SOL     OW54190   3.872   6.564   3.199  0.3151 -0.0840  0.2785
14179SOL    HW154191   3.786   6.578   3.248  0.8022  2.7995  0.3996
14179SOL    HW254192   3.948   6.598   3.253  1.3364 -0.7739 -0.6853
14180SOL     OW54193   0.580   3.827   3.614 -0.2024 -0.3069  0.6025
14180SOL    HW154194   0.594   3.732   3.641 -0.9997 -0.0963  1.8077
14180SOL    HW254195   0.496   3.862   3.656 -1.0515  0.3000 -1.5535
14181SOL     OW54196   0.089   8.284   0.522  0.3314  0.1359  0.5739
14181SOL    HW154197   0.117   8.190   0.537 -0.7257 -0.6700 -2.2165
14181SOL    HW254198  -0.004   8.298   0.556  0.4010  0.0999  0.7764
14182SOL     OW54199   7.983   5.948   3.209 -0.1197 -0.3738 -0.0341
14182SOL    HW154200   8.004   5.851   3.215 -0.5339 -0.6117 -1.8870
14182SOL    HW254201   8.060   5.996   3.168 -0.7175 -0.2648 -1.0564
14183SOL     OW54202   2.229   7.091   0.946  0.0291 -0.3437  0.5951
14183SOL    HW154203   2.244   7.183   0.909  0.6670 -1.0117 -0.8506
14183SOL    HW254204   2.293   7.074   1.021 -1.3110  1.0443  2.0836
14184SOL     OW54205   3.904   1.343   1.025 -0.9291  0.3341 -0.0429
14184SOL    HW154206   3.937   1.421   0.972  4.3130 -0.9613  1.0480
14184SOL    HW254207   3.898   1.369   1.121  2.8917 -1.0342  0.6574
14185SOL     OW54208   8.611   4.241   1.085 -0.1205  0.0577 -0.2776
14185SOL    HW154209   8.629   4.322   1.028  0.6226 -0.0231 -0.1607
14185SOL    HW254210   8.581   4.166   1.027 -1.2488  0.5426 -0.3381
14186SOL     OW54211   9.886   0.064   5.013  0.2893 -0.0945  0.2362
14186SOL    HW154212   9.970   0.026   5.052  1.1428  0.6817 -0.8125
14186SOL    HW254213   9.807   0.033   5.066  1.2103 -1.1053  1.0269
14187SOL     OW54214   5.187   2.758   5.120  0.1257  0.1291 -0.2977
14187SOL    HW154215   5.270   2.735   5.068  0.0059 -0.9668 -0.0080
14187SOL    HW254216   5.212   2.810   5.202  0.3363  1.6860 -1.3203
14188SOL     OW54217   7.416   3.164   2.546  0.1225 -0.1744  0.9385
14188SOL    HW154218   7.431   3.074   2.587  1.5083 -0.2004  0.4014
14188SOL    HW254219   7.423   3.156   2.446  1.0936  0.6747  0.9331
14189SOL     OW54220   1.026   3.112   7.957  0.4918  0.5108 -0.1507
14189SOL    HW154221   1.034   3.169   7.875  1.2429  1.8312  0.8263
14189SOL    HW254222   0.932   3.076   7.963  0.8142 -0.8119 -2.3437
14190SOL     OW54223   0.036   7.778   6.070  0.0461 -0.0635 -0.0499
14190SOL    HW154224   0.134   7.794   6.077  0.3113 -2.0018  1.0822
14190SOL    HW254225   0.012   7.754   5.976  1.2832 -3.3258  0.4094
14191SOL     OW54226   2.720   5.542   3.298 -0.0822  0.5586  0.1859
14191SOL    HW154227   2.673   5.456   3.318  3.5727 -1.1526  1.7093
14191SOL    HW254228   2.674   5.587   3.221 -2.0561 -2.7341 -0.6782
14192SOL     OW54229   1.649   5.873   1.130 -0.2395  0.1160 -0.0335
14192SOL    HW154230   1.746   5.883   1.106 -0.5848  0.2655 -1.4011
14192SOL    HW254231   1.608   5.802   1.073 -1.8032  2.5761 -2.0849
14193SOL     OW54232   9.817   7.437   4.233  0.0337 -0.2415 -0.3604
14193SOL    HW154233   9.834   7.399   4.142  0.1051 -0.3100 -0.3198
14193SOL    HW254234   9.790   7.363   4.295 -0.5978 -0.1074 -0.4673
14194SOL     OW54235   5.100   0.186   2.698 -0.0267  0.2159  0.0631
14194SOL    HW154236   5.071   0.281   2.706 -2.3668 -0.2778 -1.9993
14194SOL    HW254237   5.175   0.180   2.632 -1.2337  0.4295 -1.3763
14195SOL     OW54238   1.248   7.076   6.163 -0.2765 -0.1366 -0.1336
14195SOL    HW154239   1.272   6.980   6.151 -1.9625 -0.5667 -0.0769
14195SOL    HW254240   1.305   7.132   6.102  0.6846 -1.1595 -0.1877
14196SOL     OW54241   9.086   3.260   7.115  0.1316 -0.4248 -0.3533
14196SOL    HW154242   9.175   3.245   7.072  1.2268  2.7365  0.6860
14196SOL    HW254243   9.024   3.303   7.050  0.3825  0.2809 -0.1313
14197SOL     OW54244   2.980   0.647   4.026 -0.4484 -0.4104  0.2827
14197SOL    HW154245   3.074   0.617   4.010 -0.3807 -0.7300  1.2918
14197SOL    HW254246   2.956   0.719   3.959  0.8738  0.4384  0.7081
14198SOL     OW54247   0.860   4.247   6.215 -0.1660  0.1804  0.4743
14198SOL    HW154248   0.810   4.203   6.289  0.6648 -3.2526 -0.8706
14198SOL    HW254249   0.899   4.333   6.247 -1.9079  0.0043  3.2473
14199SOL     OW54250   2.856   1.566   0.968 -0.3097  0.3911  0.1816
14199SOL    HW154251   2.933   1.605   0.917 -2.1574 -0.5497 -3.4677
14199SOL    HW254252   2.772   1.615   0.944 -1.2328  0.0260  2.5074
14200SOL     OW54253   6.472   5.546   0.596  0.1332  0.0442 -0.0403
14200SOL    HW154254   6.404   5.572   0.665 -0.8207  1.8497 -1.6107
14200SOL    HW254255   6.554   5.602   0.607 -0.1733  0.6131 -0.5940
14201SOL     OW54256   3.483   8.013   6.932  0.2497 -0.1363 -0.5603
14201SOL    HW154257   3.398   8.065   6.928  0.4412  0.1667 -0.6859
14201SOL    HW254258   3.558   8.074   6.957  0.3928 -0.4463 -0.2270
14202SOL     OW54259   8.503   1.860   1.230 -0.3552 -0.4052 -0.2290
14202SOL    HW154260   8.489   1.953   1.265  1.0670 -0.0642 -0.5601
14202SOL    HW254261   8.427   1.802   1.261  0.1225  0.2219  2.2253
14203SOL     OW54262   2.737   8.138   4.180 -0.0127  0.0367 -0.5406
14203SOL    HW154263   2.788   8.059   4.146 -0.9159  0.4282 -2.8596
14203SOL    HW254264   2.755   8.218   4.123 -2.0306  0.5610 -0.5034
14204SOL     OW54265   0.526   7.435   4.155 -0.7831  0.1280 -0.6383
14204SOL    HW154266   0.620   7.461   4.179 -0.6075 -0.0654 -1.1092
14204SOL    HW254267   0.465   7.514   4.167 -0.8618 -0.1919  1.2943
14205SOL     OW54268   9.503   4.903  10.071  0.3178  0.2244  0.3840
14205SOL    HW154269   9.587   4.848  10.067 -0.6128 -1.3253  1.5161
14205SOL    HW254270   9.497   4.947  10.160 -1.0355 -1.2488  1.0315
14206SOL     OW54271   9.611   4.818   1.620  0.2534 -0.1164  1.1299
14206SOL    HW154272   9.522   4.775   1.604 -0.6648  1.2460  2.3793
14206SOL    HW254273   9.657   4.833   1.533 -0.3148 -1.7065  0.5344
14207SOL     OW54274   0.278   4.501   5.300 -0.0090 -0.1283 -1.0393
14207SOL    HW154275   0.351   4.567   5.284  0.0189  0.4043  1.1598
14207SOL    HW254276   0.294   4.420   5.243  0.6600  1.2055 -2.7850
14208SOL     OW54277   4.961   0.485   0.878 -0.0995  0.1591 -0.4239
14208SOL    HW154278   4.985   0.534   0.794  1.2910 -3.4774 -2.2417
14208SOL    HW254279   4.862   0.469   0.879 -0.0287 -0.4511 -1.7632
14209SOL     OW54280   0.920   4.944  10.071  0.2471 -0.3638 -0.2460
14209SOL    HW154281   0.996   4.985  10.121 -0.7686 -0.1278  1.1278
14209SOL    HW254282   0.888   5.007  10.001 -0.0567  0.4113  0.5822
14210SOL     OW54283   1.759   0.232   2.357 -0.4889 -0.1579  0.0331
14210SOL    HW154284   1.842   0.180   2.375  0.8681  2.5533  2.0294
14210SOL    HW254285   1.686   0.199   2.417  0.1036 -0.3512  0.6600
14211SOL     OW54286   5.891   4.761   2.422 -0.0212 -0.1012  0.1504
14211SOL    HW154287   5.811   4.772   2.480  0.3372  0.0474  0.6232
14211SOL    HW254288   5.893   4.668   2.385  0.8155 -0.8451  2.0019
14212SOL     OW54289   3.175   4.796   0.864 -0.4044  0.4574 -0.3627
14212SOL    HW154290   3.152   4.763   0.773 -1.1764 -3.1761  1.0779
14212SOL    HW254291   3.093   4.837   0.905 -1.0094 -1.0344 -0.0353
14213SOL     OW54292   7.705   5.194   7.580 -0.5141  0.2447 -0.3496
14213SOL    HW154293   7.615   5.213   7.542 -0.6792 -0.0462 -0.1031
14213SOL    HW254294   7.745   5.279   7.615 -0.7772  0.3366 -0.2713
14214SOL     OW54295   4.501   4.715   4.294 -0.2691 -0.0572 -0.1122
14214SOL    HW154296   4.462   4.757   4.377 -0.3987 -1.0668  0.3512
14214SOL    HW254297   4.567   4.777   4.253 -0.7059  0.7391  0.3775
14215SOL     OW54298   3.370   5.498   9.959  0.2083  0.1297 -0.7638
14215SOL    HW154299   3.364   5.582   9.905 -1.3031  0.8226  0.4338
14215SOL    HW254300   3.466   5.482   9.984  0.2622  2.8359  0.9918
14216SOL     OW54301   0.502   4.139   0.458  0.5860 -0.4307  0.0746
14216SOL    HW154302   0.531   4.181   0.372 -1.0154 -1.6422 -1.0882
14216SOL    HW254303   0.407   4.164   0.477  0.7939 -0.5171  1.2867
14217SOL     OW54304   6.679   3.001   3.649 -0.8805  0.0088  0.0649
14217SOL    HW154305   6.607   2.979   3.583 -0.1141 -1.2688 -0.3641
14217SOL    HW254306   6.746   3.063   3.608  0.0704 -1.4813 -0.6695
14218SOL     OW54307   6.648   8.865   1.972  0.0984  0.0457 -0.2701
14218SOL    HW154308   6.609   8.856   1.880 -0.8597  0.1310  0.1151
14218SOL    HW254309   6.714   8.792   1.988 -1.3595 -1.2938 -0.2282
14219SOL     OW54310   4.783   3.748   0.779  0.6707 -0.4857  0.1720
14219SOL    HW154311   4.757   3.731   0.874 -1.1650  0.4487 -0.1283
14219SOL    HW254312   4.712   3.712   0.718  1.0157  0.3820 -0.7685
14220SOL     OW54313   2.149   7.945   4.639 -0.0410 -0.2563 -0.1285
14220SOL    HW154314   2.122   7.878   4.708  0.6859 -0.4199  0.0029
14220SOL    HW254315   2.149   8.037   4.679  0.5118 -0.3673  0.1261
14221SOL     OW54316   5.800   5.713   0.225 -0.1972 -0.2038 -0.6657
14221SOL    HW154317   5.891   5.754   0.226  0.2172 -1.1160  0.8464
14221SOL    HW254318   5.735   5.776   0.183  0.4904  1.8893  1.2792
14222SOL     OW54319   9.247   8.961   1.397  0.5295 -0.2448  0.6889
14222SOL    HW154320   9.186   8.945   1.320 -0.8209 -1.7136  2.0190
14222SOL    HW254321   9.242   9.058   1.424  0.0893  0.0065 -0.2692
14223SOL     OW54322   3.254   3.292   0.459  0.0633  0.0695  0.4991
14223SOL    HW154323   3.268   3.305   0.361 -1.7250  0.1809  0.2507
14223SOL    HW254324   3.187   3.358   0.493  1.1131  0.4427  1.9339
14224SOL     OW54325   4.995   1.290   0.363  0.0665  0.0955 -0.2679
14224SOL    HW154326   5.040   1.351   0.298  0.7373 -0.3471 -0.2268
14224SOL    HW254327   4.984   1.337   0.450  0.0503  0.3557 -0.4081
14225SOL     OW54328   1.897   5.843   5.404 -0.0681  0.1950 -0.0836
14225SOL    HW154329   1.934   5.899   5.477 -0.8810 -1.2508  1.4596
14225SOL    HW254330   1.858   5.759   5.442 -2.4990  0.4433 -1.9397
14226SOL     OW54331   0.577   9.152   4.710  0.7203  0.4672 -0.2459
14226SOL    HW154332   0.642   9.210   4.660  1.1470  0.6857  0.5499
14226SOL    HW254333   0.523   9.209   4.772  1.6061 -0.0677  1.0403
14227SOL     OW54334   1.680   1.452   7.452 -0.3650 -0.4223  0.3260
14227SOL    HW154335   1.745   1.516   7.493  0.4747 -1.6435  0.9221
14227SOL    HW254336   1.602   1.503   7.417  0.7069  1.0298 -0.0265
14228SOL     OW54337   7.208   9.919   6.455  0.5569 -0.9610 -0.3765
14228SOL    HW154338   7.240   9.939   6.362 -0.3541  1.5481 -0.1753
14228SOL    HW254339   7.111   9.940   6.462  0.6816 -0.8854  1.2439
14229SOL     OW54340   2.171   6.487   1.343 -0.2025  0.1864  0.8988
14229SOL    HW154341   2.185   6.442   1.431 -1.8951  2.2553  2.2818
14229SOL    HW254342   2.106   6.434   1.288 -1.5033  0.4494  2.1587
14230SOL     OW54343   9.933   6.507   5.749  0.3094  0.0039 -0.0308
14230SOL    HW154344   9.867   6.575   5.717 -1.3565 -1.2601  0.6766
14230SOL    HW254345   9.975   6.539   5.834  0.6662  0.8273 -0.5045
14231SOL     OW54346   1.603   3.271   5.999  0.3667  0.4479  0.2788
14231SOL    HW154347   1.554   3.342   5.948  2.2440  0.9084 -0.9424
14231SOL    HW254348   1.624   3.195   5.937  0.2796 -0.2114  1.0541
14232SOL     OW54349   3.392   1.929   6.365  0.1135 -0.2694 -0.2773
14232SOL    HW154350   3.419   1.833   6.374  0.5635 -0.3023 -1.9375
14232SOL    HW254351   3.428   1.966   6.280 -1.6404  0.8601 -0.5483
14233SOL     OW54352   9.897   4.949   6.917  0.0457  0.1853 -0.0715
14233SOL    HW154353   9.906   4.862   6.965  0.6444  0.9192  1.1653
14233SOL    HW254354   9.915   5.024   6.981  2.3831  1.1425 -1.8037
14234SOL     OW54355   3.935   4.988   0.323 -0.5068  0.1739 -0.6363
14234SOL    HW154356   3.990   5.069   0.343  1.4940 -1.4459  0.5493
14234SOL    HW254357   3.842   5.003   0.355  0.3208  1.2639  1.3418
14235SOL     OW54358   0.188   7.097   7.643  0.5859 -0.6204  0.0984
14235SOL    HW154359   0.145   7.025   7.587  0.5199 -0.5383  0.0423
14235SOL    HW254360   0.190   7.068   7.738  0.9980 -0.9061  0.0065
14236SOL     OW54361   9.702   4.102   2.823  0.0506 -0.4584 -0.9659
14236SOL    HW154362   9.680   4.155   2.906 -0.4801 -2.1075 -0.0377
14236SOL    HW254363   9.738   4.013   2.849  3.1669  0.2488 -2.4938
14237SOL     OW54364   0.228   6.689   1.786  0.0891  0.5532  0.3289
14237SOL    HW154365   0.318   6.700   1.744 -1.0654  1.6199 -1.9584
14237SOL    HW254366   0.194   6.778   1.815 -0.2635  0.1617  1.1396
14238SOL     OW54367   1.408   6.194   7.565  0.1165 -0.0420 -0.4307
14238SOL    HW154368   1.353   6.253   7.624  2.5850 -0.1482  2.0922
14238SOL    HW254369   1.459   6.250   7.500 -0.8172  0.2583 -0.9151
14239SOL     OW54370   9.057   3.269   1.236 -0.2176 -0.7700  0.6329
14239SOL    HW154371   9.052   3.307   1.144 -0.1758 -1.2942  0.4087
14239SOL    HW254372   8.975   3.294   1.287  0.7018  1.2572  1.1390
14240SOL     OW54373   6.052   3.504   1.745  0.3325  0.2315  0.0015
14240SOL    HW154374   6.085   3.596   1.724  0.3560  0.4131  0.8492
14240SOL    HW254375   5.970   3.485   1.690 -0.2784  1.1462  0.5747
14241SOL     OW54376   0.171   5.934   1.266  0.0128  0.4114  0.1009
14241SOL    HW154377   0.081   5.935   1.222  0.6118  1.8241 -1.1431
14241SOL    HW254378   0.167   5.987   1.350 -0.1333  1.1108 -0.3431
14242SOL     OW54379   3.341   0.127   6.356  0.3632 -0.3668 -0.1316
14242SOL    HW154380   3.253   0.079   6.358 -0.8384  1.6947 -0.9713
14242SOL    HW254381   3.371   0.138   6.261  0.6731  0.4106  0.0477
14243SOL     OW54382   8.446   9.487   1.646  0.5158 -0.0824 -0.1896
14243SOL    HW154383   8.497   9.532   1.572  1.0336 -1.5659 -0.7587
14243SOL    HW254384   8.472   9.391   1.650 -2.0933 -0.8419 -0.3628
14244SOL     OW54385   1.137   9.279   1.993  0.0280 -0.2087  0.2023
14244SOL    HW154386   1.123   9.333   2.076 -0.1341 -0.4664  0.3443
14244SOL    HW254387   1.225   9.302   1.952  0.4487 -0.6259  0.8623
14245SOL     OW54388   7.079   3.321   0.379  0.3934  0.0816  0.1238
14245SOL    HW154389   7.117   3.240   0.334  0.3458  0.8185 -1.2601
14245SOL    HW254390   6.979   3.315   0.380  0.4618 -1.1560  2.4543
14246SOL     OW54391   1.711   2.043   5.367  0.0762 -0.1441  0.0175
14246SOL    HW154392   1.628   2.024   5.316  0.6102 -0.2909 -0.8135
14246SOL    HW254393   1.692   2.040   5.465 -1.0380  0.5469 -0.1838
14247SOL     OW54394   9.943   0.414   1.430  0.2380  0.3853  0.2526
14247SOL    HW154395  10.012   0.342   1.421 -0.6487 -0.5050  0.4947
14247SOL    HW254396   9.853   0.372   1.444 -0.1425  1.5516  1.3895
14248SOL     OW54397   9.320   3.435   5.505  0.9427  0.3409 -0.0211
14248SOL    HW154398   9.306   3.417   5.603  1.2533  2.0392  0.3415
14248SOL    HW254399   9.313   3.533   5.488  1.5724  0.1144 -1.6018
14249SOL     OW54400   7.126   0.657   4.833 -0.2207  0.6905 -0.2148
14249SOL    HW154401   7.127   0.567   4.791 -1.1701  0.6920 -0.2405
14249SOL    HW254402   7.220   0.684   4.855  0.0461 -0.3992  0.0181
14250SOL     OW54403   7.393   6.788   2.013 -0.2132  0.2357  0.5534
14250SOL    HW154404   7.483   6.831   2.008 -0.0527 -0.2032 -0.6185
14250SOL    HW254405   7.401   6.698   2.056 -0.1156  0.2606  0.5867
14251SOL     OW54406   3.808   3.464   4.913 -0.4686  0.3561  0.0342
14251SOL    HW154407   3.803   3.454   4.814 -0.2376  2.1631 -0.1620
14251SOL    HW254408   3.728   3.421   4.955 -1.0796  0.4972 -0.9906
14252SOL     OW54409   1.559   1.809   0.600  0.3784  0.0298  0.4735
14252SOL    HW154410   1.492   1.836   0.669 -0.5293 -2.2445  0.5059
14252SOL    HW254411   1.517   1.813   0.509  0.2490 -1.1799  0.4730
14253SOL     OW54412   2.547   5.811   6.185 -0.1635 -0.4508  0.5991
14253SOL    HW154413   2.544   5.868   6.267 -2.1510  2.0078 -1.0962
14253SOL    HW254414   2.626   5.836   6.129  0.1240 -0.8076  0.8427
14254SOL     OW54415   0.234   5.463   2.377  0.0658  0.3345 -0.0216
14254SOL    HW154416   0.192   5.373   2.389  1.3575 -0.4024 -0.9829
14254SOL    HW254417   0.172   5.521   2.324  0.3798 -0.8507 -1.7281
14255SOL     OW54418   5.659   0.770   3.557  0.1278 -1.0443 -0.1847
14255SOL    HW154419   5.751   0.785   3.521  0.1918  0.0921  0.4306
14255SOL    HW254420   5.596   0.834   3.513 -0.4094 -1.9636 -0.7577
14256SOL     OW54421   8.022   3.069   0.541 -0.6688  0.6515 -0.1464
14256SOL    HW154422   8.022   3.077   0.441 -1.3333  2.1207 -0.0376
14256SOL    HW254423   8.064   3.150   0.581  0.4475 -0.3557  0.7494
14257SOL     OW54424   1.616   9.027   4.296 -0.6084  0.9449 -0.4698
14257SOL    HW154425   1.669   9.111   4.307 -0.0541  0.5865 -0.3476
14257SOL    HW254426   1.675   8.955   4.258 -0.9837  0.5126 -0.2444
14258SOL     OW54427   9.635   2.983   0.430 -0.5196 -0.0618 -0.5746
14258SOL    HW154428   9.713   2.952   0.484 -0.3443 -1.1048 -1.4078
14258SOL    HW254429   9.582   3.049   0.483  1.0446  0.8338 -0.0749
14259SOL     OW54430   2.956   9.633   6.474 -0.4689 -0.5562  0.3029
14259SOL    HW154431   2.971   9.584   6.560  0.0147  0.2449  0.6878
14259SOL    HW254432   2.980   9.575   6.397  0.2591 -0.8542  0.7571
14260SOL     OW54433   8.738   1.426   6.735  0.3723  0.0320  0.4669
14260SOL    HW154434   8.706   1.334   6.712  1.3462 -0.4178  0.8883
14260SOL    HW254435   8.686   1.461   6.813  2.2918 -1.5401  2.5093
14261SOL     OW54436   3.261   5.472   5.783 -0.3127  0.3497  0.1026
14261SOL    HW154437   3.341   5.413   5.794 -0.9561 -0.3122  1.2648
14261SOL    HW254438   3.193   5.450   5.853 -0.0347  3.3438  1.3992
14262SOL     OW54439   4.460   1.524   5.344 -0.3439 -0.5069 -0.3317
14262SOL    HW154440   4.460   1.593   5.272 -0.6594 -0.4749 -0.3016
14262SOL    HW254441   4.367   1.511   5.378 -0.2156 -0.6147 -0.0192
14263SOL     OW54442   4.652   9.691   6.242  0.1546  0.1112 -0.1767
14263SOL    HW154443   4.595   9.693   6.325 -1.4488  1.7143 -1.2874
14263SOL    HW254444   4.622   9.617   6.183  0.8290 -0.5804  0.3414
14264SOL     OW54445   3.401   5.729   5.091  0.2093  0.7949 -0.4417
14264SOL    HW154446   3.417   5.729   5.190  0.3860  0.4692 -0.4704
14264SOL    HW254447   3.454   5.802   5.049 -1.0408  1.9254 -0.1066
14265SOL     OW54448   1.121   0.412   5.691  0.4853 -0.3668  0.0025
14265SOL    HW154449   1.051   0.383   5.626  0.2140  1.3747 -0.4986
14265SOL    HW254450   1.211   0.381   5.660  0.4933  1.3725 -1.7978
14266SOL     OW54451   1.531   4.447   0.238 -0.0496 -0.3030 -0.5556
14266SOL    HW154452   1.447   4.489   0.273 -1.0680 -1.1279 -1.9815
14266SOL    HW254453   1.531   4.349   0.261  0.5050 -0.3039 -0.5689
14267SOL     OW54454   3.827   7.745   3.092 -0.3030 -0.0179  0.0552
14267SOL    HW154455   3.921   7.712   3.090 -0.3533 -0.1551 -0.1016
14267SOL    HW254456   3.782   7.714   3.176 -0.9136 -1.9379 -0.9422
14268SOL     OW54457   9.376   8.402   0.574 -0.3357 -0.1689  0.5911
14268SOL    HW154458   9.430   8.320   0.554 -2.0141 -0.9600 -0.8423
14268SOL    HW254459   9.292   8.374   0.621  0.1678  0.9868  2.2357
14269SOL     OW54460   3.145   5.377   1.010  0.6583  0.2172  0.0458
14269SOL    HW154461   3.139   5.395   1.108  0.4116 -0.0705  0.0823
14269SOL    HW254462   3.203   5.297   0.994  0.7947  0.3350 -0.0496
14270SOL     OW54463   5.274   1.773   4.604  0.0381 -0.4645  0.0653
14270SOL    HW154464   5.229   1.861   4.619  2.7666  1.0359 -0.2453
14270SOL    HW254465   5.290   1.760   4.506 -1.1993 -1.7972  0.0076
14271SOL     OW54466   0.988   4.996   8.005 -0.0556  0.3632 -0.0199
14271SOL    HW154467   0.953   5.022   8.095  0.7712  1.0814  0.1043
14271SOL    HW254468   0.913   4.963   7.948 -1.0484  2.4891  0.0153
14272SOL     OW54469   9.359   3.585   2.216 -0.1714 -0.0572 -0.0413
14272SOL    HW154470   9.360   3.527   2.135 -2.4485 -1.7572  1.0922
14272SOL    HW254471   9.366   3.528   2.298 -1.4046  1.3300  1.0570
14273SOL     OW54472   1.256   0.885   1.148 -0.2165  0.0092 -0.4366
14273SOL    HW154473   1.188   0.829   1.195  0.4234 -0.2961  0.1404
14273SOL    HW254474   1.343   0.836   1.144 -0.1562  0.2048 -1.5936
14274SOL     OW54475   1.404   2.668   6.895  0.1733 -0.0578 -0.2715
14274SOL    HW154476   1.440   2.615   6.818 -0.3442 -0.3248 -0.3350
14274SOL    HW254477   1.480   2.708   6.947  0.5840 -1.1268 -0.0301
14275SOL     OW54478   2.948   1.205   3.199  0.0710  0.4817  0.5613
14275SOL    HW154479   2.851   1.184   3.213  0.5026 -1.3936  0.8695
14275SOL    HW254480   2.958   1.268   3.122 -1.3231 -0.2075 -0.1963
14276SOL     OW54481   3.216   5.537   2.179 -0.2660  0.3885 -0.2237
14276SOL    HW154482   3.178   5.445   2.192  0.2128  0.1489 -0.5100
14276SOL    HW254483   3.173   5.580   2.100  0.5021 -0.1176 -0.9150
14277SOL     OW54484   9.793   6.555   5.021 -0.3085  0.1635 -0.1298
14277SOL    HW154485   9.694   6.540   5.020 -0.2410 -0.3158  0.0998
14277SOL    HW254486   9.839   6.473   5.054  0.3327 -0.5073 -2.5711
14278SOL     OW54487   3.096   8.111   0.222 -0.6491 -0.2469  0.6006
14278SOL    HW154488   3.012   8.159   0.247 -0.5716  1.1618 -1.6931
14278SOL    HW254489   3.168   8.135   0.286 -0.8582  2.0300  0.0186
14279SOL     OW54490   6.822   9.401   5.292 -0.1295  0.2627 -0.4336
14279SOL    HW154491   6.880   9.481   5.308 -0.4643  0.4627 -0.2332
14279SOL    HW254492   6.772   9.379   5.376 -0.1700 -0.0524 -0.5396
14280SOL     OW54493   8.696   4.371   5.905 -0.0847 -0.5380 -0.1332
14280SOL    HW154494   8.714   4.355   6.002 -0.8524 -0.3147  0.0419
14280SOL    HW254495   8.628   4.443   5.894 -0.4158 -0.9483 -0.8228
14281SOL     OW54496   1.367   4.330   4.544  0.0002 -0.1635 -0.2562
14281SOL    HW154497   1.335   4.243   4.507  0.1790  0.3242 -1.6044
14281SOL    HW254498   1.429   4.373   4.478  1.2899  0.1742  1.1503
14282SOL     OW54499   3.220   8.033   6.083 -0.1392 -0.0254  0.3039
14282SOL    HW154500   3.309   7.991   6.104  1.0184  2.6485  0.9584
14282SOL    HW254501   3.218   8.056   5.986 -0.7999 -1.5727 -0.0702
14283SOL     OW54502   3.702   4.447   3.595 -0.5634 -0.2612 -0.3529
14283SOL    HW154503   3.755   4.375   3.550 -1.7460 -1.1749 -0.3274
14283SOL    HW254504   3.749   4.477   3.678  0.7952  0.2355 -1.2950
14284SOL     OW54505   2.648   9.061   2.766  0.3519 -0.1146 -0.3894
14284SOL    HW154506   2.648   9.012   2.679 -1.3858 -1.5043  0.3519
14284SOL    HW254507   2.740   9.060   2.805  1.1420  0.5451 -2.2127
14285SOL     OW54508   4.528   3.461   0.553  0.5028 -0.5581  0.0009
14285SOL    HW154509   4.575   3.391   0.499  1.5266 -1.7268  2.3548
14285SOL    HW254510   4.581   3.545   0.553  0.1791 -0.3416 -1.3136
14286SOL     OW54511   3.685   8.212   6.947  0.5470 -1.0757  0.3630
14286SOL    HW154512   3.658   8.185   6.854 -1.0653  0.7854  0.2454
14286SOL    HW254513   3.784   8.226   6.950  0.5086 -0.2127 -1.3569
14287SOL     OW54514   8.485   9.893   5.666  0.0238  1.0245  0.2553
14287SOL    HW154515   8.576   9.923   5.638 -1.0672  3.5868 -0.7932
14287SOL    HW254516   8.454   9.949   5.743 -0.6086  0.0815  0.6963
14288SOL     OW54517   9.862   2.618   0.644  0.5073  0.2572 -0.2033
14288SOL    HW154518   9.893   2.579   0.558 -2.8521 -0.7001 -1.0523
14288SOL    HW254519   9.850   2.717   0.634  0.9276  0.2695 -0.5738
14289SOL     OW54520   8.599   3.893   5.828 -0.6859 -0.8163 -0.1963
14289SOL    HW154521   8.657   3.974   5.831 -0.3145 -1.0941  0.1408
14289SOL    HW254522   8.503   3.921   5.824 -0.5102 -0.3625 -1.1445
14290SOL     OW54523   9.324   8.766   3.819  0.0144 -0.0304  0.1396
14290SOL    HW154524   9.322   8.865   3.800 -0.4503 -0.2008 -0.7413
14290SOL    HW254525   9.312   8.751   3.917  0.1404  0.7958  0.2895
14291SOL     OW54526   3.803   1.944   7.332 -0.1818 -0.2271  0.3788
14291SOL    HW154527   3.737   1.879   7.370  0.5033 -0.9880  0.2739
14291SOL    HW254528   3.885   1.895   7.302  0.5604  0.7502  0.7858
14292SOL     OW54529   7.085   5.749   1.524 -0.6361  0.6032 -0.0906
14292SOL    HW154530   7.135   5.758   1.610 -1.3048  0.2959  0.3359
14292SOL    HW254531   7.112   5.663   1.480  0.0007  0.9497 -0.3861
14293SOL     OW54532   0.094   1.921   2.149 -0.2758 -0.3618 -0.0099
14293SOL    HW154533   0.193   1.927   2.135 -0.3717  1.2820 -0.1296
14293SOL    HW254534   0.057   1.846   2.094  0.7602 -0.3278 -0.7794
14294SOL     OW54535   9.670   4.164   5.948  0.3628  0.6908  0.4710
14294SOL    HW154536   9.708   4.116   6.026 -1.3206 -1.6730 -0.1188
14294SOL    HW254537   9.594   4.112   5.910 -0.6106  3.1331 -1.0839
14295SOL     OW54538   6.915   0.319   2.186 -1.2365  0.0095 -0.0410
14295SOL    HW154539   6.889   0.414   2.204 -0.8270 -0.0248  0.7512
14295SOL    HW254540   6.833   0.266   2.166 -1.4601  0.5466 -0.5800
14296SOL     OW54541   2.553   6.403   4.786  0.0258 -0.3531 -0.5921
14296SOL    HW154542   2.587   6.410   4.880  0.8525 -1.6338 -0.7915
14296SOL    HW254543   2.568   6.490   4.739  0.4631 -0.0101  0.1694
14297SOL     OW54544   5.483   5.659   2.224 -0.3441 -0.5524  1.0502
14297SOL    HW154545   5.529   5.720   2.159  0.6671 -2.3815 -0.0185
14297SOL    HW254546   5.508   5.684   2.317 -0.7852  1.3019  0.7043
14298SOL     OW54547   4.007   2.448   4.233 -0.4325 -0.2966  0.4573
14298SOL    HW154548   3.957   2.394   4.165  0.6184 -1.2848  0.4536
14298SOL    HW254549   4.065   2.388   4.288  1.0372  0.8432  0.2188
14299SOL     OW54550   4.056   6.737   4.729  0.2261  0.4453  0.4871
14299SOL    HW154551   4.143   6.774   4.761 -0.4454  1.7170  0.8642
14299SOL    HW254552   3.984   6.757   4.796 -0.4026 -0.4158  0.0852
14300SOL     OW54553   3.920   8.719   4.491 -0.1651  0.2797  0.2922
14300SOL    HW154554   3.899   8.815   4.474  0.5650  0.0076 -2.2836
14300SOL    HW254555   3.855   8.682   4.558 -0.6245  2.4691  1.0717
14301SOL     OW54556   9.258   4.663   6.883 -0.1442  0.1281 -0.3134
14301SOL    HW154557   9.233   4.566   6.881 -1.1142  0.3803 -1.2461
14301SOL    HW254558   9.342   4.677   6.830 -0.4035 -0.1018 -0.7899
14302SOL     OW54559   5.926   7.437   4.519 -0.3207  0.1934  0.7891
14302SOL    HW154560   5.976   7.396   4.595 -3.3404 -1.9501  1.7332
14302SOL    HW254561   5.969   7.411   4.433 -0.2242 -2.2656  1.5453
14303SOL     OW54562   3.588   9.943   4.621 -0.8492  0.1923 -0.5098
14303SOL    HW154563   3.502   9.969   4.577 -1.2563  1.3435  0.9160
14303SOL    HW254564   3.599   9.995   4.705  1.4039  0.2798 -0.8286
14304SOL     OW54565   6.589   7.367   4.435  0.1268 -0.0940  0.7224
14304SOL    HW154566   6.577   7.269   4.455 -0.3088 -0.2718 -0.3627
14304SOL    HW254567   6.679   7.382   4.394 -0.2659 -0.2271 -0.2078
14305SOL     OW54568   4.841   3.215   2.159  0.3393  0.7390 -0.6529
14305SOL    HW154569   4.770   3.147   2.179  0.6874  0.5134 -0.1656
14305SOL    HW254570   4.856   3.271   2.240  0.8930  0.6217 -0.6711
14306SOL     OW54571   7.218   8.546   2.025 -0.1060  0.1549 -0.4108
14306SOL    HW154572   7.234   8.604   1.946 -1.0835  1.6168  0.4325
14306SOL    HW254573   7.128   8.503   2.018 -0.4930  0.8420  0.2255
14307SOL     OW54574   0.220   8.852   1.466 -0.0610 -0.0432  0.5258
14307SOL    HW154575   0.133   8.899   1.477 -0.6722 -1.4892  2.1428
14307SOL    HW254576   0.255   8.866   1.374 -2.0737  0.4223 -0.1807
14308SOL     OW54577   2.016   4.088   6.516  0.4809  0.0425  0.1262
14308SOL    HW154578   1.966   4.174   6.524  0.0057 -0.0646 -1.5987
14308SOL    HW254579   2.092   4.098   6.451 -1.7520 -1.7905 -2.8919
14309SOL     OW54580   2.274   0.120   4.623 -0.9169 -0.5453 -0.2257
14309SOL    HW154581   2.203   0.054   4.599  0.2848 -1.8794 -0.1912
14309SOL    HW254582   2.363   0.086   4.591 -0.4372  1.6386 -1.2759
14310SOL     OW54583   9.010   9.517   6.166 -0.5914 -0.3650  0.3206
14310SOL    HW154584   8.928   9.460   6.156 -0.1815 -1.1659  1.4680
14310SOL    HW254585   9.062   9.515   6.081 -1.9216  0.4200 -0.5426
14311SOL     OW54586   6.002   1.890   5.723 -0.1191 -0.4090 -0.3965
14311SOL    HW154587   5.968   1.857   5.634 -0.3225  1.3887 -1.0021
14311SOL    HW254588   5.948   1.969   5.752  3.1620  2.2071 -1.1132
14312SOL     OW54589   4.183   4.531   0.950  0.3502  0.0820  0.2900
14312SOL    HW154590   4.179   4.459   0.881  1.3435  0.3009  0.0017
14312SOL    HW254591   4.090   4.564   0.969  0.1681  0.9271 -1.8959
14313SOL     OW54592   1.401   4.646   6.443 -0.0717  0.0644  0.0164
14313SOL    HW154593   1.346   4.571   6.479  0.5282  0.1554  1.1307
14313SOL    HW254594   1.487   4.652   6.494 -0.3818  1.8883  0.3434
14314SOL     OW54595   8.773   4.052   0.561  0.4358 -0.1779 -0.5515
14314SOL    HW154596   8.797   4.105   0.642  0.2777 -1.5099  0.3925
14314SOL    HW254597   8.844   3.984   0.543 -0.6699 -1.4823 -0.0980
14315SOL     OW54598   9.548   9.697   2.685 -0.1021  0.8426 -0.1756
14315SOL    HW154599   9.545   9.603   2.650 -0.6036  1.0301 -0.6452
14315SOL    HW254600   9.604   9.754   2.624 -0.8092  1.1229 -0.5759
14316SOL     OW54601   0.410   9.681   7.396 -0.3475 -0.0171 -0.1054
14316SOL    HW154602   0.390   9.670   7.493 -0.7409 -1.5600 -0.3482
14316SOL    HW254603   0.417   9.591   7.353  1.1327  0.6281 -1.2481
14317SOL     OW54604   7.101   3.816   1.010  0.1029 -0.1157  0.4477
14317SOL    HW154605   7.046   3.794   0.930  1.2584 -0.0082 -0.3893
14317SOL    HW254606   7.074   3.905   1.046  0.0106  0.1271 -0.2149
14318SOL     OW54607   1.869   1.349   2.088  0.0649 -0.7022  0.0885
14318SOL    HW154608   1.947   1.407   2.112 -0.1531 -0.6600  0.6995
14318SOL    HW254609   1.887   1.303   2.001  0.5427 -0.2759 -0.0403
14319SOL     OW54610   0.141   2.025   7.354 -0.4238 -0.4882 -0.1102
14319SOL    HW154611   0.100   1.943   7.395  0.5205 -1.7945 -1.7623
14319SOL    HW254612   0.073   2.098   7.353 -1.6046 -1.5542  0.4128
14320SOL     OW54613   0.501   4.201   5.252  0.0571  0.1481  0.4704
14320SOL    HW154614   0.563   4.248   5.189  0.9531  0.8571  1.8384
14320SOL    HW254615   0.407   4.224   5.229  0.3212 -0.2465 -1.0981
14321SOL     OW54616   4.165   1.417   4.215  0.3464  0.2226  0.3111
14321SOL    HW154617   4.213   1.451   4.296  0.1789 -1.8545  1.3057
14321SOL    HW254618   4.075   1.382   4.242  0.8251 -1.7173 -0.5649
14322SOL     OW54619   2.313   7.105   0.337 -0.1099  0.0344 -0.1779
14322SOL    HW154620   2.264   7.189   0.312 -0.4853 -0.5905 -1.5673
14322SOL    HW254621   2.270   7.027   0.292  2.2974 -0.4908 -1.6434
14323SOL     OW54622   5.267   8.528   7.586 -0.4150  0.5521 -0.1328
14323SOL    HW154623   5.280   8.623   7.616  1.6552 -0.1463  1.2564
14323SOL    HW254624   5.232   8.528   7.492  0.1345  2.6768 -0.3758
14324SOL     OW54625   3.399   5.246   6.884  0.3497 -0.1913 -0.1823
14324SOL    HW154626   3.482   5.190   6.886  1.3215  1.2674  1.1221
14324SOL    HW254627   3.416   5.331   6.834  0.0941  0.7870  1.3604
14325SOL     OW54628   7.688   2.785   1.602  0.9195  0.2078 -0.0360
14325SOL    HW154629   7.683   2.810   1.698 -0.8137 -0.5094  0.0832
14325SOL    HW254630   7.684   2.868   1.545 -2.5479  0.3995  0.4061
14326SOL     OW54631   1.465   1.862   1.813 -0.4077  0.3055  0.2752
14326SOL    HW154632   1.545   1.827   1.863 -1.2504 -2.9845 -0.5901
14326SOL    HW254633   1.382   1.826   1.855 -1.3486  1.8512 -0.2632
14327SOL     OW54634   7.272   3.325   1.313  0.5000 -0.1190 -0.2723
14327SOL    HW154635   7.325   3.325   1.398 -1.1035 -1.3866  0.7506
14327SOL    HW254636   7.322   3.273   1.243  1.0847 -0.4309  0.3691
14328SOL     OW54637   8.319   0.065   1.115  0.2488 -0.1958 -0.0612
14328SOL    HW154638   8.313   0.163   1.096  1.8105  0.5514  3.0105
14328SOL    HW254639   8.414   0.036   1.111 -0.0117 -1.2092  0.8561
14329SOL     OW54640   0.171   6.524   7.817 -0.6202 -0.4451  0.0702
14329SOL    HW154641   0.078   6.558   7.802 -1.2878 -1.9560  0.7218
14329SOL    HW254642   0.201   6.472   7.737 -0.2076  0.3059 -0.2692
14330SOL     OW54643   2.530   4.803   2.632 -0.1699  0.2499  0.5803
14330SOL    HW154644   2.515   4.709   2.601 -0.0269  1.1869 -2.5203
14330SOL    HW254645   2.624   4.813   2.666  0.4216 -0.2837 -0.8632
14331SOL     OW54646   9.020   7.671   3.559  0.3142  0.1433 -0.0456
14331SOL    HW154647   9.049   7.608   3.486 -0.6652  0.6168 -0.8571
14331SOL    HW254648   9.098   7.724   3.590  1.2245 -1.6719  0.8554
14332SOL     OW54649   2.834   2.470   5.131  0.0817  0.7766 -0.0756
14332SOL    HW154650   2.766   2.487   5.059 -1.0997  0.3252  0.9128
14332SOL    HW254651   2.791   2.419   5.205  2.0707 -1.4872 -0.4267
14333SOL     OW54652   9.357   9.685   0.208 -0.1162  0.3786  0.0134
14333SOL    HW154653   9.412   9.672   0.125  0.5740  0.3293  0.4688
14333SOL    HW254654   9.266   9.646   0.194  0.1592 -0.0758 -0.5443
14334SOL     OW54655   9.551   5.792   1.609  0.4546 -0.2390 -0.3224
14334SOL    HW154656   9.524   5.807   1.704 -0.0157  2.3562 -0.8275
14334SOL    HW254657   9.477   5.823   1.549  2.4136  2.1326 -1.6127
14335SOL     OW54658   4.266   3.268   6.449 -0.7451  0.3164 -0.4488
14335SOL    HW154659   4.231   3.360   6.434 -0.1721  0.7898  0.9751
14335SOL    HW254660   4.232   3.207   6.378 -0.7296  1.7272 -1.6820
14336SOL     OW54661   5.181   8.068   6.965  0.4263 -0.0231  0.0291
14336SOL    HW154662   5.250   8.065   6.892  1.9250 -0.4782  1.4241
14336SOL    HW254663   5.102   8.013   6.938  1.9993 -2.2235 -0.2586
14337SOL     OW54664   0.149   4.784  10.075 -0.1651 -0.4838 -0.2520
14337SOL    HW154665   0.124   4.802  10.171 -3.2801  0.6943 -1.2165
14337SOL    HW254666   0.180   4.868  10.032 -1.8698 -0.2960 -1.1343
14338SOL     OW54667   5.595   6.090   0.893  0.5336  0.7268  0.0280
14338SOL    HW154668   5.609   6.047   0.982  0.6766  0.2269 -0.2353
14338SOL    HW254669   5.593   6.020   0.822  2.0227  1.2604 -0.5556
14339SOL     OW54670   1.164   0.041   0.787  0.3441  0.6240  0.3434
14339SOL    HW154671   1.178  -0.043   0.734 -0.2881 -0.5906  2.0607
14339SOL    HW254672   1.191   0.026   0.882 -1.7636  1.7208  1.1468
14340SOL     OW54673   1.757   1.878   5.915 -0.0157  0.4370 -0.8463
14340SOL    HW154674   1.830   1.916   5.859 -2.7384  0.4446 -4.5230
14340SOL    HW254675   1.677   1.939   5.912 -2.1955 -2.3527 -1.6315
14341SOL     OW54676   2.885   6.659   4.873  0.1834  0.2867  0.9921
14341SOL    HW154677   2.945   6.582   4.892 -0.8026 -0.7448  0.0064
14341SOL    HW254678   2.816   6.632   4.806 -0.5137  1.8661  1.0440
14342SOL     OW54679   2.061   2.582   7.891  0.0870  0.0977  0.3016
14342SOL    HW154680   2.156   2.551   7.886  0.5862  1.7978 -1.5049
14342SOL    HW254681   2.002   2.517   7.845  0.6917  0.1674 -0.5863
14343SOL     OW54682   1.846   3.296   8.313  0.2083  0.7076 -0.3753
14343SOL    HW154683   1.869   3.240   8.233  1.2139 -2.4568  2.0103
14343SOL    HW254684   1.919   3.287   8.381 -1.3743  2.0421  1.5290
14344SOL     OW54685   8.003   1.774   5.167  0.0433  0.6530  0.6401
14344SOL    HW154686   8.016   1.830   5.085 -0.2791  1.2578  0.9941
14344SOL    HW254687   8.088   1.727   5.189 -0.6124 -1.7020 -1.6274
14345SOL     OW54688   7.389   4.528   2.739 -0.1412  0.0274 -0.3081
14345SOL    HW154689   7.384   4.501   2.643  0.6301 -1.1480 -0.0327
14345SOL    HW254690   7.396   4.446   2.796 -0.2345  0.7324  0.7315
14346SOL     OW54691   3.177   0.585   5.478  0.6603 -0.7998  0.2412
14346SOL    HW154692   3.189   0.488   5.496  3.2429 -0.7585 -0.9561
14346SOL    HW254693   3.212   0.638   5.555  0.3000 -0.8245  0.4171
14347SOL     OW54694   0.877   0.261   2.358 -0.6269 -0.1768  0.1256
14347SOL    HW154695   0.837   0.169   2.360 -1.3691  0.1172 -0.6432
14347SOL    HW254696   0.814   0.325   2.402  0.1306 -0.1237  1.1403
14348SOL     OW54697   2.509   7.473   3.394  0.1781  0.6333 -0.3383
14348SOL    HW154698   2.545   7.432   3.478 -0.5154 -0.6449 -0.6463
14348SOL    HW254699   2.503   7.572   3.405 -0.6150  0.4110  1.4028
14349SOL     OW54700   3.141   1.384   3.732  0.2067  0.7020  0.2068
14349SOL    HW154701   3.237   1.361   3.717  0.2368  2.5084 -2.6585
14349SOL    HW254702   3.083   1.319   3.683  0.0239  0.7941  0.3015
14350SOL     OW54703   8.605   5.466   1.419 -0.3987  0.6820  0.4476
14350SOL    HW154704   8.571   5.438   1.509  0.3053 -0.9014  0.2511
14350SOL    HW254705   8.529   5.497   1.363 -0.9491  0.9512  1.3281
14351SOL     OW54706   7.142   6.637   4.251 -0.0542 -0.4293 -0.3356
14351SOL    HW154707   7.068   6.691   4.210 -0.7270  0.9679  2.5788
14351SOL    HW254708   7.224   6.694   4.259  0.4860 -1.1092 -0.9553
14352SOL     OW54709   2.153   7.922   5.989 -0.1320 -0.4715  0.3535
14352SOL    HW154710   2.071   7.915   6.046 -0.1548  0.8205  0.4871
14352SOL    HW254711   2.154   8.011   5.943  0.4791 -1.0467 -0.7510
14353SOL     OW54712   2.739   3.188   6.902  0.2996  0.4275 -0.0606
14353SOL    HW154713   2.691   3.251   6.963  0.0283  1.1859 -1.0632
14353SOL    HW254714   2.829   3.226   6.879 -0.1872  0.8484 -1.3160
14354SOL     OW54715   2.241   6.196   1.504  0.6588  0.0501 -0.4817
14354SOL    HW154716   2.194   6.282   1.524  0.7176  0.2424 -1.1753
14354SOL    HW254717   2.173   6.123   1.493  0.5127  0.3336 -1.5130
14355SOL     OW54718   3.096   9.976   7.419 -0.4078 -0.3211  0.6437
14355SOL    HW154719   3.087  10.027   7.505 -0.0549 -0.0613  0.5262
14355SOL    HW254720   3.110  10.040   7.343 -0.9153 -0.5405  0.3639
14356SOL     OW54721   7.547   9.987   7.905 -0.4536  0.2477 -0.0836
14356SOL    HW154722   7.531   9.984   8.004  1.3589 -0.2267  0.2132
14356SOL    HW254723   7.577  10.079   7.879 -2.8687  0.9437 -0.5336
14357SOL     OW54724   7.496   7.071   5.913 -0.1040 -0.1563 -0.6430
14357SOL    HW154725   7.431   7.019   5.969 -0.6187  0.0277 -1.0660
14357SOL    HW254726   7.499   7.032   5.821 -1.0099  0.9755 -1.1664
14358SOL     OW54727   1.885   3.509   0.973 -0.4751  0.1361 -0.0135
14358SOL    HW154728   1.928   3.422   0.951  0.5381  0.2020  1.6513
14358SOL    HW254729   1.797   3.493   1.018 -1.1371 -0.0067 -1.3413
14359SOL     OW54730   0.029   5.024   5.415  0.8566 -0.0564 -0.0840
14359SOL    HW154731  -0.004   5.060   5.503 -1.9219 -0.2203 -1.0054
14359SOL    HW254732   0.018   5.094   5.344  0.0689 -1.0109 -0.9157
14360SOL     OW54733   0.375   6.736   1.260 -0.6235  0.6963 -0.1493
14360SOL    HW154734   0.409   6.796   1.332  1.0338 -0.1505 -0.2044
14360SOL    HW254735   0.288   6.772   1.226 -2.2789  0.2702  3.3460
14361SOL     OW54736   8.819   6.055   1.735  0.5876 -0.0763 -0.0691
14361SOL    HW154737   8.721   6.058   1.758  0.6865  1.2389  0.1942
14361SOL    HW254738   8.831   6.006   1.649 -0.2991 -0.2980 -0.0764
14362SOL     OW54739   3.152   6.479   4.720  1.0960  0.1892  0.1879
14362SOL    HW154740   3.174   6.383   4.736 -1.3276  0.0384  3.1596
14362SOL    HW254741   3.212   6.537   4.774  1.8209  0.3079 -0.7374
14363SOL     OW54742   9.741   0.967   5.945  0.3631 -0.0559 -0.3291
14363SOL    HW154743   9.829   0.920   5.945  1.9621  2.8000  0.1467
14363SOL    HW254744   9.732   1.021   5.861 -0.2780  0.7999  0.2783
14364SOL     OW54745   4.982   3.270   6.774  0.1422 -0.0873  0.3481
14364SOL    HW154746   4.916   3.231   6.837  0.3903  0.0604  0.7002
14364SOL    HW254747   5.005   3.202   6.703  1.8205 -1.2085  1.9072
14365SOL     OW54748   5.137   2.383   1.608  0.3485 -0.4422  0.2086
14365SOL    HW154749   5.235   2.363   1.603  0.4340  0.3546 -1.9962
14365SOL    HW254750   5.101   2.353   1.696  2.9669  0.9525  1.8374
14366SOL     OW54751   9.519   8.176   5.058  0.2223  0.2471 -0.9469
14366SOL    HW154752   9.458   8.118   5.004 -0.5177 -0.1825  0.3276
14366SOL    HW254753   9.613   8.167   5.023 -0.0247 -1.0603 -1.3049
14367SOL     OW54754   8.400   5.591   5.922  0.1050 -0.0835  0.2973
14367SOL    HW154755   8.408   5.520   5.992 -1.4175 -1.3828 -0.8059
14367SOL    HW254756   8.475   5.656   5.932  2.9046 -3.0925 -0.0187
14368SOL     OW54757   9.705   5.112   4.574 -0.2755  0.0718 -0.6088
14368SOL    HW154758   9.692   5.143   4.479 -0.0618 -0.6072 -0.8572
14368SOL    HW254759   9.783   5.160   4.614 -0.6567  0.7145 -0.6156
14369SOL     OW54760   6.146   8.698   4.999  0.2013  0.1212  0.0324
14369SOL    HW154761   6.146   8.724   4.903  1.1475  0.1710  0.0403
14369SOL    HW254762   6.211   8.623   5.014 -0.8479 -0.7277  0.4179
14370SOL     OW54763   1.396   3.088   4.261 -0.0321  0.4459 -0.9049
14370SOL    HW154764   1.409   3.181   4.225 -0.6324  1.0077  0.2854
14370SOL    HW254765   1.474   3.063   4.318 -0.7874  1.0179  0.4071
14371SOL     OW54766   0.520   5.627   6.109 -0.0907  0.1820  0.1797
14371SOL    HW154767   0.576   5.629   6.026  1.5769 -1.6811  1.2073
14371SOL    HW254768   0.449   5.557   6.100  0.3772 -0.3403  0.4730
14372SOL     OW54769   4.172   4.089   1.651  0.5044  0.2473 -0.4857
14372SOL    HW154770   4.199   4.108   1.745 -0.4153 -1.4562  0.1552
14372SOL    HW254771   4.082   4.046   1.650  1.3893 -1.6960 -1.9610
14373SOL     OW54772   4.155   5.757   1.941 -0.1485  0.1678 -0.1999
14373SOL    HW154773   4.162   5.846   1.897  1.5890  0.1006 -0.0843
14373SOL    HW254774   4.114   5.691   1.878  2.6719 -0.0382 -1.9055
14374SOL     OW54775   2.262   2.021  10.065 -0.4135 -0.4223  0.3446
14374SOL    HW154776   2.356   2.051  10.079 -0.7269  0.8093 -0.1484
14374SOL    HW254777   2.205   2.099  10.038 -0.8883 -1.7867 -2.7402
14375SOL     OW54778   8.273   6.068   7.882 -0.3602 -0.4297  0.4438
14375SOL    HW154779   8.340   5.995   7.880  0.9405  0.6771  2.5359
14375SOL    HW254780   8.262   6.105   7.789  0.5570 -1.7956 -0.2338
14376SOL     OW54781   8.340   9.195   4.175  0.2785 -0.0247  0.0360
14376SOL    HW154782   8.352   9.178   4.077  0.2465 -2.0466  0.3601
14376SOL    HW254783   8.329   9.293   4.191  0.5618  0.3504 -1.9518
14377SOL     OW54784   5.190   6.663   0.172 -0.0922 -0.7600  0.4586
14377SOL    HW154785   5.210   6.574   0.213 -1.0747 -1.3411 -0.3037
14377SOL    HW254786   5.272   6.698   0.127 -0.0659 -1.9439 -0.4509
14378SOL     OW54787   2.512   2.614   4.850  0.7681  0.3743 -0.1432
14378SOL    HW154788   2.437   2.555   4.882  0.2369  0.6783 -0.8094
14378SOL    HW254789   2.574   2.634   4.926 -0.6773  1.4132  0.7898
14379SOL     OW54790   7.265   9.627   5.160 -0.1076  0.0512  0.2774
14379SOL    HW154791   7.306   9.694   5.100 -0.3302 -0.2758 -0.2424
14379SOL    HW254792   7.187   9.668   5.208 -2.1335 -0.6512 -2.2763
14380SOL     OW54793   5.270   9.838   4.970 -0.2106 -0.0087  0.1353
14380SOL    HW154794   5.174   9.840   4.942 -0.3835  1.8427  0.7381
14380SOL    HW254795   5.312   9.926   4.950  2.2032 -1.7327 -2.7851
14381SOL     OW54796   1.170   3.698   5.127  0.3916 -0.1461  0.2512
14381SOL    HW154797   1.236   3.716   5.054 -1.1893  0.1491 -1.1325
14381SOL    HW254798   1.106   3.627   5.098 -1.4913  1.3681  0.5240
14382SOL     OW54799   2.674   1.890   6.411  0.4167  0.1750 -0.6500
14382SOL    HW154800   2.678   1.845   6.322 -0.8033  0.1016 -0.6823
14382SOL    HW254801   2.673   1.989   6.399 -1.5487  0.1583 -0.8344
14383SOL     OW54802   4.703   7.978   3.958 -0.0090 -0.4909 -0.5174
14383SOL    HW154803   4.611   7.987   3.998  0.5984  0.8815  0.6240
14383SOL    HW254804   4.745   7.893   3.989  0.5624  0.6806  2.0912
14384SOL     OW54805   7.956   0.526   4.104  0.2196  0.3324 -0.3862
14384SOL    HW154806   7.878   0.549   4.162 -0.0497  1.6748 -1.2716
14384SOL    HW254807   7.929   0.456   4.037  0.1524 -0.1812  0.1699
14385SOL     OW54808   8.433   5.777   4.671 -0.4990 -0.2214 -0.1901
14385SOL    HW154809   8.510   5.813   4.619  0.3282  0.5121  1.5094
14385SOL    HW254810   8.366   5.736   4.608  1.0292 -0.4197 -1.7162
14386SOL     OW54811   2.752   1.985   5.759 -0.0224 -0.1992 -0.5295
14386SOL    HW154812   2.675   2.006   5.699 -0.2762 -2.9813 -1.2727
14386SOL    HW254813   2.719   1.971   5.852 -0.4638 -1.5161 -0.8737
14387SOL     OW54814   7.326   7.749   8.374 -0.3199 -0.3131 -0.0591
14387SOL    HW154815   7.394   7.743   8.301 -0.6718  0.4361 -0.4516
14387SOL    HW254816   7.300   7.657   8.403  0.2336 -0.6057 -0.4993
14388SOL     OW54817   4.066   3.058   2.478  0.3910 -0.8800  0.4670
14388SOL    HW154818   4.153   3.102   2.501  0.6597 -0.7133 -0.8099
14388SOL    HW254819   4.003   3.065   2.555  0.0480  2.6944 -0.0777
14389SOL     OW54820   9.959   4.998   4.434  0.3207  0.2496  0.0825
14389SOL    HW154821  10.009   4.950   4.505  0.4440 -1.4524 -1.1404
14389SOL    HW254822   9.861   4.994   4.454  0.3657 -0.1119  0.2220
14390SOL     OW54823   0.258   8.821   7.110 -0.0461 -0.2070 -0.1222
14390SOL    HW154824   0.294   8.763   7.037 -0.6920 -2.3826  1.2364
14390SOL    HW254825   0.323   8.822   7.187  0.9567  2.6205 -0.9456
14391SOL     OW54826   2.261   3.680   9.719 -0.5156 -0.5738 -0.1389
14391SOL    HW154827   2.192   3.749   9.699  0.0387  0.5571  1.7455
14391SOL    HW254828   2.242   3.639   9.808  0.5135 -1.1657 -0.1875
14392SOL     OW54829   2.462   2.198   2.298  0.3372  0.2670 -0.2917
14392SOL    HW154830   2.499   2.106   2.292 -2.2987 -0.9803  1.6437
14392SOL    HW254831   2.384   2.207   2.235 -1.0962  0.2771  1.4361
14393SOL     OW54832   1.538   9.579   5.572  0.0934  0.1108  0.1125
14393SOL    HW154833   1.468   9.640   5.609 -0.3499 -0.4432  0.1904
14393SOL    HW254834   1.524   9.486   5.607 -0.5778 -0.5080 -1.7340
14394SOL     OW54835   0.011   2.839   6.748 -0.0847  0.5156  0.1744
14394SOL    HW154836   0.038   2.886   6.832  0.7616 -0.2170  0.3158
14394SOL    HW254837   0.071   2.868   6.673  0.4125 -0.2902  0.2513
14395SOL     OW54838   1.248   4.228   1.701 -0.2225  0.3415  0.4472
14395SOL    HW154839   1.267   4.179   1.616  2.3112  0.1307  1.1153
14395SOL    HW254840   1.230   4.162   1.775 -0.3126  0.4829  0.5520
14396SOL     OW54841   5.316   1.902   1.522  0.2796 -0.3822 -0.0257
14396SOL    HW154842   5.305   1.915   1.423  1.0195 -1.0703 -0.2022
14396SOL    HW254843   5.376   1.973   1.559  1.1674 -0.9751 -0.3198
14397SOL     OW54844   6.468   4.016   0.658 -0.2536 -0.2160  0.2359
14397SOL    HW154845   6.424   3.946   0.601 -1.7151  0.6883  0.2188
14397SOL    HW254846   6.413   4.030   0.740  1.0526 -0.4420  1.1565
14398SOL     OW54847   2.671   1.123   6.005  0.2189 -0.2024 -0.3290
14398SOL    HW154848   2.645   1.214   5.971  1.7257 -0.3404 -1.9013
14398SOL    HW254849   2.768   1.122   6.027 -0.1315 -0.9778  1.2910
14399SOL     OW54850   1.339   5.973   6.647 -0.2537 -1.0246  0.0079
14399SOL    HW154851   1.307   5.893   6.595  0.9362 -2.0506  0.8024
14399SOL    HW254852   1.346   5.948   6.744 -0.2368  0.1686  0.3105
14400SOL     OW54853   9.322   1.020   4.206  0.0406  0.0765 -0.0895
14400SOL    HW154854   9.400   1.069   4.166 -0.1821 -0.1227 -0.7660
14400SOL    HW254855   9.268   1.083   4.262 -0.0172  0.5044 -0.6322
14401SOL     OW54856   9.304   8.079   5.228  0.3780  0.2440 -0.0221
14401SOL    HW154857   9.209   8.099   5.252  0.7518  1.5933  0.3501
14401SOL    HW254858   9.322   8.111   5.135  0.4062 -0.2417 -0.1870
14402SOL     OW54859   0.645   3.093   6.638  0.6702 -0.3325 -0.1589
14402SOL    HW154860   0.695   3.084   6.724 -0.1320 -2.3231  0.1161
14402SOL    HW254861   0.566   3.153   6.652  1.5989  0.8818 -0.0043
14403SOL     OW54862   9.836   7.575   7.798  0.0494 -0.1432  0.2401
14403SOL    HW154863   9.857   7.624   7.714 -1.8946 -0.2578 -0.3315
14403SOL    HW254864   9.743   7.597   7.828 -0.3819 -2.4196  0.7123
14404SOL     OW54865   4.703   0.039   1.461  0.3191  0.3028  0.1730
14404SOL    HW154866   4.702  -0.021   1.541 -0.5208 -0.0863 -0.1206
14404SOL    HW254867   4.609   0.057   1.432  0.5994  0.9776 -0.3316
14405SOL     OW54868   4.696   3.583   1.939  0.2582  0.4127 -0.5686
14405SOL    HW154869   4.760   3.527   1.992  1.4239  2.4069  0.2002
14405SOL    HW254870   4.605   3.543   1.944  1.0800 -1.4582 -0.1201
14406SOL     OW54871   7.084   9.798   5.265 -0.1765 -0.3259 -1.0090
14406SOL    HW154872   7.110   9.884   5.221 -2.4358  0.3196 -1.1487
14406SOL    HW254873   7.081   9.811   5.364 -2.1109  0.2578 -1.1147
14407SOL     OW54874   6.712   1.212   7.380  0.1537 -0.6284  0.6077
14407SOL    HW154875   6.776   1.249   7.312  0.6457 -1.4385  0.6114
14407SOL    HW254876   6.651   1.147   7.335 -0.5899  0.0548  0.6313
14408SOL     OW54877   2.122   0.492   1.314  0.5272  0.4170  0.1845
14408SOL    HW154878   2.148   0.437   1.394  0.9015  0.4376  0.0776
14408SOL    HW254879   2.041   0.547   1.336 -1.0379 -1.6191 -0.2976
14409SOL     OW54880   9.351   8.931   2.733  0.1926  0.4000 -0.1491
14409SOL    HW154881   9.415   9.006   2.715  0.9764  0.1673  1.6484
14409SOL    HW254882   9.262   8.969   2.760  0.1924  0.6826 -0.5332
14410SOL     OW54883   9.855   4.426   0.648 -0.3200  0.5090  0.7029
14410SOL    HW154884   9.863   4.505   0.588 -1.6091 -0.0691 -0.2665
14410SOL    HW254885   9.758   4.403   0.659  0.0856 -1.7334 -0.1284
14411SOL     OW54886   1.573   5.680   0.545 -0.0682  0.1271  0.1979
14411SOL    HW154887   1.646   5.746   0.563  0.7621 -0.5204 -0.7455
14411SOL    HW254888   1.610   5.587   0.551 -0.9719 -0.2206  0.4107
14412SOL     OW54889   4.116   3.661   2.235 -0.1281 -0.1094 -0.0164
14412SOL    HW154890   4.201   3.707   2.262  0.6012 -1.5256  0.1266
14412SOL    HW254891   4.091   3.689   2.142 -0.1795  1.2524  0.3881
14413SOL     OW54892   9.036   0.127   5.896  0.0543  0.1709 -0.1723
14413SOL    HW154893   8.981   0.113   5.978 -1.1386  1.1933 -0.7814
14413SOL    HW254894   9.078   0.040   5.869 -1.0906 -0.5813  0.4266
14414SOL     OW54895   0.952   1.068   5.423 -0.5910 -0.1249  0.1387
14414SOL    HW154896   1.015   1.027   5.488 -0.4287 -0.9934 -0.5557
14414SOL    HW254897   0.879   1.003   5.401 -0.1297 -0.2042 -1.2588
14415SOL     OW54898   8.656   4.809   3.020 -0.6880 -0.0089  0.7466
14415SOL    HW154899   8.578   4.811   2.958  1.1671  0.3997 -1.6367
14415SOL    HW254900   8.685   4.903   3.040 -0.3980 -0.1729  1.1069
14416SOL     OW54901   3.115   1.580   7.759 -0.1521 -0.5772 -1.0371
14416SOL    HW154902   3.214   1.595   7.758 -0.5932  2.5772 -0.9549
14416SOL    HW254903   3.094   1.505   7.821  1.9415  1.0065  1.7221
14417SOL     OW54904   9.289   5.246   4.778  0.1173 -0.2509  0.2677
14417SOL    HW154905   9.368   5.308   4.781 -0.6724  0.8226 -0.4591
14417SOL    HW254906   9.210   5.292   4.819 -0.7577 -0.3465 -1.2786
14418SOL     OW54907   0.610   6.362   6.769 -0.3256  0.3264 -0.0648
14418SOL    HW154908   0.545   6.438   6.761 -1.5314 -0.6622  0.1669
14418SOL    HW254909   0.696   6.397   6.807 -1.3256  1.3435  1.3569
14419SOL     OW54910   1.668   9.757   6.467 -0.1076 -0.3480 -0.4037
14419SOL    HW154911   1.609   9.701   6.409  0.1121 -0.7507 -0.2366
14419SOL    HW254912   1.764   9.740   6.444 -0.0140 -0.6504  0.2100
14420SOL     OW54913   0.621   8.251   0.821 -0.3586 -0.0730  0.1679
14420SOL    HW154914   0.651   8.211   0.907 -1.0621 -0.1143  0.4014
14420SOL    HW254915   0.699   8.261   0.759  1.0036  4.0148  2.3801
14421SOL     OW54916   7.375   0.258   6.721  0.5834  0.7392  0.2426
14421SOL    HW154917   7.335   0.188   6.781  2.0051  0.3848  0.8136
14421SOL    HW254918   7.368   0.228   6.626  0.8595 -0.0240  0.4562
14422SOL     OW54919   2.320   3.576   3.772  0.3807  0.3106 -0.2685
14422SOL    HW154920   2.263   3.610   3.697  1.1364  2.5366  0.1528
14422SOL    HW254921   2.416   3.591   3.751  0.5962  1.0932  1.2083
14423SOL     OW54922   8.770   2.584   3.686 -0.2357 -0.0971  0.4117
14423SOL    HW154923   8.701   2.558   3.754 -1.0265 -0.3596 -0.4852
14423SOL    HW254924   8.730   2.650   3.622  0.5953  0.3752  0.3723
14424SOL     OW54925   9.081   8.065   1.691 -0.0342  0.3679  0.4697
14424SOL    HW154926   8.986   8.038   1.705  0.0076 -0.2373 -0.3638
14424SOL    HW254927   9.115   8.111   1.773 -1.2287  1.1457  0.5483
14425SOL     OW54928   4.740   6.823   0.427 -0.5288 -0.2601 -0.0259
14425SOL    HW154929   4.686   6.742   0.403 -0.9624 -0.1632  0.6101
14425SOL    HW254930   4.819   6.830   0.365  0.4658 -2.1193  0.9896
14426SOL     OW54931   8.838   7.433   3.117 -0.4656 -0.2377 -0.5070
14426SOL    HW154932   8.765   7.416   3.052  0.9544 -2.3050 -1.6216
14426SOL    HW254933   8.918   7.468   3.068  0.5153 -1.5385  0.1265
14427SOL     OW54934   7.102   2.540   1.418 -0.1633 -0.1551 -0.7011
14427SOL    HW154935   7.176   2.530   1.352 -0.2469  0.4018 -0.8756
14427SOL    HW254936   7.016   2.552   1.370 -0.2195  0.2848 -0.4895
14428SOL     OW54937   0.658   1.871   4.819 -0.0043  0.7508 -0.2509
14428SOL    HW154938   0.581   1.849   4.759  1.1190  1.2989 -1.9261
14428SOL    HW254939   0.667   1.800   4.889  0.3150 -1.3680 -2.3749
14429SOL     OW54940   8.992   0.998   0.834  0.3211 -0.1000 -0.0298
14429SOL    HW154941   9.036   1.042   0.755 -1.5206  2.9942  0.5904
14429SOL    HW254942   8.898   0.974   0.810  0.7394 -2.0439  0.2497
14430SOL     OW54943   4.025   8.156   1.335 -0.3359 -0.4457 -0.7511
14430SOL    HW154944   3.996   8.108   1.253 -1.9408  0.5735 -0.7893
14430SOL    HW254945   4.061   8.090   1.401  0.2696 -1.3472 -1.9650
14431SOL     OW54946   3.118   4.382   7.227  0.7644 -0.2165 -0.1056
14431SOL    HW154947   3.033   4.330   7.216  1.1583 -0.5022 -1.9231
14431SOL    HW254948   3.192   4.319   7.252  0.7203 -0.1588  0.1729
14432SOL     OW54949   8.535   2.738   6.520 -0.0839  0.4092  0.0091
14432SOL    HW154950   8.460   2.802   6.533  1.7339  2.3403  1.4030
14432SOL    HW254951   8.590   2.733   6.604  2.7511  0.9500 -1.7215
14433SOL     OW54952   7.786   5.680   6.726  0.3682 -0.2437 -0.0923
14433SOL    HW154953   7.775   5.615   6.802 -0.9113 -1.5048 -1.3168
14433SOL    HW254954   7.698   5.722   6.705  1.1633  1.7819  0.5698
14434SOL     OW54955   7.380   0.693   6.766 -0.0744 -0.0052  0.2698
14434SOL    HW154956   7.349   0.766   6.828  0.5172 -1.0597  1.8374
14434SOL    HW254957   7.302   0.638   6.739 -0.0658 -0.7770  1.7400
14435SOL     OW54958   1.769   6.611   3.007 -0.1465 -0.1872 -0.4050
14435SOL    HW154959   1.817   6.685   2.960  1.1277 -0.8898 -0.2204
14435SOL    HW254960   1.778   6.526   2.955  0.1921 -0.6803  0.4479
14436SOL     OW54961   5.958   5.630   0.920  0.3088  0.2741 -0.3357
14436SOL    HW154962   5.902   5.547   0.920 -0.2030  0.6156  0.8123
14436SOL    HW254963   5.951   5.675   0.831 -1.0813  0.2108 -0.2612
14437SOL     OW54964   8.640   3.486   0.978 -0.0463 -0.1021  0.0471
14437SOL    HW154965   8.642   3.434   1.063  1.7905  0.5204  0.4050
14437SOL    HW254966   8.578   3.565   0.989  0.1960 -0.0153  0.8073
14438SOL     OW54967   8.424   2.282   6.540  0.2778 -0.7348  0.0566
14438SOL    HW154968   8.348   2.300   6.603  0.4727 -0.8412  0.3203
14438SOL    HW254969   8.415   2.189   6.504 -0.9923  0.0178 -1.6658
14439SOL     OW54970   9.590   7.950   2.322 -0.4266 -0.3441 -0.6353
14439SOL    HW154971   9.602   7.859   2.282 -0.9537 -0.1434 -1.2523
14439SOL    HW254972   9.501   7.956   2.366 -0.9471  0.3079 -1.7688
14440SOL     OW54973   1.792   9.503   9.755  0.0024  0.2605 -0.1470
14440SOL    HW154974   1.814   9.473   9.848  0.0031 -2.3334 -0.9410
14440SOL    HW254975   1.712   9.453   9.722 -1.1010  2.4474 -0.9205
14441SOL     OW54976   7.330   7.528   1.835 -0.0547  0.0628  0.1299
14441SOL    HW154977   7.425   7.552   1.814 -0.2980 -0.3779 -1.5357
14441SOL    HW254978   7.317   7.429   1.828 -0.7782  0.1794 -0.2464
14442SOL     OW54979   2.685   5.864   5.439 -0.0301 -0.5167 -0.0811
14442SOL    HW154980   2.660   5.789   5.502 -1.5851  1.5239  1.8145
14442SOL    HW254981   2.611   5.879   5.374  0.3798 -0.7690 -0.6078
14443SOL     OW54982   6.376   2.969   1.058 -0.5253 -0.2109 -0.2790
14443SOL    HW154983   6.472   2.956   1.034 -0.6029 -1.3694 -0.0125
14443SOL    HW254984   6.354   3.066   1.059  0.1132 -0.0229 -2.4126
14444SOL     OW54985   8.942   1.783   5.240  0.6309  0.0005 -0.2048
14444SOL    HW154986   8.942   1.737   5.329  1.3272  0.6639  0.1478
14444SOL    HW254987   9.024   1.839   5.231  1.1621 -0.9909 -1.7609
14445SOL     OW54988   3.623   6.171   1.540 -0.6791  0.1884 -0.2889
14445SOL    HW154989   3.541   6.129   1.502 -0.3548  0.3209 -1.1367
14445SOL    HW254990   3.669   6.226   1.470  0.5585 -0.5248 -0.0597
14446SOL     OW54991   0.058   9.722   2.950  0.2182 -0.4866  0.1120
14446SOL    HW154992   0.005   9.733   3.034  1.4256  0.3400  0.7800
14446SOL    HW254993   0.121   9.645   2.960  1.2654  0.3994  0.4577
14447SOL     OW54994   8.650   6.444   4.124  0.2027 -0.0572  0.0922
14447SOL    HW154995   8.631   6.441   4.222  1.9738  3.3142  0.6294
14447SOL    HW254996   8.565   6.451   4.073 -0.6321  0.4745  1.5386
14448SOL     OW54997   7.793   5.080   2.532  0.1887 -0.0900 -0.3309
14448SOL    HW154998   7.793   5.029   2.618 -1.4594  1.1470  0.4264
14448SOL    HW254999   7.739   5.163   2.542 -0.2355 -0.0446 -2.6452
14449SOL     OW55000   2.901   3.253   7.567  0.0428 -0.0789  0.1817
14449SOL    HW155001   2.893   3.212   7.659 -0.8916 -0.4658 -0.0742
14449SOL    HW255002   2.928   3.349   7.576 -1.9411  0.4392  0.9433
14450SOL     OW55003   3.191   7.799   5.061  1.1878  0.1542  0.5257
14450SOL    HW155004   3.198   7.786   5.160 -0.4471 -1.2125  0.4800
14450SOL    HW255005   3.181   7.710   5.016 -1.2222  0.9605 -0.6038
14451SOL     OW55006   6.346   9.817   4.346  0.3655 -0.5836 -0.0447
14451SOL    HW155007   6.433   9.768   4.355  0.1958 -0.7498  0.7027
14451SOL    HW255008   6.356   9.909   4.385  0.5829 -0.1316 -1.1350
14452SOL     OW55009   9.535   0.087   2.332  0.1693 -0.7222 -1.1341
14452SOL    HW155010   9.457   0.097   2.271  0.0463  1.5288 -0.6368
14452SOL    HW255011   9.619   0.077   2.278 -0.1490 -0.4516 -1.6780
14453SOL     OW55012   3.134   5.720   5.110 -0.0560 -0.1089 -0.1391
14453SOL    HW155013   3.234   5.721   5.104 -0.1205  1.8155 -1.4495
14453SOL    HW255014   3.106   5.756   5.199  0.4061  1.0844 -0.4602
14454SOL     OW55015   5.648   9.056   6.065 -0.5114 -0.4235 -0.3961
14454SOL    HW155016   5.676   9.152   6.067 -0.0388 -0.5462 -1.1536
14454SOL    HW255017   5.714   9.002   6.116 -1.8868 -0.0757  1.8318
14455SOL     OW55018   4.293   5.256   0.715  0.2224  0.3790  0.3936
14455SOL    HW155019   4.367   5.216   0.770  0.3093  1.5744  1.1843
14455SOL    HW255020   4.218   5.283   0.776 -0.5377 -0.1293 -0.3197
14456SOL     OW55021   8.249   0.884   1.729 -0.0973 -0.4121 -0.5894
14456SOL    HW155022   8.278   0.909   1.821 -0.7198  0.6787 -0.6785
14456SOL    HW255023   8.326   0.846   1.678  0.2354 -1.0532  0.3945
14457SOL     OW55024   4.538   1.644   4.425  0.1796 -0.1846  0.0204
14457SOL    HW155025   4.633   1.629   4.453  0.5630  0.9430 -0.6416
14457SOL    HW255026   4.533   1.725   4.367 -1.2197 -0.1366  0.1970
14458SOL     OW55027   0.610   8.570   0.561  0.1919  0.0903  0.2634
14458SOL    HW155028   0.621   8.471   0.556  0.1504  0.1228 -0.5400
14458SOL    HW255029   0.671   8.607   0.632  0.5442 -0.4527  0.2464
14459SOL     OW55030   5.500   3.512   1.608 -0.3613 -0.4473 -0.4158
14459SOL    HW155031   5.573   3.514   1.540  0.9060  1.1140  0.9396
14459SOL    HW255032   5.539   3.495   1.698 -1.6937  0.1888  0.2990
14460SOL     OW55033   4.438   9.576   1.617 -0.7674  0.1103  0.4980
14460SOL    HW155034   4.484   9.573   1.528 -1.5272 -2.9630  0.1210
14460SOL    HW255035   4.486   9.514   1.680 -3.7948 -2.5430  0.3301
14461SOL     OW55036   1.326   0.676   4.730 -0.4228  0.0263  0.7324
14461SOL    HW155037   1.300   0.660   4.825 -0.7393  0.6056  0.7507
14461SOL    HW255038   1.330   0.775   4.714  0.2785 -0.0656  0.3188
14462SOL     OW55039   7.775   3.663   5.477  0.1298 -0.0999  0.0915
14462SOL    HW155040   7.778   3.762   5.464 -2.2905  0.0823  0.6339
14462SOL    HW255041   7.700   3.624   5.423  0.8962 -1.6157  0.0725
14463SOL     OW55042   7.816   7.826   2.212 -0.3083 -0.1133  0.1943
14463SOL    HW155043   7.766   7.743   2.187 -1.3778  0.5151  0.1944
14463SOL    HW255044   7.751   7.901   2.225  0.6842  0.8181 -0.1896
14464SOL     OW55045   8.043   3.185   1.672  0.2313  0.4752 -0.1790
14464SOL    HW155046   7.995   3.273   1.672 -2.3604 -0.8801  0.9185
14464SOL    HW255047   8.036   3.143   1.582 -0.4145  0.4425 -0.1207
14465SOL     OW55048   9.100   1.638   2.239 -0.5955 -0.1573  0.0176
14465SOL    HW155049   9.194   1.673   2.243 -0.7192  0.2897 -0.7347
14465SOL    HW255050   9.061   1.636   2.331 -0.0072  0.1019  0.2769
14466SOL     OW55051   4.315   8.706   5.992 -0.1123  0.2022  0.0606
14466SOL    HW155052   4.275   8.673   6.078 -2.0094  0.2281 -0.7969
14466SOL    HW255053   4.415   8.701   5.999 -0.2424 -0.4147  2.0226
14467SOL     OW55054   9.870   2.415   5.776 -0.0532 -0.0684  0.4275
14467SOL    HW155055   9.805   2.484   5.745  1.0393  1.8213  2.2382
14467SOL    HW255056   9.833   2.367   5.855 -0.2276 -0.6393  0.0071
14468SOL     OW55057   2.969   1.382   1.682  0.1730 -0.5703  0.0205
14468SOL    HW155058   2.912   1.403   1.762 -0.2207  1.2218 -0.7154
14468SOL    HW255059   3.061   1.358   1.712  0.1928  0.6592  0.9991
14469SOL     OW55060   1.496   2.374   5.828 -0.7394  0.0133 -0.3795
14469SOL    HW155061   1.500   2.329   5.739 -3.3653 -1.3714  0.1558
14469SOL    HW255062   1.577   2.351   5.881 -0.9343 -2.2036 -1.0181
14470SOL     OW55063   7.279   7.646   3.854  0.0815 -0.4076 -0.1165
14470SOL    HW155064   7.351   7.708   3.822  1.5000 -2.6208 -1.3847
14470SOL    HW255065   7.316   7.587   3.927 -0.7330 -0.9037 -0.0999
14471SOL     OW55066   8.096   9.557   7.876 -0.1125 -0.0220 -0.0329
14471SOL    HW155067   8.126   9.520   7.788 -0.5378 -0.4209 -0.0094
14471SOL    HW255068   8.013   9.510   7.905 -0.9163  1.2690 -0.2146
14472SOL     OW55069   8.310   0.538   2.234  0.4715 -0.1991 -0.1874
14472SOL    HW155070   8.330   0.460   2.175 -2.4975 -1.5442  0.4441
14472SOL    HW255071   8.395   0.578   2.267  2.0922 -2.3044 -1.6548
14473SOL     OW55072   6.089   9.675   4.350 -0.2545  0.2974  0.4228
14473SOL    HW155073   6.081   9.579   4.378 -1.6459  0.3442  0.2163
14473SOL    HW255074   6.168   9.686   4.291 -0.2974 -0.7979  0.1556
14474SOL     OW55075   9.763   9.892   8.122  0.2014  0.1046 -0.2756
14474SOL    HW155076   9.694   9.954   8.159 -0.7034 -1.0914  0.0324
14474SOL    HW255077   9.835   9.946   8.077 -1.3815  1.3289 -1.3902
14475SOL     OW55078   8.001   7.667   6.170 -0.3598 -0.3517  0.1768
14475SOL    HW155079   7.939   7.609   6.223 -0.9493  1.8009  1.9342
14475SOL    HW255080   8.096   7.642   6.192 -0.5687 -1.8896 -0.5433
14476SOL     OW55081   2.394   0.377   6.804 -0.0148 -0.4150  0.0434
14476SOL    HW155082   2.344   0.413   6.725 -0.8621 -1.2124  0.2180
14476SOL    HW255083   2.397   0.278   6.800  0.7425 -0.4205  0.5362
14477SOL     OW55084   1.049   9.414   2.305 -0.2071  0.1539 -0.0187
14477SOL    HW155085   1.030   9.488   2.368 -0.6978  0.1340 -0.1366
14477SOL    HW255086   1.146   9.414   2.280 -0.2545  0.8954 -0.2015
14478SOL     OW55087   9.561   8.472   1.139 -0.2043 -0.1724  0.0092
14478SOL    HW155088   9.525   8.488   1.047  1.3582  2.4327 -0.1939
14478SOL    HW255089   9.659   8.453   1.134  0.0592  0.8029  1.1704
14479SOL     OW55090   7.530   6.264   2.261 -0.4222  0.0406 -0.0043
14479SOL    HW155091   7.545   6.202   2.337  1.4502  1.7295  1.0752
14479SOL    HW255092   7.533   6.213   2.175 -0.0035 -1.5016  0.9043
14480SOL     OW55093   9.582   6.769   2.394  0.0917  0.3558  0.1356
14480SOL    HW155094   9.482   6.771   2.404  0.1372 -0.4145  0.7945
14480SOL    HW255095   9.620   6.855   2.427 -0.3119  0.4571  0.3435
14481SOL     OW55096   0.159   5.458   0.589 -0.5861  0.3892 -0.5586
14481SOL    HW155097   0.147   5.405   0.505  0.4512 -1.5589  0.4767
14481SOL    HW255098   0.205   5.545   0.567 -0.7908  0.1402 -2.0604
14482SOL     OW55099   4.524   0.045   7.526 -0.4502 -0.3925  0.0273
14482SOL    HW155100   4.541  -0.032   7.588 -2.0248  0.9355  2.1663
14482SOL    HW255101   4.609   0.094   7.508  0.0334 -0.8721  1.0165
14483SOL     OW55102   9.540   9.790   0.466 -0.5571 -0.3701 -0.5331
14483SOL    HW155103   9.623   9.845   0.465 -0.3433 -0.6888  0.0404
14483SOL    HW255104   9.460   9.850   0.458 -0.5010  0.3176  3.2913
14484SOL     OW55105   3.663   8.860   0.009 -0.2579 -0.0831  0.0523
14484SOL    HW155106   3.670   8.869   0.108  1.0375  2.3929 -0.2101
14484SOL    HW255107   3.598   8.928  -0.026  0.5344  0.2029 -0.9154
14485SOL     OW55108   3.685   6.681   0.325  0.2578  0.5648  0.1137
14485SOL    HW155109   3.714   6.683   0.421  1.3395  0.8833 -0.2224
14485SOL    HW255110   3.765   6.677   0.266 -0.4295 -0.2661 -0.7670
14486SOL     OW55111   8.928   5.831   2.866  0.0959  0.4528  0.2800
14486SOL    HW155112   8.978   5.748   2.845 -1.4263 -0.6983  1.0678
14486SOL    HW255113   8.982   5.887   2.929  0.9737 -0.1031  0.0349
14487SOL     OW55114   7.134   0.560   3.742 -0.0336 -0.0032  0.3854
14487SOL    HW155115   7.156   0.632   3.676  0.3590  0.8121  1.3935
14487SOL    HW255116   7.167   0.586   3.832 -1.2715 -0.7627  1.0655
14488SOL     OW55117   0.355   4.581   4.054  0.2784  0.0472 -0.7848
14488SOL    HW155118   0.423   4.608   3.987  0.4194  0.6319 -0.4054
14488SOL    HW255119   0.288   4.520   4.011  0.0721  0.8315 -1.5782
14489SOL     OW55120   2.936   9.801   4.730  0.4484  0.1439  0.3024
14489SOL    HW155121   2.867   9.735   4.758  0.4446  0.2235  0.4806
14489SOL    HW255122   2.978   9.772   4.645  1.7901 -1.0862  1.3612
14490SOL     OW55123   9.095   9.403   3.939  0.1296  0.3733 -0.1003
14490SOL    HW155124   9.103   9.325   3.877  2.3990  0.3052  0.2263
14490SOL    HW255125   9.176   9.461   3.929  0.3413  0.5568  2.5501
14491SOL     OW55126   5.979   5.316   0.127  0.2712  0.3348  0.0353
14491SOL    HW155127   6.071   5.303   0.164 -0.4388 -0.5880  1.5543
14491SOL    HW255128   5.944   5.227   0.096 -0.5808  0.4649  0.6253
14492SOL     OW55129   9.853   6.137   2.072 -0.0534  0.0721  0.1456
14492SOL    HW155130   9.833   6.211   2.137  0.5062 -1.0840  1.6779
14492SOL    HW255131   9.952   6.127   2.064 -0.0896 -2.1601  1.9244
14493SOL     OW55132   4.203   9.542   1.762 -0.5621  0.2615  0.1557
14493SOL    HW155133   4.137   9.617   1.751 -0.4617  0.2621 -0.4844
14493SOL    HW255134   4.291   9.570   1.723  0.0688  0.5781  1.7506
14494SOL     OW55135   8.440   3.685   1.308 -0.6063 -0.0762  0.2338
14494SOL    HW155136   8.531   3.711   1.339 -0.0686 -0.9984 -0.5486
14494SOL    HW255137   8.437   3.682   1.208 -0.6953 -2.7181  0.2654
14495SOL     OW55138   3.274   6.531   5.831  0.0307  0.1329 -0.7454
14495SOL    HW155139   3.184   6.498   5.801 -1.0800  2.2447  0.0835
14495SOL    HW255140   3.322   6.458   5.879 -2.6747 -0.1000  1.7839
14496SOL     OW55141   1.681   9.567   4.664  0.2345  0.1673 -0.2680
14496SOL    HW155142   1.669   9.638   4.595  0.3473 -0.6139 -1.0964
14496SOL    HW255143   1.777   9.559   4.688  0.1323  0.8115  0.3903
14497SOL     OW55144   9.116   3.187   0.637 -0.1161 -0.5942  0.1130
14497SOL    HW155145   9.192   3.245   0.667 -0.7805  0.4212 -0.1464
14497SOL    HW255146   9.105   3.111   0.701  0.1562  0.0982  0.9927
14498SOL     OW55147   7.086   0.160   7.591 -0.4962  0.3455 -0.0581
14498SOL    HW155148   7.124   0.207   7.511 -0.7358  0.9057  0.1537
14498SOL    HW255149   7.160   0.123   7.646 -0.2263  1.6746  0.4993
14499SOL     OW55150   5.918   7.714   5.558  0.5602 -0.3617 -0.2730
14499SOL    HW155151   5.988   7.784   5.544  0.7504 -0.5236 -0.1311
14499SOL    HW255152   5.933   7.639   5.494  0.9345 -0.7190  0.2307
14500SOL     OW55153   1.283   4.311   3.519  0.2131  0.3584 -0.3293
14500SOL    HW155154   1.278   4.356   3.608 -0.8614  0.1421 -0.2671
14500SOL    HW255155   1.373   4.269   3.507  0.0931 -0.2736  0.9795
14501SOL     OW55156   1.533   4.563   2.605  0.3786 -0.2311 -0.3750
14501SOL    HW155157   1.538   4.472   2.563 -0.9253  0.4884 -2.1377
14501SOL    HW255158   1.624   4.604   2.606  1.2422 -2.0689  1.6728
14502SOL     OW55159   8.205   5.880   4.980  0.5642 -0.2895 -0.5619
14502SOL    HW155160   8.216   5.792   4.934  0.9291 -0.0169 -1.0027
14502SOL    HW255161   8.254   5.950   4.928 -0.0876  0.2489 -0.4466
14503SOL     OW55162   1.604   5.210   1.371  0.7137 -0.6125 -0.6591
14503SOL    HW155163   1.537   5.256   1.430 -1.1017 -2.0162 -1.5446
14503SOL    HW255164   1.674   5.166   1.427 -0.9401 -1.8618  0.4793
14504SOL     OW55165   6.008   0.890   5.464  0.0624 -0.3835 -0.4133
14504SOL    HW155166   6.038   0.977   5.424  0.9527 -1.1310 -1.4000
14504SOL    HW255167   5.914   0.872   5.436  0.7126 -0.9562 -2.3292
14505SOL     OW55168   9.526   3.942   0.398 -0.4622 -0.5761 -0.4472
14505SOL    HW155169   9.484   3.958   0.488  1.0100 -2.1286  0.5575
14505SOL    HW255170   9.456   3.952   0.327 -2.3957 -2.2584  1.1071
14506SOL     OW55171   3.381   4.685   0.012  0.0960 -0.1548 -0.1376
14506SOL    HW155172   3.348   4.702  -0.081 -1.0117  0.7890  0.4114
14506SOL    HW255173   3.334   4.747   0.076  0.9363 -0.7045  1.0300
14507SOL     OW55174   1.400   0.772   0.375  0.5594  0.3431 -0.3622
14507SOL    HW155175   1.341   0.717   0.434 -0.9276  2.4093  0.0987
14507SOL    HW255176   1.473   0.714   0.338 -1.3194 -2.0749 -0.3634
14508SOL     OW55177   8.194   1.988   7.263  0.0469  0.3446  0.2461
14508SOL    HW155178   8.168   2.009   7.169 -0.9090 -1.4097  0.1093
14508SOL    HW255179   8.246   2.065   7.301 -1.2308  1.8751 -1.0568
14509SOL     OW55180   7.313   2.892   4.081  1.0288 -0.1563  0.4640
14509SOL    HW155181   7.234   2.951   4.095  2.6247  1.9415  0.7889
14509SOL    HW255182   7.282   2.797   4.073 -1.5533  0.6820  0.0262
14510SOL     OW55183   8.653   7.785   7.904  0.4879  0.7262  0.4381
14510SOL    HW155184   8.723   7.751   7.841  0.6672  0.4518  0.7844
14510SOL    HW255185   8.597   7.854   7.858 -0.1695 -0.3611 -0.4051
14511SOL     OW55186   7.896   3.250   4.340  0.2824  0.0031  0.0289
14511SOL    HW155187   7.866   3.266   4.246 -0.0271 -2.4755 -0.3234
14511SOL    HW255188   7.943   3.332   4.375 -1.2483  1.6197 -1.6043
14512SOL     OW55189   0.304   7.807   6.095 -0.6757 -0.2189  0.4531
14512SOL    HW155190   0.331   7.900   6.121 -0.9079  0.1715 -0.6734
14512SOL    HW255191   0.354   7.741   6.152  0.1405  0.5699  0.6740
14513SOL     OW55192   6.133   5.235   1.784 -0.8855  0.5615  0.5781
14513SOL    HW155193   6.160   5.141   1.802 -1.3917  0.5410  1.2385
14513SOL    HW255194   6.036   5.239   1.760 -0.2603  0.6051 -2.0673
14514SOL     OW55195   6.814   0.848   3.233  0.1982  0.3659 -0.2074
14514SOL    HW155196   6.899   0.826   3.185 -0.1538 -0.4510 -0.4631
14514SOL    HW255197   6.835   0.875   3.327  0.8781  1.8177 -0.7600
14515SOL     OW55198   2.836   8.507   7.786 -0.0402  0.3873  0.1912
14515SOL    HW155199   2.828   8.480   7.690  1.1127 -0.7675  0.4161
14515SOL    HW255200   2.765   8.462   7.839  0.1883 -0.0735  0.1096
14516SOL     OW55201   5.360   3.319   1.485  0.3687  0.3152 -0.4682
14516SOL    HW155202   5.427   3.250   1.458  1.1000  0.1401  1.7022
14516SOL    HW255203   5.405   3.392   1.537 -0.9426  0.7206  0.1412
14517SOL     OW55204   4.610   3.330   6.850  0.1149 -0.3946  0.5108
14517SOL    HW155205   4.560   3.265   6.908 -1.3568 -0.0732 -0.3630
14517SOL    HW255206   4.589   3.312   6.754  1.7588 -0.2858  0.1174
14518SOL     OW55207   4.181   9.305   3.932  0.1170 -0.0687  0.3398
14518SOL    HW155208   4.224   9.374   3.875  1.7897  0.3135  2.0215
14518SOL    HW255209   4.104   9.346   3.981 -0.5350 -0.0847 -0.6556
14519SOL     OW55210   5.881   0.250   6.284  0.7319  0.0709 -0.2844
14519SOL    HW155211   5.911   0.310   6.358 -1.9806  2.6699 -1.1885
14519SOL    HW255212   5.805   0.193   6.315  0.0888  0.6216 -0.8345
14520SOL     OW55213   3.274   0.180   5.287  0.1188 -0.2765  0.7774
14520SOL    HW155214   3.174   0.176   5.294 -0.1986 -1.8815 -3.2666
14520SOL    HW255215   3.315   0.118   5.354 -1.7452 -1.8796  0.4710
14521SOL     OW55216   0.866   2.988   7.070 -0.5756 -0.0270  0.2689
14521SOL    HW155217   0.877   3.087   7.061 -1.1420 -0.0575 -0.9464
14521SOL    HW255218   0.778   2.961   7.030  1.3156 -1.4987 -3.1256
14522SOL     OW55219   2.388   6.988   1.157  0.2058 -0.3459  0.0151
14522SOL    HW155220   2.417   6.985   1.252  4.0484 -0.4084 -1.0763
14522SOL    HW255221   2.318   6.917   1.141  1.2417 -1.9295  2.2344
14523SOL     OW55222   0.238   3.164   1.404  0.1325  0.2505  0.3392
14523SOL    HW155223   0.178   3.085   1.419 -0.0511  0.7940  2.6216
14523SOL    HW255224   0.185   3.239   1.364 -0.1249 -0.1232 -0.0272
14524SOL     OW55225   1.216   8.725   2.825  0.1296 -0.2639  0.1217
14524SOL    HW155226   1.173   8.814   2.812 -0.4525 -0.5624 -0.0248
14524SOL    HW255227   1.313   8.738   2.848 -0.4093  0.4715  2.0697
14525SOL     OW55228   2.017   4.783   5.865  0.1629  0.2123 -0.3499
14525SOL    HW155229   1.943   4.825   5.918  1.5650  0.9582  1.0899
14525SOL    HW255230   2.037   4.692   5.902  0.6824  0.4555 -0.0199
14526SOL     OW55231   2.042   5.597   0.487 -0.2026 -0.1132 -0.7427
14526SOL    HW155232   1.987   5.590   0.571  3.7747  1.5113  2.1571
14526SOL    HW255233   1.991   5.649   0.418 -3.2976 -0.8774  0.8971
14527SOL     OW55234   0.456   0.094   1.757  0.1376  0.2172 -0.5357
14527SOL    HW155235   0.408   0.024   1.704 -1.3696  0.1211  0.9431
14527SOL    HW255236   0.416   0.184   1.739  0.5505  0.3779 -0.6533
14528SOL     OW55237   0.718   6.921   4.652  0.4235 -0.5254 -0.1205
14528SOL    HW155238   0.796   6.970   4.612 -1.2812  1.8149 -0.6889
14528SOL    HW255239   0.734   6.907   4.749  1.6118 -0.1614 -0.2566
14529SOL     OW55240   9.083   1.227   6.216  0.4772 -0.0925  0.0073
14529SOL    HW155241   9.129   1.260   6.298  0.6069 -0.6224  0.1459
14529SOL    HW255242   8.985   1.215   6.234  0.2909  0.9413 -0.2604
14530SOL     OW55243   8.712   0.199   7.272 -0.1235  0.3750 -0.7469
14530SOL    HW155244   8.715   0.108   7.230  0.9967 -0.3837  0.9208
14530SOL    HW255245   8.785   0.256   7.235  0.4970 -0.0972 -0.2483
14531SOL     OW55246   1.688   2.462   1.896  0.8424 -0.8108  0.4845
14531SOL    HW155247   1.620   2.396   1.863  0.6729 -0.4482  0.0993
14531SOL    HW255248   1.687   2.464   1.996 -0.7518  0.2467  0.4724
14532SOL     OW55249   7.658   2.471   3.649 -0.2181  0.7751  1.0120
14532SOL    HW155250   7.605   2.556   3.661 -0.1500  0.8990  0.4257
14532SOL    HW255251   7.654   2.418   3.734 -0.2842  1.3527  1.3784
14533SOL     OW55252   0.492   0.958   2.982 -0.2508 -0.0457  0.3228
14533SOL    HW155253   0.401   0.942   2.943  0.4560 -1.0986 -0.9169
14533SOL    HW255254   0.494   1.048   3.025 -1.4850  0.5262 -0.7879
14534SOL     OW55255   2.355   2.377   2.490  0.2933  0.2799  0.5533
14534SOL    HW155256   2.407   2.317   2.430  0.6102  0.2732  0.8353
14534SOL    HW255257   2.387   2.471   2.479 -0.5185  0.4695 -0.2315
14535SOL     OW55258   0.842   4.074   5.242  0.0531 -0.0972 -0.3834
14535SOL    HW155259   0.761   4.015   5.246 -0.6846  0.9776  0.9539
14535SOL    HW255260   0.910   4.033   5.181 -1.2186 -1.3541 -0.9893
14536SOL     OW55261   1.961   3.693   0.758  0.3179 -0.9044 -0.0562
14536SOL    HW155262   2.061   3.692   0.769  0.2392  1.1194  0.9946
14536SOL    HW255263   1.920   3.631   0.825  0.6384  1.5876  2.5294
14537SOL     OW55264   2.569   5.867   0.026  0.6117  0.4525  0.1845
14537SOL    HW155265   2.512   5.942  -0.010 -0.3154  0.2680  1.2283
14537SOL    HW255266   2.664   5.880  -0.002  0.0847  0.8819 -1.4212
14538SOL     OW55267   9.598   1.826   2.081  0.2108  0.3399 -0.7127
14538SOL    HW155268   9.589   1.835   1.982 -1.6620 -2.9987 -0.9227
14538SOL    HW255269   9.620   1.915   2.121  1.4689  1.6457 -4.1502
14539SOL     OW55270   5.889   0.509   7.300 -0.1777  0.0299 -0.4078
14539SOL    HW155271   5.832   0.533   7.221 -0.2817  0.4341 -0.2093
14539SOL    HW255272   5.979   0.553   7.291 -0.9155  1.8250  0.7513
14540SOL     OW55273   5.231   9.964   4.280  0.1262 -0.0053 -0.1068
14540SOL    HW155274   5.185  10.005   4.201 -1.3061 -0.1190  0.6519
14540SOL    HW255275   5.217   9.865   4.279 -1.6098  0.1983  1.3573
14541SOL     OW55276   9.771   5.022   3.064  0.0119  0.5264 -0.1909
14541SOL    HW155277   9.803   5.028   3.158 -0.3946  0.4840 -0.0479
14541SOL    HW255278   9.813   5.095   3.010  0.4435  0.3923 -0.0393
14542SOL     OW55279   1.926   6.517   2.247 -0.4011  0.2561  0.9001
14542SOL    HW155280   1.885   6.607   2.231 -3.0721 -1.0231  0.3213
14542SOL    HW255281   1.880   6.473   2.324  1.4745 -0.2899  1.7292
14543SOL     OW55282   1.289   7.082   5.626  0.5751 -0.3063 -0.1892
14543SOL    HW155283   1.291   7.035   5.538 -0.3329 -2.5184  0.9291
14543SOL    HW255284   1.374   7.063   5.676 -0.6429 -2.5177  1.1172
14544SOL     OW55285   8.067   5.757   3.445  0.4942 -0.1523  0.5565
14544SOL    HW155286   8.113   5.735   3.359  0.8138 -2.4182  1.2832
14544SOL    HW255287   7.969   5.769   3.429  0.6978  0.4397 -0.2740
14545SOL     OW55288   0.862   9.715   9.888  0.0798  0.4965 -0.5182
14545SOL    HW155289   0.900   9.629   9.855  0.3372  1.0052 -1.5898
14545SOL    HW255290   0.907   9.742   9.973  0.4059 -0.1296 -0.4940
14546SOL     OW55291   4.386   0.605   6.922 -0.6597  0.2061 -0.2574
14546SOL    HW155292   4.380   0.616   7.021  0.9936 -1.0967  0.0185
14546SOL    HW255293   4.357   0.689   6.877 -1.4659  0.7896  1.3268
14547SOL     OW55294   4.936   9.825   2.748  0.5058 -0.7407  0.2413
14547SOL    HW155295   4.945   9.877   2.664 -0.6129 -1.5976 -0.4299
14547SOL    HW255296   4.979   9.736   2.737 -0.0911 -1.0526  0.3854
14548SOL     OW55297   1.300   7.618   0.889  0.8780  0.0854 -0.0139
14548SOL    HW155298   1.231   7.668   0.942 -0.5674 -0.5105 -1.2900
14548SOL    HW255299   1.345   7.552   0.948 -0.0587  0.0747  0.7063
14549SOL     OW55300   5.479   8.897   2.412 -0.2263  0.3193 -0.1084
14549SOL    HW155301   5.420   8.873   2.489  0.1230  1.8445  0.6523
14549SOL    HW255302   5.508   8.814   2.365 -2.5006 -0.4793 -0.1386
14550SOL     OW55303   4.542   2.177   7.242 -0.4546  0.0818  0.3276
14550SOL    HW155304   4.583   2.264   7.267  1.6859 -0.2485 -1.8484
14550SOL    HW255305   4.445   2.178   7.264 -0.4507  2.9922  0.3798
14551SOL     OW55306   8.375   7.270   4.561 -0.9855 -0.2671  0.7096
14551SOL    HW155307   8.471   7.280   4.534 -1.1707 -1.3652 -0.3593
14551SOL    HW255308   8.369   7.268   4.661  0.0065  0.7199  0.8000
14552SOL     OW55309   0.321   6.128   6.504 -0.0889  0.4689  0.2915
14552SOL    HW155310   0.280   6.185   6.574  1.8678  0.4829  1.4638
14552SOL    HW255311   0.406   6.087   6.539 -0.3257 -1.4244 -1.2516
14553SOL     OW55312   9.728   5.808   3.370  0.2421  0.0432 -0.3155
14553SOL    HW155313   9.704   5.711   3.373 -0.3847  0.2004  0.0163
14553SOL    HW255314   9.697   5.852   3.455 -0.6856  0.7986 -1.0286
14554SOL     OW55315   3.093   4.079   6.986 -0.5338  0.3413 -0.1609
14554SOL    HW155316   3.032   4.129   7.049 -2.4982  0.9012 -2.4139
14554SOL    HW255317   3.041   4.006   6.941  1.0255 -0.5040 -0.6149
14555SOL     OW55318   9.599   5.363   0.664  0.0683 -0.1243 -0.1368
14555SOL    HW155319   9.686   5.358   0.614 -0.8237 -0.5134 -1.6885
14555SOL    HW255320   9.610   5.321   0.754  1.2607 -0.9203 -0.6392
14556SOL     OW55321   5.858   0.008   1.650  0.2885 -0.3993 -0.0164
14556SOL    HW155322   5.931   0.057   1.697 -0.4718 -0.3286  1.1094
14556SOL    HW255323   5.803  -0.043   1.717 -1.6121  0.7650 -0.6370
14557SOL     OW55324   2.499   5.286   7.044  0.1972  0.1956 -0.7553
14557SOL    HW155325   2.442   5.206   7.024 -2.2693  1.6629  0.1706
14557SOL    HW255326   2.521   5.288   7.141  2.8322 -0.9519 -1.2832
14558SOL     OW55327   0.518   4.895   3.196  0.3346 -0.3315 -0.2402
14558SOL    HW155328   0.483   4.819   3.143 -1.7743  1.0477 -0.8997
14558SOL    HW255329   0.446   4.963   3.210  1.8703  1.0949  1.1831
14559SOL     OW55330   8.426   6.285   6.908 -0.0434 -0.4368  0.0972
14559SOL    HW155331   8.485   6.218   6.864 -0.7354 -0.8386 -0.2206
14559SOL    HW255332   8.355   6.238   6.960  0.2594  0.0412  0.9577
14560SOL     OW55333   1.954   9.704   9.863 -0.3380 -0.3438 -0.3586
14560SOL    HW155334   1.957   9.781   9.798  1.9376 -0.6737 -0.6821
14560SOL    HW255335   1.937   9.620   9.812  0.2030 -0.4400 -0.3821
14561SOL     OW55336   7.460   9.421   1.262  0.0944  0.3647 -0.1037
14561SOL    HW155337   7.392   9.352   1.238  0.9058 -1.8604  3.5674
14561SOL    HW255338   7.422   9.512   1.245 -3.1088 -0.8508  0.1049
14562SOL     OW55339   1.649   4.759   6.083  0.7328 -0.3556 -0.3645
14562SOL    HW155340   1.636   4.797   5.991 -0.8201  1.1449  0.4581
14562SOL    HW255341   1.697   4.671   6.075  1.1178  0.0029 -2.5590
14563SOL     OW55342   3.273   7.024   4.198 -0.6555  0.2411 -0.1327
14563SOL    HW155343   3.300   6.963   4.123  1.7847  0.9998  0.0651
14563SOL    HW255344   3.177   7.008   4.222 -1.4192 -0.1513 -3.2768
14564SOL     OW55345   3.248   0.285   3.869 -1.3110  0.1409  0.0960
14564SOL    HW155346   3.188   0.236   3.932 -1.2276 -1.3226 -0.9155
14564SOL    HW255347   3.342   0.280   3.902 -1.4717  0.6618  0.6275
14565SOL     OW55348   1.202   2.030   4.765  0.1467 -0.0925  0.7799
14565SOL    HW155349   1.131   1.993   4.705 -0.9660  0.2635  1.8450
14565SOL    HW255350   1.291   2.022   4.721 -0.7301  0.7845 -1.1879
14566SOL     OW55351   8.545   6.115   0.987 -0.4432 -0.3520  0.0201
14566SOL    HW155352   8.500   6.135   1.074 -1.6240  0.7444 -0.8283
14566SOL    HW255353   8.537   6.194   0.926 -1.2510 -1.7692 -1.7601
14567SOL     OW55354   6.182   0.797   1.657  0.6306  0.4459  0.3267
14567SOL    HW155355   6.275   0.824   1.681  1.2217 -1.2729  0.0114
14567SOL    HW255356   6.162   0.824   1.562  1.4877 -0.8884 -0.2416
14568SOL     OW55357   8.528   6.014   1.723 -0.7916  0.2993 -0.1523
14568SOL    HW155358   8.551   5.916   1.722  0.2936  0.5322  0.5289
14568SOL    HW255359   8.442   6.028   1.771 -0.8705 -0.3125 -0.1146
14569SOL     OW55360   5.449   9.645   1.783  0.1296  0.3098 -0.0593
14569SOL    HW155361   5.479   9.647   1.688  1.7353 -1.7709  0.3758
14569SOL    HW255362   5.504   9.579   1.835 -0.8271  1.2773  2.2828
14570SOL     OW55363   9.594   2.498   3.382  0.3692  0.2190  0.4128
14570SOL    HW155364   9.502   2.481   3.418  0.3040  0.8169  0.5300
14570SOL    HW255365   9.653   2.530   3.455  1.0307 -1.4601  0.6205
14571SOL     OW55366   2.646   4.441   7.167 -0.3544  0.2528  0.1625
14571SOL    HW155367   2.662   4.379   7.244  3.9095 -0.0162 -0.8663
14571SOL    HW255368   2.695   4.527   7.183  1.1506 -0.0549 -2.5090
14572SOL     OW55369   7.771   6.753   6.105  0.1675 -0.2340 -0.6433
14572SOL    HW155370   7.866   6.724   6.113  0.3977 -0.2594 -3.2257
14572SOL    HW255371   7.724   6.737   6.192  3.3147  2.7989  1.7249
14573SOL     OW55372   2.443   9.762   4.293  0.0824 -0.4817  0.8332
14573SOL    HW155373   2.425   9.799   4.202 -1.4171  0.0747  1.3442
14573SOL    HW255374   2.357   9.735   4.336  0.6004  0.6483  2.6712
14574SOL     OW55375   1.558   6.214   4.981 -0.2418 -0.1255  0.1421
14574SOL    HW155376   1.488   6.200   4.911  0.0848  1.0348 -0.4242
14574SOL    HW255377   1.523   6.185   5.070 -1.7441  1.2482  0.0163
14575SOL     OW55378   0.080   9.488   0.788 -0.0506 -0.3212  0.0322
14575SOL    HW155379   0.120   9.426   0.721  0.2523 -2.1267  1.8372
14575SOL    HW255380   0.131   9.483   0.873 -2.1094 -0.1509  1.3086
14576SOL     OW55381   8.976   0.854   7.789  0.5113 -0.4365 -0.3247
14576SOL    HW155382   8.985   0.926   7.857 -1.2107 -1.0590  0.5772
14576SOL    HW255383   9.003   0.890   7.699  1.5357  0.7488  0.4397
14577SOL     OW55384   8.259   4.908   3.701 -0.7887  0.1453 -0.1642
14577SOL    HW155385   8.163   4.894   3.722 -0.7709 -0.6388 -0.5408
14577SOL    HW255386   8.305   4.819   3.695 -0.0397  0.5129  0.0360
14578SOL     OW55387   7.620   1.773   6.556  0.2079  0.6199  0.0261
14578SOL    HW155388   7.636   1.816   6.645 -2.4645  0.6677  0.5158
14578SOL    HW255389   7.522   1.762   6.542  0.5640  1.2753 -3.2399
14579SOL     OW55390   8.758   5.226   0.662 -0.1932  0.1813  0.4889
14579SOL    HW155391   8.729   5.209   0.568  0.4067 -0.2178  0.3794
14579SOL    HW255392   8.692   5.184   0.725 -0.1236 -0.2867  0.2446
14580SOL     OW55393   6.649   1.096   2.142 -0.5328 -0.0237 -0.9277
14580SOL    HW155394   6.724   1.067   2.202 -0.8948 -0.1051 -0.5191
14580SOL    HW255395   6.687   1.124   2.054 -0.1699 -1.5965 -1.2812
14581SOL     OW55396   5.603   4.881   1.826 -0.4298  0.2588  0.1425
14581SOL    HW155397   5.672   4.944   1.863 -0.2433  0.0849  0.0882
14581SOL    HW255398   5.528   4.873   1.890 -0.4507  0.5347  0.1538
14582SOL     OW55399   4.556   3.943   4.816  0.1104 -0.5239 -0.0184
14582SOL    HW155400   4.498   3.927   4.896  0.1236  0.9408  0.2908
14582SOL    HW255401   4.499   3.972   4.739  0.1131 -1.8022 -0.5248
14583SOL     OW55402   1.904   8.534   6.964  0.3330 -0.5492 -0.3289
14583SOL    HW155403   1.812   8.572   6.964  0.5814  0.2120  3.4102
14583SOL    HW255404   1.972   8.607   6.959  0.7644 -0.5583  3.8069
14584SOL     OW55405   8.259   0.225   4.814 -0.2242 -0.1393 -0.1090
14584SOL    HW155406   8.291   0.295   4.750 -0.0345 -0.6506 -0.5780
14584SOL    HW255407   8.321   0.146   4.810 -1.5732 -1.1682 -1.0656
14585SOL     OW55408   1.608   0.957   4.578 -0.2752  0.3346 -0.6530
14585SOL    HW155409   1.676   1.011   4.628 -1.1150  0.0729  0.8008
14585SOL    HW255410   1.650   0.872   4.547 -0.3795 -0.6227  1.7574
14586SOL     OW55411   9.000   1.946   3.218 -0.6354  1.0745  0.6381
14586SOL    HW155412   9.064   1.873   3.240  0.3234  1.0740 -1.9051
14586SOL    HW255413   8.943   1.917   3.141 -1.8317  2.1157  1.1193
14587SOL     OW55414   8.624   7.822   7.148 -0.3218  0.2611 -0.1037
14587SOL    HW155415   8.541   7.856   7.103  0.2511  0.8854 -0.7155
14587SOL    HW255416   8.669   7.898   7.195 -0.1953 -0.1112  0.3720
14588SOL     OW55417   5.390   8.787   3.111 -0.0041 -0.1247  0.4534
14588SOL    HW155418   5.414   8.876   3.149 -0.4168  0.2540 -0.1659
14588SOL    HW255419   5.326   8.799   3.035  2.6630 -0.6707 -1.9612
14589SOL     OW55420   8.422   5.985   5.411 -0.1588  0.4133  0.3149
14589SOL    HW155421   8.348   5.987   5.344 -0.2693  1.2329  0.4582
14589SOL    HW255422   8.507   6.015   5.369  0.2971 -1.3728 -0.0853
14590SOL     OW55423   1.734   1.553   7.160  0.4148  0.0146  0.6573
14590SOL    HW155424   1.727   1.602   7.073  2.3926 -0.3226  0.2733
14590SOL    HW255425   1.648   1.562   7.211 -0.4236  1.0223 -0.8984
14591SOL     OW55426   3.472   2.532   4.044  0.2464 -0.1596  0.1614
14591SOL    HW155427   3.486   2.609   3.981 -1.1131  0.1048  0.1756
14591SOL    HW255428   3.503   2.448   4.000  0.1930  0.1574 -0.4973
14592SOL     OW55429   2.924   9.980   1.702  0.4572 -0.2544 -0.0899
14592SOL    HW155430   2.908  10.037   1.783  0.7805 -1.1305  0.5999
14592SOL    HW255431   3.014  10.003   1.663 -0.7346  1.9073 -1.6710
14593SOL     OW55432   7.028   7.626   3.779 -0.0707  0.3405 -0.5660
14593SOL    HW155433   7.125   7.636   3.802  0.2580  0.8555 -2.0919
14593SOL    HW255434   6.989   7.550   3.830  1.4994 -0.7617 -0.9837
14594SOL     OW55435   3.517   4.760   2.425 -0.1333  0.0275  0.2669
14594SOL    HW155436   3.425   4.753   2.387  0.5361 -0.8715 -1.2556
14594SOL    HW255437   3.579   4.796   2.354  0.6859  0.5996  1.2653
14595SOL     OW55438   1.868   1.558   1.068 -0.1157  0.1739 -0.2633
14595SOL    HW155439   1.905   1.628   1.129 -1.0461 -0.0000  0.5166
14595SOL    HW255440   1.850   1.598   0.978  0.6919  0.5879 -0.2424
14596SOL     OW55441   8.008   3.062   3.630  0.6613 -0.2809  0.1538
14596SOL    HW155442   7.951   3.018   3.699  1.2444 -0.0003  0.8256
14596SOL    HW255443   8.092   3.010   3.618  1.6406  0.9585  1.4089
14597SOL     OW55444   4.198   8.908   2.237 -0.2958 -0.3629 -0.4189
14597SOL    HW155445   4.260   8.899   2.315  0.9375  0.8074 -1.2347
14597SOL    HW255446   4.231   8.851   2.162 -0.5335 -0.1975 -0.6475
14598SOL     OW55447   1.808   4.608   7.143 -0.6462  0.2086  0.2794
14598SOL    HW155448   1.753   4.621   7.225  0.1364 -0.8712  0.9997
14598SOL    HW255449   1.873   4.683   7.134  2.0691 -1.6929  2.9535
14599SOL     OW55450   0.825   0.694   2.669  0.4358 -0.0424  0.0259
14599SOL    HW155451   0.914   0.699   2.624  0.5979  0.0527  0.3533
14599SOL    HW255452   0.834   0.646   2.756  0.7172  2.3334  1.3620
14600SOL     OW55453   4.635   2.683   7.458  0.4706 -0.1748 -0.3924
14600SOL    HW155454   4.625   2.708   7.362 -2.5488 -2.2534 -0.6804
14600SOL    HW255455   4.659   2.764   7.512 -0.2638  1.4936 -2.5309
14601SOL     OW55456   7.291   1.554   4.060 -0.6877 -0.3102  0.2019
14601SOL    HW155457   7.199   1.593   4.065 -0.2167  0.8552  0.0881
14601SOL    HW255458   7.287   1.456   4.076 -1.8093 -0.0758  1.4681
14602SOL     OW55459   6.596   7.096   7.156 -0.1526  0.1048 -0.1834
14602SOL    HW155460   6.499   7.077   7.139 -0.2499  0.3037  0.1482
14602SOL    HW255461   6.612   7.103   7.254  0.3935 -0.9344 -0.1971
14603SOL     OW55462   4.015   8.159   1.029  0.2816 -0.2881  0.2459
14603SOL    HW155463   3.932   8.171   0.974 -0.3423 -0.9464  1.0364
14603SOL    HW255464   4.075   8.238   1.016  0.5219 -0.7989 -2.0229
14604SOL     OW55465   7.205   0.706   5.494  0.0057  0.4164 -0.0956
14604SOL    HW155466   7.125   0.650   5.471  0.5511  0.0462 -1.1305
14604SOL    HW255467   7.221   0.773   5.422  1.0008  0.0661 -0.2119
14605SOL     OW55468   3.795   1.850   7.715 -0.4657  0.3301  0.2598
14605SOL    HW155469   3.884   1.839   7.759  0.1589  0.2187 -1.0257
14605SOL    HW255470   3.724   1.858   7.785  0.3005 -1.5957  1.2938
14606SOL     OW55471   4.300   8.817   5.196  0.2017  0.5323 -0.3719
14606SOL    HW155472   4.356   8.743   5.158  0.4835  0.1761  0.7367
14606SOL    HW255473   4.203   8.790   5.193  0.0983  0.9869 -1.9139
14607SOL     OW55474   3.162   1.084   2.022 -0.1658 -0.5810 -0.6916
14607SOL    HW155475   3.163   1.051   2.117  1.1661  0.0827 -0.4601
14607SOL    HW255476   3.249   1.061   1.978 -0.4435 -0.1329 -1.4883
14608SOL     OW55477   3.250   0.966   7.652 -0.1899  0.3135  0.2715
14608SOL    HW155478   3.162   0.953   7.697  0.5262  1.5121  2.0787
14608SOL    HW255479   3.238   0.960   7.553 -1.7152 -2.7908  0.5943
14609SOL     OW55480   1.892   7.856   3.903  0.0829  0.4577  0.0808
14609SOL    HW155481   1.941   7.898   3.980 -0.5326  0.3963  0.5070
14609SOL    HW255482   1.793   7.866   3.917 -0.0294  0.4129 -0.6837
14610SOL     OW55483   6.130   7.828   7.403  0.7743 -0.3020  0.1069
14610SOL    HW155484   6.115   7.917   7.360  0.1093 -1.0624 -1.2333
14610SOL    HW255485   6.042   7.786   7.425  1.0601 -1.1398 -0.3232
14611SOL     OW55486   0.970   6.724   4.037 -0.3803  0.2742  0.1966
14611SOL    HW155487   0.974   6.809   4.090 -1.8887  0.7103 -0.3702
14611SOL    HW255488   0.875   6.702   4.016  0.2545  1.2561 -4.1597
14612SOL     OW55489   2.545   0.971   1.684 -0.5212 -0.2387  0.4196
14612SOL    HW155490   2.580   0.980   1.590  1.1051  1.0790  1.1381
14612SOL    HW255491   2.476   1.041   1.701 -0.0555  0.1939  0.5409
14613SOL     OW55492   9.343   2.672   4.176  0.3109  0.7323 -0.1900
14613SOL    HW155493   9.298   2.734   4.239 -0.4934  0.7133 -0.7339
14613SOL    HW255494   9.291   2.668   4.090 -0.1561 -1.3725  0.1556
14614SOL     OW55495   3.422   3.455   4.598  0.6166  0.3302  0.3699
14614SOL    HW155496   3.372   3.388   4.543  1.8440  0.4252 -0.8776
14614SOL    HW255497   3.391   3.450   4.693 -0.3994 -0.9289 -0.0168
14615SOL     OW55498   8.391   0.775   3.035 -0.2835 -0.1558 -0.1629
14615SOL    HW155499   8.293   0.761   3.044 -0.3162 -0.6759 -1.1927
14615SOL    HW255500   8.421   0.739   2.946  0.9292 -0.5494  0.4002
14616SOL     OW55501   9.893   9.682   0.724  0.2191  0.3507 -0.3512
14616SOL    HW155502   9.928   9.738   0.648  1.5273 -1.6094 -1.2130
14616SOL    HW255503   9.957   9.609   0.744 -1.2139 -0.5210  1.1696
14617SOL     OW55504   2.974   3.870   5.624 -0.6563 -0.2581 -0.2055
14617SOL    HW155505   3.020   3.845   5.709  0.5542  1.0673 -0.4486
14617SOL    HW255506   2.949   3.788   5.574  3.2573 -1.0449 -1.0366
14618SOL     OW55507   0.097   6.051   5.883 -0.2410 -0.1413 -0.0266
14618SOL    HW155508   0.102   5.986   5.808  1.7498 -0.1617  0.1118
14618SOL    HW255509   0.028   6.121   5.861 -1.1595 -1.3085 -0.9298
14619SOL     OW55510   5.494   8.381   7.612 -0.5675 -0.6927 -0.1236
14619SOL    HW155511   5.406   8.426   7.598 -0.1935 -0.7393 -3.0001
14619SOL    HW255512   5.503   8.305   7.547  3.1304  1.6898 -2.6194
14620SOL     OW55513   1.848   5.838   0.645  0.2414 -0.3795 -0.2697
14620SOL    HW155514   1.786   5.912   0.621 -2.2062 -2.1643  0.3053
14620SOL    HW255515   1.917   5.872   0.709 -1.5734  1.1480  0.9506
14621SOL     OW55516   4.014   5.261   2.430  0.2094 -0.0366 -0.3551
14621SOL    HW155517   3.925   5.219   2.415 -0.0373  0.8299 -1.3437
14621SOL    HW255518   4.076   5.194   2.471 -0.7577 -0.7664 -0.0682
14622SOL     OW55519   1.779   4.960   3.487 -0.3972 -0.0461 -0.3022
14622SOL    HW155520   1.718   5.031   3.521 -1.2515 -1.4052  1.0729
14622SOL    HW255521   1.838   4.928   3.562  0.7638  0.0102 -1.1851
14623SOL     OW55522   3.574   8.485   1.902  0.1400 -0.3744  0.4204
14623SOL    HW155523   3.578   8.403   1.958 -2.1758 -1.0282 -0.3133
14623SOL    HW255524   3.551   8.564   1.959 -0.2741 -0.6900  0.6876
14624SOL     OW55525   4.244   7.505   1.216 -0.0146 -0.1968  0.4099
14624SOL    HW155526   4.158   7.489   1.264 -1.0437  0.7368 -1.1139
14624SOL    HW255527   4.298   7.572   1.267  0.3859 -1.6618  2.0093
14625SOL     OW55528   0.752   1.183   6.119  0.3997 -0.1176 -0.0520
14625SOL    HW155529   0.696   1.129   6.182  1.5342 -0.3755  0.7627
14625SOL    HW255530   0.714   1.275   6.112 -1.2935 -0.8728 -1.1088
14626SOL     OW55531   6.513   8.554   3.139  0.0485 -0.6065  0.7333
14626SOL    HW155532   6.606   8.579   3.112  0.0053 -0.0570  1.0858
14626SOL    HW255533   6.496   8.583   3.233 -0.4269 -0.8536  0.7302
14627SOL     OW55534   2.784   3.723   6.910  0.1645 -0.0394 -0.4943
14627SOL    HW155535   2.725   3.708   6.989  2.7111  2.1427  1.9349
14627SOL    HW255536   2.841   3.642   6.895  0.8701  0.1622  1.0072
14628SOL     OW55537   3.535   3.995   2.710  0.2844  0.0733 -0.6169
14628SOL    HW155538   3.554   4.090   2.685  2.0327  0.0994  0.6802
14628SOL    HW255539   3.551   3.982   2.808  0.1962 -1.5808 -0.7980
14629SOL     OW55540   2.889   0.180   1.892  0.4075  0.0897  0.5933
14629SOL    HW155541   2.860   0.160   1.986  1.1774 -0.6682  0.6772
14629SOL    HW255542   2.917   0.275   1.885 -0.9297  0.5061  0.8094
14630SOL     OW55543   6.553   3.108   0.699  0.4178  0.2447 -0.0670
14630SOL    HW155544   6.597   3.102   0.610  1.9028  2.5565  0.4577
14630SOL    HW255545   6.458   3.077   0.692  0.6774 -0.0858 -2.3224
14631SOL     OW55546   2.509   1.195   5.378  0.1024  0.5221 -0.4361
14631SOL    HW155547   2.595   1.147   5.398 -0.7971 -0.5278  0.9852
14631SOL    HW255548   2.451   1.137   5.322  0.3162  1.2329 -1.3974
14632SOL     OW55549   1.869   3.581   1.404  0.1547 -0.2259 -0.6218
14632SOL    HW155550   1.812   3.662   1.388  0.1824 -0.3286 -1.2480
14632SOL    HW255551   1.927   3.597   1.484 -1.0823 -0.3013  0.3112
14633SOL     OW55552   7.481   2.972   5.289  0.9835  0.1256 -0.2352
14633SOL    HW155553   7.442   2.939   5.375 -1.0609 -1.1726 -1.6509
14633SOL    HW255554   7.563   3.026   5.310  0.9790 -0.8150  2.4718
14634SOL     OW55555   6.021   7.998   2.421 -0.0376 -0.3466 -0.4632
14634SOL    HW155556   5.989   7.979   2.514  3.0889 -0.1312  0.7183
14634SOL    HW255557   5.998   8.092   2.396  1.7778  0.6101  1.3142
14635SOL     OW55558   0.941   8.044   7.715 -0.1997  0.2322 -0.6764
14635SOL    HW155559   1.017   8.009   7.660  0.5428 -0.0175  0.4956
14635SOL    HW255560   0.857   7.994   7.692  0.3021 -0.5015 -0.9040
14636SOL     OW55561   9.356   7.190   0.804 -0.1476  0.0586 -0.2622
14636SOL    HW155562   9.339   7.243   0.887 -0.3799 -0.4088 -0.0139
14636SOL    HW255563   9.333   7.094   0.820  1.1699 -0.2958 -0.4156
14637SOL     OW55564   2.216   2.950   6.058  0.5987 -0.0819  0.5774
14637SOL    HW155565   2.195   2.919   6.151  3.9320 -1.2947  0.9800
14637SOL    HW255566   2.221   2.871   5.997 -0.2324  0.5878 -0.3727
14638SOL     OW55567   0.091   0.466   7.572  0.0426  0.0776 -0.8001
14638SOL    HW155568   0.039   0.551   7.566 -1.0823 -0.4453  1.1258
14638SOL    HW255569   0.029   0.388   7.564  0.7765 -0.5542 -0.4347
14639SOL     OW55570   7.453   6.301   4.492 -0.7207  0.1098 -0.0109
14639SOL    HW155571   7.431   6.258   4.405  1.0560  1.1525 -0.9949
14639SOL    HW255572   7.530   6.253   4.534 -1.2913 -0.1173  0.8138
14640SOL     OW55573   5.430   4.826   1.363  0.4422 -0.0878  0.1646
14640SOL    HW155574   5.440   4.754   1.294  0.0369  0.2143 -0.2087
14640SOL    HW255575   5.418   4.914   1.318  0.6127  0.1712  0.6225
14641SOL     OW55576   0.921   4.616   3.865 -0.3351  0.1701  0.3168
14641SOL    HW155577   0.883   4.665   3.944  1.9568 -0.0705  1.6124
14641SOL    HW255578   0.894   4.520   3.870  0.3556  0.0154  1.1814
14642SOL     OW55579   5.076   5.148   0.668 -0.0530 -0.0719  0.0291
14642SOL    HW155580   5.148   5.167   0.735 -2.1202  2.8993  1.5504
14642SOL    HW255581   5.104   5.185   0.579  0.5763  0.5703  0.4817
14643SOL     OW55582   6.629   2.863   1.018 -0.1551  0.6164 -0.2969
14643SOL    HW155583   6.679   2.845   1.102 -1.7454 -2.0402  0.1335
14643SOL    HW255584   6.688   2.914   0.955  1.9638  0.3769  1.4117
14644SOL     OW55585   4.883   2.312   1.201  0.2656 -0.0545  0.0784
14644SOL    HW155586   4.929   2.366   1.130  1.3074 -1.3082 -0.2165
14644SOL    HW255587   4.789   2.293   1.172  0.6951 -0.5943 -0.9999
14645SOL     OW55588   2.656   1.473   5.089  0.4123 -0.3850  0.1362
14645SOL    HW155589   2.746   1.513   5.074 -0.0573 -0.1122 -2.1094
14645SOL    HW255590   2.655   1.379   5.055 -0.6535  0.2013 -1.5021
14646SOL     OW55591   0.955   4.850   6.105 -0.1536  0.8162 -0.0976
14646SOL    HW155592   0.951   4.883   6.200  0.0592  0.9006 -0.1161
14646SOL    HW255593   0.869   4.871   6.058 -1.9262 -2.9199  1.2701
14647SOL     OW55594   6.531   9.293   5.543  0.1678  0.3559 -0.6695
14647SOL    HW155595   6.553   9.234   5.620  0.5615 -0.7602 -1.6351
14647SOL    HW255596   6.466   9.247   5.483 -1.5050  1.9081 -0.1120
14648SOL     OW55597   8.046   8.533   6.215  0.5644 -0.6596 -0.1683
14648SOL    HW155598   8.034   8.632   6.229  0.0367 -0.6413 -0.7542
14648SOL    HW255599   8.139   8.515   6.183  0.3852 -0.2638 -0.9178
14649SOL     OW55600   0.965   9.904   2.249 -0.5729 -0.1610  0.1004
14649SOL    HW155601   0.931   9.827   2.195 -0.4040  0.6705 -1.2162
14649SOL    HW255602   1.065   9.910   2.239 -0.4503 -0.4535  1.1068
14650SOL     OW55603   6.617   7.194   5.735  0.2298 -0.1535  0.1728
14650SOL    HW155604   6.615   7.278   5.789  0.1607  0.2436 -0.4463
14650SOL    HW255605   6.563   7.124   5.782  0.6368  0.0125  0.9013
14651SOL     OW55606   0.608   6.105   2.224  0.2200  0.7853  0.6943
14651SOL    HW155607   0.542   6.154   2.281  1.2501  2.6904  0.2776
14651SOL    HW255608   0.653   6.034   2.279 -2.5490 -0.9204  0.8339
14652SOL     OW55609   3.965   0.618   6.918 -0.1484 -0.4336 -0.0939
14652SOL    HW155610   3.917   0.617   6.830 -2.1054 -1.2098  0.9365
14652SOL    HW255611   3.982   0.713   6.946  3.0583 -0.1835 -2.6047
14653SOL     OW55612   3.329   4.134   6.865  0.0529 -0.7328 -0.2192
14653SOL    HW155613   3.246   4.115   6.918  0.0777  0.3670  0.2276
14653SOL    HW255614   3.406   4.083   6.903 -0.0477 -0.3683  0.4687
14654SOL     OW55615   9.915   8.368   6.371  0.1185 -0.3949 -0.1064
14654SOL    HW155616   9.900   8.412   6.460  0.5927 -0.5410  0.0477
14654SOL    HW255617   9.842   8.302   6.354 -0.2462 -0.0040 -0.0508
14655SOL     OW55618   3.322   9.210   7.730  0.8149 -0.2204  0.3458
14655SOL    HW155619   3.335   9.309   7.732  0.9041 -0.1930 -1.0966
14655SOL    HW255620   3.239   9.188   7.679  0.4496 -0.8586  1.2076
14656SOL     OW55621   4.417   3.926   6.689 -0.1000  0.5582  0.6042
14656SOL    HW155622   4.383   3.837   6.719  1.5361 -0.8572 -1.6082
14656SOL    HW255623   4.503   3.948   6.735  0.0813  0.4751  0.3060
14657SOL     OW55624   8.974   9.564   6.462 -0.2625  0.3495  0.0314
14657SOL    HW155625   8.891   9.607   6.498  1.0693  4.8593 -1.9212
14657SOL    HW255626   8.967   9.556   6.362  0.6778 -1.4756  0.0959
14658SOL     OW55627   8.967   2.513   5.950 -0.7302 -0.8239  0.3365
14658SOL    HW155628   8.962   2.448   6.027 -0.6871 -0.3657  0.7320
14658SOL    HW255629   8.985   2.605   5.986 -1.1894 -0.5283 -0.1916
14659SOL     OW55630   6.496   5.490   0.300  0.1062 -0.2332 -0.1396
14659SOL    HW155631   6.577   5.548   0.296 -0.9691  1.3222 -0.1303
14659SOL    HW255632   6.466   5.481   0.395  0.4379 -1.0514 -0.1109
14660SOL     OW55633   2.206   5.414   5.943 -0.2372  0.3916  0.2098
14660SOL    HW155634   2.246   5.499   5.909 -0.2781  0.8300  1.2492
14660SOL    HW255635   2.279   5.348   5.962 -0.1052  0.6856  0.7307
14661SOL     OW55636   6.617   4.459   0.891  0.2015 -0.6035  0.2726
14661SOL    HW155637   6.581   4.545   0.855  1.5878  0.2883  0.9697
14661SOL    HW255638   6.600   4.385   0.826 -0.9261  0.2162 -0.3651
14662SOL     OW55639   4.707   7.916   3.569  0.1172 -0.1309  0.4253
14662SOL    HW155640   4.697   7.902   3.470  1.1391  0.9184  0.1651
14662SOL    HW255641   4.624   7.885   3.615 -0.2822 -0.8422 -0.7367
14663SOL     OW55642   0.080   0.650   0.437  0.7309 -0.7405  0.3152
14663SOL    HW155643   0.105   0.746   0.437  0.8275 -0.7635  1.3867
14663SOL    HW255644   0.063   0.619   0.530  0.4226 -1.6925 -0.0423
14664SOL     OW55645   0.957   2.501   6.410 -0.3649  0.0773 -0.0916
14664SOL    HW155646   1.033   2.499   6.345 -0.6556 -1.2302 -0.4012
14664SOL    HW255647   0.988   2.465   6.498 -0.3534  0.5106  0.0822
14665SOL     OW55648   0.970   9.447   7.800 -0.2632  0.0108 -0.1696
14665SOL    HW155649   0.890   9.403   7.757  0.3534 -1.3187  0.0008
14665SOL    HW255650   1.028   9.487   7.729  0.1673 -1.1923 -0.5251
14666SOL     OW55651   0.250   1.363   4.648 -0.3242  0.7867 -0.0012
14666SOL    HW155652   0.275   1.346   4.553  2.1494 -0.4245  0.8385
14666SOL    HW255653   0.293   1.448   4.679  0.3171  0.2516  0.5707
14667SOL     OW55654   7.856   9.983   6.146  0.6458  0.4893  0.1480
14667SOL    HW155655   7.903  10.032   6.219  0.1829 -1.9729  2.1666
14667SOL    HW255656   7.856   9.885   6.166 -1.9900  0.0458 -1.7119
14668SOL     OW55657   5.957   9.811   8.198  0.1877 -0.1471  0.1048
14668SOL    HW155658   5.923   9.792   8.106 -0.5427  0.4160  0.2553
14668SOL    HW255659   5.881   9.836   8.257  0.5979 -1.0030  0.9889
14669SOL     OW55660   1.308   7.380   6.627  0.0449  0.4334 -0.2584
14669SOL    HW155661   1.290   7.477   6.612 -1.4882  0.1773 -0.1789
14669SOL    HW255662   1.248   7.325   6.567  1.1301 -0.4592 -0.5522
14670SOL     OW55663   8.232   6.014   1.402  0.3887 -0.1798 -0.0843
14670SOL    HW155664   8.159   5.950   1.377 -0.0455  0.3823 -0.2603
14670SOL    HW255665   8.208   6.060   1.487  0.7564 -0.3388  0.1033
14671SOL     OW55666   7.684   3.989   0.538 -0.3387  0.2786  0.2610
14671SOL    HW155667   7.665   4.079   0.499 -1.2523  0.3427  0.8386
14671SOL    HW255668   7.608   3.962   0.597 -1.1428 -1.8546 -1.6561
14672SOL     OW55669   0.849   1.836   7.973  0.0716 -0.2629  0.2587
14672SOL    HW155670   0.846   1.768   7.900  0.1283  0.8008 -0.7402
14672SOL    HW255671   0.768   1.824   8.032 -1.2125  0.3866 -1.3438
14673SOL     OW55672   3.837   2.329   5.320 -0.5635  0.0258 -0.4016
14673SOL    HW155673   3.798   2.254   5.268 -0.4566 -0.5577  0.3426
14673SOL    HW255674   3.937   2.323   5.318 -0.5251  0.8281 -1.3124
14674SOL     OW55675   5.100   7.394   6.184  0.3270 -0.0185  0.1663
14674SOL    HW155676   5.098   7.460   6.260 -0.6833 -0.7958  0.8355
14674SOL    HW255677   5.010   7.393   6.140  0.7341 -0.0147 -0.6622
14675SOL     OW55678   4.602   3.249   1.729  0.0531  0.3699  0.2558
14675SOL    HW155679   4.681   3.306   1.750 -0.0235 -0.3037  2.4718
14675SOL    HW255680   4.544   3.241   1.810 -2.7288  1.5024 -1.5585
14676SOL     OW55681   1.694   9.044   1.365  0.5423  0.4927 -0.0621
14676SOL    HW155682   1.699   9.048   1.266 -1.9046 -1.1928 -0.2982
14676SOL    HW255683   1.625   9.109   1.398  0.7071  0.4053  0.4665
14677SOL     OW55684   9.009   0.271   7.682 -0.0011 -0.5772  0.0943
14677SOL    HW155685   9.061   0.191   7.712 -0.0936 -0.7927 -0.3291
14677SOL    HW255686   8.927   0.242   7.633 -0.6414 -0.2389  0.9549
14678SOL     OW55687   0.015   4.506   7.213 -0.1246  0.2132  0.0525
14678SOL    HW155688   0.044   4.483   7.306 -0.6954 -0.5289  0.0477
14678SOL    HW255689   0.091   4.494   7.150 -0.1996 -0.9111  0.1674
14679SOL     OW55690   2.421   7.985   0.722 -0.0155 -0.6893 -0.4844
14679SOL    HW155691   2.500   7.926   0.739 -0.0380 -0.2163  1.4654
14679SOL    HW255692   2.454   8.078   0.701 -0.0309 -0.7832 -0.9257
14680SOL     OW55693   5.583   1.239   4.668 -0.6593  0.2052 -0.0411
14680SOL    HW155694   5.635   1.164   4.628  0.5567  0.6016  0.7989
14680SOL    HW255695   5.618   1.260   4.759 -0.9907  1.7856 -0.2601
14681SOL     OW55696   9.039   0.455   2.303 -0.4177  0.3468 -0.8693
14681SOL    HW155697   9.077   0.486   2.390 -1.6210  0.2053 -0.2817
14681SOL    HW255698   9.045   0.356   2.297 -0.5852  0.3339 -0.8279
14682SOL     OW55699   8.711   0.363   6.888  0.2846  0.1863  0.3288
14682SOL    HW155700   8.618   0.398   6.890 -0.3572 -1.5039  0.3120
14682SOL    HW255701   8.770   0.429   6.842 -1.1080  0.7382 -0.6940
14683SOL     OW55702   9.302   9.248   4.626  0.4334  0.1273 -0.1676
14683SOL    HW155703   9.297   9.162   4.676  0.6779 -0.5326 -1.2741
14683SOL    HW255704   9.228   9.253   4.559  2.3215 -0.6759 -2.3708
14684SOL     OW55705   7.848   2.629   3.532  0.1676 -0.9513  0.4006
14684SOL    HW155706   7.929   2.658   3.582 -0.2131  2.0020 -0.5770
14684SOL    HW255707   7.786   2.579   3.593  1.6166 -1.1078  1.7636
14685SOL     OW55708   0.408   6.349   2.603 -0.0661 -0.0157 -0.1894
14685SOL    HW155709   0.369   6.432   2.645 -1.7346 -1.4126  1.1261
14685SOL    HW255710   0.417   6.362   2.505  0.4093  1.9988  0.0972
14686SOL     OW55711   8.210   7.792   3.113 -0.7066 -0.1467 -0.0578
14686SOL    HW155712   8.143   7.718   3.121 -1.2680  0.5409  1.9150
14686SOL    HW255713   8.255   7.806   3.201 -0.2554  1.5296 -0.5321
14687SOL     OW55714   8.284   7.320   1.664  0.2485 -0.1889  0.0995
14687SOL    HW155715   8.313   7.317   1.569 -1.0048 -0.1474 -0.2941
14687SOL    HW255716   8.244   7.409   1.684 -0.9722 -0.7424  0.2038
14688SOL     OW55717   8.015   5.406   7.039 -0.0759 -0.7718  0.5954
14688SOL    HW155718   8.057   5.375   7.124  3.3729 -0.9464 -1.0751
14688SOL    HW255719   7.971   5.329   6.993 -2.2161 -0.6200  2.2869
14689SOL     OW55720   0.245   5.178   4.618  1.0050  0.1605 -0.1146
14689SOL    HW155721   0.272   5.115   4.545 -0.7467  0.5967 -1.1711
14689SOL    HW255722   0.192   5.253   4.579  2.2851  1.8077  1.2726
14690SOL     OW55723   1.953   5.669   1.050  0.3363 -0.2953 -0.4715
14690SOL    HW155724   1.877   5.604   1.050  0.7657 -0.8018 -0.0835
14690SOL    HW255725   1.922   5.757   1.014 -0.8950  0.0127  1.2986
14691SOL     OW55726   7.163   7.002   6.679  0.5678  0.3073 -0.3240
14691SOL    HW155727   7.248   7.036   6.638  0.5290 -1.4248 -1.9383
14691SOL    HW255728   7.120   6.938   6.615 -2.4940  1.9464  0.0285
14692SOL     OW55729   0.434   8.067   7.396  0.1135  0.5087  0.4897
14692SOL    HW155730   0.462   8.150   7.348 -1.3310 -0.7641 -2.7536
14692SOL    HW255731   0.508   8.000   7.393 -0.9025 -0.5766 -2.5630
14693SOL     OW55732   0.009   1.904   5.042  0.1638 -0.0763  0.9858
14693SOL    HW155733  -0.005   1.979   4.977  1.0182  0.0020  0.8938
14693SOL    HW255734  -0.021   1.818   5.000  1.8270 -0.2087  0.0278
14694SOL     OW55735   9.199   3.658   5.765  0.8360 -0.3970  0.3255
14694SOL    HW155736   9.216   3.750   5.802  1.0263 -0.4979  0.4897
14694SOL    HW255737   9.166   3.598   5.838 -3.1959  0.5619 -0.5651
14695SOL     OW55738   0.942   1.700   3.591  0.4116  0.4378 -0.2133
14695SOL    HW155739   0.957   1.713   3.493 -1.2835  0.9558 -0.4271
14695SOL    HW255740   0.943   1.790   3.636 -1.5426  0.4790 -0.1963
14696SOL     OW55741   1.866   3.664   5.975  0.1114 -0.3055  0.3348
14696SOL    HW155742   1.809   3.600   5.925 -0.1462 -0.7239  1.1460
14696SOL    HW255743   1.955   3.623   5.994 -0.3189 -0.7175  1.5082
14697SOL     OW55744   5.699   3.860   1.426 -0.4587  0.3142 -0.0249
14697SOL    HW155745   5.761   3.822   1.358 -0.2247 -0.8845  0.8192
14697SOL    HW255746   5.607   3.825   1.410  0.1444 -2.4057  2.0094
14698SOL     OW55747   3.725   3.482   0.710 -0.4571 -0.0134  0.2691
14698SOL    HW155748   3.673   3.511   0.630  1.0380 -0.3631 -0.8540
14698SOL    HW255749   3.812   3.442   0.680 -0.7233 -1.9175  1.9669
14699SOL     OW55750   1.444   4.606   5.323  0.6160 -0.7800 -0.1422
14699SOL    HW155751   1.537   4.599   5.287  0.3991  0.0533 -0.9129
14699SOL    HW255752   1.389   4.664   5.262  0.1111  0.3132  1.3045
14700SOL     OW55753   6.858   0.235   4.404  0.0958 -0.2956  0.2075
14700SOL    HW155754   6.825   0.212   4.313  0.4219  1.5860 -0.4131
14700SOL    HW255755   6.942   0.184   4.423  1.1834  0.8421 -1.4040
14701SOL     OW55756   2.461   6.062   5.507  0.6447 -0.0568 -0.3117
14701SOL    HW155757   2.379   6.016   5.473  0.5509  0.4185 -0.7353
14701SOL    HW255758   2.534   6.054   5.439 -0.1276  2.5692 -1.5379
14702SOL     OW55759   5.354   6.972   2.512  0.1584  0.0644  0.1822
14702SOL    HW155760   5.443   7.016   2.517  0.2204 -0.2060  1.7940
14702SOL    HW255761   5.335   6.924   2.598 -1.3821 -0.1868 -0.2671
14703SOL     OW55762   1.319   6.163   2.782 -0.4403 -0.5608 -0.2530
14703SOL    HW155763   1.332   6.101   2.705  3.4061 -0.5205  0.2812
14703SOL    HW255764   1.347   6.256   2.755 -0.3783 -0.2781  0.7506
14704SOL     OW55765   3.469   2.513   2.703  0.2589 -0.2449  0.1230
14704SOL    HW155766   3.504   2.488   2.613  3.0736  1.2019  0.7690
14704SOL    HW255767   3.442   2.430   2.753  0.6828 -1.2074 -1.2406
14705SOL     OW55768   6.197   9.843   6.788  0.3849  0.4438  0.2167
14705SOL    HW155769   6.189   9.839   6.888 -1.6095  0.2689  0.0617
14705SOL    HW255770   6.276   9.788   6.759  2.6168  2.6707  1.8738
14706SOL     OW55771   4.223   9.613   2.590 -0.4891  0.1920 -0.5534
14706SOL    HW155772   4.159   9.663   2.532 -0.3047  0.2367 -0.7187
14706SOL    HW255773   4.291   9.676   2.626 -0.8105  0.2267 -0.0037
14707SOL     OW55774   2.546   7.950   3.991  0.1406  0.3046  0.4113
14707SOL    HW155775   2.484   7.877   3.961  0.0909  0.7980 -0.7100
14707SOL    HW255776   2.538   8.028   3.929  0.9779  0.8564  0.9846
14708SOL     OW55777   3.306   4.975   7.350  0.2469 -0.1990 -0.1567
14708SOL    HW155778   3.398   5.013   7.337  0.2593 -0.3217 -0.4314
14708SOL    HW255779   3.302   4.926   7.437  0.7556 -1.1271 -0.6513
14709SOL     OW55780   4.293   1.004   5.400 -0.5129  0.1233 -0.0033
14709SOL    HW155781   4.316   1.091   5.444 -1.4336  1.7475 -2.6224
14709SOL    HW255782   4.197   0.983   5.415 -0.7220  0.4599 -0.8403
14710SOL     OW55783   0.619   0.090   5.449 -0.2683 -0.5476  0.5468
14710SOL    HW155784   0.536   0.048   5.411 -0.5363  0.2885  0.2028
14710SOL    HW255785   0.603   0.119   5.543 -0.5281  0.0939  0.3037
14711SOL     OW55786   8.351   8.153   3.980  0.4400 -0.0801  0.0307
14711SOL    HW155787   8.368   8.222   4.050  1.7407 -1.2527  0.8938
14711SOL    HW255788   8.339   8.064   4.023 -1.2623 -0.4190 -1.0710
14712SOL     OW55789   3.849   4.385   6.089  0.4644 -0.4196  0.0270
14712SOL    HW155790   3.795   4.459   6.131 -0.0709  0.0588 -1.4515
14712SOL    HW255791   3.787   4.321   6.043  0.9290 -1.8337  1.3485
14713SOL     OW55792   2.147   7.494   1.634 -0.4986 -0.7610 -0.4320
14713SOL    HW155793   2.099   7.420   1.587 -2.3894 -0.5339  1.0425
14713SOL    HW255794   2.155   7.471   1.731 -0.1040  0.4636 -0.1720
14714SOL     OW55795   7.862   0.141   2.078 -0.0876  0.5356  0.7504
14714SOL    HW155796   7.846   0.184   2.167 -1.2178  0.7636  0.4452
14714SOL    HW255797   7.779   0.092   2.049  0.3063  0.3792 -0.1256
14715SOL     OW55798   2.258   8.403   6.702  0.7572 -0.6856 -0.3172
14715SOL    HW155799   2.305   8.444   6.780 -0.7277 -2.3711  1.5431
14715SOL    HW255800   2.169   8.448   6.690  0.3031 -1.4811  0.0001
14716SOL     OW55801   2.324   9.739   0.747  0.0064  0.1812  0.3084
14716SOL    HW155802   2.411   9.773   0.783  0.3305 -0.9355  0.5906
14716SOL    HW255803   2.255   9.811   0.753  0.2873  0.3045  2.3117
14717SOL     OW55804   3.464   9.842   0.090  0.0683  0.4345  0.1897
14717SOL    HW155805   3.477   9.867   0.186 -0.4166 -1.6484  0.8301
14717SOL    HW255806   3.397   9.768   0.084  1.5176 -0.7967 -1.5586
14718SOL     OW55807   1.107   4.813   1.794 -0.1825 -0.0251  0.6260
14718SOL    HW155808   1.164   4.731   1.804  1.4676  1.0150 -0.2102
14718SOL    HW255809   1.023   4.788   1.745  0.8468 -0.9865 -0.6968
14719SOL     OW55810   9.099   1.676   2.523 -0.4764 -0.3689  0.7280
14719SOL    HW155811   9.045   1.670   2.607 -1.1186 -0.2047  0.3247
14719SOL    HW255812   9.140   1.767   2.517 -0.9209 -0.1845  0.5532
14720SOL     OW55813   9.549   5.762   6.372 -0.2683  0.0632  0.5853
14720SOL    HW155814   9.537   5.843   6.314 -0.4797 -0.8180 -0.6126
14720SOL    HW255815   9.473   5.700   6.358  1.2693 -1.6059 -0.5847
14721SOL     OW55816   4.293   8.542   2.403 -0.0977 -0.3182  0.3551
14721SOL    HW155817   4.239   8.497   2.332 -1.5459  0.9725  0.5945
14721SOL    HW255818   4.307   8.479   2.480  1.3163 -1.6583 -0.9625
14722SOL     OW55819   1.096   0.523   4.380  0.2737  0.3729  0.1234
14722SOL    HW155820   1.008   0.502   4.423 -0.0136  0.0993 -0.5931
14722SOL    HW255821   1.085   0.521   4.281  1.0085  0.6918  0.0381
14723SOL     OW55822   8.476   3.264   4.980  0.1639  0.3454 -0.2017
14723SOL    HW155823   8.561   3.277   5.030 -0.6882  1.0873  1.0945
14723SOL    HW255824   8.399   3.262   5.044 -0.7656 -0.7189 -1.3142
14724SOL     OW55825   8.794   9.125   0.555 -0.3422 -0.2624 -0.9504
14724SOL    HW155826   8.837   9.119   0.645 -0.0206  0.3555 -1.0579
14724SOL    HW255827   8.700   9.091   0.560 -0.6310  0.6218 -0.1734
14725SOL     OW55828   1.442   4.222   2.273 -1.0130  0.5918 -1.2038
14725SOL    HW155829   1.380   4.177   2.209 -1.7335 -1.1091  0.6277
14725SOL    HW255830   1.514   4.158   2.301 -0.3056  1.5267 -0.8260
14726SOL     OW55831   2.460   7.621   0.836  0.1330  0.2159 -0.0073
14726SOL    HW155832   2.516   7.561   0.779  0.1386 -0.8823  1.1392
14726SOL    HW255833   2.403   7.678   0.777  0.2946 -0.7410 -1.1145
14727SOL     OW55834   7.777   4.729   3.568 -0.2795 -0.1634  0.9081
14727SOL    HW155835   7.874   4.713   3.587 -0.2287  0.7189  1.4418
14727SOL    HW255836   7.749   4.673   3.491  0.3057 -1.4660  1.6200
14728SOL     OW55837   3.787   3.657   1.406 -0.3475  0.4908 -0.5413
14728SOL    HW155838   3.825   3.603   1.481  0.8181  0.8687 -0.8513
14728SOL    HW255839   3.794   3.605   1.321  1.4092  1.3759 -0.9608
14729SOL     OW55840   7.551   0.341   3.494  0.7320  0.0913 -0.1536
14729SOL    HW155841   7.647   0.333   3.523  0.2306 -0.4496  1.4110
14729SOL    HW255842   7.548   0.373   3.399  2.4709 -1.1322 -0.6476
14730SOL     OW55843   1.464   3.436   0.774 -0.2835  0.2001  0.0031
14730SOL    HW155844   1.488   3.340   0.765 -0.8189 -0.0046  0.7263
14730SOL    HW255845   1.469   3.480   0.684  0.0514 -0.4783 -0.3141
14731SOL     OW55846   9.037   0.650   5.050 -0.6371  0.7170 -0.2524
14731SOL    HW155847   9.011   0.728   5.107 -1.5903 -0.7647  1.3950
14731SOL    HW255848   8.963   0.582   5.051  0.0003 -0.0275 -2.0038
14732SOL     OW55849   7.580   0.369   2.269 -0.4597  0.3641 -0.2149
14732SOL    HW155850   7.678   0.387   2.256 -0.6801  0.9406 -1.0788
14732SOL    HW255851   7.569   0.297   2.338  0.5919 -0.1350 -0.5532
14733SOL     OW55852   0.639   7.878   7.369  0.0871  0.0787  0.2792
14733SOL    HW155853   0.569   7.819   7.328  0.1343  0.7185 -0.7532
14733SOL    HW255854   0.730   7.846   7.343  0.1579 -0.1945  0.8465
14734SOL     OW55855   5.251   1.736   5.044  0.1574 -0.6371  0.3591
14734SOL    HW155856   5.172   1.747   4.984  0.2743 -0.7466  0.1846
14734SOL    HW255857   5.308   1.818   5.040 -1.0813  0.3472  2.1510
14735SOL     OW55858   8.414   2.959   1.263  0.0892  0.3479 -0.1972
14735SOL    HW155859   8.417   3.045   1.211 -1.6383  0.9105  0.5584
14735SOL    HW255860   8.391   2.884   1.201 -1.6246  0.9605 -0.3536
14736SOL     OW55861   1.223   1.306   4.018  0.0944  0.2080 -0.0191
14736SOL    HW155862   1.257   1.302   3.924 -0.4156  1.7574 -0.2937
14736SOL    HW255863   1.291   1.268   4.081  0.8209  0.0137 -0.9233
14737SOL     OW55864   8.849   2.491   6.500  0.1198 -0.0064  0.0927
14737SOL    HW155865   8.848   2.498   6.600 -0.4553 -1.3164  0.1823
14737SOL    HW255866   8.871   2.581   6.461  0.3106  0.5225  1.3913
14738SOL     OW55867   0.337   7.155   6.916  0.3259  0.3614 -0.0792
14738SOL    HW155868   0.265   7.192   6.858  0.4748 -0.5886 -0.9049
14738SOL    HW255869   0.424   7.160   6.867  0.5233 -0.0842  0.2220
14739SOL     OW55870   3.340   4.918   6.497  0.3944  0.1341 -0.2124
14739SOL    HW155871   3.299   4.827   6.507  0.7977 -0.0944 -0.6195
14739SOL    HW255872   3.313   4.976   6.575 -1.2500  0.2072 -0.8316
14740SOL     OW55873   5.433   4.691   0.985  0.0563 -0.0237 -0.4068
14740SOL    HW155874   5.432   4.642   1.072 -0.6832 -2.2755 -1.6431
14740SOL    HW255875   5.524   4.683   0.944  0.4731  1.2386  0.2599
14741SOL     OW55876   4.156   5.975   0.936  0.0887  0.6497  0.4451
14741SOL    HW155877   4.130   6.029   0.856  0.5860 -0.8044 -0.7164
14741SOL    HW255878   4.230   6.022   0.984  1.1608  0.5646 -1.0789
14742SOL     OW55879   1.764   2.285   2.280  0.4184 -0.4288  0.4276
14742SOL    HW155880   1.735   2.204   2.230 -2.5056  0.2169  1.0007
14742SOL    HW255881   1.768   2.264   2.378 -1.2969  0.3596  0.6803
14743SOL     OW55882   2.007   0.082   2.442 -0.0493 -0.1905  0.0070
14743SOL    HW155883   1.977   0.051   2.532 -0.7607  0.1396 -0.1102
14743SOL    HW255884   2.103   0.057   2.428 -0.1896 -1.0200  0.5001
14744SOL     OW55885   2.010   0.456   6.909 -0.0730 -0.0729  0.8546
14744SOL    HW155886   1.943   0.382   6.907 -0.0398 -0.0978  0.6106
14744SOL    HW255887   1.983   0.527   6.844  1.7719 -1.5226 -1.5620
14745SOL     OW55888   3.028   4.807   3.734  0.0415  0.3826  0.5651
14745SOL    HW155889   3.104   4.759   3.692  1.4968  2.1943  1.0659
14745SOL    HW255890   3.010   4.769   3.824 -1.1229 -1.5115 -0.4346
14746SOL     OW55891   7.274   6.814   3.926  0.3404  0.0534 -0.2128
14746SOL    HW155892   7.361   6.773   3.952  0.3066 -0.5105 -0.9587
14746SOL    HW255893   7.284   6.859   3.837 -0.2021 -0.2586 -0.4326
14747SOL     OW55894   2.960   9.558   1.899  0.0442  0.3946 -0.0823
14747SOL    HW155895   2.912   9.643   1.917 -0.1712 -0.2517  2.6034
14747SOL    HW255896   3.035   9.575   1.835 -0.4031  2.4625 -0.0831
14748SOL     OW55897   1.251   2.806   3.192 -0.3311  0.2804 -0.2764
14748SOL    HW155898   1.293   2.740   3.253 -0.5596  1.0103  0.6864
14748SOL    HW255899   1.322   2.852   3.137 -0.1112 -0.2380 -0.4249
14749SOL     OW55900   8.712   0.563   7.252 -0.6352  0.6989 -0.5482
14749SOL    HW155901   8.781   0.511   7.202 -2.0900 -2.5660  0.7297
14749SOL    HW255902   8.621   0.530   7.228 -1.6266  2.7006  0.2975
14750SOL     OW55903   7.168   7.182   7.283  0.5908  0.2017  0.1940
14750SOL    HW155904   7.264   7.207   7.293  1.1356 -2.0253  0.8477
14750SOL    HW255905   7.151   7.155   7.189 -0.0035  2.9171 -0.5179
14751SOL     OW55906   8.431   0.502   1.364 -0.2588 -0.3449 -0.5097
14751SOL    HW155907   8.351   0.447   1.389  0.0957 -0.1668  1.0789
14751SOL    HW255908   8.501   0.443   1.324 -0.9418 -0.6013 -1.3384
14752SOL     OW55909   8.097   1.944   4.657 -0.2068 -0.5583  0.1383
14752SOL    HW155910   8.109   1.853   4.616  1.1104  0.0205 -0.7813
14752SOL    HW255911   7.999   1.966   4.660 -0.5041 -1.8123 -0.0399
14753SOL     OW55912   9.206   8.961   7.310  0.5851 -0.1854 -0.4022
14753SOL    HW155913   9.162   9.048   7.290 -2.8714 -1.6228  0.6108
14753SOL    HW255914   9.249   8.926   7.227 -1.8607  0.3921 -1.9682
14754SOL     OW55915   1.608   5.949   7.697 -0.1822 -0.3104  0.0685
14754SOL    HW155916   1.584   5.853   7.682 -0.1425 -0.3991  0.5672
14754SOL    HW255917   1.626   5.964   7.794 -1.3721  0.4674  0.1817
14755SOL     OW55918   5.926   0.718   5.012 -0.3118  0.0127 -0.1127
14755SOL    HW155919   5.993   0.792   5.016  0.9468 -1.0862 -0.4995
14755SOL    HW255920   5.882   0.717   4.923 -0.3945  0.3463 -0.0758
14756SOL     OW55921   8.114   5.931   0.584  0.2345  0.0545 -0.5642
14756SOL    HW155922   8.157   6.017   0.557 -0.4612  0.9094  1.0094
14756SOL    HW255923   8.176   5.855   0.564  0.6274  0.8566 -2.4729
14757SOL     OW55924   6.269   9.175   3.511  0.0458  0.0145  0.0394
14757SOL    HW155925   6.320   9.204   3.591 -0.6220  0.0827  0.4439
14757SOL    HW255926   6.332   9.141   3.441  0.8329  2.4279 -0.4445
14758SOL     OW55927   8.143   0.867   6.467 -0.4376  0.0656  0.5220
14758SOL    HW155928   8.117   0.956   6.507  0.0453  0.5273 -0.1884
14758SOL    HW255929   8.239   0.848   6.490 -0.1167  0.3997 -0.5394
14759SOL     OW55930   6.532   9.762   3.255 -0.2916  0.3422  0.2573
14759SOL    HW155931   6.579   9.675   3.236 -1.2262 -0.1744  0.2752
14759SOL    HW255932   6.442   9.743   3.294 -0.7062  1.3184 -0.2101
14760SOL     OW55933   8.395   9.278   7.542 -0.3275 -0.0288  0.2973
14760SOL    HW155934   8.423   9.291   7.448  2.4336  0.0501  1.1062
14760SOL    HW255935   8.393   9.180   7.563  0.1177 -0.0045  0.4569
14761SOL     OW55936   4.948   5.661   0.897  0.4606 -0.0792  0.7360
14761SOL    HW155937   5.030   5.614   0.932  0.9995 -0.6473 -1.2385
14761SOL    HW255938   4.971   5.710   0.813 -1.0358  0.4950  0.6477
14762SOL     OW55939   8.253   8.979   4.296 -0.7688 -0.1951 -0.1799
14762SOL    HW155940   8.310   9.035   4.237  1.4394 -2.1157  0.0542
14762SOL    HW255941   8.308   8.942   4.371 -2.5462 -1.2594  0.6457
14763SOL     OW55942   8.779   1.837   0.272  0.6550  0.1684  0.1079
14763SOL    HW155943   8.863   1.890   0.279  0.3388  0.4455  2.0306
14763SOL    HW255944   8.716   1.882   0.208  1.4616  0.6329 -0.3596
14764SOL     OW55945   0.562   8.322   7.292  0.7467 -0.3030 -0.2590
14764SOL    HW155946   0.610   8.388   7.235  0.4271 -0.2143 -0.4304
14764SOL    HW255947   0.628   8.271   7.348  0.9235  0.7010  0.4494
14765SOL     OW55948   1.237   6.684   5.698 -0.3224 -0.1997  0.6574
14765SOL    HW155949   1.334   6.696   5.720  0.7371 -5.3020 -0.6256
14765SOL    HW255950   1.212   6.742   5.621  2.0943  0.1961  0.1448
14766SOL     OW55951   1.883   4.427   1.160  0.6204  0.4010 -0.2867
14766SOL    HW155952   1.977   4.407   1.188  0.4891  0.4454  0.1934
14766SOL    HW255953   1.821   4.403   1.234  0.1767 -0.3867 -0.9129
14767SOL     OW55954   3.600   3.030   6.032 -0.1081 -0.0881  0.1003
14767SOL    HW155955   3.627   3.090   6.107 -0.2874 -0.0914  0.1670
14767SOL    HW255956   3.671   3.031   5.962 -0.2571  0.4590 -0.0490
14768SOL     OW55957   7.567   1.049   6.971  0.1927  0.9440 -0.0052
14768SOL    HW155958   7.603   0.960   7.000 -1.4044  0.7026  1.3189
14768SOL    HW255959   7.548   1.046   6.873  0.2247 -0.1589  0.0118
14769SOL     OW55960   3.280   1.250   6.898 -0.1685 -0.2762  0.4426
14769SOL    HW155961   3.286   1.159   6.856  1.5273  0.1988 -0.3858
14769SOL    HW255962   3.266   1.240   6.996 -2.0278 -1.4148  0.0915
14770SOL     OW55963   1.018   5.734   6.515 -0.0048  0.5768  0.0464
14770SOL    HW155964   0.995   5.654   6.459 -1.2514 -0.1112  1.4902
14770SOL    HW255965   1.111   5.724   6.550 -0.7781 -1.1524  1.6932
14771SOL     OW55966   0.744   3.687   5.228 -0.2836 -0.1568 -0.1885
14771SOL    HW155967   0.710   3.781   5.237  0.0353  0.0068 -0.6656
14771SOL    HW255968   0.731   3.655   5.134 -2.4105 -1.3930  0.5002
14772SOL     OW55969   5.400   9.520   3.052 -0.5743 -0.6365 -0.8609
14772SOL    HW155970   5.311   9.562   3.070 -0.6462 -0.4401 -1.6183
14772SOL    HW255971   5.452   9.579   2.989  0.7773  0.1084  0.9034
14773SOL     OW55972   9.186   4.029   0.247 -0.2013  0.3966 -0.3415
14773SOL    HW155973   9.261   3.982   0.200  0.3352  0.8776  0.0235
14773SOL    HW255974   9.223   4.083   0.323 -0.7527  1.7435 -1.0128
14774SOL     OW55975   1.642   2.906   1.801 -0.5292  0.4936 -0.3636
14774SOL    HW155976   1.566   2.852   1.765 -0.8906  0.4307  0.4728
14774SOL    HW255977   1.608   2.996   1.829 -0.1470  0.7449 -0.7146
14775SOL     OW55978   3.190   8.630   3.245  0.0124 -0.0553 -0.0782
14775SOL    HW155979   3.109   8.572   3.239 -0.6944  0.7962  0.9076
14775SOL    HW255980   3.219   8.637   3.341  1.5745 -0.7730 -0.4822
14776SOL     OW55981   4.737   0.456   5.553  0.8423 -0.4424 -0.0991
14776SOL    HW155982   4.746   0.357   5.567  0.8943 -0.3287  0.6924
14776SOL    HW255983   4.828   0.498   5.557  0.8034 -0.3451 -0.2643
14777SOL     OW55984   3.248   0.323   7.402  0.0319  0.4418  0.1143
14777SOL    HW155985   3.336   0.358   7.369  0.4698 -0.0284  0.7858
14777SOL    HW255986   3.257   0.293   7.497 -0.8263  0.2853  0.1512
14778SOL     OW55987   6.926   9.277   2.476 -0.2557 -0.1855 -0.1508
14778SOL    HW155988   6.899   9.284   2.572 -0.3942  1.3883 -0.3008
14778SOL    HW255989   6.943   9.368   2.439  0.5224 -0.8291 -1.4180
14779SOL     OW55990   6.246   1.489   2.602  0.7307  0.1481  0.3250
14779SOL    HW155991   6.198   1.414   2.556  1.4507  0.2207 -0.5528
14779SOL    HW255992   6.206   1.576   2.576 -0.2659  0.0739  1.5370
14780SOL     OW55993   2.955   7.955   1.246 -0.1160  0.0953  0.1273
14780SOL    HW155994   2.937   7.870   1.295  0.4482 -0.5353 -0.7342
14780SOL    HW255995   2.884   8.022   1.267 -0.8542 -0.7689  0.4015
14781SOL     OW55996   9.267   3.833   3.757  0.5652  0.5642 -0.3570
14781SOL    HW155997   9.295   3.759   3.818  2.4810  3.0620  1.8857
14781SOL    HW255998   9.174   3.862   3.781  0.3038 -0.2178 -0.3918
14782SOL     OW55999   6.520   8.156   4.435 -0.1725 -0.3909  0.2836
14782SOL    HW156000   6.565   8.095   4.500 -1.2007  0.2840  1.6570
14782SOL    HW256001   6.477   8.102   4.362  0.6298 -1.1753  0.3827
14783SOL     OW56002   3.692   8.540   2.217  0.8846 -0.2816  0.4244
14783SOL    HW156003   3.729   8.609   2.279  1.0721  0.2160 -0.2303
14783SOL    HW256004   3.755   8.527   2.140  1.3718 -1.9602  1.0933
14784SOL     OW56005   1.199   0.457   7.023  0.2073 -0.1576 -0.2850
14784SOL    HW156006   1.160   0.548   7.037 -0.5555 -0.8900  2.6669
14784SOL    HW256007   1.278   0.445   7.082  0.8189 -1.1172 -1.2870
14785SOL     OW56008   1.569   3.515   7.934  0.6368  0.3824 -0.0558
14785SOL    HW156009   1.475   3.525   7.966 -0.0016 -1.4609 -1.3020
14785SOL    HW256010   1.629   3.501   8.012 -0.4546 -0.8317  0.5874
14786SOL     OW56011   4.931   3.430   0.436  0.2754  0.0056 -0.3650
14786SOL    HW156012   4.900   3.498   0.370  2.9878 -0.0224 -1.7507
14786SOL    HW256013   4.889   3.341   0.415  0.1622  0.2736 -1.2807
14787SOL     OW56014   8.606   8.504   0.915  0.3053 -0.3055  0.1804
14787SOL    HW156015   8.567   8.558   0.841 -0.4629 -2.5999 -1.1162
14787SOL    HW256016   8.685   8.454   0.881  1.4330  0.4855  1.5543
14788SOL     OW56017   8.043   1.159   2.334 -0.1436  0.2170 -0.3253
14788SOL    HW156018   8.020   1.226   2.404  2.0181  1.0082 -0.3110
14788SOL    HW256019   8.045   1.204   2.245  0.9306  0.0913 -0.3687
14789SOL     OW56020   3.366   2.086   7.533  0.3238 -0.0526 -0.3136
14789SOL    HW156021   3.368   2.174   7.486  0.1130 -0.1128 -0.4327
14789SOL    HW256022   3.291   2.031   7.498 -0.8955  0.5558  1.2570
14790SOL     OW56023   5.111   6.443   0.898  0.1490 -0.1710 -0.5547
14790SOL    HW156024   5.118   6.538   0.928  0.1027 -0.2703 -0.2259
14790SOL    HW256025   5.051   6.393   0.960  0.3787 -0.4754 -0.5777
14791SOL     OW56026   8.495   4.311   1.582 -0.5937  0.1771  0.2423
14791SOL    HW156027   8.476   4.362   1.498 -0.5736  2.0672  1.3582
14791SOL    HW256028   8.547   4.369   1.645 -0.2142 -1.3789  1.3747
14792SOL     OW56029   8.220   5.647   5.461  0.1247 -0.6503  0.2906
14792SOL    HW156030   8.206   5.688   5.371  0.3664  0.5864  0.8029
14792SOL    HW256031   8.295   5.695   5.508 -0.7973 -0.4746  1.6199
14793SOL     OW56032   4.056   0.216   1.491 -0.1700  0.2673 -0.4610
14793SOL    HW156033   4.008   0.249   1.572 -0.4889 -1.6105  0.1541
14793SOL    HW256034   4.154   0.210   1.510 -0.1605  0.4963 -0.4417
14794SOL     OW56035   1.768   5.732   5.933 -0.1494  0.0404 -0.1441
14794SOL    HW156036   1.804   5.701   6.021 -0.4774  1.2913  0.4455
14794SOL    HW256037   1.672   5.704   5.924  0.0029 -0.4384 -0.2826
14795SOL     OW56038   3.083   6.484   5.283 -0.1016  0.4483  0.1299
14795SOL    HW156039   3.050   6.571   5.248  1.3678  1.1647  0.4771
14795SOL    HW256040   3.146   6.443   5.216  0.2482  0.2961  0.5505
14796SOL     OW56041   3.241   3.275   3.345  0.0513  0.4228 -0.0411
14796SOL    HW156042   3.149   3.252   3.376 -0.1591  1.5819  0.2224
14796SOL    HW256043   3.243   3.280   3.246 -0.0577 -0.0503 -0.0682
14797SOL     OW56044   1.100   9.197   4.836 -0.6090  0.4052 -0.5390
14797SOL    HW156045   1.051   9.144   4.904 -0.3646 -0.6009 -1.1439
14797SOL    HW256046   1.198   9.193   4.856 -0.2918 -1.9514 -2.3495
14798SOL     OW56047   0.460   6.857   3.296  0.0154 -0.2212 -0.1720
14798SOL    HW156048   0.525   6.933   3.297 -0.0490 -0.1466 -1.2483
14798SOL    HW256049   0.509   6.770   3.309  0.2757 -0.1242 -0.5078
14799SOL     OW56050   2.197   7.534   6.024 -0.0361  0.0566 -0.0297
14799SOL    HW156051   2.103   7.501   6.019 -0.2335  0.3553  1.5051
14799SOL    HW256052   2.260   7.458   6.009 -0.5121 -0.4516  0.5134
14800SOL     OW56053   7.044   8.670   1.576 -0.0304  0.3356 -0.0537
14800SOL    HW156054   6.955   8.709   1.603  0.4050  0.6978  0.8977
14800SOL    HW256055   7.066   8.699   1.483 -0.0350  1.8248  0.3973
14801SOL     OW56056   1.794   9.902   6.957  0.3555  0.2510 -0.3884
14801SOL    HW156057   1.842   9.948   7.032 -2.6423  0.7783  1.2924
14801SOL    HW256058   1.773   9.808   6.984 -0.4034  0.3220 -0.7177
14802SOL     OW56059   1.565   7.500   2.647  0.1771 -0.2228  0.1868
14802SOL    HW156060   1.548   7.585   2.698  0.9229 -0.4713  0.8596
14802SOL    HW256061   1.545   7.515   2.550  0.3017  0.7306  0.3015
14803SOL     OW56062   3.349   4.584   7.125 -0.5133  0.3009  0.1466
14803SOL    HW156063   3.270   4.537   7.165  0.3951 -0.2526  1.3374
14803SOL    HW256064   3.385   4.531   7.049 -1.7571  0.9465 -0.9098
14804SOL     OW56065   8.915   2.196   6.586 -0.0329  0.1556  0.1047
14804SOL    HW156066   9.012   2.187   6.607  0.3179 -0.3699 -1.6431
14804SOL    HW256067   8.892   2.293   6.575  0.4820  0.2256 -0.3448
14805SOL     OW56068   7.702   2.745   4.676 -0.0605 -1.1728  0.4943
14805SOL    HW156069   7.628   2.685   4.707 -2.5910  1.5826  0.0482
14805SOL    HW256070   7.735   2.714   4.587  1.4546 -4.2017  2.0675
14806SOL     OW56071   4.162   9.509   0.523 -0.1447 -0.0653  0.4092
14806SOL    HW156072   4.178   9.546   0.615 -0.9956 -0.0297  0.5414
14806SOL    HW256073   4.095   9.435   0.527 -0.0400 -0.1966 -0.1577
14807SOL     OW56074   8.011   0.058   2.592 -0.4163 -0.1453 -0.7270
14807SOL    HW156075   8.011  -0.016   2.660 -0.4215  0.5526  0.0319
14807SOL    HW256076   7.971   0.140   2.633 -1.9987 -0.2049 -2.0963
14808SOL     OW56077   7.362   5.901   3.589  0.5775 -0.3541  0.2939
14808SOL    HW156078   7.431   5.960   3.545  0.3238  0.3192  0.7990
14808SOL    HW256079   7.293   5.958   3.634  0.3177 -1.0391  0.7648
14809SOL     OW56080   0.100   9.550   8.001  0.1214  0.1723  0.4153
14809SOL    HW156081   0.035   9.477   8.023  1.3763 -1.3064 -0.6518
14809SOL    HW256082   0.050   9.634   7.979 -1.3070 -0.0999  2.5511
14810SOL     OW56083   0.081   2.048   5.544 -0.2241  0.5363 -0.2254
14810SOL    HW156084   0.101   1.982   5.616 -2.5223  2.1788  2.0335
14810SOL    HW256085   0.166   2.091   5.513  0.8777 -0.6982  1.0166
14811SOL     OW56086   3.814   8.135   3.118 -0.5506 -0.3399  0.3486
14811SOL    HW156087   3.845   8.216   3.169  0.4451 -0.8245  0.5315
14811SOL    HW256088   3.881   8.061   3.130 -0.1005 -0.3437 -1.9974
14812SOL     OW56089   9.577   0.384   7.473 -0.1616  0.9241 -0.1742
14812SOL    HW156090   9.560   0.454   7.542  0.5814  3.7156 -2.6925
14812SOL    HW256091   9.661   0.407   7.423 -0.3863 -1.3125 -1.6569
14813SOL     OW56092   0.598   7.778   5.099  0.1435 -0.2069  0.1683
14813SOL    HW156093   0.639   7.868   5.117 -0.1143 -0.1604  0.5210
14813SOL    HW256094   0.655   7.729   5.033 -0.2866  0.6539 -0.8638
14814SOL     OW56095   7.361   0.997   4.555  0.3467  0.1325 -0.2779
14814SOL    HW156096   7.371   0.940   4.473  1.0991  0.0639 -0.1443
14814SOL    HW256097   7.446   0.995   4.607 -0.1025  0.2545  0.4619
14815SOL     OW56098   0.580   9.274   1.551 -0.5238  0.8037 -0.3865
14815SOL    HW156099   0.640   9.196   1.536 -0.6289  0.6388  0.0423
14815SOL    HW256100   0.555   9.314   1.463 -1.7187 -0.5997 -0.7070
14816SOL     OW56101   9.099   7.815   6.588 -0.2153 -0.2700  0.4870
14816SOL    HW156102   9.004   7.832   6.563 -0.3331 -0.8261  0.5602
14816SOL    HW256103   9.158   7.835   6.510 -0.4449 -0.5204  0.2474
14817SOL     OW56104   1.594   0.839   0.916 -0.3481 -0.1519  0.0241
14817SOL    HW156105   1.544   0.782   0.982 -0.3486  2.3072  2.2639
14817SOL    HW256106   1.540   0.921   0.896  1.2235  0.8343 -0.2501
14818SOL     OW56107   3.939   8.469   7.106  0.3708  0.4946 -0.0264
14818SOL    HW156108   3.986   8.539   7.052 -1.2163  0.9100 -0.9084
14818SOL    HW256109   3.890   8.513   7.181  0.3194  0.2105  0.1046
14819SOL     OW56110   4.291   4.118   1.917  0.2390  0.4116  0.5823
14819SOL    HW156111   4.388   4.133   1.898  0.4059 -1.6723 -0.2896
14819SOL    HW256112   4.278   4.026   1.952 -1.6920 -0.0336 -1.2323
14820SOL     OW56113   2.490   7.920   5.773  0.2632  0.6775  0.2585
14820SOL    HW156114   2.481   8.008   5.819 -0.9280  0.6250  0.1387
14820SOL    HW256115   2.445   7.849   5.828  2.1608 -0.0673  0.9092
14821SOL     OW56116   6.113   0.882   6.842  0.6257  0.2769  0.5009
14821SOL    HW156117   6.099   0.876   6.941  0.8301  1.5735  0.6276
14821SOL    HW256118   6.027   0.866   6.795  0.6808 -1.0954  0.8535
14822SOL     OW56119   0.721   8.051   1.549 -0.5572  0.9624 -0.4510
14822SOL    HW156120   0.691   7.975   1.492 -1.0139  1.0753 -0.3606
14822SOL    HW256121   0.671   8.050   1.636  0.8270  0.2139  0.3550
14823SOL     OW56122   5.063   4.541   1.319  0.6308 -0.0372  0.0403
14823SOL    HW156123   5.036   4.572   1.228  1.8890  0.0447 -0.3199
14823SOL    HW256124   5.153   4.498   1.313  1.4849  1.4840  1.5239
14824SOL     OW56125   4.787   0.863   7.607  0.2917  0.5113  0.0410
14824SOL    HW156126   4.882   0.835   7.621  0.5021 -0.0136 -2.2138
14824SOL    HW256127   4.732   0.835   7.685  1.3513 -2.2614 -0.1601
14825SOL     OW56128   0.174   6.816   7.838 -0.2232  0.0144  0.2423
14825SOL    HW156129   0.190   6.718   7.832  1.2332  0.3461 -1.5580
14825SOL    HW256130   0.175   6.844   7.934  0.1099 -1.5877  0.7211
14826SOL     OW56131   0.903   1.027   1.085  0.3418  0.2853  0.0448
14826SOL    HW156132   0.938   0.938   1.056  1.0612 -0.1658  2.1917
14826SOL    HW256133   0.918   1.094   1.013  1.1420 -1.0053 -1.0071
14827SOL     OW56134   8.860   0.225   3.951 -0.2963  0.0772 -0.0182
14827SOL    HW156135   8.774   0.258   3.990  0.5654  1.0379  1.1098
14827SOL    HW256136   8.854   0.126   3.936 -2.0523  0.3420 -1.1995
14828SOL     OW56137   0.038   2.694   7.654  0.0497  0.3799 -0.2198
14828SOL    HW156138   0.073   2.647   7.572 -0.4535  1.5443 -1.1233
14828SOL    HW256139   0.109   2.696   7.724  1.0789  0.8363 -1.2493
14829SOL     OW56140   1.239   7.715   0.617  0.4231  0.3008 -0.8166
14829SOL    HW156141   1.268   7.687   0.709 -2.6510 -0.1874  0.0817
14829SOL    HW256142   1.188   7.640   0.575  0.7551  0.9798 -2.4602
14830SOL     OW56143   1.243   8.260   2.829  0.5483 -0.6407  0.0153
14830SOL    HW156144   1.216   8.345   2.785 -1.3921 -0.8120  0.8362
14830SOL    HW256145   1.171   8.230   2.892  1.8500 -2.1073  0.8502
14831SOL     OW56146   7.872   2.013   0.979  0.4666  0.2123  0.3688
14831SOL    HW156147   7.879   1.975   0.887  0.7272 -1.4903  1.0591
14831SOL    HW256148   7.911   2.105   0.981  0.8628  0.0851 -1.1072
14832SOL     OW56149   0.773   3.257   7.634  0.8726 -0.7761  0.0603
14832SOL    HW156150   0.712   3.336   7.641  1.6828 -0.2777  1.7046
14832SOL    HW256151   0.721   3.173   7.650 -0.1015 -0.6485 -2.2324
14833SOL     OW56152   4.117   4.605   6.367 -0.0145 -0.0323 -0.0890
14833SOL    HW156153   4.091   4.631   6.274  0.0472 -2.4555 -0.7972
14833SOL    HW256154   4.216   4.619   6.378  0.2834 -1.3780 -0.9539
14834SOL     OW56155   3.746   0.338   4.026 -0.4779 -0.5689 -0.1175
14834SOL    HW156156   3.775   0.311   4.118  0.2976  0.3754 -0.0732
14834SOL    HW256157   3.767   0.265   3.961  1.3545 -0.2211  0.0438
14835SOL     OW56158   3.388   3.912   3.199 -0.0557 -0.4151  0.1141
14835SOL    HW156159   3.447   3.832   3.210 -1.0505 -1.3244 -1.0801
14835SOL    HW256160   3.350   3.914   3.107 -1.5789  0.3776  0.7343
14836SOL     OW56161   0.956   5.945   2.617 -0.1208  0.6901 -0.0494
14836SOL    HW156162   1.021   5.885   2.571 -0.1033  0.5366  0.1755
14836SOL    HW256163   0.926   5.903   2.703  0.6086  1.4135  0.5686
14837SOL     OW56164   3.170   0.977   5.157 -0.0096  0.6866 -0.7741
14837SOL    HW156165   3.227   0.965   5.239  0.4094  1.0439 -1.0135
14837SOL    HW256166   3.196   0.910   5.088 -1.8469 -1.0757  0.1933
14838SOL     OW56167   6.991   9.292   4.781  0.4890 -0.6525  0.3229
14838SOL    HW156168   6.959   9.299   4.876  1.6064 -0.9079  0.7165
14838SOL    HW256169   7.016   9.198   4.762  0.8990 -0.4702 -0.0286
14839SOL     OW56170   8.907   6.041   5.618  0.1113 -0.1601 -0.0134
14839SOL    HW156171   8.822   6.054   5.669 -0.7524 -1.3928 -1.1185
14839SOL    HW256172   8.892   6.061   5.522  0.1498 -3.6765 -0.8148
14840SOL     OW56173   9.600   0.076   2.719  0.1224 -0.2093  1.1177
14840SOL    HW156174   9.692   0.115   2.726 -0.2604  1.1658 -0.9491
14840SOL    HW256175   9.603  -0.005   2.661 -0.0761  0.2561  0.4497
14841SOL     OW56176   6.854   7.304   8.096  0.0620  0.4254  0.2155
14841SOL    HW156177   6.834   7.210   8.068  0.3465  0.3816  0.1498
14841SOL    HW256178   6.926   7.342   8.037  0.3314  0.4957  0.5845
14842SOL     OW56179   4.517   3.584   2.195 -0.3043 -0.5842 -0.7867
14842SOL    HW156180   4.468   3.643   2.259  0.8932  0.7492 -1.0861
14842SOL    HW256181   4.611   3.572   2.226 -0.8216 -3.2786 -0.1283
14843SOL     OW56182   0.695   8.511   2.145  0.2653  0.0260  0.5638
14843SOL    HW156183   0.708   8.463   2.232  0.2657 -2.1352 -0.5836
14843SOL    HW256184   0.608   8.485   2.105  1.6000 -1.4140 -1.5207
14844SOL     OW56185   6.385   9.668   1.308 -0.0055 -0.1668 -0.1009
14844SOL    HW156186   6.409   9.599   1.375 -1.4538  0.1381  0.7282
14844SOL    HW256187   6.287   9.686   1.310  0.2814  1.6076 -0.5974
14845SOL     OW56188   9.644   7.405   5.979  0.1438  0.4356 -0.2465
14845SOL    HW156189   9.598   7.493   5.986 -0.1112  0.3301 -0.5471
14845SOL    HW256190   9.695   7.401   5.893  0.0533  0.2431 -0.2913
14846SOL     OW56191   4.408   2.429   1.090 -0.2698 -0.0396 -0.1767
14846SOL    HW156192   4.383   2.403   1.183 -1.0182 -0.3125 -0.4504
14846SOL    HW256193   4.483   2.496   1.093 -0.9980  0.7514  0.6579
14847SOL     OW56194   8.402   7.673   5.301  0.0116 -0.3588  0.6675
14847SOL    HW156195   8.427   7.767   5.325  0.5399 -0.6192  1.1403
14847SOL    HW256196   8.349   7.674   5.216 -0.4143  0.4113  0.9279
14848SOL     OW56197   7.679   5.521   6.101  0.1572  0.0938  0.0817
14848SOL    HW156198   7.773   5.554   6.106  0.7379 -1.8286  3.6364
14848SOL    HW256199   7.622   5.575   6.164 -0.9743  0.7145 -1.4470
14849SOL     OW56200   1.233   1.634   6.362  0.3124  0.2595 -0.1756
14849SOL    HW156201   1.200   1.689   6.285  3.1270  1.4222 -0.6163
14849SOL    HW256202   1.276   1.550   6.327  0.2260  0.0538  0.2121
14850SOL     OW56203   8.247   8.029   0.867 -0.2120  1.1109  0.2384
14850SOL    HW156204   8.305   8.107   0.845  0.6524 -0.0170 -1.5892
14850SOL    HW256205   8.302   7.945   0.866 -1.8306  0.0231 -1.5346
14851SOL     OW56206   7.380   0.763   5.974 -0.2629  0.0859  0.3573
14851SOL    HW156207   7.401   0.857   6.002 -1.4805  0.4076  0.1860
14851SOL    HW256208   7.282   0.753   5.959 -0.0657 -1.0541 -0.2406
14852SOL     OW56209   6.019   2.345   6.183  0.0889 -0.0130 -0.5339
14852SOL    HW156210   6.089   2.303   6.240  0.5725  2.1038  0.4544
14852SOL    HW256211   5.952   2.275   6.157 -0.1503 -1.0486  2.6034
14853SOL     OW56212   3.705   6.412   2.027 -0.0180  0.1469  0.0743
14853SOL    HW156213   3.699   6.359   1.943  0.7922 -0.1461  0.2006
14853SOL    HW256214   3.615   6.451   2.048 -0.7447 -1.5751  0.2339
14854SOL     OW56215   0.242   1.364   4.308  0.0786 -0.6575 -0.0628
14854SOL    HW156216   0.152   1.357   4.265  0.1107  1.3683 -0.5085
14854SOL    HW256217   0.302   1.294   4.269 -0.5302 -0.2755 -1.7562
14855SOL     OW56218   2.956   9.135   3.532  0.3746  0.3973  0.2529
14855SOL    HW156219   2.972   9.045   3.493  0.9170  0.5444  0.1302
14855SOL    HW256220   2.920   9.197   3.461  0.8238  0.5118  0.1265
14856SOL     OW56221   0.847   7.054   3.254 -0.4772  0.4049 -0.6952
14856SOL    HW156222   0.812   7.075   3.163 -1.4543 -0.6118 -0.5682
14856SOL    HW256223   0.771   7.051   3.319  0.2966  1.8728  0.3103
14857SOL     OW56224   1.795   6.525   3.699  0.8340  0.7898  0.3176
14857SOL    HW156225   1.848   6.491   3.621 -0.1469 -1.9370  0.7980
14857SOL    HW256226   1.745   6.607   3.671  0.4234 -0.1957 -1.9889
14858SOL     OW56227   2.642   8.549   2.038  0.4388 -0.5548  0.1578
14858SOL    HW156228   2.686   8.632   2.005  0.5336 -1.5146 -2.1854
14858SOL    HW256229   2.565   8.573   2.098  0.5737  1.2147 -0.3739
14859SOL     OW56230   3.204   9.757   2.241 -0.5531 -0.5418  0.4370
14859SOL    HW156231   3.282   9.810   2.276  1.0559 -2.3856 -0.2521
14859SOL    HW256232   3.144   9.817   2.188  2.4442  0.1601 -2.2731
14860SOL     OW56233   9.312   0.725   0.292  0.0775  0.1903 -0.0961
14860SOL    HW156234   9.336   0.789   0.365 -0.5647  0.9391 -0.5284
14860SOL    HW256235   9.324   0.631   0.325 -0.1523  0.5167  0.9598
14861SOL     OW56236   4.318   5.112   7.168  0.1530  0.1828 -0.0305
14861SOL    HW156237   4.260   5.193   7.169 -0.2114 -0.0901  0.7617
14861SOL    HW256238   4.379   5.116   7.088  0.8878  1.7581  0.5950
14862SOL     OW56239   1.702   9.627   6.978  0.6371 -0.3135  0.7385
14862SOL    HW156240   1.732   9.623   6.883 -0.8901  3.1016  0.0401
14862SOL    HW256241   1.644   9.549   6.998  0.3763 -0.6877 -1.3421
14863SOL     OW56242   9.434   9.196   7.177  0.0717  0.5747 -0.0177
14863SOL    HW156243   9.347   9.240   7.198 -1.5105 -2.2504 -0.3812
14863SOL    HW256244   9.447   9.118   7.237  2.3830  0.9613  0.0286
14864SOL     OW56245   2.391   6.515   5.089 -0.5641  0.1249 -0.4838
14864SOL    HW156246   2.465   6.580   5.107 -1.0214  1.1396 -2.1126
14864SOL    HW256247   2.340   6.544   5.008 -2.9210 -0.4120  0.7529
14865SOL     OW56248   4.219   3.448   5.816 -0.8363  0.5075 -0.6208
14865SOL    HW156249   4.269   3.472   5.733  2.3964 -1.4988  0.6630
14865SOL    HW256250   4.267   3.485   5.896 -2.2351 -0.1737  0.5584
14866SOL     OW56251   2.806   0.115   7.732  0.1031 -0.3468 -0.4101
14866SOL    HW156252   2.780   0.021   7.713 -1.3820 -0.0328 -0.0261
14866SOL    HW256253   2.733   0.177   7.701  0.4664  0.5773  0.5220
14867SOL     OW56254   1.764   6.169   0.193 -0.0248  0.0040  0.2383
14867SOL    HW156255   1.773   6.079   0.235 -0.9129 -0.2080 -0.0321
14867SOL    HW256256   1.788   6.239   0.260  0.1562 -0.4034  0.6053
14868SOL     OW56257   0.248   5.748   4.605 -0.0767 -0.1619 -0.3966
14868SOL    HW156258   0.228   5.748   4.703 -1.3958  0.3776 -0.6540
14868SOL    HW256259   0.251   5.654   4.571 -2.3343 -0.2784 -0.3636
14869SOL     OW56260   3.008   9.143   6.386 -0.0855  0.2624  0.7362
14869SOL    HW156261   2.995   9.047   6.362  0.0695  0.3528  0.2738
14869SOL    HW256262   2.944   9.169   6.458  0.2878 -0.3471  1.2892
14870SOL     OW56263   9.403   3.505   5.958 -0.3117 -0.1683 -0.2885
14870SOL    HW156264   9.420   3.584   5.899 -1.7268  1.0507  0.9015
14870SOL    HW256265   9.485   3.488   6.013 -0.4900  1.4140  0.5102
14871SOL     OW56266   9.391   0.716   5.912  0.1495  0.0566  0.0952
14871SOL    HW156267   9.350   0.638   5.865  1.6351 -0.6821  0.0142
14871SOL    HW256268   9.453   0.764   5.849  1.6554 -0.5628  1.1024
14872SOL     OW56269   2.990   0.078   4.956 -0.2988 -0.3669 -0.0756
14872SOL    HW156270   3.053   0.118   4.889 -1.6934  0.4622 -0.9042
14872SOL    HW256271   3.009  -0.019   4.965  0.1574 -0.4121 -1.3816
14873SOL     OW56272   5.879   3.677   1.310  0.3786  0.4085 -0.3891
14873SOL    HW156273   5.950   3.743   1.333  2.2291 -1.3079 -0.9637
14873SOL    HW256274   5.914   3.613   1.241 -1.9953 -0.0144 -1.2518
14874SOL     OW56275   3.048   8.382   2.281  0.1695 -0.4652 -0.1575
14874SOL    HW156276   3.001   8.422   2.360  0.2379 -0.3455 -0.1763
14874SOL    HW256277   3.062   8.452   2.212 -0.1058 -0.6254 -0.3775
14875SOL     OW56278   5.052   1.900   6.478  0.2460 -0.2342 -0.1681
14875SOL    HW156279   5.082   1.890   6.383 -0.9375  0.1078 -0.5852
14875SOL    HW256280   5.016   1.812   6.510 -1.1616  0.1352 -0.6838
14876SOL     OW56281   4.479   3.503   4.247  0.1702 -0.0317 -0.0708
14876SOL    HW156282   4.468   3.517   4.346 -1.2556 -1.7821  0.0460
14876SOL    HW256283   4.541   3.426   4.232 -0.9611 -0.8703 -0.5016
14877SOL     OW56284   9.893   7.261   1.318 -0.8574 -0.7256  0.4840
14877SOL    HW156285   9.948   7.299   1.392 -0.0622 -2.0004  0.5545
14877SOL    HW256286   9.805   7.230   1.354 -0.9422 -0.2555  0.6775
14878SOL     OW56287   9.879   1.998   6.757 -0.5399 -0.1828  0.1067
14878SOL    HW156288   9.927   1.990   6.845  2.1640  1.5360 -1.1406
14878SOL    HW256289   9.829   2.084   6.754 -1.7106 -0.8343  0.4276
14879SOL     OW56290   2.873   9.887   0.530 -0.2129 -0.8678 -0.0091
14879SOL    HW156291   2.959   9.928   0.559 -0.7046 -0.3328  0.7076
14879SOL    HW256292   2.891   9.805   0.476  0.7539 -0.3833 -0.4207
14880SOL     OW56293   6.368   3.622  10.077  0.2829 -0.1955  0.8001
14880SOL    HW156294   6.338   3.708  10.035  1.5827  0.1093  0.4807
14880SOL    HW256295   6.463   3.603  10.050  0.3252 -1.2349  1.6524
14881SOL     OW56296   7.978   7.533   2.108  0.4411 -0.4163  0.1406
14881SOL    HW156297   7.977   7.473   2.028  0.1166  1.4155 -1.2816
14881SOL    HW256298   7.889   7.531   2.152  0.7802 -1.8392  0.7821
14882SOL     OW56299   2.615   1.385   6.419 -0.0229 -0.3912 -0.0854
14882SOL    HW156300   2.596   1.409   6.323 -1.0010 -1.7216 -0.2378
14882SOL    HW256301   2.619   1.469   6.473 -0.2116  0.3341 -1.1655
14883SOL     OW56302   1.742   0.390   7.274  0.4583 -0.2971  0.3965
14883SOL    HW156303   1.797   0.384   7.357 -0.8871 -0.9397  1.2528
14883SOL    HW256304   1.797   0.431   7.201  2.3384 -1.6694  0.9968
14884SOL     OW56305   9.835   8.592   5.899 -0.2617  0.4365 -0.2721
14884SOL    HW156306   9.908   8.530   5.929  0.2422  2.0763  1.9888
14884SOL    HW256307   9.782   8.621   5.978 -2.1819  0.7979 -1.6682
14885SOL     OW56308   8.477   3.544   5.370  0.0358  0.2285  0.4358
14885SOL    HW156309   8.380   3.528   5.390  0.4560 -2.3960  0.5821
14885SOL    HW256310   8.531   3.528   5.453  0.7866 -0.4626 -0.1702
14886SOL     OW56311   0.078   7.503   0.270  0.8924  0.1050  0.1757
14886SOL    HW156312   0.105   7.455   0.353  0.7389  1.0133  0.7574
14886SOL    HW256313  -0.021   7.495   0.258  0.7321  1.1164  0.8091
14887SOL     OW56314   0.398   1.604   4.715  0.4114 -0.1226  0.2317
14887SOL    HW156315   0.465   1.597   4.640  1.1052 -1.6353  0.9647
14887SOL    HW256316   0.447   1.606   4.802 -0.3653  2.3105  0.6451
14888SOL     OW56317   9.487   1.132   0.252  0.1321  0.0484  0.1150
14888SOL    HW156318   9.498   1.215   0.197  0.7041 -1.1763 -1.6838
14888SOL    HW256319   9.549   1.136   0.330  0.1753  1.3090  0.0283
14889SOL     OW56320   3.013   1.957   4.679 -0.1712  0.1404  0.1343
14889SOL    HW156321   3.057   2.028   4.734 -0.9725  0.3017  0.5695
14889SOL    HW256322   3.045   1.963   4.584  0.9797  0.0565  0.5124
14890SOL     OW56323   2.002   0.140   7.070  0.5577 -0.3365 -0.2237
14890SOL    HW156324   2.088   0.179   7.040  0.9283 -1.5916 -0.8501
14890SOL    HW256325   2.019   0.056   7.121 -0.2232  0.2339  0.9930
14891SOL     OW56326   6.451   2.033   0.980 -0.2928 -0.7586  0.3195
14891SOL    HW156327   6.414   2.020   0.888 -0.3533 -2.8079  0.6023
14891SOL    HW256328   6.401   2.106   1.026 -1.5500 -1.0295 -0.5861
14892SOL     OW56329   7.502   8.841   6.341 -0.2823 -0.1354  0.1100
14892SOL    HW156330   7.598   8.831   6.370  0.2062 -1.6838 -1.9067
14892SOL    HW256331   7.465   8.751   6.319 -1.8132  0.6004 -0.3643
14893SOL     OW56332   1.331   3.615   4.013 -0.2096 -0.7129  0.4524
14893SOL    HW156333   1.291   3.693   3.963  0.9228 -0.9890 -0.9056
14893SOL    HW256334   1.274   3.534   3.999  0.3957 -0.9235 -0.8626
14894SOL     OW56335   1.781   3.353   1.758  0.1876 -0.4924 -0.1202
14894SOL    HW156336   1.742   3.364   1.666 -0.8203 -0.0860  0.3493
14894SOL    HW256337   1.787   3.443   1.802  0.5911 -0.6981  0.2512
14895SOL     OW56338   8.103   5.375   6.116  0.3077  0.1657 -0.4824
14895SOL    HW156339   8.014   5.340   6.145  0.8535 -0.8670 -0.0431
14895SOL    HW256340   8.090   5.459   6.063 -0.7795  1.4239  1.7011
14896SOL     OW56341   8.182   6.928   1.532 -0.0922  0.1460  0.3839
14896SOL    HW156342   8.089   6.905   1.500  0.1653  1.1064 -1.0843
14896SOL    HW256343   8.248   6.903   1.461  0.6299  0.9545  0.7792
14897SOL     OW56344   3.057   1.561   7.477 -0.0404 -0.7381 -0.0371
14897SOL    HW156345   3.085   1.545   7.571 -1.4351 -1.6041  0.2380
14897SOL    HW256346   3.027   1.475   7.435 -0.7953 -0.1156 -0.8079
14898SOL     OW56347   9.696   4.428   6.001  0.1845 -0.8622 -0.0313
14898SOL    HW156348   9.683   4.334   5.970 -2.8032 -0.5954  0.3084
14898SOL    HW256349   9.680   4.433   6.100 -2.6553  0.5330 -0.5393
14899SOL     OW56350   6.922   8.654   4.279  0.1701 -0.0527 -0.3153
14899SOL    HW156351   6.898   8.667   4.375  0.9205  0.4602 -0.1931
14899SOL    HW256352   6.954   8.560   4.265  2.0409  0.4619  0.3723
14900SOL     OW56353   8.323   8.538   5.856  0.0359 -0.0179 -0.3860
14900SOL    HW156354   8.310   8.533   5.955 -0.0454  0.9348 -0.3448
14900SOL    HW256355   8.419   8.557   5.836  0.2839 -1.3743 -0.5304
14901SOL     OW56356   4.399   9.281   8.023 -0.3257  0.4228 -0.5842
14901SOL    HW156357   4.300   9.269   8.035 -0.5174  2.0852 -0.3588
14901SOL    HW256358   4.426   9.369   8.061  1.5633 -0.8236  1.0741
14902SOL     OW56359   8.587   2.810   1.689  0.1868  0.6573 -0.9965
14902SOL    HW156360   8.601   2.888   1.628 -0.6951 -0.6638 -2.9601
14902SOL    HW256361   8.592   2.726   1.636  0.0147 -0.5619  0.8955
14903SOL     OW56362   9.517   3.734   5.824  0.2772  0.3342  0.3820
14903SOL    HW156363   9.614   3.717   5.804  0.4323  1.2558  0.3219
14903SOL    HW256364   9.508   3.759   5.920  0.4398  2.7946 -0.2201
14904SOL     OW56365   0.770   8.431   3.505 -0.7692 -0.4763  0.1032
14904SOL    HW156366   0.807   8.360   3.445  0.1167  1.4374 -1.6747
14904SOL    HW256367   0.692   8.475   3.461  0.4868  1.6060 -0.1188
14905SOL     OW56368   8.559   3.642   0.449 -0.1575  0.4160 -0.3870
14905SOL    HW156369   8.535   3.545   0.448  0.2526  0.3134 -1.7168
14905SOL    HW256370   8.583   3.671   0.356 -1.7066  2.1628 -0.2544
14906SOL     OW56371   9.052   5.299   2.781 -0.3599 -0.2721 -0.2420
14906SOL    HW156372   9.142   5.279   2.742 -0.1655  0.7315 -0.3123
14906SOL    HW256373   9.041   5.398   2.791 -0.4722 -0.4860  2.1076
14907SOL     OW56374   1.374   2.212   5.265  0.0169  0.2781 -0.4964
14907SOL    HW156375   1.304   2.146   5.293 -0.3182  0.3498 -1.1585
14907SOL    HW256376   1.345   2.259   5.182  0.7366  0.4925 -0.6333
14908SOL     OW56377   0.723   2.343   5.320 -0.3082 -0.1701  0.0770
14908SOL    HW156378   0.749   2.252   5.352 -2.5150 -0.8047  0.1738
14908SOL    HW256379   0.774   2.366   5.237  2.5054 -0.1907  1.7357
14909SOL     OW56380   0.394   3.159   5.374 -0.3332  0.5656 -0.1771
14909SOL    HW156381   0.401   3.060   5.381  1.0630  0.5284 -1.9627
14909SOL    HW256382   0.299   3.185   5.356 -0.6494 -0.4457  0.0417
14910SOL     OW56383   8.849   6.425   7.411 -0.1572  0.0915 -0.0773
14910SOL    HW156384   8.855   6.423   7.511  0.8196 -1.1124 -0.1432
14910SOL    HW256385   8.792   6.502   7.382 -1.0090  0.0472  1.4319
14911SOL     OW56386   9.218   2.700   2.255  0.4505 -0.2115  0.1853
14911SOL    HW156387   9.264   2.647   2.184  0.8714  1.3873 -0.7558
14911SOL    HW256388   9.123   2.716   2.229  0.8813  1.2538 -0.5208
14912SOL     OW56389   0.443   6.537   6.338  0.1623  0.2464 -0.2565
14912SOL    HW156390   0.492   6.466   6.388 -1.2015 -0.0317  0.7038
14912SOL    HW256391   0.402   6.497   6.256  0.6004  0.2455 -0.4778
14913SOL     OW56392   3.716   8.311   0.435  0.0038  0.0132 -0.2300
14913SOL    HW156393   3.661   8.378   0.485 -0.7898  0.2372 -1.3900
14913SOL    HW256394   3.675   8.294   0.346  1.9144  0.3048 -1.1808
14914SOL     OW56395   8.751   2.736   1.908 -0.4475  0.8968  0.9266
14914SOL    HW156396   8.663   2.740   1.860  0.5811 -0.5802 -1.1835
14914SOL    HW256397   8.825   2.738   1.841  1.0364 -1.3725  2.4457
14915SOL     OW56398   9.633   3.641   3.051  0.3216 -0.0464  0.0873
14915SOL    HW156399   9.644   3.579   3.129  2.4967  0.4683  0.2156
14915SOL    HW256400   9.561   3.706   3.070 -0.9300 -1.5520  0.5931
14916SOL     OW56401   3.003   6.995   4.222  0.6188  0.0915  0.0535
14916SOL    HW156402   2.973   6.981   4.127  0.1079 -1.0638  0.3771
14916SOL    HW256403   2.944   7.063   4.265 -0.9803 -1.4365  0.3783
14917SOL     OW56404   6.540   0.529   3.006 -0.1843  0.2215  0.3351
14917SOL    HW156405   6.605   0.467   3.049 -0.2133  0.2998  0.4938
14917SOL    HW256406   6.559   0.623   3.036  0.2065  0.3546 -0.3419
14918SOL     OW56407   6.428   9.109   6.629 -0.3357  0.0392  0.0786
14918SOL    HW156408   6.449   9.194   6.677 -0.0621 -1.1594  2.0960
14918SOL    HW256409   6.400   9.131   6.535  3.2552  2.1272 -0.6186
14919SOL     OW56410   7.110   8.917   7.386 -0.3681  0.1503 -0.1413
14919SOL    HW156411   7.017   8.917   7.351 -0.0941 -0.8142 -0.9083
14919SOL    HW256412   7.156   8.832   7.357  0.2923 -0.0299  1.4130
14920SOL     OW56413   1.574   5.597   2.582  0.3047 -0.6238  0.0610
14920SOL    HW156414   1.538   5.510   2.617  0.9542 -1.4648 -1.2815
14920SOL    HW256415   1.558   5.669   2.648 -3.8012 -0.9516 -0.4122
14921SOL     OW56416   7.764   1.746   5.797  0.7321 -0.1274  0.2743
14921SOL    HW156417   7.775   1.686   5.876  0.0987 -2.5115 -1.3754
14921SOL    HW256418   7.845   1.740   5.739  1.2737  1.7486  0.8057
14922SOL     OW56419   2.391   4.118   1.430 -0.2037 -0.5358 -0.2021
14922SOL    HW156420   2.348   4.208   1.441  2.7996  0.7099  1.9918
14922SOL    HW256421   2.331   4.048   1.470 -2.2200  0.5706 -1.2318
14923SOL     OW56422   0.808   2.945   2.232  0.2159 -0.4616  0.6645
14923SOL    HW156423   0.903   2.930   2.258 -0.1265 -0.5212  1.9100
14923SOL    HW256424   0.753   2.866   2.259 -0.5793  0.5389  1.9880
14924SOL     OW56425   7.773   0.982   1.064  0.1337  0.1853  0.7431
14924SOL    HW156426   7.726   1.067   1.040  0.9171  0.9363  1.8620
14924SOL    HW256427   7.716   0.929   1.126  0.0843  0.3564  0.8430
14925SOL     OW56428   8.628   8.881   1.572  0.3154 -0.3297  0.0348
14925SOL    HW156429   8.707   8.901   1.512  0.2839 -0.3060  0.0019
14925SOL    HW256430   8.661   8.864   1.665  0.2157  1.5237  0.4357
14926SOL     OW56431   9.279   6.319   5.025  0.0203  0.0914  0.2537
14926SOL    HW156432   9.231   6.231   5.025  0.4577 -0.1635 -1.3684
14926SOL    HW256433   9.363   6.310   4.971 -0.4915  1.8258 -0.8302
14927SOL     OW56434   4.119   3.352   6.142  0.7180 -0.4151 -0.7611
14927SOL    HW156435   4.211   3.349   6.103  1.2019 -1.4376  0.4192
14927SOL    HW256436   4.107   3.438   6.192  1.4296 -0.7652  0.0218
14928SOL     OW56437   8.189   9.373   1.358 -0.0334  0.1384 -0.1407
14928SOL    HW156438   8.169   9.349   1.263  0.0194  1.5115 -0.5134
14928SOL    HW256439   8.127   9.323   1.419  0.6673 -1.5819 -0.8222
14929SOL     OW56440   9.225   6.651   3.941 -0.1276  0.6073 -0.4461
14929SOL    HW156441   9.298   6.602   3.894  0.2457 -1.8489  2.5255
14929SOL    HW256442   9.260   6.737   3.977  0.8474  0.2520 -0.5299
14930SOL     OW56443   8.594   6.405   1.354  0.5238  0.5003 -0.4151
14930SOL    HW156444   8.512   6.352   1.335  0.1940  0.2777  1.5282
14930SOL    HW256445   8.657   6.397   1.277 -0.8025 -0.2103 -1.4561
14931SOL     OW56446   5.293   3.689   0.841  0.1942 -1.1378  0.2568
14931SOL    HW156447   5.202   3.728   0.824  1.6565  2.0535 -0.7497
14931SOL    HW256448   5.283   3.601   0.887 -3.3457 -0.0027  1.9113
14932SOL     OW56449   3.934   2.818   4.553  0.3256  0.0304 -0.1512
14932SOL    HW156450   3.836   2.800   4.551  0.1355  1.1199 -2.1338
14932SOL    HW256451   3.952   2.900   4.607  0.0846  0.1767 -0.2919
14933SOL     OW56452   3.120   1.260   4.035  0.1281 -0.3620  0.4000
14933SOL    HW156453   3.090   1.188   3.971  0.8745 -1.3197  1.1001
14933SOL    HW256454   3.161   1.335   3.983 -1.4346 -0.0383 -0.4038
14934SOL     OW56455   6.868   7.476   3.942  0.1692 -0.2428  0.1963
14934SOL    HW156456   6.769   7.478   3.951  0.0069 -1.3670 -1.1245
14934SOL    HW256457   6.898   7.381   3.928  1.5077 -0.0238  1.4180
14935SOL     OW56458   1.566   2.899   4.914 -0.2133  0.8122 -0.4242
14935SOL    HW156459   1.594   2.804   4.925  1.0948  1.3149  0.6734
14935SOL    HW256460   1.644   2.954   4.884 -0.4188  1.9086  1.0006
14936SOL     OW56461   2.920   8.733   2.385 -0.4522  0.2835 -0.4247
14936SOL    HW156462   2.926   8.640   2.348 -1.3929  0.0493 -0.0090
14936SOL    HW256463   2.991   8.790   2.343  1.4938 -1.1305  0.8574
14937SOL     OW56464   8.321   3.474   1.117 -0.0934 -0.4422  0.0163
14937SOL    HW156465   8.307   3.391   1.171 -0.8363 -1.8310 -2.2487
14937SOL    HW256466   8.245   3.537   1.132  0.2853 -0.3125  1.4593
14938SOL     OW56467   2.343   3.577   2.190 -0.2992 -0.8480  0.6749
14938SOL    HW156468   2.402   3.527   2.252 -3.0912 -1.9581  2.5642
14938SOL    HW256469   2.280   3.634   2.243 -1.4069 -0.2601 -1.2157
14939SOL     OW56470   4.209   1.022   7.308 -0.1123 -0.2873 -0.1261
14939SOL    HW156471   4.303   1.041   7.335  0.0538  0.7307 -1.3512
14939SOL    HW256472   4.164   0.969   7.379  1.2636 -0.4329  0.6551
14940SOL     OW56473   9.372   2.854   2.411 -0.0565  0.0561  0.8621
14940SOL    HW156474   9.323   2.811   2.335  0.5069  0.4974  0.2452
14940SOL    HW256475   9.308   2.905   2.468 -0.2390  1.0521 -0.2315
14941SOL     OW56476   2.229   0.871   4.579 -0.4322 -0.5791 -0.0999
14941SOL    HW156477   2.307   0.832   4.530  0.4677 -0.4406  1.2039
14941SOL    HW256478   2.244   0.865   4.677 -0.5472  2.4081  0.1661
14942SOL     OW56479   4.559   4.180   3.664  0.0229  0.9107  0.5665
14942SOL    HW156480   4.563   4.132   3.577 -0.8853 -0.1689  1.1085
14942SOL    HW256481   4.599   4.271   3.654 -2.3741  1.8009 -1.6406
14943SOL     OW56482   6.929   7.657   3.339  0.7031  0.4229 -0.2096
14943SOL    HW156483   6.986   7.699   3.268  0.8767  1.0617  0.3062
14943SOL    HW256484   6.869   7.727   3.380  0.2303 -0.0496 -0.0902
14944SOL     OW56485   4.799   4.245   1.921  0.8720  0.3787 -0.0540
14944SOL    HW156486   4.769   4.223   2.014 -0.5817  0.0467 -0.5818
14944SOL    HW256487   4.862   4.322   1.923  0.6103  0.5645  1.1848
14945SOL     OW56488   0.718   9.882   7.031 -0.3378 -0.3696 -0.2389
14945SOL    HW156489   0.794   9.818   7.018 -0.7670 -1.0667  0.6644
14945SOL    HW256490   0.662   9.853   7.109 -0.9687  0.6878 -0.2841
14946SOL     OW56491   0.813   5.629   6.758 -0.5570 -0.2517 -0.6002
14946SOL    HW156492   0.726   5.675   6.741 -0.3715  0.6736  0.8737
14946SOL    HW256493   0.875   5.647   6.682 -1.3214 -0.1136 -1.2007
14947SOL     OW56494   0.697   6.962   2.960 -0.0003 -0.4026  0.7733
14947SOL    HW156495   0.727   6.873   2.993 -0.7451 -0.1885  2.0562
14947SOL    HW256496   0.614   6.989   3.008 -1.3760 -0.2904 -1.6278
14948SOL     OW56497   2.488   4.840   0.322  0.6235  1.0625 -0.0225
14948SOL    HW156498   2.453   4.848   0.228 -0.6648 -0.7446  0.2632
14948SOL    HW256499   2.563   4.774   0.324 -1.3245 -1.2037  0.6645
14949SOL     OW56500   2.227   1.569   7.480 -0.2060  0.3040  0.0244
14949SOL    HW156501   2.315   1.522   7.487 -0.4746  0.0394  1.7789
14949SOL    HW256502   2.227   1.626   7.398  1.4139 -0.0649 -0.2589
14950SOL     OW56503   6.670   1.236   1.322  0.7069 -0.8998 -0.4344
14950SOL    HW156504   6.758   1.212   1.282  1.2244 -0.0193  0.1714
14950SOL    HW256505   6.643   1.327   1.291  0.8377 -0.4470  0.7425
14951SOL     OW56506   4.126   5.231   6.991 -0.2621 -0.1007  0.0934
14951SOL    HW156507   4.057   5.220   7.062 -0.1235 -2.5081 -0.1262
14951SOL    HW256508   4.116   5.158   6.923  1.5744  0.3786 -0.7055
14952SOL     OW56509   4.360   9.713   3.373 -0.4471  0.0461  0.5100
14952SOL    HW156510   4.264   9.696   3.349  0.0747 -1.1062 -0.8294
14952SOL    HW256511   4.392   9.795   3.326 -0.7513  0.3761  0.8790
14953SOL     OW56512   5.606   3.793   1.949 -0.1905  0.2117  0.5256
14953SOL    HW156513   5.674   3.825   1.883  2.2898  0.5584  3.1480
14953SOL    HW256514   5.596   3.860   2.022 -0.6070 -1.5124  2.0989
14954SOL     OW56515   8.338   1.929   5.869  0.1102 -0.3011  0.2815
14954SOL    HW156516   8.247   1.888   5.859 -0.1027 -0.2311  1.7225
14954SOL    HW256517   8.370   1.962   5.781 -2.3074  1.8347  0.1179
14955SOL     OW56518   5.259   2.946   5.362  0.4859  0.4948  0.0844
14955SOL    HW156519   5.224   3.017   5.421 -0.6545 -0.2959  0.3685
14955SOL    HW256520   5.280   2.864   5.416  0.5478  0.1704 -0.4184
14956SOL     OW56521   3.040   5.813   6.276  0.0728 -0.0977 -0.1236
14956SOL    HW156522   2.949   5.773   6.262 -0.7835  1.7837 -0.0657
14956SOL    HW256523   3.080   5.775   6.359 -1.1944 -0.0096  0.5403
14957SOL     OW56524   9.283   7.131   4.339 -0.2735 -0.4729  0.1407
14957SOL    HW156525   9.346   7.110   4.264 -0.4250 -0.2494 -0.0508
14957SOL    HW256526   9.316   7.211   4.389 -0.0744 -0.7330  0.4300
14958SOL     OW56527   0.488   0.222  10.029 -0.3635 -0.5927  0.1148
14958SOL    HW156528   0.411   0.251  10.086  1.4912  0.3146  2.2026
14958SOL    HW256529   0.494   0.122  10.029 -1.8239 -0.6924 -0.4781
14959SOL     OW56530   4.264   9.811   0.865  0.4340 -0.4891 -0.4318
14959SOL    HW156531   4.184   9.867   0.842  2.0608  1.8348 -0.5850
14959SOL    HW256532   4.240   9.714   0.856 -2.3187  0.1570 -0.5812
14960SOL     OW56533   7.741   7.476   2.245 -1.0403 -0.1989  0.9694
14960SOL    HW156534   7.654   7.440   2.212 -1.5734  1.3682  0.5999
14960SOL    HW256535   7.786   7.408   2.303 -1.4264 -1.8885 -0.6715
14961SOL     OW56536   7.991   0.863   5.673 -0.2770  0.9848  0.3953
14961SOL    HW156537   8.047   0.886   5.594 -0.7109 -0.6361 -0.4021
14961SOL    HW256538   7.987   0.942   5.735  0.0393  2.2784 -1.1905
14962SOL     OW56539   9.339   4.686   4.845 -0.2425  0.2733 -0.1861
14962SOL    HW156540   9.355   4.666   4.748  0.4062  2.7611 -0.6342
14962SOL    HW256541   9.425   4.686   4.894 -0.4130  0.2925  0.1117
14963SOL     OW56542   2.926   9.326   2.330 -0.7044  0.4980  0.6366
14963SOL    HW156543   2.976   9.411   2.347 -2.0892  0.8529  3.2057
14963SOL    HW256544   2.829   9.346   2.323 -0.9055 -0.7144 -0.0728
14964SOL     OW56545   3.182   7.214   6.058  0.1408 -0.0619 -0.1949
14964SOL    HW156546   3.231   7.192   5.974 -0.3449 -0.0816 -0.4691
14964SOL    HW256547   3.085   7.194   6.047  0.0769 -0.0658  0.3705
14965SOL     OW56548   8.139   5.941   0.868 -0.4704  0.1172  0.6120
14965SOL    HW156549   8.238   5.926   0.875 -0.7681 -1.8309  0.9551
14965SOL    HW256550   8.111   5.934   0.773 -0.3864 -0.0823  0.6012
14966SOL     OW56551   0.040   1.646   0.622  0.1689 -0.0867 -0.2445
14966SOL    HW156552   0.062   1.742   0.610  0.6856 -0.1018  0.5610
14966SOL    HW256553  -0.055   1.636   0.652  0.0697  0.1550 -0.4814
14967SOL     OW56554   2.008   3.983   0.250  0.0638 -0.3254 -0.2602
14967SOL    HW156555   2.095   3.932   0.248 -0.2273 -0.8208 -0.4098
14967SOL    HW256556   1.952   3.949   0.326  0.0237  0.0354 -0.1283
14968SOL     OW56557   5.834   9.066   5.748 -0.1834  0.0292  0.1671
14968SOL    HW156558   5.788   8.988   5.789  0.0787  0.2996  0.9728
14968SOL    HW256559   5.861   9.131   5.819 -0.1736  0.7355 -0.4687
14969SOL     OW56560   2.577   1.461   2.816  0.4712 -0.0716  0.4860
14969SOL    HW156561   2.662   1.514   2.818  1.3832 -1.4181 -0.6407
14969SOL    HW256562   2.510   1.508   2.759  0.4998  0.9515  1.2943
14970SOL     OW56563   2.091   4.134   7.506 -0.3023  0.4149 -0.1645
14970SOL    HW156564   2.058   4.144   7.599  0.4834 -1.4840  0.3327
14970SOL    HW256565   2.026   4.176   7.443 -0.4070  2.5152  1.2709
14971SOL     OW56566   8.385   1.590   0.529 -0.0926  0.0567  0.1594
14971SOL    HW156567   8.391   1.574   0.430  1.9661 -0.4572  0.3393
14971SOL    HW256568   8.363   1.504   0.575 -1.0032  0.2858  0.1560
14972SOL     OW56569   0.620   4.481   6.166 -0.0099  0.3823 -0.5129
14972SOL    HW156570   0.673   4.438   6.094 -0.0372 -0.6794  0.1017
14972SOL    HW256571   0.599   4.415   6.238  0.2282  1.4897  0.5996
14973SOL     OW56572   6.657   5.843   1.323  0.6660 -0.0149  0.0758
14973SOL    HW156573   6.593   5.789   1.269  0.2972 -0.6826  1.1783
14973SOL    HW256574   6.751   5.812   1.305  0.9007  2.2301 -3.0105
14974SOL     OW56575   8.211   8.034   3.015  0.2648  0.1405  0.5422
14974SOL    HW156576   8.206   7.944   3.059 -1.5902 -0.3061 -0.5283
14974SOL    HW256577   8.289   8.085   3.052  0.1246 -1.1013  2.6336
14975SOL     OW56578   2.363   2.989   2.822  0.7772  0.4123  0.4457
14975SOL    HW156579   2.363   3.009   2.724 -0.8529 -0.7325  0.1910
14975SOL    HW256580   2.449   2.946   2.847  1.4268  1.1991 -0.3642
14976SOL     OW56581   4.187   8.251   2.589 -0.0501  0.0227  0.2974
14976SOL    HW156582   4.150   8.298   2.670 -0.6509  0.1628 -0.0515
14976SOL    HW256583   4.111   8.214   2.535  0.3855 -0.7253  0.1878
14977SOL     OW56584   4.335   3.833   7.596 -0.4168 -0.4807  0.4066
14977SOL    HW156585   4.296   3.839   7.688  0.4368 -1.0828  0.8129
14977SOL    HW256586   4.339   3.925   7.556 -0.2500 -0.1412  1.1950
14978SOL     OW56587   5.209   0.588   4.717  0.2083 -0.3390 -0.3504
14978SOL    HW156588   5.248   0.537   4.640 -1.3447 -0.3329 -1.1675
14978SOL    HW256589   5.249   0.680   4.720  0.8401 -0.6029 -0.6854
14979SOL     OW56590   4.286   1.558   5.629  0.1551  0.6876 -0.3251
14979SOL    HW156591   4.225   1.538   5.552  0.1937  1.1256 -0.4730
14979SOL    HW256592   4.234   1.551   5.714  0.7231 -2.2772 -0.1926
14980SOL     OW56593   8.754   1.397   3.909 -0.0935  0.5860  0.0354
14980SOL    HW156594   8.743   1.471   3.843  0.0947  0.0226 -0.6402
14980SOL    HW256595   8.671   1.387   3.964 -0.0215  1.4592  0.3023
14981SOL     OW56596   0.134   3.811   4.458 -0.5138 -0.1734  0.1146
14981SOL    HW156597   0.222   3.769   4.483 -1.0916 -1.6383 -0.2335
14981SOL    HW256598   0.133   3.906   4.486  0.6568 -0.5216  1.3789
14982SOL     OW56599   2.280   0.781   2.850 -0.2621 -0.0079  0.2968
14982SOL    HW156600   2.273   0.878   2.874  0.5829  0.0394  0.3563
14982SOL    HW256601   2.347   0.769   2.777 -1.6045 -0.3565 -0.9177
14983SOL     OW56602   7.342   3.588   0.059  0.4863  0.1119 -0.4099
14983SOL    HW156603   7.338   3.488   0.060  0.3625  0.1167 -0.2633
14983SOL    HW256604   7.359   3.621  -0.033 -0.4007 -0.0166 -0.6314
14984SOL     OW56605   8.157   8.692   4.172 -0.3585  0.2563  0.4137
14984SOL    HW156606   8.174   8.659   4.079  3.0984  0.6102  0.8718
14984SOL    HW256607   8.127   8.788   4.168  0.0495  0.3567 -0.3241
14985SOL     OW56608   4.580   7.822   1.530  0.8625 -0.0288  0.1874
14985SOL    HW156609   4.640   7.894   1.565 -0.9049  0.9261  1.3331
14985SOL    HW256610   4.611   7.793   1.439  2.4501  1.1378  0.3471
14986SOL     OW56611   0.080   9.508   6.971  0.1631  0.0414  0.3337
14986SOL    HW156612   0.166   9.468   6.940 -0.3399  0.3224 -1.4799
14986SOL    HW256613   0.078   9.605   6.947 -1.9514 -0.6417 -2.5634
14987SOL     OW56614   3.496   5.327   7.524 -0.1365 -0.3057  0.6345
14987SOL    HW156615   3.444   5.280   7.453 -0.4358 -0.5568  1.0142
14987SOL    HW256616   3.541   5.260   7.583 -1.3047 -0.1477  1.7271
14988SOL     OW56617   0.792   9.664   0.382 -0.8452  0.0353 -0.1595
14988SOL    HW156618   0.889   9.658   0.405 -0.5592  0.4432 -1.2485
14988SOL    HW256619   0.737   9.656   0.466  0.0715 -1.4424  0.3222
14989SOL     OW56620   0.461   9.005   0.121 -0.2372 -0.1371 -0.2571
14989SOL    HW156621   0.496   9.091   0.158  0.8169 -0.1178 -1.2605
14989SOL    HW256622   0.370   8.987   0.158 -0.3776  1.3097  0.1212
14990SOL     OW56623   9.033   7.432   6.969 -0.1184 -0.1177  0.5039
14990SOL    HW156624   9.069   7.450   7.061  0.4965 -0.6215  0.3637
14990SOL    HW256625   9.077   7.493   6.903 -1.8162  1.4465  0.7894
14991SOL     OW56626   2.915   7.966   2.930 -0.4444 -0.8537  0.0373
14991SOL    HW156627   2.992   7.949   2.992  0.0027  0.5875 -0.0967
14991SOL    HW256628   2.829   7.950   2.979 -0.0829 -0.5667  0.7773
14992SOL     OW56629   1.425   1.701   6.883 -0.3877 -0.2140  0.0728
14992SOL    HW156630   1.357   1.685   6.811 -0.4819 -1.8943  0.5299
14992SOL    HW256631   1.380   1.707   6.972 -0.2075  1.3052  0.0863
14993SOL     OW56632   8.064   3.591   0.137  0.1943  0.2894  0.4731
14993SOL    HW156633   8.132   3.587   0.210  1.2171  1.3610 -0.3881
14993SOL    HW256634   8.072   3.679   0.090 -1.2046  0.0635 -0.2061
14994SOL     OW56635   3.421   0.742   6.865  0.0098  0.1203 -0.1846
14994SOL    HW156636   3.399   0.658   6.816 -0.5400 -0.4603  1.0369
14994SOL    HW256637   3.434   0.721   6.962 -1.3201  1.6346  0.3296
14995SOL     OW56638   8.724   2.515   4.880 -0.3836  0.4123 -0.1025
14995SOL    HW156639   8.751   2.422   4.905  1.7810  1.4468  1.5202
14995SOL    HW256640   8.684   2.561   4.959 -1.2510  0.9495 -0.8394
14996SOL     OW56641   1.474   9.164   5.978  0.1848 -0.5414  0.6510
14996SOL    HW156642   1.385   9.138   6.015 -0.6507 -0.1432 -1.0217
14996SOL    HW256643   1.498   9.256   6.010 -0.3753 -0.3359  0.5037
14997SOL     OW56644   9.471   2.533   5.236  0.1827  0.2829 -0.3718
14997SOL    HW156645   9.424   2.607   5.283 -0.6327 -0.5377  0.1363
14997SOL    HW256646   9.549   2.502   5.291 -0.0615  0.1160 -0.1172
14998SOL     OW56647   3.421   6.646   2.483  0.3796  0.0535 -0.1555
14998SOL    HW156648   3.456   6.683   2.569  0.6298 -1.3265  0.3498
14998SOL    HW256649   3.463   6.557   2.466 -0.1149  0.0617 -1.4125
14999SOL     OW56650   8.477   0.634   1.074 -0.2439 -0.0404  0.1151
14999SOL    HW156651   8.431   0.690   1.143 -1.5796 -1.3459  0.2880
14999SOL    HW256652   8.419   0.626   0.994 -0.4347 -1.9050  0.4281
15000SOL     OW56653   9.368   9.852   7.070  0.3656  0.2567  0.4307
15000SOL    HW156654   9.380   9.791   7.148  0.7194  1.1358  1.0765
15000SOL    HW256655   9.282   9.903   7.081  1.2188  1.5794  1.0929
15001SOL     OW56656   3.731   7.142   5.957  0.2267 -0.2170 -0.2223
15001SOL    HW156657   3.783   7.226   5.939  0.6138  0.0522  2.0641
15001SOL    HW256658   3.784   7.083   6.017 -1.5150 -0.5758  0.9863
15002SOL     OW56659   1.456   4.944   1.369  0.2005  0.2481  0.5462
15002SOL    HW156660   1.539   4.908   1.325  1.0700  0.9536  1.6107
15002SOL    HW256661   1.459   5.044   1.369  0.3168  0.2500  2.4304
15003SOL     OW56662   7.298   9.524   7.300 -0.2178  0.0905  0.0014
15003SOL    HW156663   7.277   9.460   7.373 -0.2673  0.4604  0.3113
15003SOL    HW256664   7.396   9.543   7.298 -0.0353 -0.9063 -0.8435
15004SOL     OW56665   1.563   7.505   0.356  0.0487 -0.0290 -0.2364
15004SOL    HW156666   1.611   7.445   0.420  0.9880  0.2640 -0.6461
15004SOL    HW256667   1.620   7.586   0.338 -0.5418  0.2510 -0.8483
15005SOL     OW56668   3.690   2.832   9.962  0.0716 -0.3075 -0.7652
15005SOL    HW156669   3.762   2.838   9.892  1.4298 -0.2775  0.5924
15005SOL    HW256670   3.693   2.742  10.006  0.0226  0.0861  0.0632
15006SOL     OW56671   6.275   2.609   2.065  0.1957 -0.0661 -0.5274
15006SOL    HW156672   6.176   2.600   2.051  0.3287 -0.9280 -0.9068
15006SOL    HW256673   6.305   2.698   2.030 -0.8864  1.3626  2.0431
15007SOL     OW56674   1.814   4.617   3.112 -0.0099  0.7346 -0.7756
15007SOL    HW156675   1.748   4.567   3.056 -1.0649  1.8012 -0.5046
15007SOL    HW256676   1.844   4.699   3.063 -2.5946  2.8691  1.0264
15008SOL     OW56677   1.185   2.026   2.127  0.8758 -0.3573 -0.0910
15008SOL    HW156678   1.111   1.975   2.084  1.1576 -1.0743  0.2533
15008SOL    HW256679   1.153   2.066   2.213  0.2831  1.1626 -0.9978
15009SOL     OW56680   7.665   2.302   1.775 -0.1280 -0.2340  0.3502
15009SOL    HW156681   7.651   2.262   1.866 -2.8216  0.5989  0.3536
15009SOL    HW256682   7.750   2.354   1.773  0.9783 -1.9232  1.7729
15010SOL     OW56683   8.147   0.099   2.049 -0.3613  0.1029  0.0815
15010SOL    HW156684   8.054   0.131   2.064 -0.8271 -0.5548 -1.3069
15010SOL    HW256685   8.206   0.176   2.023 -0.2286  0.7204  2.1176
15011SOL     OW56686   1.978   3.670   4.245 -0.2443 -0.3219 -0.0722
15011SOL    HW156687   2.059   3.613   4.231  0.5438  1.3336 -2.5507
15011SOL    HW256688   1.907   3.644   4.180 -0.5089  0.3633 -0.0650
15012SOL     OW56689   2.042   0.607   0.142  0.1385 -0.2312  0.0321
15012SOL    HW156690   1.948   0.612   0.109  0.1923 -1.3057 -0.2926
15012SOL    HW256691   2.087   0.528   0.102  1.8234  1.4216 -1.4580
15013SOL     OW56692   0.296   7.837   5.031 -0.0484  0.1105  0.4050
15013SOL    HW156693   0.391   7.839   5.064  0.1663  0.9725 -0.2323
15013SOL    HW256694   0.295   7.812   4.935 -0.5727 -1.0819  0.7084
15014SOL     OW56695   4.891   6.979   0.649  0.3727  0.4152 -0.2788
15014SOL    HW156696   4.943   7.026   0.720 -0.5218  0.0668  0.6200
15014SOL    HW256697   4.816   6.928   0.691  0.5419 -0.7480 -1.3669
15015SOL     OW56698   5.474   0.316   2.468 -0.1023 -0.3653  0.3471
15015SOL    HW156699   5.449   0.293   2.562  1.6042 -1.8865  0.4595
15015SOL    HW256700   5.457   0.237   2.409 -0.9226  0.4978 -0.5842
15016SOL     OW56701   4.961   0.125   3.457 -0.3895  0.5833 -0.4081
15016SOL    HW156702   4.999   0.171   3.537  1.1345  0.9106 -1.2901
15016SOL    HW256703   4.904   0.048   3.486  1.4537 -0.3027  0.9746
15017SOL     OW56704   2.669   1.946   6.057 -0.1337 -0.0914  0.1507
15017SOL    HW156705   2.746   1.908   6.107 -0.9746 -0.9647  0.7820
15017SOL    HW256706   2.619   1.873   6.010 -2.1953  0.1056  1.9621
15018SOL     OW56707   4.846   2.885   9.971  0.3972 -0.6718 -0.3478
15018SOL    HW156708   4.872   2.822  10.044 -1.7350 -3.6444 -2.0353
15018SOL    HW256709   4.888   2.855   9.885  0.9264  1.3839 -0.8357
15019SOL     OW56710   0.440   0.837   1.818  0.2039 -0.0131  0.6122
15019SOL    HW156711   0.385   0.776   1.761  2.6663 -0.7844 -1.0120
15019SOL    HW256712   0.408   0.931   1.808  0.3548 -0.1906 -1.8090
15020SOL     OW56713   9.744   4.630   3.594  0.6917  0.0881  0.4015
15020SOL    HW156714   9.792   4.552   3.633  1.2594  0.6475  0.8430
15020SOL    HW256715   9.662   4.649   3.648  1.0138  0.3241  0.8122
15021SOL     OW56716   5.157   3.290   1.676 -0.3308 -0.0210 -0.9003
15021SOL    HW156717   5.192   3.212   1.729 -1.2530 -0.0553 -0.3195
15021SOL    HW256718   5.210   3.300   1.592  1.1837  0.0570  0.0491
15022SOL     OW56719   6.135   0.984   3.938 -0.0855 -0.2080 -0.4129
15022SOL    HW156720   6.046   1.027   3.948  0.3186  0.8070 -1.1370
15022SOL    HW256721   6.134   0.922   3.860 -1.2768 -3.1333  1.8096
15023SOL     OW56722   5.339   6.108   1.146 -0.2433 -0.3487 -1.0289
15023SOL    HW156723   5.433   6.082   1.123  0.2531 -0.2066  0.7767
15023SOL    HW256724   5.275   6.059   1.086  1.0027  0.2948 -2.9335
15024SOL     OW56725   2.144   9.421   2.191  0.4608 -0.1379  0.4262
15024SOL    HW156726   2.235   9.388   2.167 -0.0966 -0.7039 -0.9822
15024SOL    HW256727   2.136   9.517   2.167  0.0000 -0.6291 -1.4889
15025SOL     OW56728   8.758   1.502   6.468  0.0280  0.1927  0.1697
15025SOL    HW156729   8.755   1.477   6.565  0.8857 -0.2640  0.0861
15025SOL    HW256730   8.854   1.513   6.440 -0.1887 -0.3490 -0.7947
15026SOL     OW56731   7.500   6.717   1.752  0.3546 -0.2537 -0.2778
15026SOL    HW156732   7.465   6.687   1.663 -0.5899  1.7168 -0.6014
15026SOL    HW256733   7.435   6.692   1.824  1.8735 -3.3170  0.1353
15027SOL     OW56734   3.539   9.495   9.984 -0.3362 -0.9682 -0.3854
15027SOL    HW156735   3.617   9.444  10.021 -0.0957 -0.2073  0.1557
15027SOL    HW256736   3.562   9.592   9.977 -1.6184 -0.5688  0.8063
15028SOL     OW56737   9.864   6.759   7.319  0.3808  0.1665 -0.2963
15028SOL    HW156738   9.781   6.724   7.361 -0.1980  0.1215 -1.4513
15028SOL    HW256739   9.842   6.798   7.230  1.6847 -0.3764 -0.8710
15029SOL     OW56740   4.333   8.750   2.028  0.2459 -0.7350  0.0461
15029SOL    HW156741   4.403   8.741   2.098  0.6213 -0.3902 -0.2841
15029SOL    HW256742   4.374   8.735   1.938  0.2166  1.0235 -0.2631
15030SOL     OW56743   0.694   3.977   0.527 -0.1265 -0.4129 -0.3938
15030SOL    HW156744   0.607   4.027   0.524  0.6668  1.0377  0.3132
15030SOL    HW256745   0.739   3.983   0.437 -1.2960 -2.1924 -1.1313
15031SOL     OW56746   8.332   8.350   6.514 -0.1452  0.3941  0.0258
15031SOL    HW156747   8.237   8.337   6.484  0.0283  0.0721 -0.4036
15031SOL    HW256748   8.391   8.361   6.434  0.0129  1.8211  0.3379
15032SOL     OW56749   3.813   5.717   1.539 -0.0437  0.4783 -0.3797
15032SOL    HW156750   3.789   5.787   1.607  3.4137 -0.0882  1.5464
15032SOL    HW256751   3.862   5.759   1.463  1.8917  0.2221  0.7003
15033SOL     OW56752   1.369   0.279   6.341 -1.0795 -0.2097 -0.7815
15033SOL    HW156753   1.322   0.207   6.393  0.0761 -0.1002  0.4452
15033SOL    HW256754   1.460   0.247   6.313 -0.9728  0.3978 -1.1499
15034SOL     OW56755   2.131   8.302   1.269  0.0334  0.3565  0.3597
15034SOL    HW156756   2.137   8.236   1.344 -0.4118  0.2898  0.3411
15034SOL    HW256757   2.103   8.391   1.304  0.4509  0.4846  0.3600
15035SOL     OW56758   9.131   6.285   3.023  0.3880 -0.2563 -0.0867
15035SOL    HW156759   9.076   6.354   2.975  1.6228 -0.4589 -1.8097
15035SOL    HW256760   9.071   6.210   3.052 -0.7383  0.9098  0.6363
15036SOL     OW56761   3.813   6.736   2.198  0.4147 -0.1487  0.0466
15036SOL    HW156762   3.797   6.642   2.229 -0.0569  0.4227  1.5478
15036SOL    HW256763   3.788   6.800   2.270 -0.4608  1.2049 -1.4391
15037SOL     OW56764   2.548   5.683   4.983  0.3952  0.3781  0.2147
15037SOL    HW156765   2.550   5.782   4.974  0.8023  0.3789  0.3079
15037SOL    HW256766   2.626   5.642   4.935  0.7624  0.1741  0.9572
15038SOL     OW56767   1.549   0.049   0.914  0.2323  0.0827  0.2327
15038SOL    HW156768   1.615   0.051   0.989 -1.0551 -2.3040  1.4863
15038SOL    HW256769   1.579  -0.015   0.843 -0.3636 -0.4738  0.4729
15039SOL     OW56770   0.525   7.944   4.672  0.0337  0.1396  0.2660
15039SOL    HW156771   0.485   8.018   4.727  0.1708 -0.4128  1.1157
15039SOL    HW256772   0.485   7.857   4.699  0.4464 -0.1944 -0.1872
15040SOL     OW56773   8.661   8.898   0.853 -0.0958 -0.0920 -0.0912
15040SOL    HW156774   8.585   8.874   0.913  0.8264 -0.2861  1.0249
15040SOL    HW256775   8.746   8.896   0.905  0.5102  1.5557 -0.9552
15041SOL     OW56776   3.491   6.729   7.273  0.3670  0.3525 -0.4200
15041SOL    HW156777   3.525   6.688   7.358  2.1757  2.3120 -0.1647
15041SOL    HW256778   3.531   6.682   7.195  0.3324 -0.0930 -0.1730
15042SOL     OW56779   8.477   0.632   6.072  0.2166 -0.1761  0.3182
15042SOL    HW156780   8.512   0.720   6.106  1.4747 -1.2735  1.9358
15042SOL    HW256781   8.399   0.604   6.129  0.3991 -0.5607  0.3751
15043SOL     OW56782   5.995   9.658   6.746  0.0358 -0.1764  0.3777
15043SOL    HW156783   6.059   9.727   6.778 -0.8034  0.3842  0.8789
15043SOL    HW256784   6.040   9.569   6.741  1.4694  0.6237 -1.4491
15044SOL     OW56785   3.993   8.970   6.138 -0.1819 -0.3748  0.4626
15044SOL    HW156786   3.953   8.885   6.104  0.2877  0.0122 -1.0942
15044SOL    HW256787   3.922   9.041   6.140  0.1638  0.0310 -1.2848
15045SOL     OW56788   3.708   2.768   4.834  0.9843  0.5199 -0.0442
15045SOL    HW156789   3.685   2.741   4.928  0.3171  1.3138  0.0280
15045SOL    HW256790   3.698   2.690   4.773  2.7509 -0.3597  0.7579
15046SOL     OW56791   7.203   1.455   1.983 -0.2691 -0.4620 -0.2782
15046SOL    HW156792   7.278   1.516   2.009 -1.2801  0.4620  0.5580
15046SOL    HW256793   7.205   1.439   1.885  0.0839  0.8459 -0.4954
15047SOL     OW56794   1.477   6.266   0.514  0.6009 -0.3884  0.0956
15047SOL    HW156795   1.567   6.228   0.493  0.9957 -0.3706  1.7247
15047SOL    HW256796   1.428   6.203   0.574 -1.3641 -1.4727 -2.5424
15048SOL     OW56797   0.441   7.197  10.015  0.0058  0.0339 -0.0351
15048SOL    HW156798   0.439   7.106  10.058  1.1030  0.5068  1.0352
15048SOL    HW256799   0.387   7.195   9.931  1.5623 -2.1068 -1.0303
15049SOL     OW56800   7.098   5.652   2.553  0.2702  0.3199 -0.0828
15049SOL    HW156801   7.034   5.598   2.608  0.1049  0.7413  0.1392
15049SOL    HW256802   7.157   5.705   2.613  0.4797  0.3312 -0.2993
15050SOL     OW56803   0.376   8.347   6.700 -0.1072 -0.0603 -0.0990
15050SOL    HW156804   0.333   8.419   6.645 -0.3281 -0.8742 -0.9972
15050SOL    HW256805   0.475   8.356   6.694 -0.1356  0.4653  0.1817
15051SOL     OW56806   8.598   9.556   7.543 -0.0516  0.3507  0.7716
15051SOL    HW156807   8.605   9.559   7.443  2.3373 -3.8629  0.6989
15051SOL    HW256808   8.688   9.578   7.582 -0.3197 -0.5724  1.9067
15052SOL     OW56809   8.204   3.297   0.656  0.1474 -0.3750 -0.1601
15052SOL    HW156810   8.215   3.310   0.558 -0.3989  0.2702 -0.1335
15052SOL    HW256811   8.254   3.368   0.705 -1.2245  0.4934  0.0001
15053SOL     OW56812   4.239   5.330   6.712 -0.0461 -0.5794  0.6552
15053SOL    HW156813   4.234   5.390   6.792 -1.2866 -0.5234  0.5380
15053SOL    HW256814   4.147   5.300   6.687 -0.0517  1.9751 -2.7220
15054SOL     OW56815   1.229   9.880   1.481  0.0386  0.2587  0.3722
15054SOL    HW156816   1.212   9.905   1.577 -0.8521  0.8467  0.0636
15054SOL    HW256817   1.218   9.781   1.471 -0.3605  0.2563  0.7767
15055SOL     OW56818   0.648   2.288   4.068  0.1419  0.1949 -0.3036
15055SOL    HW156819   0.664   2.286   4.166 -0.6509 -0.9106 -0.2004
15055SOL    HW256820   0.569   2.346   4.048  0.3526  0.4858 -0.3052
15056SOL     OW56821   0.430   2.840   3.526 -0.0474  0.3765  0.8399
15056SOL    HW156822   0.518   2.876   3.497  0.3329 -1.0209  0.2260
15056SOL    HW256823   0.444   2.759   3.583 -0.9470 -0.4199 -0.0500
15057SOL     OW56824   3.892   7.436   2.843 -0.2596 -0.0631 -0.1258
15057SOL    HW156825   3.910   7.337   2.847 -1.5907 -0.3398 -0.6622
15057SOL    HW256826   3.946   7.483   2.913 -0.6870 -1.3380  1.0807
15058SOL     OW56827   6.595   2.779   3.269 -0.4921  0.2110 -0.1313
15058SOL    HW156828   6.626   2.690   3.301 -2.6837 -1.1079 -1.4813
15058SOL    HW256829   6.544   2.825   3.342 -0.0267  0.0049  0.3220
15059SOL     OW56830   7.650   9.578   8.111 -0.0140  0.4938 -1.1055
15059SOL    HW156831   7.631   9.631   8.194  1.6092 -0.4127 -0.1246
15059SOL    HW256832   7.606   9.489   8.117 -1.2448  1.0345 -1.9537
15060SOL     OW56833   7.944   6.144   5.038  0.0317 -0.0864  0.3223
15060SOL    HW156834   7.955   6.151   5.137  0.9444  1.6606  0.1193
15060SOL    HW256835   8.032   6.163   4.993 -0.6131  0.1554 -0.8597
15061SOL     OW56836   8.311   0.680   5.231 -0.2686  0.4367  0.2797
15061SOL    HW156837   8.276   0.773   5.219  0.6498  1.0606  2.2869
15061SOL    HW256838   8.241   0.614   5.201 -0.5827  1.7451 -2.0032
15062SOL     OW56839   3.005   5.224   7.452 -0.2827 -1.2150  0.0580
15062SOL    HW156840   3.040   5.183   7.536 -1.3766  0.0242  1.1463
15062SOL    HW256841   2.976   5.318   7.470 -4.5305 -2.2700 -0.6262
15063SOL     OW56842   8.908   0.296   0.432  0.6401  0.1043 -0.7024
15063SOL    HW156843   8.987   0.280   0.490  1.0984  0.4681 -1.2149
15063SOL    HW256844   8.873   0.209   0.398 -0.3798 -0.2131  1.0855
15064SOL     OW56845   9.949   1.237   3.966  0.0308 -0.1187  0.2703
15064SOL    HW156846   9.960   1.334   3.942  1.2030 -0.5761 -1.0920
15064SOL    HW256847   9.964   1.226   4.064  2.1301  0.7689  0.0822
15065SOL     OW56848   9.343   1.729   2.189  0.0217 -0.6046  0.3460
15065SOL    HW156849   9.283   1.744   2.111  0.2016 -0.9769  0.1336
15065SOL    HW256850   9.431   1.774   2.173  0.5750 -1.8648 -0.3100
15066SOL     OW56851   8.270   2.069   2.131 -0.3339 -0.1744  0.0602
15066SOL    HW156852   8.348   2.074   2.069 -1.1655  1.1861 -0.9213
15066SOL    HW256853   8.187   2.052   2.078 -0.9807  0.4278  0.8543
15067SOL     OW56854   4.689   0.334   6.942 -0.1806  0.1269  0.0657
15067SOL    HW156855   4.677   0.322   7.040 -0.3366 -0.1413  0.0151
15067SOL    HW256856   4.608   0.298   6.894 -2.3195  4.5624  0.0749
15068SOL     OW56857   8.554   7.328   3.286  0.2068  0.0459  0.0307
15068SOL    HW156858   8.641   7.284   3.266 -0.0584 -0.7127  0.4953
15068SOL    HW256859   8.536   7.400   3.219  1.0135 -0.0422 -0.2822
15069SOL     OW56860   6.308   5.475   2.422  0.0778 -0.2768 -0.8349
15069SOL    HW156861   6.381   5.541   2.441 -0.8752  0.3555  0.7411
15069SOL    HW256862   6.342   5.383   2.440 -0.5203  0.2235  3.5436
15070SOL     OW56863   2.690   3.829   6.063  0.0333  0.1610  0.0138
15070SOL    HW156864   2.594   3.802   6.065 -0.1522  0.4538 -2.4763
15070SOL    HW256865   2.737   3.777   5.992  1.7892 -0.1697  1.3919
15071SOL     OW56866   9.106   4.897   4.476  0.3569  0.2728 -0.1139
15071SOL    HW156867   9.203   4.916   4.459  0.4067  0.6284  0.5587
15071SOL    HW256868   9.081   4.810   4.434  0.6564  0.7749 -1.3829
15072SOL     OW56869   2.322   2.294   6.489  0.1285 -0.1749  0.1396
15072SOL    HW156870   2.346   2.241   6.408  1.4796  1.4047 -0.5332
15072SOL    HW256871   2.242   2.351   6.469 -0.1573 -0.5323  0.2519
15073SOL     OW56872   0.520   3.996   2.667  0.1801  0.3796 -0.5154
15073SOL    HW156873   0.437   3.988   2.612  0.1079  1.0074 -0.5002
15073SOL    HW256874   0.524   3.922   2.733 -0.2846  0.2530 -0.6302
15074SOL     OW56875   9.911   5.878   1.127  0.2361 -0.0397  0.3797
15074SOL    HW156876   9.815   5.885   1.156 -0.3618  0.3425 -1.5965
15074SOL    HW256877   9.920   5.805   1.060  1.2060  0.3780  0.0515
15075SOL     OW56878   3.372   0.489   6.770 -0.4317  0.1937 -0.2152
15075SOL    HW156879   3.284   0.448   6.792 -0.9502  1.1841 -0.4020
15075SOL    HW256880   3.443   0.419   6.774 -0.8804 -0.1764  2.0534
15076SOL     OW56881   3.540   8.135   5.240 -0.4294 -0.3056  0.0156
15076SOL    HW156882   3.493   8.108   5.156  1.2862 -3.6902  0.0821
15076SOL    HW256883   3.604   8.209   5.220 -2.2896  1.0694 -0.9967
15077SOL     OW56884   2.921   0.894   5.747 -0.0156 -0.0043  0.4805
15077SOL    HW156885   2.918   0.805   5.702 -0.3208  0.4228 -0.3481
15077SOL    HW256886   2.888   0.885   5.841  1.3501 -1.0461  0.8807
15078SOL     OW56887   7.921   0.029   1.366  0.0550 -0.3650  0.0253
15078SOL    HW156888   7.897   0.069   1.278 -2.5035  1.6755  1.5918
15078SOL    HW256889   7.845   0.040   1.430  0.9392 -3.8855  1.8374
15079SOL     OW56890   7.029   2.210   0.749 -0.0559 -0.3510 -0.0374
15079SOL    HW156891   7.099   2.139   0.760 -0.0810 -0.6040 -1.4452
15079SOL    HW256892   7.066   2.284   0.694 -0.8018 -0.3362 -0.5122
15080SOL     OW56893   3.748   7.100   0.056 -0.5594 -0.0411  0.1242
15080SOL    HW156894   3.808   7.061   0.126  1.7524 -0.0468 -1.7782
15080SOL    HW256895   3.676   7.034   0.033  0.6240 -1.3849  0.1651
15081SOL     OW56896   2.009   5.489   1.320 -0.3953  0.6213  0.4434
15081SOL    HW156897   2.046   5.530   1.237  0.0329  0.5156  0.5776
15081SOL    HW256898   1.925   5.439   1.298 -0.4731  0.8830  0.1382
15082SOL     OW56899   1.254   1.589   5.582  0.1209 -0.6520 -0.2836
15082SOL    HW156900   1.312   1.509   5.570  1.2818  0.1322  0.0108
15082SOL    HW256901   1.225   1.595   5.678  1.0814 -0.0190 -0.0291
15083SOL     OW56902   9.344   0.998   1.504 -0.2298 -0.0938  0.2980
15083SOL    HW156903   9.368   1.019   1.409 -0.6868 -0.8157  0.0155
15083SOL    HW256904   9.276   1.064   1.536 -0.9119 -0.5172 -0.2524
15084SOL     OW56905   3.082   9.217   5.398  0.3295 -0.6315 -0.7310
15084SOL    HW156906   3.128   9.255   5.318 -0.7939  1.9381 -0.2050
15084SOL    HW256907   3.031   9.135   5.371  0.6282 -0.2722 -2.4538
15085SOL     OW56908   0.034   8.358   1.366 -0.2474  0.1861  0.3545
15085SOL    HW156909   0.016   8.408   1.281  0.3761 -0.5033 -0.1926
15085SOL    HW256910   0.111   8.400   1.414 -0.2957  0.2896  0.3414
15086SOL     OW56911   1.227   8.500   3.325 -0.4917  0.1046  0.5059
15086SOL    HW156912   1.302   8.509   3.259  0.6893  0.9139  1.9248
15086SOL    HW256913   1.147   8.549   3.291  0.1696  0.6702 -0.2592
15087SOL     OW56914   0.801   7.054   2.189 -0.2603  0.0707 -0.2021
15087SOL    HW156915   0.813   7.041   2.287  1.2917  2.2576 -0.0871
15087SOL    HW256916   0.734   6.988   2.155  0.2901 -1.7005  2.0455
15088SOL     OW56917   7.076   3.797   1.529 -0.3359 -0.2117 -0.5876
15088SOL    HW156918   7.037   3.707   1.511 -0.0444 -0.5699  0.5398
15088SOL    HW256919   7.121   3.797   1.618  0.7733  0.6950 -1.1368
15089SOL     OW56920   8.522   8.380   2.648  0.3767 -0.3230  0.2396
15089SOL    HW156921   8.500   8.446   2.720  0.4184  1.1338 -1.0744
15089SOL    HW256922   8.583   8.422   2.582 -0.3171 -1.4006 -1.1081
15090SOL     OW56923   1.153   1.095   6.085  0.4673 -0.1960 -0.1770
15090SOL    HW156924   1.084   1.036   6.128 -2.6212  1.9092 -2.0225
15090SOL    HW256925   1.185   1.053   6.001 -0.2692 -0.1421 -0.4854
15091SOL     OW56926   5.663   1.584   4.119  0.3612 -0.3466 -0.6614
15091SOL    HW156927   5.599   1.510   4.139  0.3925 -0.5187 -1.1714
15091SOL    HW256928   5.731   1.552   4.053  2.1236 -0.7700  1.2935
15092SOL     OW56929   0.790   8.665   0.729 -0.1488  0.4557 -0.0119
15092SOL    HW156930   0.881   8.666   0.770  0.8268 -0.3519 -2.1230
15092SOL    HW256931   0.786   8.732   0.655 -1.1571  0.1839 -0.2081
15093SOL     OW56932   3.718   0.168   3.376  0.2108  0.2933 -0.0204
15093SOL    HW156933   3.792   0.233   3.393 -0.0440  0.7330 -0.5908
15093SOL    HW256934   3.674   0.144   3.463  0.3678  0.8076  0.2019
15094SOL     OW56935   4.483   2.021   0.799  0.1156  0.6588 -0.2249
15094SOL    HW156936   4.569   2.018   0.748 -0.5672  1.2936 -1.4094
15094SOL    HW256937   4.449   2.115   0.802 -0.5474  0.4048  0.2508
15095SOL     OW56938   4.005   7.697   1.390  0.4106  0.6916  0.3762
15095SOL    HW156939   3.953   7.725   1.309  0.0012  0.7044  0.6390
15095SOL    HW256940   3.944   7.651   1.454  0.1657  2.8763  1.7756
15096SOL     OW56941   8.015   8.961   3.864  0.2637 -0.4086 -0.4514
15096SOL    HW156942   8.045   9.054   3.841  0.0354  0.4611  2.5365
15096SOL    HW256943   8.041   8.940   3.958 -2.6746 -2.1278  0.0211
15097SOL     OW56944   8.474   6.185   2.428 -0.6903 -0.0750  0.4966
15097SOL    HW156945   8.492   6.108   2.367  1.9601  0.7663  0.1452
15097SOL    HW256946   8.437   6.261   2.375 -1.0859 -0.3083  0.4364
15098SOL     OW56947   9.478   9.694   5.031 -0.1453 -0.1088  0.0760
15098SOL    HW156948   9.525   9.664   4.948 -0.1089  0.9999 -0.3130
15098SOL    HW256949   9.380   9.675   5.023 -0.0078 -0.8627  0.1763
15099SOL     OW56950   6.681   2.105   6.634 -0.3738 -0.2629 -0.0869
15099SOL    HW156951   6.612   2.140   6.571 -1.1092  0.1230  0.9023
15099SOL    HW256952   6.679   2.160   6.718 -1.0682 -2.2169  1.2130
15100SOL     OW56953   3.411   8.886   7.487 -0.2006 -0.1494  0.2108
15100SOL    HW156954   3.463   8.966   7.517 -1.7961  1.2499 -0.6182
15100SOL    HW256955   3.433   8.808   7.545  1.5045  0.8524  0.9517
15101SOL     OW56956   7.601   9.681   6.035  0.5878  0.0983  0.0389
15101SOL    HW156957   7.624   9.705   6.130  2.7798  3.2631 -1.2073
15101SOL    HW256958   7.673   9.622   5.998  0.4488  0.0311 -0.1243
15102SOL     OW56959   3.250   5.961   0.967  0.0508  0.5173  0.0748
15102SOL    HW156960   3.236   5.867   0.998 -0.1494  0.1334 -1.1251
15102SOL    HW256961   3.166   5.995   0.924 -0.3104  1.7275  1.6683
15103SOL     OW56962   7.532   4.234   3.499  0.2968 -1.0690 -0.2445
15103SOL    HW156963   7.523   4.138   3.525 -1.3292 -0.8542  0.0149
15103SOL    HW256964   7.628   4.262   3.509  0.5904 -2.3633  0.7181
15104SOL     OW56965   3.041   5.119   1.316 -0.3122 -0.0559  0.3737
15104SOL    HW156966   3.134   5.089   1.294 -0.2292 -0.2177  0.9293
15104SOL    HW256967   3.002   5.057   1.384  0.4597  2.0261  2.7763
15105SOL     OW56968   0.395   1.868   1.261 -0.2473  0.2919  0.3678
15105SOL    HW156969   0.357   1.874   1.169  0.8474  1.3294 -0.0357
15105SOL    HW256970   0.479   1.814   1.259 -0.6638 -0.3794  0.9063
15106SOL     OW56971   3.406   5.309   3.386  0.4027  0.2060 -0.0648
15106SOL    HW156972   3.334   5.371   3.416 -0.9469 -1.4498  0.1893
15106SOL    HW256973   3.438   5.336   3.295  0.3381  1.6974  0.3504
15107SOL     OW56974   3.347   9.642   6.174 -0.0919  0.0474  0.5768
15107SOL    HW156975   3.429   9.665   6.227 -0.9502  0.6297  1.6756
15107SOL    HW256976   3.373   9.622   6.080  1.4362 -0.7634  1.1489
15108SOL     OW56977   3.598   8.682   8.134 -0.6766  0.2261 -0.1175
15108SOL    HW156978   3.634   8.688   8.041 -2.8023 -0.2791 -1.0235
15108SOL    HW256979   3.562   8.771   8.162  0.1440  0.4292  0.3102
15109SOL     OW56980   5.991   0.379   6.510 -0.5569 -0.3185  0.2979
15109SOL    HW156981   6.074   0.324   6.516 -1.6369 -2.4013 -2.6434
15109SOL    HW256982   6.015   0.472   6.483  0.9621 -0.3637  1.4311
15110SOL     OW56983   8.070   9.167   3.385 -0.1640 -0.0472 -0.3834
15110SOL    HW156984   8.036   9.076   3.410  0.2069 -0.3180 -0.8740
15110SOL    HW256985   8.059   9.228   3.463  2.3147 -1.2399  0.9463
15111SOL     OW56986   9.696   6.650   0.035 -0.2388  0.1188  0.5336
15111SOL    HW156987   9.661   6.638   0.128  1.7381  2.1104  1.5794
15111SOL    HW256988   9.701   6.560  -0.010  1.2660 -1.2447  3.2775
15112SOL     OW56989   5.846   7.836   2.907 -0.6399 -0.1951 -0.8076
15112SOL    HW156990   5.831   7.758   2.967  0.0935 -0.3110 -0.7717
15112SOL    HW256991   5.857   7.919   2.962  0.0896 -0.3101 -0.7798
15113SOL     OW56992   2.214   7.720   1.166  0.3906 -0.5104 -0.2239
15113SOL    HW156993   2.296   7.698   1.219 -0.1124  0.0212  0.7820
15113SOL    HW256994   2.133   7.684   1.213 -0.3697  2.6890  1.0325
15114SOL     OW56995   5.164   8.638   3.536  0.5594  0.2171 -0.8218
15114SOL    HW156996   5.068   8.629   3.508  0.7263  0.0536 -1.3464
15114SOL    HW256997   5.213   8.553   3.516  0.8444  0.3460 -0.6737
15115SOL     OW56998   9.881   2.286   2.373 -0.6988 -0.2160 -0.1910
15115SOL    HW156999   9.800   2.330   2.414  1.0167  2.2025  0.7367
15115SOL    HW257000   9.890   2.318   2.279 -1.5000 -1.4564 -0.7003
15116SOL     OW57001   2.764   4.473   1.475 -0.0858 -0.4078  0.2857
15116SOL    HW157002   2.805   4.450   1.386 -1.4094 -0.5615 -0.3003
15116SOL    HW257003   2.828   4.531   1.526  0.6595 -0.2240 -0.8105
15117SOL     OW57004   2.884   5.699   4.996  0.1081 -0.8352 -0.2334
15117SOL    HW157005   2.875   5.602   5.018  0.9412 -1.1233 -1.1426
15117SOL    HW257006   2.978   5.728   5.015  0.0983 -0.4276 -0.8022
15118SOL     OW57007   3.029   3.058   3.119  0.2504 -0.1081 -0.3583
15118SOL    HW157008   2.993   3.121   3.188  0.2826  2.1136 -2.2941
15118SOL    HW257009   2.953   3.014   3.072  0.1531  0.7946 -1.0556
15119SOL     OW57010   0.598   0.898   3.886 -0.5435  0.5037  0.1968
15119SOL    HW157011   0.661   0.853   3.949 -1.4633 -0.3857  0.5040
15119SOL    HW257012   0.648   0.959   3.826  1.1393 -2.7923 -1.9298
15120SOL     OW57013   3.434   9.011   2.008  0.1916 -0.5007  0.5247
15120SOL    HW157014   3.484   9.096   1.991  0.1719 -0.8369 -1.2926
15120SOL    HW257015   3.343   9.032   2.045  0.5831  0.2138  1.0882
15121SOL     OW57016   7.361   1.610   6.170 -0.4863  1.0113  0.8043
15121SOL    HW157017   7.281   1.559   6.137 -0.8701  3.4200 -2.2203
15121SOL    HW257018   7.330   1.686   6.228 -0.6965  3.5990 -2.5615
15122SOL     OW57019   7.543   1.859   0.797  0.0103 -0.7815 -0.0032
15122SOL    HW157020   7.637   1.891   0.793  0.3490 -1.8400 -0.8424
15122SOL    HW257021   7.486   1.927   0.843  1.3890 -0.6429  1.5521
15123SOL     OW57022   3.485   5.910   3.625  0.1816 -0.3817  0.0431
15123SOL    HW157023   3.492   5.931   3.527 -1.7884 -0.4574 -0.1308
15123SOL    HW257024   3.400   5.949   3.661  1.4259  0.6196  1.9824
15124SOL     OW57025   6.086   7.882   6.160 -0.0771  0.2940  0.2924
15124SOL    HW157026   6.102   7.886   6.259 -3.4530 -0.5186  0.8977
15124SOL    HW257027   6.113   7.792   6.125 -2.1582 -0.6755  1.1127
15125SOL     OW57028   2.125   2.602   4.065  0.4635  0.3601  0.1035
15125SOL    HW157029   2.190   2.603   4.142  0.1195 -1.3076  0.4263
15125SOL    HW257030   2.146   2.525   4.005 -0.6309  0.3725 -0.3055
15126SOL     OW57031   6.742   1.905   2.344 -0.0950  0.2682 -0.6271
15126SOL    HW157032   6.646   1.922   2.367  0.4783  1.2913  1.0747
15126SOL    HW257033   6.790   1.870   2.424  1.3605  1.4186 -0.9712
15127SOL     OW57034   8.476   4.349   6.510  0.4581  0.0846 -0.3282
15127SOL    HW157035   8.387   4.340   6.554 -0.3227  0.4573 -1.8036
15127SOL    HW257036   8.519   4.258   6.504 -0.4467 -0.3097 -0.9059
15128SOL     OW57037   4.521   2.173   4.736 -0.0028 -0.0621 -0.7390
15128SOL    HW157038   4.616   2.149   4.757 -0.2299 -0.3742 -0.0607
15128SOL    HW257039   4.469   2.090   4.719 -0.6474 -0.0356  1.0091
15129SOL     OW57040   7.285   4.655   2.087  0.9585  0.4036  0.1814
15129SOL    HW157041   7.330   4.571   2.058  0.6568  0.0025  0.8566
15129SOL    HW257042   7.330   4.691   2.169  0.8768  0.7167  0.0915
15130SOL     OW57043   1.367   0.948   2.628 -0.1474 -0.1194  0.1931
15130SOL    HW157044   1.446   0.913   2.678  0.4601 -2.4121 -2.2580
15130SOL    HW257045   1.295   0.972   2.692  1.4211 -0.8198  2.2834
15131SOL     OW57046   8.739   1.951   2.992 -0.1876  0.8118  0.2984
15131SOL    HW157047   8.676   1.935   2.916  0.1705  0.0494  0.1673
15131SOL    HW257048   8.687   1.982   3.072 -1.0566 -2.3052  0.9911
15132SOL     OW57049   3.979   0.176   1.843 -0.0995  0.0004  0.1348
15132SOL    HW157050   4.073   0.160   1.872 -0.5879 -0.5660  1.4202
15132SOL    HW257051   3.927   0.217   1.918 -1.3082 -1.2734  0.0021
15133SOL     OW57052   9.586   8.730   0.844 -0.2775  0.2616 -0.2274
15133SOL    HW157053   9.498   8.698   0.811 -0.8847  1.4743  0.1560
15133SOL    HW257054   9.572   8.782   0.929  0.9534 -0.6426  0.5455
15134SOL     OW57055   4.552   9.258  10.063 -0.0597 -0.1273 -0.2967
15134SOL    HW157056   4.482   9.311  10.110 -0.0969 -0.0236 -0.4687
15134SOL    HW257057   4.624   9.320  10.031  0.8508 -0.3997  1.1617
15135SOL     OW57058   3.832   5.389   3.203 -0.0131  0.3124  0.0147
15135SOL    HW157059   3.855   5.345   3.289  1.0007  1.9321  0.6057
15135SOL    HW257060   3.797   5.482   3.221  1.1835  1.0476 -1.3558
15136SOL     OW57061   1.758   6.726   6.966  0.0593 -0.2039  0.0958
15136SOL    HW157062   1.846   6.768   6.987 -0.3617  1.8987 -2.1846
15136SOL    HW257063   1.733   6.663   7.040  2.0507  1.4274  2.2359
15137SOL     OW57064   4.126   4.927   2.788 -1.0287  0.4402  0.4834
15137SOL    HW157065   4.054   4.958   2.851 -2.5253  0.1450 -1.0423
15137SOL    HW257066   4.207   4.901   2.840 -0.8699  3.8045  2.0298
15138SOL     OW57067   9.533   3.988   6.478 -0.1064 -0.1052  0.3811
15138SOL    HW157068   9.456   4.046   6.452  0.1991  0.3881  0.5520
15138SOL    HW257069   9.618   4.039   6.466  0.3499 -1.3289 -1.7192
15139SOL     OW57070   7.981   0.300   8.090  0.0928  1.1162 -0.1392
15139SOL    HW157071   8.055   0.364   8.108  0.5993  1.1771 -2.2675
15139SOL    HW257072   7.899   0.350   8.062 -0.3989  0.9819  1.0338
15140SOL     OW57073   3.273   4.162   6.575 -0.6199  0.1248  0.0315
15140SOL    HW157074   3.301   4.145   6.670 -1.6800 -0.9227  0.1707
15140SOL    HW257075   3.318   4.094   6.516 -0.5309  0.3218 -0.1258
15141SOL     OW57076   8.823   3.691   0.594  0.4141  0.9662 -0.4018
15141SOL    HW157077   8.886   3.761   0.560  0.2150  0.8450 -1.0352
15141SOL    HW257078   8.751   3.676   0.526 -1.1009  2.1158  0.8874
15142SOL     OW57079   4.658   8.367   2.015 -0.2033  0.0469 -0.7755
15142SOL    HW157080   4.732   8.400   1.956 -0.4777 -0.6849 -1.5452
15142SOL    HW257081   4.571   8.400   1.979 -0.3815 -0.5231 -0.8638
15143SOL     OW57082   5.372   7.402   6.096 -0.0886 -0.0474 -0.5905
15143SOL    HW157083   5.403   7.497   6.092  1.1859 -0.2822  2.4724
15143SOL    HW257084   5.282   7.398   6.139  0.0453 -0.2395 -0.3221
15144SOL     OW57085   5.867   9.865   3.053  0.9401  0.3162 -0.4856
15144SOL    HW157086   5.898   9.801   2.984 -0.5310  0.6020 -1.4451
15144SOL    HW257087   5.894   9.958   3.027  1.7787  0.2522  0.1462
15145SOL     OW57088   2.891   3.482   7.019  0.1968 -0.4695 -0.3866
15145SOL    HW157089   2.951   3.560   7.038 -1.3164  0.6501 -0.1170
15145SOL    HW257090   2.930   3.427   6.945  2.3996 -0.7052  0.9311
15146SOL     OW57091   4.547   9.269   3.244 -0.0940 -0.7916  0.2682
15146SOL    HW157092   4.532   9.268   3.145 -0.9678  1.6032  0.3454
15146SOL    HW257093   4.518   9.181   3.283  1.5931 -2.3025 -1.7552
15147SOL     OW57094   5.421   9.871   7.812 -0.2074  0.2804  0.1571
15147SOL    HW157095   5.478   9.884   7.731  1.4485  0.3159  1.3025
15147SOL    HW257096   5.417   9.956   7.865 -2.3319  0.6391 -0.5278
15148SOL     OW57097   8.984   0.763   0.954 -0.4263 -0.6035  1.0020
15148SOL    HW157098   8.957   0.763   1.051 -0.3990 -0.3483  1.0100
15148SOL    HW257099   9.008   0.856   0.926 -0.9034 -0.5950  0.6146
15149SOL     OW57100   3.031   4.854   7.340 -0.0176  0.2204 -0.1393
15149SOL    HW157101   3.116   4.892   7.303  0.4048 -0.3480  0.2275
15149SOL    HW257102   2.957   4.919   7.327  0.7308  1.2600  0.6275
15150SOL     OW57103   1.529   7.048   0.861 -0.1444 -0.5953 -0.7697
15150SOL    HW157104   1.452   6.991   0.888 -1.2036  0.7745 -0.9123
15150SOL    HW257105   1.518   7.140   0.897  0.0088  0.3853 -3.1268
15151SOL     OW57106   8.454   1.853   2.893  0.3137 -0.2635 -0.2448
15151SOL    HW157107   8.474   1.757   2.874 -0.4793 -0.6572  0.8534
15151SOL    HW257108   8.365   1.876   2.854  1.0238  0.3548 -1.5309
15152SOL     OW57109   1.261   4.690   3.280  0.2862 -0.1216  0.3017
15152SOL    HW157110   1.164   4.663   3.279  0.7857 -1.9985  0.2912
15152SOL    HW257111   1.280   4.748   3.201 -0.9665  0.7823  0.6386
15153SOL     OW57112   4.881   1.019   3.611  0.1223  0.4865  0.1425
15153SOL    HW157113   4.794   1.062   3.585  0.6238  2.0156  0.9323
15153SOL    HW257114   4.863   0.942   3.672 -0.6312  1.6253  1.3915
15154SOL     OW57115   8.526   9.522   4.660  0.4078  0.4359  0.3571
15154SOL    HW157116   8.554   9.563   4.747  0.0250  0.2629  0.5629
15154SOL    HW257117   8.518   9.423   4.671 -1.9808  0.6402  0.7858
15155SOL     OW57118   1.936   8.613   5.813 -0.3969  0.7670  0.0660
15155SOL    HW157119   1.856   8.662   5.849 -0.1010  0.7552  0.7446
15155SOL    HW257120   2.002   8.679   5.778 -0.8224  0.7654 -0.7523
15156SOL     OW57121   9.831   8.480   1.147  0.6327 -0.0650 -0.3443
15156SOL    HW157122   9.888   8.488   1.065  2.8742  2.2838  1.3679
15156SOL    HW257123   9.850   8.556   1.208 -3.2936 -0.0719  1.0010
15157SOL     OW57124   8.886   5.695   6.662 -0.4529 -0.1976  0.3002
15157SOL    HW157125   8.920   5.658   6.575 -0.8637 -0.6898  0.3453
15157SOL    HW257126   8.947   5.768   6.693 -0.6289  0.4049 -0.7086
15158SOL     OW57127   7.321   6.801   2.964 -0.1993  0.2086 -0.3369
15158SOL    HW157128   7.406   6.749   2.978  0.5865  1.6362  0.3280
15158SOL    HW257129   7.334   6.866   2.889 -0.7434  0.3622 -0.3017
15159SOL     OW57130   3.270   2.931   3.178  0.3822 -0.5139  0.7430
15159SOL    HW157131   3.187   2.983   3.160  1.6624  0.7249 -1.8719
15159SOL    HW257132   3.256   2.836   3.150 -0.2196 -0.3873  0.5980
15160SOL     OW57133   2.698   2.313   2.682  0.2873  0.4791  0.5202
15160SOL    HW157134   2.715   2.215   2.681 -0.2968  0.3887 -1.3438
15160SOL    HW257135   2.784   2.362   2.696  0.7505 -0.2592  0.2626
15161SOL     OW57136   5.506   3.731   2.664 -0.5966 -0.4520 -0.0013
15161SOL    HW157137   5.576   3.740   2.736  0.6948  1.6717 -1.4744
15161SOL    HW257138   5.516   3.642   2.620  1.2477 -0.1786 -0.2081
15162SOL     OW57139   9.321   3.085   5.178 -0.2456 -0.1166  0.0299
15162SOL    HW157140   9.246   3.036   5.223  0.7948  1.1339  3.2723
15162SOL    HW257141   9.326   3.178   5.214  1.6445  0.4454 -1.6118
15163SOL     OW57142   9.799   3.205   5.548 -0.4230  0.4934  0.0128
15163SOL    HW157143   9.758   3.297   5.550  1.0914  1.1826  3.1125
15163SOL    HW257144   9.893   3.211   5.514 -0.2459  0.1380  0.4331
15164SOL     OW57145   2.091   4.328   0.970  0.2285 -0.5510 -0.2725
15164SOL    HW157146   2.000   4.357   0.940 -0.0870  0.6468  1.7152
15164SOL    HW257147   2.085   4.235   1.008  0.0116 -0.8138 -0.9435
15165SOL     OW57148   4.696   9.621   2.646 -0.4659  0.2363  0.2725
15165SOL    HW157149   4.717   9.718   2.657 -1.8806  0.7285 -1.0462
15165SOL    HW257150   4.672   9.604   2.550 -1.9602 -1.0515  0.8567
15166SOL     OW57151   4.158   1.287   6.863 -0.1408 -0.2541 -0.0445
15166SOL    HW157152   4.240   1.232   6.849  0.6475  0.6546  0.9434
15166SOL    HW257153   4.100   1.282   6.781  1.3512 -0.1443 -1.1155
15167SOL     OW57154   2.927   8.963   0.934 -0.0092  0.7197  0.6880
15167SOL    HW157155   2.903   9.058   0.953  1.2235  1.1353  0.2446
15167SOL    HW257156   3.013   8.960   0.883  0.6891 -0.6752  1.8943
15168SOL     OW57157   8.172   1.636   4.860 -0.2483 -0.5762 -0.7995
15168SOL    HW157158   8.218   1.560   4.908  0.8886  0.0063 -0.9542
15168SOL    HW257159   8.234   1.676   4.794 -2.2544 -2.2404 -3.7994
15169SOL     OW57160   9.544   8.547   6.044 -0.3099 -0.0250 -0.2400
15169SOL    HW157161   9.514   8.618   5.980 -0.5265 -1.7067 -2.0340
15169SOL    HW257162   9.563   8.589   6.133  1.1276  2.5524 -1.6961
15170SOL     OW57163   3.028   4.301   6.254 -0.0756 -0.3802 -0.9594
15170SOL    HW157164   3.077   4.387   6.237  0.7886 -0.8204 -0.7322
15170SOL    HW257165   3.053   4.234   6.184 -0.2184 -0.6629 -0.7412
15171SOL     OW57166   6.249   6.849   5.813  0.1590 -0.3207  0.2620
15171SOL    HW157167   6.231   6.752   5.793 -0.4742 -0.3833  1.1326
15171SOL    HW257168   6.162   6.899   5.819  0.4580  0.1877  0.3778
15172SOL     OW57169   8.996   3.378   0.457  0.1674  0.2649 -0.0348
15172SOL    HW157170   9.082   3.412   0.420  0.2824  0.6536  0.5885
15172SOL    HW257171   9.014   3.303   0.520  0.0510  0.3617  0.1151
15173SOL     OW57172   1.022   0.756   0.577  0.7848  0.5693  0.6531
15173SOL    HW157173   0.924   0.740   0.580  0.8409 -0.4046 -1.5046
15173SOL    HW257174   1.065   0.720   0.660 -0.3233 -1.7445  0.2627
15174SOL     OW57175   9.820   8.798   4.065  0.3279  0.1913  0.0908
15174SOL    HW157176   9.870   8.713   4.076  1.4717  1.1989  3.4383
15174SOL    HW257177   9.884   8.875   4.062 -0.7193  1.0271 -2.0878
15175SOL     OW57178   5.755   2.465   6.374  0.1721 -0.1586  0.2283
15175SOL    HW157179   5.837   2.414   6.347 -0.0469 -0.9604  1.0609
15175SOL    HW257180   5.767   2.562   6.351  0.6346 -0.5545 -1.2844
15176SOL     OW57181   0.500   0.095   0.725  0.5127  0.2342  0.2789
15176SOL    HW157182   0.436   0.019   0.738  1.2769 -0.0155  2.9153
15176SOL    HW257183   0.498   0.123   0.629 -0.8023 -2.1925 -0.4770
15177SOL     OW57184   2.189   1.523   0.906  0.0115 -0.2174 -0.0502
15177SOL    HW157185   2.132   1.586   0.852 -0.0887  0.5601  0.9547
15177SOL    HW257186   2.249   1.576   0.965  0.2433 -1.0734  0.4769
15178SOL     OW57187   6.572   3.340   1.521 -0.3625  0.0034  0.3483
15178SOL    HW157188   6.511   3.359   1.444 -0.0348  0.9251  0.3037
15178SOL    HW257189   6.582   3.241   1.533  0.1690 -0.1402 -1.2497
15179SOL     OW57190   3.546   0.190   1.615  0.1047  0.4941 -0.1974
15179SOL    HW157191   3.502   0.197   1.704 -1.2351  0.8086 -0.8804
15179SOL    HW257192   3.548   0.094   1.586  0.6725  0.3735  0.2295
15180SOL     OW57193   8.399   1.489   1.919 -0.2977  0.0745  0.7345
15180SOL    HW157194   8.398   1.496   2.019  0.2605 -0.9680  0.8263
15180SOL    HW257195   8.420   1.578   1.879 -0.4495  0.4810  1.5496
15181SOL     OW57196   1.920   0.089   1.272  0.3507 -0.2413 -0.1074
15181SOL    HW157197   1.943   0.183   1.247 -1.2125 -0.1674 -1.3302
15181SOL    HW257198   1.857   0.051   1.205  0.3659 -1.9074  0.8003
15182SOL     OW57199   4.796   8.061   4.425  0.3666 -0.0652 -0.3092
15182SOL    HW157200   4.701   8.077   4.400 -0.2208 -2.4596  0.2380
15182SOL    HW257201   4.856   8.116   4.368 -1.3155  0.7670 -1.2817
15183SOL     OW57202   2.581   7.824   2.171 -0.2112 -0.0720 -0.0729
15183SOL    HW157203   2.548   7.873   2.251  1.9374  0.1658  0.6783
15183SOL    HW257204   2.653   7.876   2.126 -2.0459  0.2612 -2.7514
15184SOL     OW57205   9.843   2.700   6.590  0.2242 -0.5393  0.6545
15184SOL    HW157206   9.898   2.749   6.659  1.3179 -0.5120 -0.2208
15184SOL    HW257207   9.747   2.721   6.604  0.5788  0.8552  1.1073
15185SOL     OW57208   3.974   3.766   7.079 -0.1284 -0.0612  0.2730
15185SOL    HW157209   4.041   3.710   7.129  0.7900 -0.2131 -1.0951
15185SOL    HW257210   3.988   3.862   7.101  1.9133  0.0966 -1.5564
15186SOL     OW57211   7.759   9.624   5.653 -0.4768  0.1512  0.3311
15186SOL    HW157212   7.837   9.662   5.604 -0.8769 -0.8735 -1.1389
15186SOL    HW257213   7.781   9.617   5.751  1.6305 -1.0398 -0.1966
15187SOL     OW57214   4.384   3.988   7.048  0.6557  0.5363 -0.7051
15187SOL    HW157215   4.457   3.977   6.981 -2.1990  0.1201 -3.8931
15187SOL    HW257216   4.334   4.072   7.029 -1.3184 -0.5144 -0.2659
15188SOL     OW57217   0.723   0.140   1.633 -0.2010 -0.6140 -0.4389
15188SOL    HW157218   0.640   0.137   1.689 -0.9874  2.9618 -1.2754
15188SOL    HW257219   0.802   0.119   1.690 -1.2423  0.4365  1.4594
15189SOL     OW57220   6.137   8.886   2.142  0.4034  0.3566 -0.4386
15189SOL    HW157221   6.184   8.973   2.159 -0.2286  0.2168  2.3748
15189SOL    HW257222   6.192   8.811   2.179 -1.3132  0.0648  1.6649
15190SOL     OW57223   9.181   4.609   5.533  0.0969 -0.1833 -0.3891
15190SOL    HW157224   9.157   4.563   5.447 -1.6987  1.1173 -0.6019
15190SOL    HW257225   9.143   4.701   5.533  1.3627  0.3572  1.1873
15191SOL     OW57226   0.438   3.258   5.638  0.3603  0.5850 -0.2433
15191SOL    HW157227   0.373   3.213   5.699 -0.9237  2.0626 -0.4848
15191SOL    HW257228   0.430   3.219   5.547  1.1904 -0.5661  0.1710
15192SOL     OW57229   4.416   9.533   3.828 -0.1566 -0.0965  0.5478
15192SOL    HW157230   4.466   9.448   3.809 -0.4264 -0.6676  2.2475
15192SOL    HW257231   4.364   9.561   3.747 -1.0081 -2.2203  0.3229
15193SOL     OW57232   2.925   1.870   3.081  0.0791  0.0974 -0.0871
15193SOL    HW157233   2.931   1.810   3.161 -2.5314 -0.6621 -0.4442
15193SOL    HW257234   3.018   1.888   3.047  1.1270 -0.8140  2.1644
15194SOL     OW57235   9.770   5.685   5.498  0.4362 -0.4003 -0.1054
15194SOL    HW157236   9.822   5.647   5.575 -1.1557 -1.6394  0.3984
15194SOL    HW257237   9.682   5.638   5.491 -1.2439  2.5695 -0.0459
15195SOL     OW57238   5.189   0.711   6.180 -0.2708 -0.9380 -0.0903
15195SOL    HW157239   5.217   0.806   6.196  2.6959 -1.9389  1.0044
15195SOL    HW257240   5.099   0.710   6.137 -0.3318  2.3681 -0.1926
15196SOL     OW57241   4.062   6.477   3.567  0.3908  0.1822 -0.1270
15196SOL    HW157242   4.080   6.479   3.666 -0.2220  0.7496 -0.0208
15196SOL    HW257243   3.971   6.441   3.550  1.2447 -1.8079 -0.6133
15197SOL     OW57244   3.482   3.158   4.314 -0.1632 -0.0069 -0.3792
15197SOL    HW157245   3.413   3.109   4.262  0.9227 -0.7779 -1.1154
15197SOL    HW257246   3.503   3.245   4.268  0.6579 -0.6009 -1.1405
15198SOL     OW57247   3.946   5.421   1.100  0.3195 -0.6521 -0.2171
15198SOL    HW157248   4.013   5.487   1.135  1.0247 -1.2220 -0.4717
15198SOL    HW257249   3.870   5.414   1.164  0.4650  0.0544  0.0455
15199SOL     OW57250   4.155   6.953   3.357  0.0159  0.3142  0.0457
15199SOL    HW157251   4.163   6.964   3.258 -1.3949  2.4691  0.1324
15199SOL    HW257252   4.136   6.858   3.378  0.7852 -0.2594 -1.7311
15200SOL     OW57253   6.474   1.366   4.688  0.1540 -0.2290  0.0341
15200SOL    HW157254   6.431   1.329   4.770  0.6906  1.0753  0.9283
15200SOL    HW257255   6.546   1.304   4.657  1.5805  0.3984  1.9626
15201SOL     OW57256   3.571   2.224   1.382 -0.1684 -0.6882 -0.4781
15201SOL    HW157257   3.519   2.183   1.456 -0.0571 -0.7339 -0.4248
15201SOL    HW257258   3.648   2.164   1.358  0.8477  0.1621  0.5778
15202SOL     OW57259   9.042   7.550   2.989 -0.6585  0.4544 -0.0106
15202SOL    HW157260   9.044   7.637   2.939 -0.7293  1.6870  2.0499
15202SOL    HW257261   9.135   7.526   3.018 -0.9270  1.0446  1.3843
15203SOL     OW57262   7.763   9.727   1.817 -0.3018  0.0249 -0.2798
15203SOL    HW157263   7.835   9.766   1.760 -1.4005  0.9037 -1.1066
15203SOL    HW257264   7.742   9.635   1.786  1.8236 -1.0015  1.2316
15204SOL     OW57265   7.266   0.774   2.841  0.2463  0.2189 -0.1979
15204SOL    HW157266   7.174   0.736   2.825 -0.2845  1.1565  0.5820
15204SOL    HW257267   7.258   0.873   2.857  1.1280 -0.1247  2.4392
15205SOL     OW57268   6.173   9.015   6.701 -0.1258  0.4204 -0.4160
15205SOL    HW157269   6.259   9.014   6.650  0.1809 -0.1181  0.1020
15205SOL    HW257270   6.125   9.101   6.683  0.6958  0.8906 -0.4174
15206SOL     OW57271   1.475   4.495   4.369  0.1929  0.4011 -0.6573
15206SOL    HW157272   1.506   4.464   4.279 -1.0196 -1.0412 -0.5957
15206SOL    HW257273   1.441   4.589   4.362 -0.7982 -0.0357 -1.9215
15207SOL     OW57274   1.732   5.960   1.626  0.2662  0.1038  0.3407
15207SOL    HW157275   1.727   5.872   1.674  0.5860  0.1106  0.3905
15207SOL    HW257276   1.664   5.963   1.553 -0.0741  0.0044  0.6509
15208SOL     OW57277   8.074   4.091   0.800 -0.5430 -0.0640 -0.3328
15208SOL    HW157278   8.046   4.179   0.838  0.5659  1.7605 -3.4833
15208SOL    HW257279   8.145   4.051   0.858 -0.5960  1.4590  0.8234
15209SOL     OW57280   0.167   2.999   4.319  0.0606 -0.3980  0.4102
15209SOL    HW157281   0.136   3.075   4.261 -0.4243 -0.0818  1.0682
15209SOL    HW257282   0.253   2.963   4.285  0.9593  1.3097  0.8283
15210SOL     OW57283   7.647   7.730   4.236  0.0352  0.0413  0.1091
15210SOL    HW157284   7.598   7.689   4.158 -0.0209 -1.8841  1.1160
15210SOL    HW257285   7.727   7.674   4.257  1.2430  1.7480  0.1096
15211SOL     OW57286   0.591   5.415   4.799  0.2329  0.1777 -0.2862
15211SOL    HW157287   0.526   5.342   4.825  1.4185 -0.8297 -0.1234
15211SOL    HW257288   0.596   5.421   4.700 -0.7672  0.8659 -0.3095
15212SOL     OW57289   8.655   9.695   2.915 -0.3308 -0.1769 -0.1483
15212SOL    HW157290   8.707   9.689   2.831  1.5883  2.0150  0.8581
15212SOL    HW257291   8.711   9.663   2.992 -0.2781  2.6053  1.0094
15213SOL     OW57292   8.280   8.012   6.548 -0.6499  0.0466 -0.1775
15213SOL    HW157293   8.229   7.994   6.464  2.2207 -2.0394 -1.5510
15213SOL    HW257294   8.368   8.054   6.526  0.5515 -1.3953  1.6704
15214SOL     OW57295   9.239   5.760   2.931 -0.2915  0.3276 -0.2362
15214SOL    HW157296   9.327   5.716   2.911  1.1607  1.7103  2.8454
15214SOL    HW257297   9.254   5.854   2.961 -2.8138  0.5521  0.4625
15215SOL     OW57298   8.520   3.255   5.360  0.0054  0.1039 -0.0537
15215SOL    HW157299   8.424   3.228   5.367  0.3178 -0.4990  2.0607
15215SOL    HW257300   8.530   3.350   5.390  0.5777 -0.9324  3.2151
15216SOL     OW57301   4.332   1.223   5.545  0.2994 -0.3603 -0.5397
15216SOL    HW157302   4.349   1.312   5.501 -0.4167 -0.3648 -0.8372
15216SOL    HW257303   4.412   1.196   5.598 -0.3478  1.6081  1.5122
15217SOL     OW57304   7.550   9.463   5.598 -0.2850 -0.2404 -0.1690
15217SOL    HW157305   7.622   9.529   5.618 -2.7022  2.2490  0.7452
15217SOL    HW257306   7.516   9.478   5.505 -0.7920 -0.1893  0.0187
15218SOL     OW57307   3.508   5.145   3.757  0.0153  0.1236 -1.0663
15218SOL    HW157308   3.604   5.115   3.761  0.2633  1.0537  0.1173
15218SOL    HW257309   3.503   5.236   3.716 -0.2194  0.6878  0.2035
15219SOL     OW57310   8.181   7.117   2.375 -0.3425 -0.0365  0.1212
15219SOL    HW157311   8.213   7.040   2.320  0.3025  0.1211  0.2681
15219SOL    HW257312   8.173   7.089   2.471  0.1554  0.1538  0.2189
15220SOL     OW57313   3.903   2.681   5.749 -0.0271  0.0708  0.5573
15220SOL    HW157314   3.803   2.687   5.748 -0.0248  0.0126 -0.4528
15220SOL    HW257315   3.932   2.596   5.705  0.5169  0.8457 -0.6103
15221SOL     OW57316   2.678   6.311   6.342 -0.4002  0.1122  0.0861
15221SOL    HW157317   2.697   6.403   6.376  2.9024 -0.7801  0.7689
15221SOL    HW257318   2.614   6.265   6.404 -2.0965  1.8943 -0.2725
15222SOL     OW57319   0.738   6.532   2.205 -0.2689 -0.3772  0.1068
15222SOL    HW157320   0.784   6.618   2.227 -0.6510  0.0163 -0.5900
15222SOL    HW257321   0.796   6.476   2.147 -0.8146  0.2990 -1.1159
15223SOL     OW57322   3.168   0.808   2.808 -0.4318  0.5306  0.1385
15223SOL    HW157323   3.243   0.872   2.820  0.3832 -0.6312  1.4087
15223SOL    HW257324   3.104   0.817   2.885 -0.6888  0.3236 -0.0493
15224SOL     OW57325   2.889   3.705   5.202  0.2513  0.2314  0.4228
15224SOL    HW157326   2.922   3.615   5.230  0.2215 -0.0508 -0.4397
15224SOL    HW257327   2.801   3.724   5.247 -0.6012 -0.9069 -0.7233
15225SOL     OW57328   8.538   6.734   7.681  0.0889 -0.3714  0.1112
15225SOL    HW157329   8.624   6.709   7.636  1.0587  0.7282  1.3344
15225SOL    HW257330   8.509   6.659   7.740  0.8555 -0.2660  0.6355
15226SOL     OW57331   7.140   3.126   3.766  0.2745 -0.1744  0.4916
15226SOL    HW157332   7.155   3.220   3.794  0.3974  0.2709 -1.0362
15226SOL    HW257333   7.212   3.068   3.805  1.8219  0.8084 -0.8521
15227SOL     OW57334   1.751   9.061   6.728 -0.4770 -0.0060  0.6562
15227SOL    HW157335   1.759   9.065   6.628  1.3656  0.1693  0.7912
15227SOL    HW257336   1.750   9.154   6.765 -2.7103 -0.0305  0.7104
15228SOL     OW57337   9.588   1.178   1.227 -0.3120 -0.2935 -0.4776
15228SOL    HW157338   9.661   1.218   1.283 -1.2874  0.5739  0.1880
15228SOL    HW257339   9.516   1.246   1.212 -0.5593 -0.8438 -1.9175
15229SOL     OW57340   3.655   8.017   4.075 -0.3834 -0.4308  0.2320
15229SOL    HW157341   3.689   8.090   4.016  1.0853 -0.7147  0.7088
15229SOL    HW257342   3.696   7.930   4.048 -1.2037 -0.8883  0.4352
15230SOL     OW57343   1.129   2.635   7.542  0.3238 -0.2750 -0.5684
15230SOL    HW157344   1.151   2.690   7.623  0.3681 -1.5259  0.2743
15230SOL    HW257345   1.030   2.639   7.525  0.2967 -0.1371 -0.3745
15231SOL     OW57346   7.120   1.423   6.256  0.8493  0.0519 -0.1560
15231SOL    HW157347   7.145   1.447   6.162 -2.0730 -0.9381 -1.2543
15231SOL    HW257348   7.102   1.324   6.261 -1.1655  0.4563  0.9195
15232SOL     OW57349   7.929   7.562   5.761  0.3137  0.5607 -0.1550
15232SOL    HW157350   7.909   7.658   5.738 -1.2688  0.9360  2.5506
15232SOL    HW257351   7.846   7.507   5.747  1.4489 -0.6392 -2.5312
15233SOL     OW57352   9.229   7.796   6.163 -0.3682  0.2525 -0.0404
15233SOL    HW157353   9.314   7.766   6.207 -0.3969 -0.2178 -0.3127
15233SOL    HW257354   9.203   7.886   6.200  0.1246  0.2962  0.2051
15234SOL     OW57355   4.761   1.538   0.420 -0.0296 -0.2649  0.4506
15234SOL    HW157356   4.717   1.619   0.459 -0.9766 -1.7747  2.6418
15234SOL    HW257357   4.691   1.479   0.380  0.4692 -0.7664  0.3252
15235SOL     OW57358   8.146   0.895   2.379 -0.2411 -0.2978  0.3325
15235SOL    HW157359   8.236   0.888   2.337  1.1034  3.7766  2.3411
15235SOL    HW257360   8.084   0.942   2.317  0.6937  2.2331  1.2539
15236SOL     OW57361   3.763   4.848   5.045  0.5103 -0.0355  0.3664
15236SOL    HW157362   3.686   4.834   4.983  0.7857 -1.0324  0.2478
15236SOL    HW257363   3.747   4.931   5.098 -0.5342 -0.1017  0.1785
15237SOL     OW57364   5.400   1.699   5.562  0.0574 -0.4487 -0.2609
15237SOL    HW157365   5.323   1.636   5.570 -0.9170  0.9185  1.5312
15237SOL    HW257366   5.366   1.791   5.541  1.1925  0.1558  0.4748
15238SOL     OW57367   9.671   1.400   3.232 -0.2763 -0.5814 -0.8883
15238SOL    HW157368   9.728   1.353   3.165  1.7418 -0.5412  0.7341
15238SOL    HW257369   9.684   1.499   3.223 -0.2190 -0.5658 -0.6332
15239SOL     OW57370   3.276   1.640   1.041 -0.4948 -0.0169  0.0969
15239SOL    HW157371   3.290   1.657   1.139  0.0241  0.4700 -0.0553
15239SOL    HW257372   3.300   1.546   1.019  1.5898  0.4927  0.0411
15240SOL     OW57373   8.347   0.717   6.760  0.8923  0.1002 -0.2972
15240SOL    HW157374   8.247   0.722   6.761  0.9383  1.1724  0.3999
15240SOL    HW257375   8.381   0.738   6.669  0.4566 -1.0105 -0.7254
15241SOL     OW57376   5.153   8.076   5.265 -0.4947  0.1788 -0.2217
15241SOL    HW157377   5.212   8.111   5.193 -0.3743 -1.3178 -0.8712
15241SOL    HW257378   5.135   7.979   5.250  0.0840 -0.3384  2.1395
15242SOL     OW57379   0.401   0.374   5.455  0.2304  0.2605  0.0486
15242SOL    HW157380   0.346   0.407   5.379  0.3668  2.6607  0.9498
15242SOL    HW257381   0.347   0.381   5.540  1.0069  0.1622  0.5494
15243SOL     OW57382   8.098   0.080   5.445 -0.2450 -0.5504  0.5613
15243SOL    HW157383   8.164   0.008   5.426 -0.6838 -0.9312  0.4629
15243SOL    HW257384   8.007   0.040   5.459 -1.2555  0.2509 -3.2032
15244SOL     OW57385   4.258   0.497   2.359 -0.1006 -0.0370  0.0644
15244SOL    HW157386   4.237   0.420   2.419 -0.4400  0.8244  1.0659
15244SOL    HW257387   4.315   0.563   2.408  0.4773  0.1892 -0.9012
15245SOL     OW57388   7.587   9.251   3.180  0.1690  0.1428  0.0209
15245SOL    HW157389   7.550   9.159   3.188  0.7920 -0.0297  0.9475
15245SOL    HW257390   7.687   9.247   3.181  0.2214  0.6882 -1.5229
15246SOL     OW57391   9.414   7.560   5.734 -0.3159  0.4700 -0.1322
15246SOL    HW157392   9.480   7.595   5.800 -0.9880 -0.1989  0.9166
15246SOL    HW257393   9.432   7.599   5.644  0.3914  1.6736  0.5229
15247SOL     OW57394   5.447   7.660   6.085  0.2086  0.1972 -0.7656
15247SOL    HW157395   5.384   7.689   6.156  0.6244  0.3962 -0.4811
15247SOL    HW257396   5.396   7.648   5.999 -0.3541 -0.3899 -0.3575
15248SOL     OW57397   0.893   0.707   1.032  0.0837 -0.3772 -0.6562
15248SOL    HW157398   0.812   0.759   1.059  0.6265  0.8366 -1.3606
15248SOL    HW257399   0.946   0.682   1.113 -0.8192 -0.9017 -0.2208
15249SOL     OW57400   3.008   0.928   1.233 -0.4479 -0.0796  0.1810
15249SOL    HW157401   2.956   0.886   1.307 -0.6183 -0.9772 -0.4381
15249SOL    HW257402   3.054   0.857   1.180  0.4689  0.6276  0.0145
15250SOL     OW57403   8.089   1.953   3.140  0.2694  0.3275  0.4294
15250SOL    HW157404   8.081   1.884   3.212  1.9275  1.0343  1.3330
15250SOL    HW257405   8.082   1.909   3.051 -0.6144 -0.7317  1.0062
15251SOL     OW57406   8.242   7.268   1.375 -0.0924 -0.3979  0.3303
15251SOL    HW157407   8.248   7.180   1.421 -0.0642 -0.3522  0.4135
15251SOL    HW257408   8.196   7.256   1.287 -1.1454 -0.2990  0.8560
15252SOL     OW57409   4.944   7.131   2.613 -0.1385  0.0002  0.5131
15252SOL    HW157410   4.920   7.034   2.603  1.4787 -0.2951 -0.7058
15252SOL    HW257411   5.038   7.139   2.644  0.4574  1.1724 -1.4753
15253SOL     OW57412   0.611   7.864   1.343 -0.0246  0.1184  0.4939
15253SOL    HW157413   0.708   7.852   1.365 -0.1428  0.4927  1.2360
15253SOL    HW257414   0.574   7.778   1.308  0.9499  0.3888 -1.2297
15254SOL     OW57415   4.040   4.863   2.216 -0.3194  0.0914 -0.2374
15254SOL    HW157416   4.047   4.790   2.283 -0.7025  2.2869  2.2778
15254SOL    HW257417   3.975   4.932   2.247  0.2650  1.6964 -2.3621
15255SOL     OW57418   0.570   4.245   2.767 -0.0511 -0.5571 -0.8165
15255SOL    HW157419   0.544   4.160   2.721  2.0456 -2.0266  0.6344
15255SOL    HW257420   0.591   4.227   2.863 -0.6675  1.8070 -0.1960
15256SOL     OW57421   7.459   8.387   3.542 -0.7616 -0.2026  0.7015
15256SOL    HW157422   7.448   8.432   3.630 -0.9650 -0.2547  0.7031
15256SOL    HW257423   7.440   8.289   3.551 -2.1642  0.0229  0.3163
15257SOL     OW57424   1.548   0.789   6.731 -0.0728 -0.1897 -0.4334
15257SOL    HW157425   1.582   0.867   6.784  1.1492 -0.8094 -0.2778
15257SOL    HW257426   1.521   0.716   6.794  0.7945 -0.6896 -0.6320
15258SOL     OW57427   7.284   8.240   5.058 -0.4430 -0.2443 -0.3430
15258SOL    HW157428   7.349   8.204   4.992  0.7280 -0.1896  0.7597
15258SOL    HW257429   7.226   8.309   5.014  0.2239 -0.3228 -1.3447
15259SOL     OW57430   6.133   3.392   0.871  0.4312 -0.0119 -0.0020
15259SOL    HW157431   6.119   3.429   0.962  1.9487 -0.2672  0.3346
15259SOL    HW257432   6.193   3.452   0.818  0.5092 -0.4617 -0.4360
15260SOL     OW57433   1.114   6.549   2.967  0.0551  0.5332 -0.4703
15260SOL    HW157434   1.071   6.486   3.031  1.9409 -1.1195 -0.7560
15260SOL    HW257435   1.132   6.636   3.012 -2.6005  0.8975 -0.0622
15261SOL     OW57436   3.424   4.694   2.762 -0.2436  0.7046 -0.1073
15261SOL    HW157437   3.393   4.779   2.719  0.5309  0.0795 -1.9739
15261SOL    HW257438   3.487   4.715   2.837 -2.5247  1.8596  1.5066
15262SOL     OW57439   5.040   9.097   2.276  0.2009 -0.1160  0.8328
15262SOL    HW157440   5.123   9.043   2.261 -0.8885 -1.7472  0.6193
15262SOL    HW257441   5.045   9.142   2.366 -0.2869 -3.1615  2.4382
15263SOL     OW57442   4.418   6.437   3.815  0.5980  0.0061 -0.2206
15263SOL    HW157443   4.377   6.354   3.853  0.2381 -0.5577 -1.7882
15263SOL    HW257444   4.487   6.411   3.746  0.6208  1.0066 -0.5852
15264SOL     OW57445   9.801   1.581   6.526  0.1230  0.1306 -0.2347
15264SOL    HW157446   9.825   1.612   6.434  2.3063 -1.4136 -0.2118
15264SOL    HW257447   9.769   1.486   6.522  0.8720 -0.1678  0.6697
15265SOL     OW57448   8.238   1.885   0.866  0.1998 -0.1684 -0.2950
15265SOL    HW157449   8.204   1.924   0.780 -0.2856 -0.1277 -0.0902
15265SOL    HW257450   8.269   1.959   0.926  0.5293 -0.1962 -0.4338
15266SOL     OW57451   0.755   7.590   7.976 -0.2088  0.7686  0.1976
15266SOL    HW157452   0.730   7.499   8.008 -0.4995  0.7950  0.0512
15266SOL    HW257453   0.854   7.600   7.977 -0.1387  0.1810 -0.5386
15267SOL     OW57454   9.970   9.395   2.430 -0.3188  0.3036 -0.0125
15267SOL    HW157455   9.883   9.349   2.414  0.2845 -0.2711 -1.7463
15267SOL    HW257456   9.973   9.481   2.379  0.4801 -0.1267 -0.7057
15268SOL     OW57457   5.952   8.648   2.664  0.4978  0.3751  0.2593
15268SOL    HW157458   6.000   8.578   2.610 -1.9065 -0.8366 -0.3850
15268SOL    HW257459   5.995   8.737   2.648  1.5045 -0.3986 -1.5678
15269SOL     OW57460   3.528   3.161   7.393  0.0552  0.0095  0.1255
15269SOL    HW157461   3.618   3.120   7.377  0.4499  1.0208 -0.2584
15269SOL    HW257462   3.531   3.217   7.476 -0.4316 -0.5735  0.5397
15270SOL     OW57463   4.020   8.774   2.667 -0.5591 -0.3157 -0.4362
15270SOL    HW157464   4.007   8.741   2.574  1.2461 -0.0961 -0.7757
15270SOL    HW257465   3.959   8.852   2.683 -2.2633 -1.5440 -0.7829
15271SOL     OW57466   2.572   3.694   6.372  0.0657  0.0573  0.4067
15271SOL    HW157467   2.578   3.644   6.285 -0.4997 -1.1278  1.0386
15271SOL    HW257468   2.542   3.787   6.354 -1.2951 -0.5499 -0.5643
15272SOL     OW57469   0.724   3.696   4.928 -0.1219  0.1594  0.2626
15272SOL    HW157470   0.724   3.636   4.848 -0.2430  0.6161 -0.0823
15272SOL    HW257471   0.630   3.712   4.957 -0.0707 -0.1288  0.5907
15273SOL     OW57472   7.921   2.612   3.158  0.5683 -0.2836 -0.7235
15273SOL    HW157473   7.837   2.569   3.193 -0.1964 -2.0637 -4.4708
15273SOL    HW257474   7.909   2.711   3.157  0.3555 -0.1941  3.1575
15274SOL     OW57475   4.184   3.063   6.931  0.4415 -0.0827  0.2621
15274SOL    HW157476   4.222   3.054   6.839  1.3417  0.7617  0.5487
15274SOL    HW257477   4.104   3.003   6.940 -0.4863  0.8730 -1.5031
15275SOL     OW57478   6.182   9.808   5.062 -0.1694  0.5817  0.2307
15275SOL    HW157479   6.109   9.793   4.996 -0.1861 -0.6655  0.5125
15275SOL    HW257480   6.257   9.857   5.018 -0.1999 -0.1920 -0.7070
15276SOL     OW57481   0.630   1.357   0.937 -0.1020 -0.3398  0.3567
15276SOL    HW157482   0.673   1.319   1.019  0.7002  0.9133  0.5386
15276SOL    HW257483   0.595   1.448   0.957 -1.2734 -0.6402 -0.2871
15277SOL     OW57484   3.793   6.432   3.537 -0.2975  0.2067  0.2556
15277SOL    HW157485   3.746   6.375   3.604 -0.4016 -1.3928 -1.1229
15277SOL    HW257486   3.758   6.411   3.445  3.1828 -1.2087 -0.8537
15278SOL     OW57487   7.517   3.934   1.281  0.4638 -0.5214  0.2571
15278SOL    HW157488   7.421   3.949   1.303  0.7400 -0.5983  1.5331
15278SOL    HW257489   7.525   3.852   1.223 -0.5237  1.2784 -2.4960
15279SOL     OW57490   8.008   2.036   2.534  0.0037 -0.4586  0.0555
15279SOL    HW157491   8.018   2.062   2.630 -1.4512  0.4532 -0.0241
15279SOL    HW257492   8.085   1.978   2.507  0.8208 -0.1009  1.5551
15280SOL     OW57493   5.047   3.324   4.862  0.2320  0.0164  0.2057
15280SOL    HW157494   5.138   3.356   4.834  0.3562 -0.2016  0.3624
15280SOL    HW257495   4.978   3.392   4.835  0.6328  1.0333  1.7096
15281SOL     OW57496   4.193   5.418   0.492  0.2623 -0.8292 -0.5080
15281SOL    HW157497   4.233   5.365   0.567  0.2829 -0.8665 -0.5454
15281SOL    HW257498   4.112   5.370   0.456 -0.5108 -0.1728  0.3427
15282SOL     OW57499   9.032   2.170   7.470 -0.1605  0.3307 -0.1358
15282SOL    HW157500   9.039   2.195   7.374 -0.0052  0.4132 -0.1047
15282SOL    HW257501   9.090   2.090   7.488 -2.8437 -1.8387 -0.8391
15283SOL     OW57502   3.336   4.424   6.590  0.1921  0.2600  0.0698
15283SOL    HW157503   3.331   4.325   6.585  0.5680  0.2254  0.3571
15283SOL    HW257504   3.416   4.456   6.540 -0.0348  0.4335 -0.1848
15284SOL     OW57505   6.984   0.295   4.015 -0.4203  0.4983 -0.3507
15284SOL    HW157506   7.076   0.260   3.998 -1.0792 -1.4263 -0.1418
15284SOL    HW257507   6.989   0.385   4.057  1.3816 -0.0238  0.5879
15285SOL     OW57508   8.992   8.882   7.727 -0.6176  0.1260  0.2707
15285SOL    HW157509   8.984   8.981   7.719 -2.4191  0.0878  1.1646
15285SOL    HW257510   9.060   8.859   7.797  1.7183  0.6641 -1.7591
15286SOL     OW57511   2.378   0.026   5.800  0.4743 -0.1315 -0.3300
15286SOL    HW157512   2.393   0.088   5.878 -2.3422 -1.2382  1.1405
15286SOL    HW257513   2.375   0.080   5.716  0.6296  1.4329  0.6400
15287SOL     OW57514   2.293   8.661   7.759  0.1488 -0.9238  0.2546
15287SOL    HW157515   2.229   8.667   7.836 -0.6739 -1.0379 -0.4093
15287SOL    HW257516   2.298   8.567   7.727 -1.4923 -0.4496 -1.4733
15288SOL     OW57517   4.299   5.433   4.174  0.7992 -0.0937  0.1796
15288SOL    HW157518   4.378   5.429   4.236  0.1417 -2.9789  0.9393
15288SOL    HW257519   4.281   5.341   4.138 -0.6623  1.0071 -1.9790
15289SOL     OW57520   7.890   7.262   2.340  0.2468  0.3690  0.0288
15289SOL    HW157521   7.989   7.257   2.343  0.2312 -0.1154 -0.1764
15289SOL    HW257522   7.856   7.218   2.257 -0.0981  1.2441 -0.2982
15290SOL     OW57523   9.613   6.280   5.788 -0.7690  0.2927  0.4821
15290SOL    HW157524   9.543   6.227   5.836  0.2673  0.3274  2.0836
15290SOL    HW257525   9.586   6.376   5.785 -1.1445  0.1849  0.4256
15291SOL     OW57526   1.482   5.859   4.033  0.3750 -0.1614 -0.1041
15291SOL    HW157527   1.501   5.898   3.943  1.5399 -0.1823  0.1219
15291SOL    HW257528   1.427   5.776   4.023  0.5288 -0.1828 -0.8013
15292SOL     OW57529   3.574   1.956   4.002 -0.1808  0.2310 -0.0026
15292SOL    HW157530   3.662   1.910   3.987  0.9313  2.2641  0.1343
15292SOL    HW257531   3.554   1.959   4.100 -0.4391 -0.2895 -0.0382
15293SOL     OW57532   9.647   0.968   6.210 -0.7650 -0.3488 -0.2826
15293SOL    HW157533   9.554   0.973   6.248 -0.4680  1.7935  0.2468
15293SOL    HW257534   9.643   0.967   6.110 -1.3553 -0.2444 -0.2599
15294SOL     OW57535   7.720   4.304   0.040  0.3187  0.1660 -0.7326
15294SOL    HW157536   7.678   4.258   0.118 -0.2665  1.2688 -0.3868
15294SOL    HW257537   7.815   4.273   0.030  0.5140  0.2986  0.6575
15295SOL     OW57538   2.036   4.547   7.452 -0.1461 -0.0032  0.1787
15295SOL    HW157539   1.990   4.463   7.421 -2.3369  1.3786 -0.4235
15295SOL    HW257540   2.104   4.574   7.385  0.6128 -1.3113  0.3951
15296SOL     OW57541   4.451   0.086   1.353 -0.0967 -0.1217 -0.2869
15296SOL    HW157542   4.360   0.093   1.393 -0.5157 -0.1236 -1.2204
15296SOL    HW257543   4.499   0.174   1.360  0.1829 -0.3767  1.0318
15297SOL     OW57544   0.978   4.797   2.188  0.4577  0.4020 -0.1974
15297SOL    HW157545   0.905   4.865   2.179 -0.9459 -1.0499 -0.2075
15297SOL    HW257546   1.030   4.814   2.271 -0.0133  1.3612 -0.0965
15298SOL     OW57547   2.278   5.497   3.063  0.3168  0.3836  0.1327
15298SOL    HW157548   2.183   5.520   3.085  0.3291  0.2238  0.3481
15298SOL    HW257549   2.336   5.577   3.077  0.4337  0.0889  1.3415
15299SOL     OW57550   1.079   9.583   0.442 -0.1233 -0.2821 -0.1387
15299SOL    HW157551   1.108   9.554   0.351  2.0897  0.8739  0.1712
15299SOL    HW257552   1.116   9.519   0.510 -2.6323 -1.7409 -0.0995
15300SOL     OW57553   0.957   1.393   0.430  0.0364 -0.4859  0.8066
15300SOL    HW157554   0.987   1.486   0.452  1.9714 -0.5219 -1.4662
15300SOL    HW257555   0.976   1.374   0.334 -2.8641 -2.3104  0.5405
15301SOL     OW57556   1.530   8.364   1.883  0.1244  0.5529 -0.1786
15301SOL    HW157557   1.461   8.294   1.904  0.0020  0.8561  0.4438
15301SOL    HW257558   1.613   8.346   1.935  0.4529  0.2942 -0.7923
15302SOL     OW57559   4.361   0.541   5.000 -0.4258 -0.6369  0.2269
15302SOL    HW157560   4.432   0.480   4.966 -0.8136 -0.3149 -1.2253
15302SOL    HW257561   4.354   0.534   5.099  3.5550  1.4122  0.7195
15303SOL     OW57562   2.031   9.193   6.137 -0.3494 -0.6775 -0.3099
15303SOL    HW157563   2.007   9.193   6.040 -0.7882  0.2661 -0.2060
15303SOL    HW257564   1.984   9.268   6.183  0.3522 -0.7338  0.5112
15304SOL     OW57565   6.204   5.420   1.571  0.4533  0.2259  0.0225
15304SOL    HW157566   6.181   5.429   1.474  1.4707 -0.4737 -0.2987
15304SOL    HW257567   6.162   5.337   1.608  3.1475 -1.6005 -0.8182
15305SOL     OW57568   3.339   6.709   4.560 -0.2034 -0.1723 -0.2419
15305SOL    HW157569   3.368   6.759   4.478  0.4427 -0.1044  0.0276
15305SOL    HW257570   3.255   6.750   4.596  1.0946  1.6401  0.8125
15306SOL     OW57571   5.591   7.865   7.439  0.2596 -0.2887  0.0931
15306SOL    HW157572   5.565   7.785   7.384  1.4922 -0.8467  0.2965
15306SOL    HW257573   5.672   7.908   7.399 -0.1617  0.6354  0.2162
15307SOL     OW57574   4.362   4.876   0.848  0.4087 -0.7256  0.1051
15307SOL    HW157575   4.320   4.850   0.935 -1.9769  0.5518 -0.6035
15307SOL    HW257576   4.402   4.796   0.805  0.3221 -1.6468  1.6904
15308SOL     OW57577   7.272   8.114   2.237  0.8504 -0.1373 -0.2515
15308SOL    HW157578   7.190   8.117   2.180  0.3964  0.8293  0.4298
15308SOL    HW257579   7.248   8.079   2.328  0.7366  2.1894  0.6525
15309SOL     OW57580   8.252   5.749   7.491 -0.0764  0.1467 -0.3287
15309SOL    HW157581   8.153   5.737   7.498  0.3660 -2.7019  2.4138
15309SOL    HW257582   8.296   5.659   7.487  2.6342  1.2651  2.4363
15310SOL     OW57583   1.819   3.972   1.915 -0.0878  0.4796  0.1653
15310SOL    HW157584   1.758   4.048   1.892 -2.1402 -1.9397 -2.8914
15310SOL    HW257585   1.771   3.907   1.973  0.2259 -0.4731 -0.6281
15311SOL     OW57586   1.565   1.916   1.226 -0.0004 -0.2267 -0.2495
15311SOL    HW157587   1.566   1.877   1.318 -1.8266  0.8459  0.2660
15311SOL    HW257588   1.560   1.842   1.159 -2.2718 -0.9533  0.6669
15312SOL     OW57589   1.315   2.225   6.033  0.1245 -0.6015  0.0057
15312SOL    HW157590   1.375   2.240   5.955  0.5882  0.3682  0.5387
15312SOL    HW257591   1.219   2.238   6.004  0.3234  0.3007 -0.2859
15313SOL     OW57592   9.736   5.650   4.559 -0.1847 -0.1706 -0.1527
15313SOL    HW157593   9.767   5.604   4.476  2.2563  0.8558  0.1430
15313SOL    HW257594   9.815   5.675   4.615 -1.7421 -0.0384  2.0598
15314SOL     OW57595   8.634   2.323   0.734 -0.3723  0.4968 -0.3916
15314SOL    HW157596   8.685   2.237   0.725 -0.3477  0.3435  1.1548
15314SOL    HW257597   8.629   2.367   0.644 -2.1530 -2.1130 -1.6440
15315SOL     OW57598   5.834   8.585   2.049  0.4602 -0.3936  0.3252
15315SOL    HW157599   5.822   8.576   2.148 -1.4839 -0.2496  0.1352
15315SOL    HW257600   5.782   8.513   2.003  2.0732 -0.9930 -0.5613
15316SOL     OW57601   7.136   0.708   2.290 -0.0411 -0.0232  0.0863
15316SOL    HW157602   7.219   0.662   2.261 -0.7197 -0.0472 -1.9079
15316SOL    HW257603   7.148   0.807   2.281 -0.1226 -0.0137  0.0818
15317SOL     OW57604   2.734   8.975   4.955 -0.1158 -0.2426  0.6216
15317SOL    HW157605   2.721   8.968   5.054  1.9039  0.9035  0.9862
15317SOL    HW257606   2.825   9.012   4.935 -0.4474 -0.5736 -1.6713
15318SOL     OW57607   9.551   5.546   2.089 -0.4908  0.1970  0.6417
15318SOL    HW157608   9.547   5.494   2.174 -0.5035  0.6251  0.9053
15318SOL    HW257609   9.545   5.644   2.109  2.7063  0.5060  0.4240
15319SOL     OW57610   5.429   0.189   3.725  0.2223 -0.2299  0.2920
15319SOL    HW157611   5.406   0.249   3.649  1.0761 -0.1326  0.1011
15319SOL    HW257612   5.470   0.242   3.800 -2.4168 -0.0253  1.6381
15320SOL     OW57613   5.858   7.754   1.869 -0.4711  0.0205 -0.1591
15320SOL    HW157614   5.950   7.728   1.843 -0.7735  0.6110 -1.8540
15320SOL    HW257615   5.801   7.672   1.878  0.5064 -0.4544  2.1694
15321SOL     OW57616   7.809   9.536   5.937 -0.1047 -0.5633  0.3955
15321SOL    HW157617   7.774   9.447   5.967 -2.8601  0.5765  0.7775
15321SOL    HW257618   7.861   9.579   6.011  0.5616 -1.5076  0.4758
15322SOL     OW57619   5.476   3.453   1.186  0.1009  0.1286 -0.2787
15322SOL    HW157620   5.490   3.534   1.130 -1.1377  0.2699 -0.4108
15322SOL    HW257621   5.399   3.400   1.150 -0.7980  0.2869  1.3305
15323SOL     OW57622   9.200   5.913   7.404  0.2719 -0.6689  0.5493
15323SOL    HW157623   9.244   5.842   7.349  1.5347 -0.7824  1.6697
15323SOL    HW257624   9.166   5.986   7.344  1.0370 -1.1075 -0.4259
15324SOL     OW57625   1.435   3.290   5.654 -0.0070 -0.8054  0.7611
15324SOL    HW157626   1.354   3.238   5.681  0.4892 -1.6806  0.5839
15324SOL    HW257627   1.454   3.360   5.723 -1.1629 -0.2912  0.5838
15325SOL     OW57628   9.435   5.396   3.147 -0.0113 -0.5420  0.2292
15325SOL    HW157629   9.503   5.344   3.199  0.1784 -1.6947 -1.1198
15325SOL    HW257630   9.476   5.481   3.113  0.8679 -1.3630 -0.8155
15326SOL     OW57631   0.025   1.329   1.846 -0.2097 -0.3749 -0.2943
15326SOL    HW157632  -0.058   1.347   1.794 -0.7917 -1.1976  0.3458
15326SOL    HW257633   0.014   1.364   1.939  0.3673  0.0006 -0.3654
15327SOL     OW57634   9.481   6.346   7.495 -0.0800  0.3927  0.6616
15327SOL    HW157635   9.489   6.346   7.595 -1.9559 -2.8226  0.8641
15327SOL    HW257636   9.387   6.327   7.469  0.7017 -0.3024 -1.7487
15328SOL     OW57637   1.390   7.461   6.260  0.2384 -0.2031 -0.4577
15328SOL    HW157638   1.323   7.438   6.190  1.1604  0.0502 -1.4348
15328SOL    HW257639   1.424   7.377   6.303  0.2610 -0.4007 -0.8655
15329SOL     OW57640   9.747   9.278   2.325 -0.2262 -0.1653  0.0465
15329SOL    HW157641   9.678   9.349   2.316 -0.8457 -1.1130 -3.3324
15329SOL    HW257642   9.702   9.189   2.330  0.7319 -0.8357 -2.7928
15330SOL     OW57643   6.199   1.074   2.247 -0.0693 -0.1387 -0.4102
15330SOL    HW157644   6.218   1.050   2.342 -1.3130  0.4055 -0.0148
15330SOL    HW257645   6.127   1.014   2.211 -1.2888  1.2040 -0.2520
15331SOL     OW57646   4.660   0.957   4.435  0.6612 -0.1968 -0.4222
15331SOL    HW157647   4.688   1.053   4.443 -0.3261  0.0472  0.0909
15331SOL    HW257648   4.611   0.929   4.517  0.3870 -0.9620 -0.8431
15332SOL     OW57649   9.886   6.738   1.983  0.5485 -0.6851 -0.0796
15332SOL    HW157650   9.856   6.704   2.072 -0.2843 -0.0436 -0.1110
15332SOL    HW257651   9.929   6.663   1.932  0.3304 -1.2463  0.5470
15333SOL     OW57652   0.781   4.659   6.308 -0.0336 -0.1828 -0.4736
15333SOL    HW157653   0.730   4.606   6.241  1.6126 -2.7076  0.2257
15333SOL    HW257654   0.718   4.692   6.379 -1.0646 -1.2914 -0.8632
15334SOL     OW57655   2.833   0.775   1.451  0.1158  0.2062  0.0761
15334SOL    HW157656   2.842   0.727   1.538 -1.3485 -1.4380 -0.6208
15334SOL    HW257657   2.855   0.712   1.376  1.9986  1.7837 -0.7262
15335SOL     OW57658   5.137   3.385   6.961  0.9008 -0.1826 -0.6755
15335SOL    HW157659   5.206   3.438   6.912  2.1830  0.7618  2.0646
15335SOL    HW257660   5.095   3.318   6.899  5.2041 -1.6814 -2.1060
15336SOL     OW57661   0.830   2.099   1.710 -0.2815  0.1668  0.1037
15336SOL    HW157662   0.929   2.083   1.707 -0.2935 -0.2559  1.6675
15336SOL    HW257663   0.789   2.070   1.623  0.8579 -0.4288 -0.2439
15337SOL     OW57664   3.499   1.554   1.939 -0.0656 -0.3862  0.5660
15337SOL    HW157665   3.586   1.528   1.895 -0.9657 -1.3961 -0.6876
15337SOL    HW257666   3.456   1.472   1.977 -1.3262 -0.2066 -0.4335
15338SOL     OW57667   0.394   5.000   7.034  0.4630  0.2670  0.2114
15338SOL    HW157668   0.387   5.098   7.051 -0.9386 -0.0648  1.6645
15338SOL    HW257669   0.491   4.975   7.024  0.7688  1.9473 -1.3093
15339SOL     OW57670   0.643   8.395   5.820 -0.0882  0.0583 -0.3739
15339SOL    HW157671   0.628   8.308   5.773  0.4402  0.0724 -0.5828
15339SOL    HW257672   0.716   8.383   5.887  0.4646  0.5130 -0.8896
15340SOL     OW57673   9.699   6.258   2.992 -0.0090  0.7164  0.1130
15340SOL    HW157674   9.631   6.317   2.948  1.5721  1.7262 -0.9941
15340SOL    HW257675   9.763   6.315   3.044  1.4799 -0.0202 -0.9049
15341SOL     OW57676   0.959   1.088   3.525 -0.4313 -0.4537 -0.0521
15341SOL    HW157677   0.864   1.060   3.514 -0.2857 -0.5881 -1.0672
15341SOL    HW257678   1.011   1.014   3.568 -0.2347 -1.4330 -1.9155
15342SOL     OW57679   4.874   2.500   6.143  0.3019 -0.9396  0.2493
15342SOL    HW157680   4.879   2.548   6.056  0.6272  0.9634  1.2640
15342SOL    HW257681   4.922   2.413   6.138  0.4345 -0.7688 -1.4103
15343SOL     OW57682   7.799   0.055   8.193 -0.0435 -0.0319 -0.1169
15343SOL    HW157683   7.866   0.110   8.142  0.6673 -2.3168 -1.7143
15343SOL    HW257684   7.707   0.076   8.161  0.2355  0.1016 -0.8266
15344SOL     OW57685   6.870   8.590   2.251 -0.5406 -0.2670  0.4642
15344SOL    HW157686   6.928   8.671   2.245 -2.5046  1.0500 -2.1811
15344SOL    HW257687   6.896   8.525   2.179 -0.0181 -1.2905  1.5640
15345SOL     OW57688   3.790   2.019   5.995  0.0023  0.1841 -0.4342
15345SOL    HW157689   3.785   2.008   5.896 -0.6874  0.9599 -0.4922
15345SOL    HW257690   3.710   2.070   6.027 -0.5384 -1.3442  0.7010
15346SOL     OW57691   9.301   7.169   4.680  0.0704  0.1931  0.0042
15346SOL    HW157692   9.367   7.097   4.656  0.6849  0.8374 -0.2549
15346SOL    HW257693   9.290   7.231   4.603 -2.5403 -1.1704 -0.7667
15347SOL     OW57694   3.863   8.977   4.409 -0.2549 -0.8432  0.1570
15347SOL    HW157695   3.864   9.038   4.330  2.6322 -0.9279  0.0757
15347SOL    HW257696   3.835   9.028   4.490 -0.6656 -0.1198 -0.4390
15348SOL     OW57697   3.438   8.974   2.571  0.5070  0.0531 -0.3221
15348SOL    HW157698   3.512   9.006   2.513  1.0053  0.5038  0.5511
15348SOL    HW257699   3.350   8.997   2.530  0.8411 -1.2812 -1.8098
15349SOL     OW57700   9.442   5.034   4.160 -0.6333  0.0129  0.3489
15349SOL    HW157701   9.423   5.036   4.061 -1.5988  1.4600  0.5538
15349SOL    HW257702   9.400   5.113   4.204  2.5610  1.1979  1.4435
15350SOL     OW57703   0.233   4.029   0.128 -0.4470 -0.2017 -0.2684
15350SOL    HW157704   0.276   3.981   0.204 -0.9787  0.2059  0.2906
15350SOL    HW257705   0.185   3.963   0.070  1.1858 -0.7090 -1.0892
15351SOL     OW57706   9.924   6.525   1.813 -0.0309  0.0938  0.5503
15351SOL    HW157707   9.993   6.506   1.744 -0.5276 -2.9514  0.8284
15351SOL    HW257708   9.855   6.587   1.775  1.4706  1.1444 -0.5277
15352SOL     OW57709   5.947   0.322   1.357  0.3596  0.0597 -0.4776
15352SOL    HW157710   5.910   0.230   1.362  0.7055 -0.0798 -0.4450
15352SOL    HW257711   6.037   0.324   1.402  0.4855  0.3414 -0.7368
15353SOL     OW57712   0.611   4.823   4.965  0.2575 -0.1012 -0.2967
15353SOL    HW157713   0.530   4.873   4.996 -0.1037 -0.1739 -1.0881
15353SOL    HW257714   0.693   4.859   5.009 -0.4084 -1.2475  1.9204
15354SOL     OW57715   9.360   9.782   3.582  0.1720  0.7816 -0.2187
15354SOL    HW157716   9.330   9.852   3.517  0.1625  0.4910 -0.5301
15354SOL    HW257717   9.438   9.817   3.634  0.6882  0.7256 -0.9445
15355SOL     OW57718   1.170   3.702   5.626  0.1488  0.6628  0.0826
15355SOL    HW157719   1.075   3.674   5.610  0.0052  0.7285  0.7951
15355SOL    HW257720   1.203   3.754   5.547 -0.3612  0.5225 -0.2284
15356SOL     OW57721   3.568   6.594   6.443  0.5285  0.5151 -0.1882
15356SOL    HW157722   3.525   6.512   6.405  1.4377 -0.4392  0.8050
15356SOL    HW257723   3.551   6.672   6.383  1.7280 -0.8992 -2.4437
15357SOL     OW57724   0.175   9.202   2.357 -0.1912  0.0759 -0.3189
15357SOL    HW157725   0.216   9.184   2.446 -0.5538  0.5702 -0.0432
15357SOL    HW257726   0.104   9.272   2.367 -0.1832  0.1896 -1.0092
15358SOL     OW57727   9.207   3.880   1.072  0.3175  0.6293 -0.0623
15358SOL    HW157728   9.153   3.838   1.144  0.5387  1.2888  0.4885
15358SOL    HW257729   9.182   3.839   0.984 -0.4108  0.2771  0.3015
15359SOL     OW57730   6.229   1.670   5.085 -0.1215  0.0254  0.2501
15359SOL    HW157731   6.280   1.756   5.082 -1.2762  0.7200 -0.4812
15359SOL    HW257732   6.276   1.604   5.143  0.9790  1.0298  0.5169
15360SOL     OW57733   9.250   7.398   7.464 -0.0873  0.3835  0.4427
15360SOL    HW157734   9.185   7.337   7.510 -1.5863  0.2505 -1.7757
15360SOL    HW257735   9.211   7.429   7.378  1.3594  3.1594  0.7243
15361SOL     OW57736   1.424   4.416   7.933  0.1265  0.4811 -0.3236
15361SOL    HW157737   1.399   4.494   7.875 -0.6417 -0.0091 -0.6508
15361SOL    HW257738   1.417   4.443   8.029  0.0880  0.8858 -0.4380
15362SOL     OW57739   3.652   4.323   3.006  0.0005  0.1240 -0.6965
15362SOL    HW157740   3.659   4.273   2.919 -0.6871  0.4029 -0.9148
15362SOL    HW257741   3.683   4.265   3.081  1.8925  0.3382 -1.2823
15363SOL     OW57742   1.000   7.877   6.147 -0.0001  0.0272  0.4147
15363SOL    HW157743   1.027   7.862   6.052  0.7746 -0.4184  0.6989
15363SOL    HW257744   1.061   7.825   6.208 -1.1727 -0.5692  1.0982
15364SOL     OW57745   2.014   1.139   3.900  0.4711  0.0615  0.4532
15364SOL    HW157746   1.986   1.166   3.808 -0.6389  0.0878  0.7922
15364SOL    HW257747   2.025   1.040   3.903 -0.8568 -0.0971  0.6367
15365SOL     OW57748   8.712   6.372   2.659  0.4235  0.0570 -0.1569
15365SOL    HW157749   8.616   6.396   2.672  0.5086  0.5579 -0.4446
15365SOL    HW257750   8.742   6.312   2.734 -0.3706 -0.8821 -0.5707
15366SOL     OW57751   4.125   6.392   4.090  0.3164 -0.4772  0.5175
15366SOL    HW157752   4.124   6.468   4.025 -1.4489 -0.4826  0.5336
15366SOL    HW257753   4.170   6.420   4.174 -1.7774  1.0700  1.1497
15367SOL     OW57754   3.631   1.744   5.031 -0.3414 -0.2790  0.4129
15367SOL    HW157755   3.662   1.705   4.944 -3.1554  1.3182 -1.3676
15367SOL    HW257756   3.688   1.822   5.055  0.1407 -0.4240 -0.2346
15368SOL     OW57757   1.041   7.317   6.558  0.7404 -0.0869 -0.1250
15368SOL    HW157758   1.001   7.333   6.649  0.9542 -1.1240  0.1649
15368SOL    HW257759   1.051   7.218   6.544 -2.4035 -0.1207 -2.6375
15369SOL     OW57760   0.604   5.324   2.918  0.4670  0.0059 -0.1948
15369SOL    HW157761   0.597   5.414   2.874  0.4551  0.8529  1.4874
15369SOL    HW257762   0.682   5.274   2.880  0.9152  1.0151 -0.6135
15370SOL     OW57763   1.392   0.936   4.980  0.2172 -0.0809  0.2058
15370SOL    HW157764   1.483   0.974   4.999  0.5675 -0.6713 -0.2851
15370SOL    HW257765   1.352   0.903   5.065  0.3188  0.4956  0.4792
15371SOL     OW57766   4.015   4.339   6.337 -0.3677  0.4748 -0.0096
15371SOL    HW157767   4.089   4.396   6.370  0.0163 -0.0926  0.1175
15371SOL    HW257768   4.013   4.342   6.237  1.4713 -1.5456 -0.1358
15372SOL     OW57769   6.210   8.254   3.582  0.2498 -0.2455 -0.4149
15372SOL    HW157770   6.294   8.262   3.527 -1.0402  1.9616 -2.1550
15372SOL    HW257771   6.142   8.318   3.547 -1.5788 -0.7702  2.0872
15373SOL     OW57772   2.955   1.561   5.978 -0.4707 -0.3559  0.0223
15373SOL    HW157773   2.892   1.615   5.922 -0.6027  0.9856  1.4268
15373SOL    HW257774   2.905   1.485   6.020 -0.8529 -0.1031  0.0315
15374SOL     OW57775   7.003   4.936   0.203 -0.3226  0.0824 -0.2465
15374SOL    HW157776   7.021   5.034   0.215 -0.8515  0.1367  0.1172
15374SOL    HW257777   6.905   4.919   0.209 -0.2390 -0.4660 -0.3800
15375SOL     OW57778   8.402   6.887   2.069 -0.5577  0.0060  0.5499
15375SOL    HW157779   8.442   6.903   2.159  0.8034 -0.6291  0.0753
15375SOL    HW257780   8.344   6.805   2.073 -0.3126 -0.1582  0.8011
15376SOL     OW57781   4.682   2.826   6.020 -0.3191  0.0933  0.1666
15376SOL    HW157782   4.596   2.795   5.979  0.3929  0.1627 -1.4040
15376SOL    HW257783   4.756   2.766   5.990  0.5009  1.2093 -0.0731
15377SOL     OW57784   7.391   6.228   1.045 -0.5549  0.8954 -0.4656
15377SOL    HW157785   7.389   6.132   1.019  0.7308  1.3336 -2.2903
15377SOL    HW257786   7.333   6.242   1.126 -1.4307 -1.2348 -0.6865
15378SOL     OW57787   7.087   5.994   1.083  0.3585  0.3181  0.3840
15378SOL    HW157788   7.068   6.080   1.128 -0.1981  0.7252 -0.6162
15378SOL    HW257789   7.168   5.951   1.125  1.3085  1.8551  0.1442
15379SOL     OW57790   9.530   3.543   2.423  0.3089  0.0783  0.3183
15379SOL    HW157791   9.504   3.631   2.462  1.6067  0.3687  0.5426
15379SOL    HW257792   9.554   3.555   2.327  1.4813  0.1629  0.6128
15380SOL     OW57793   9.782   5.835   7.228  0.5037 -0.4150  0.3973
15380SOL    HW157794   9.759   5.743   7.259 -1.5345  0.0688  0.4000
15380SOL    HW257795   9.807   5.892   7.307 -0.5555 -0.3362  0.6858
15381SOL     OW57796   4.849   0.422   3.536 -0.2060  0.2750 -0.4962
15381SOL    HW157797   4.761   0.456   3.568 -0.6996 -1.1592 -0.2898
15381SOL    HW257798   4.836   0.334   3.490  1.4787 -1.7226  2.5860
15382SOL     OW57799   7.706   7.013   3.898  0.0324  0.0860 -0.3667
15382SOL    HW157800   7.736   6.917   3.891  0.3175 -0.0006  1.7649
15382SOL    HW257801   7.620   7.024   3.849 -0.5612 -1.5132  0.2799
15383SOL     OW57802   4.030   7.062   2.582 -0.5730 -0.0608  0.1562
15383SOL    HW157803   4.017   7.091   2.677  0.5990  0.6634  0.1006
15383SOL    HW257804   4.017   7.140   2.521 -0.3137 -0.3051 -0.2151
15384SOL     OW57805   8.289   7.136   2.738  0.7536 -0.1240 -0.0432
15384SOL    HW157806   8.285   7.110   2.835  0.3619 -2.4759 -0.6674
15384SOL    HW257807   8.198   7.126   2.697  0.8533  1.1479 -0.6117
15385SOL     OW57808   0.810   2.762   1.394  0.5471  0.0549 -0.1779
15385SOL    HW157809   0.813   2.681   1.453 -0.9110  1.4617  1.8754
15385SOL    HW257810   0.736   2.752   1.328  0.4211 -0.3025  0.0134
15386SOL     OW57811   9.543   9.037   6.018  0.0723 -0.1694 -0.1442
15386SOL    HW157812   9.597   9.003   5.941  0.0046  1.6841 -1.0557
15386SOL    HW257813   9.601   9.091   6.079 -0.1182 -0.6852  0.4961
15387SOL     OW57814   7.979   0.656   6.457  0.7322  0.3559  0.1814
15387SOL    HW157815   7.915   0.642   6.533 -0.6331  0.4352 -0.9446
15387SOL    HW257816   8.043   0.729   6.481 -0.4070  1.1575  0.8095
15388SOL     OW57817   6.696   5.142   1.732 -0.0435 -0.1090 -0.3362
15388SOL    HW157818   6.653   5.052   1.729  0.8613 -0.6074  1.1737
15388SOL    HW257819   6.789   5.136   1.696  0.6190 -0.1428  1.3497
15389SOL     OW57820   5.030   9.876   6.757 -0.1340 -0.1732  0.2668
15389SOL    HW157821   5.109   9.839   6.708  0.6283 -1.0752  2.1420
15389SOL    HW257822   4.999   9.959   6.711  0.5159 -1.0307 -1.7788
15390SOL     OW57823   6.185   1.473   3.711  0.6749  0.2660 -0.2324
15390SOL    HW157824   6.212   1.385   3.673  0.9261  0.7932 -1.3054
15390SOL    HW257825   6.087   1.487   3.699  0.0776 -1.1896  2.7087
15391SOL     OW57826   2.672   5.573   1.675  0.0737  0.5449 -0.1444
15391SOL    HW157827   2.674   5.569   1.775 -1.4355  2.2482 -0.0138
15391SOL    HW257828   2.653   5.667   1.646 -1.1100 -0.2473 -2.0140
15392SOL     OW57829   3.218   7.496   6.045  0.2600  0.2377  0.2934
15392SOL    HW157830   3.186   7.405   6.072  2.5386 -0.4730  0.7085
15392SOL    HW257831   3.289   7.487   5.976  1.5941  1.6040  1.4462
15393SOL     OW57832   2.083   2.271   2.456  0.1015  0.1336 -0.4262
15393SOL    HW157833   2.029   2.350   2.426 -0.8290 -1.0712 -2.0404
15393SOL    HW257834   2.172   2.301   2.488 -1.1179  2.0693  1.2387
15394SOL     OW57835   1.981   3.387   1.984 -0.6189  0.2086 -0.2868
15394SOL    HW157836   2.059   3.446   1.964  0.0301 -0.6595 -0.3396
15394SOL    HW257837   1.991   3.301   1.934  0.3383 -1.4667  2.6759
15395SOL     OW57838   1.067   1.202   3.102  0.4450 -0.4098 -0.3423
15395SOL    HW157839   1.129   1.235   3.031  0.6115  0.9631  0.4352
15395SOL    HW257840   1.118   1.152   3.172  1.2026  3.4163  1.9595
15396SOL     OW57841   6.909   2.712   4.182  0.6812 -0.2861  0.5470
15396SOL    HW157842   6.845   2.638   4.160  0.5930 -0.2004  0.5180
15396SOL    HW257843   7.000   2.688   4.149  0.7183 -0.5253  0.8186
15397SOL     OW57844   9.134   9.029   1.014 -0.8629  0.1233 -0.6358
15397SOL    HW157845   9.108   8.967   1.088 -1.1957  0.1781 -0.7091
15397SOL    HW257846   9.228   9.060   1.028  0.0574 -2.0753 -1.7271
15398SOL     OW57847   2.837   6.404   6.551  0.2561  0.1094 -0.0135
15398SOL    HW157848   2.796   6.333   6.493  0.7883  0.1379 -0.4236
15398SOL    HW257849   2.819   6.494   6.511  0.4722  0.1402 -0.0401
15399SOL     OW57850   9.061   3.744   4.958 -0.4113 -0.0537 -0.4789
15399SOL    HW157851   9.023   3.724   5.049 -3.1180  0.8461 -1.3815
15399SOL    HW257852   9.089   3.659   4.914  0.2565 -0.5598  0.8860
15400SOL     OW57853   3.383   7.535   1.547  0.2255  0.2113  0.6728
15400SOL    HW157854   3.444   7.599   1.593  1.7907 -0.4707 -0.3864
15400SOL    HW257855   3.294   7.536   1.591  0.6608  2.0595  1.5586
15401SOL     OW57856   5.624   0.205   4.447  0.2124 -0.1763 -0.1545
15401SOL    HW157857   5.682   0.143   4.500 -1.2449 -0.1065  1.5729
15401SOL    HW257858   5.534   0.164   4.435 -0.6100  1.3777  0.5667
15402SOL     OW57859   2.003   7.910   0.305  0.3877 -0.0965 -0.0280
15402SOL    HW157860   2.072   7.983   0.309  0.7071 -0.4555  0.9796
15402SOL    HW257861   2.004   7.869   0.213  0.2047  1.1659 -0.6060
15403SOL     OW57862   6.883   7.253   5.148 -0.5107  0.7282  0.3282
15403SOL    HW157863   6.913   7.334   5.198  0.2278  0.3719  0.4694
15403SOL    HW257864   6.960   7.214   5.097 -0.8728  0.1446  0.2166
15404SOL     OW57865   6.838   0.989   2.300 -0.2705 -0.1807  1.2292
15404SOL    HW157866   6.902   0.982   2.223  1.6159 -0.2988  2.7732
15404SOL    HW257867   6.806   0.898   2.325 -0.7913 -0.1535  0.6783
15405SOL     OW57868   9.476   4.170   3.017 -0.0341  0.6476  0.0757
15405SOL    HW157869   9.509   4.262   2.998 -0.6366  0.5935 -1.2913
15405SOL    HW257870   9.394   4.152   2.963 -0.1478 -0.5524  0.6271
15406SOL     OW57871   0.848   5.053   1.893  0.3604  0.3348 -0.0388
15406SOL    HW157872   0.890   4.986   1.833  1.9981  1.0138  0.3154
15406SOL    HW257873   0.748   5.050   1.882  0.6006  0.1454 -2.4369
15407SOL     OW57874   7.928   7.400   8.099 -0.2993 -0.0025  0.1018
15407SOL    HW157875   7.939   7.301   8.102 -0.6894 -0.0300  0.9384
15407SOL    HW257876   8.016   7.444   8.081  0.1171 -0.4534  1.0002
15408SOL     OW57877   1.875   9.613   2.071  0.4000  0.5724 -0.3073
15408SOL    HW157878   1.850   9.699   2.026  0.6422  0.8118  0.0101
15408SOL    HW257879   1.814   9.540   2.040 -1.1752  1.2994  0.9799
15409SOL     OW57880   3.346   6.992   2.391 -0.2558 -0.6913  0.0201
15409SOL    HW157881   3.350   6.990   2.491 -0.5198  0.4825  0.0560
15409SOL    HW257882   3.385   6.907   2.355 -0.4874 -1.2792  1.1240
15410SOL     OW57883   0.052   5.757   3.263 -0.0249  0.0113  0.2858
15410SOL    HW157884   0.031   5.821   3.338 -1.3064 -1.0462  0.8374
15410SOL    HW257885   0.080   5.669   3.301 -0.8308 -0.5810 -0.4780
15411SOL     OW57886   2.787   0.133   3.631  0.0683 -0.4292 -0.3082
15411SOL    HW157887   2.828   0.200   3.569 -1.7934  1.6649  0.6536
15411SOL    HW257888   2.687   0.138   3.624 -0.1071 -2.2976  0.6302
15412SOL     OW57889   1.716   6.063   7.253 -0.7822 -0.3305 -0.0652
15412SOL    HW157890   1.742   6.130   7.183  1.7106 -2.9505 -1.8166
15412SOL    HW257891   1.621   6.036   7.240 -0.7021  0.1136 -1.7185
15413SOL     OW57892   6.525   0.244   4.421 -0.0675  0.0766 -0.7726
15413SOL    HW157893   6.506   0.256   4.518  2.0907  0.7086 -0.4223
15413SOL    HW257894   6.588   0.168   4.408  0.6373  0.7887 -1.5795
15414SOL     OW57895   4.833   7.386   3.928  0.1025 -0.2610 -0.2913
15414SOL    HW157896   4.883   7.363   4.011 -0.0953 -0.4363 -0.2178
15414SOL    HW257897   4.739   7.412   3.952 -0.2896 -1.4097 -0.5480
15415SOL     OW57898   3.382   4.143   5.736 -0.0048 -0.0897  0.6903
15415SOL    HW157899   3.453   4.100   5.680 -0.8507  0.4918 -0.8716
15415SOL    HW257900   3.404   4.240   5.747 -2.3105  0.9381 -2.8232
15416SOL     OW57901   3.093   0.343   6.537  0.3595  0.1473 -0.1420
15416SOL    HW157902   3.099   0.443   6.537 -1.0177  0.2356 -0.3736
15416SOL    HW257903   3.024   0.314   6.471  0.2432 -0.9318  0.4488
15417SOL     OW57904   7.167   3.075   4.888 -0.5627 -0.1786  0.1614
15417SOL    HW157905   7.231   3.080   4.811 -0.8188 -0.9771 -0.1185
15417SOL    HW257906   7.089   3.018   4.862 -1.0840  0.2765  0.7138
15418SOL     OW57907   9.693   8.298   5.279 -0.1838 -0.1261 -0.2388
15418SOL    HW157908   9.690   8.263   5.373  2.2892 -1.0547 -0.4721
15418SOL    HW257909   9.607   8.274   5.233 -1.3270  0.1018  1.6682
15419SOL     OW57910   6.911   7.350   4.694 -0.3432 -0.1346 -0.5754
15419SOL    HW157911   6.984   7.375   4.631  0.6022 -2.1339 -0.2867
15419SOL    HW257912   6.936   7.377   4.787 -0.5607  0.3605 -0.6563
15420SOL     OW57913   2.403   6.247   1.003 -0.0405 -0.0203 -0.8866
15420SOL    HW157914   2.464   6.276   0.930 -0.7345  1.3088 -0.9436
15420SOL    HW257915   2.395   6.319   1.072 -0.2165 -0.8463 -0.0211
15421SOL     OW57916   4.935   7.276   3.279 -0.2075  0.4982 -0.0484
15421SOL    HW157917   4.868   7.292   3.206  0.2034  1.7672 -0.1585
15421SOL    HW257918   5.020   7.244   3.239  0.1949  1.7211 -0.1894
15422SOL     OW57919   6.426   0.095   7.663  0.5957  0.3741 -0.2751
15422SOL    HW157920   6.361   0.031   7.702 -0.6851  1.3080 -0.8339
15422SOL    HW257921   6.498   0.045   7.614 -0.1561 -0.6289 -0.3616
15423SOL     OW57922   8.893   2.526   0.517 -0.3316 -0.0178  0.3349
15423SOL    HW157923   8.818   2.460   0.508  1.0926 -1.9278  2.0061
15423SOL    HW257924   8.977   2.487   0.481  0.1080  1.6991 -0.5302
15424SOL     OW57925   6.238   2.601   5.488  0.3333  0.5397 -0.4777
15424SOL    HW157926   6.287   2.528   5.536 -0.0609  0.7818  0.3196
15424SOL    HW257927   6.300   2.645   5.423  1.4837  1.4678  1.1868
15425SOL     OW57928   2.409   5.055   5.268 -0.3279 -0.0286 -0.1419
15425SOL    HW157929   2.365   5.052   5.358  0.5917  0.4094  0.3312
15425SOL    HW257930   2.367   5.128   5.214  1.8016  2.4197  1.3927
15426SOL     OW57931   3.386   3.222   6.191  0.0231  0.1607  0.2929
15426SOL    HW157932   3.456   3.262   6.131  0.8988 -2.0568 -0.2190
15426SOL    HW257933   3.429   3.155   6.251 -1.6784 -1.2218 -0.0105
15427SOL     OW57934   1.858   9.014   2.124  0.4749  0.0098 -0.4565
15427SOL    HW157935   1.861   9.093   2.185 -0.7733  0.1577 -0.5640
15427SOL    HW257936   1.898   9.038   2.036  0.7999  0.2902 -0.2319
15428SOL     OW57937   3.670   7.434   9.949 -0.0049  0.0291  0.2263
15428SOL    HW157938   3.707   7.482  10.029  2.8872 -3.0815  0.8766
15428SOL    HW257939   3.576   7.404   9.969  0.0041  0.9144  1.7099
15429SOL     OW57940   4.087   2.366   5.286 -0.3938 -0.0028  0.4015
15429SOL    HW157941   4.078   2.438   5.218 -1.0406 -1.5421 -1.1851
15429SOL    HW257942   4.166   2.309   5.264 -0.9431 -0.8509  0.5853
15430SOL     OW57943   0.905   0.314   1.033 -0.2675  0.4951  0.0830
15430SOL    HW157944   0.911   0.223   0.991  2.2598  0.4769  0.3955
15430SOL    HW257945   0.913   0.383   0.961 -0.1130  0.4645  0.0698
15431SOL     OW57946   3.641   1.717   2.788 -0.1277  0.0416  0.5207
15431SOL    HW157947   3.735   1.692   2.813 -0.3406  0.8396  2.2239
15431SOL    HW257948   3.577   1.667   2.847 -0.6962  1.0620  0.7698
15432SOL     OW57949   0.524   0.461   4.383  1.0251  0.0918  0.5724
15432SOL    HW157950   0.549   0.384   4.442  1.6262 -0.2421 -0.1087
15432SOL    HW257951   0.510   0.543   4.439  2.4155 -0.0131  1.0965
15433SOL     OW57952   3.614   3.974   4.059  0.5738 -0.4234  0.0410
15433SOL    HW157953   3.518   3.981   4.088 -0.0718 -2.0832 -1.5858
15433SOL    HW257954   3.641   3.878   4.057  2.5066  0.0881  1.1728
15434SOL     OW57955   8.878   6.857   1.618  0.3988  0.2721  0.4522
15434SOL    HW157956   8.798   6.814   1.578  1.0013 -0.4350  0.0109
15434SOL    HW257957   8.867   6.862   1.718 -0.8419  1.5173  0.2644
15435SOL     OW57958   7.292   0.137   0.580  0.9108 -0.7776 -0.5230
15435SOL    HW157959   7.384   0.159   0.547  1.1752 -0.8054  0.1875
15435SOL    HW257960   7.297   0.066   0.650  0.4511  0.0169  0.3218
15436SOL     OW57961   5.656   8.604   7.186 -0.3997 -0.2783 -0.0625
15436SOL    HW157962   5.654   8.506   7.165  0.8130 -0.0855 -1.0961
15436SOL    HW257963   5.734   8.624   7.246 -0.5331  0.0900 -0.0107
15437SOL     OW57964   3.964   9.256  10.005 -0.2235  0.0400  0.2574
15437SOL    HW157965   3.932   9.167   9.974 -0.3557  0.0390  0.3989
15437SOL    HW257966   4.062   9.264   9.987 -0.5190  0.4828 -1.1902
15438SOL     OW57967   8.947   1.291   6.957  0.5054 -0.4294 -0.1690
15438SOL    HW157968   8.883   1.360   6.922  0.4630 -0.9468 -1.1124
15438SOL    HW257969   9.038   1.309   6.921  1.2205  1.1480  2.2901
15439SOL     OW57970   4.349   9.757   4.896 -0.0873  0.3173  0.4768
15439SOL    HW157971   4.268   9.813   4.913  0.4557  0.4234  2.9078
15439SOL    HW257972   4.431   9.809   4.918  0.6725  0.2012 -1.9417
15440SOL     OW57973   8.300   9.739   4.340  0.3559 -0.4327 -0.4090
15440SOL    HW157974   8.328   9.710   4.431 -1.0742 -0.4714  0.0257
15440SOL    HW257975   8.207   9.707   4.321 -0.6245  2.3542 -0.5757
15441SOL     OW57976   3.015   3.017   5.922  0.1201  0.0695 -0.0092
15441SOL    HW157977   3.113   3.034   5.916  0.1786 -0.3188 -0.1520
15441SOL    HW257978   2.992   2.934   5.872 -0.5241  1.0361 -1.3532
15442SOL     OW57979   9.867   6.134   3.637  0.4512 -0.1135  0.4746
15442SOL    HW157980   9.923   6.183   3.704  1.0252 -0.1376  0.0185
15442SOL    HW257981   9.897   6.039   3.631  0.2485 -0.1714  0.3466
15443SOL     OW57982   0.908   5.484   3.242 -0.1643  0.0824 -0.5194
15443SOL    HW157983   0.943   5.414   3.305  1.9624  2.5812  1.1446
15443SOL    HW257984   0.969   5.492   3.163  0.2799  0.8964 -0.1017
15444SOL     OW57985   2.969   2.913   2.674  0.3277 -0.7933  0.0844
15444SOL    HW157986   2.964   3.007   2.707 -1.0505 -0.6454 -0.5043
15444SOL    HW257987   2.989   2.912   2.577 -0.9523 -1.0473 -0.1916
15445SOL     OW57988   4.434   5.843   9.800  0.3547  0.1624 -0.2308
15445SOL    HW157989   4.478   5.838   9.710 -0.8368  0.5928 -0.8575
15445SOL    HW257990   4.471   5.920   9.851 -0.1289  0.9307 -1.0132
15446SOL     OW57991   3.069   1.749   7.265 -0.1530 -0.0336 -0.2178
15446SOL    HW157992   3.086   1.668   7.320 -1.9753 -0.4851 -0.2755
15446SOL    HW257993   2.970   1.765   7.259  0.0917  0.9960 -1.9296
15447SOL     OW57994   8.831   1.880   2.610  0.6570 -0.5157  0.3690
15447SOL    HW157995   8.800   1.792   2.647  1.4734 -0.5883  0.9091
15447SOL    HW257996   8.865   1.937   2.684 -2.1426  1.2435  0.3358
15448SOL     OW57997   1.407   2.366   3.281 -0.5366 -0.1161  0.5175
15448SOL    HW157998   1.413   2.445   3.342 -0.3483  0.2441  0.0291
15448SOL    HW257999   1.485   2.306   3.296  0.7267  1.1311 -1.0027
15449SOL     OW58000   2.181   4.092   1.156 -0.2205  0.2267 -0.3647
15449SOL    HW158001   2.115   4.021   1.133  0.2193 -0.0859 -0.6733
15449SOL    HW258002   2.153   4.138   1.241 -1.1024  0.4445 -0.7651
15450SOL     OW58003   9.457   1.580   5.654  0.1719  0.5268  0.2476
15450SOL    HW158004   9.392   1.605   5.727  0.2747  2.0634 -0.1670
15450SOL    HW258005   9.424   1.615   5.567  0.8240  0.0289 -0.1991
15451SOL     OW58006   3.547   0.917   1.687  0.0024  0.1676 -0.6467
15451SOL    HW158007   3.579   0.967   1.767  2.0083 -0.2068 -1.1875
15451SOL    HW258008   3.528   0.981   1.612  0.1208  0.3251 -0.5409
15452SOL     OW58009   2.604   8.156   0.925  0.3342 -0.0889 -0.0898
15452SOL    HW158010   2.626   8.059   0.937 -0.5384 -0.2498  0.2980
15452SOL    HW258011   2.512   8.173   0.960 -0.9421  0.1471 -3.3592
15453SOL     OW58012   2.061   3.487   6.004  0.2268 -0.2643 -0.1514
15453SOL    HW158013   2.144   3.525   6.045 -0.2752  0.8194 -0.1075
15453SOL    HW258014   2.031   3.408   6.058  0.5743  0.0491  0.5177
15454SOL     OW58015   9.967   5.945   4.530 -0.2254  0.7344  0.1497
15454SOL    HW158016   9.941   5.883   4.604  0.0128 -0.0686 -0.4291
15454SOL    HW258017   9.888   5.963   4.472 -0.2760  0.9244  0.2768
15455SOL     OW58018   1.654   9.383   2.115 -0.2083  0.0444  0.2421
15455SOL    HW158019   1.588   9.458   2.105  0.1676  0.6328  1.9124
15455SOL    HW258020   1.631   9.309   2.052 -1.2879  1.0739 -0.5934
15456SOL     OW58021   4.987   5.267   1.818  0.0698  0.2026 -0.5039
15456SOL    HW158022   4.935   5.193   1.774  1.1335  0.0357 -1.5084
15456SOL    HW258023   4.927   5.346   1.832  0.0407  0.7735 -3.5592
15457SOL     OW58024   0.339   5.681   0.503  0.5990  0.8364 -0.7399
15457SOL    HW158025   0.359   5.713   0.595 -0.1634  0.2589 -0.3692
15457SOL    HW258026   0.275   5.745   0.459 -0.0461  0.4362 -0.3994
15458SOL     OW58027   5.622   9.311   7.898 -0.0011 -0.2331 -0.0135
15458SOL    HW158028   5.565   9.298   7.979  0.1370  1.1819  0.3204
15458SOL    HW258029   5.666   9.401   7.902  2.6874 -1.5109 -0.0047
15459SOL     OW58030   7.757   8.990   7.616  0.3232  0.0933 -0.3581
15459SOL    HW158031   7.777   9.088   7.604  0.6910  0.1503  0.6705
15459SOL    HW258032   7.736   8.949   7.527 -0.5145  1.2595 -0.7099
15460SOL     OW58033   6.774   7.805   5.880  0.1285 -0.0439 -0.1634
15460SOL    HW158034   6.835   7.748   5.936 -0.3499 -0.1784  0.2230
15460SOL    HW258035   6.777   7.774   5.785 -0.1364 -0.7238  0.0458
15461SOL     OW58036   4.315   5.570   3.785 -0.0508 -0.0386 -0.6780
15461SOL    HW158037   4.243   5.501   3.774  1.5295 -1.6492 -1.0887
15461SOL    HW258038   4.346   5.600   3.695 -1.0460  1.5729 -0.5011
15462SOL     OW58039   2.762   0.031   0.304 -0.1466  0.4380 -0.1207
15462SOL    HW158040   2.806  -0.007   0.385 -1.2743 -0.0473  0.2824
15462SOL    HW258041   2.678  -0.019   0.286  0.0197  0.6497 -1.5065
15463SOL     OW58042   7.919   3.337   0.998 -0.2810 -0.1696 -0.2045
15463SOL    HW158043   7.860   3.417   1.006  0.4466  0.2782  0.8388
15463SOL    HW258044   7.953   3.312   1.088  1.2030 -0.3501 -0.8012
15464SOL     OW58045   0.260   4.168   0.566  0.4517 -0.3043 -0.2047
15464SOL    HW158046   0.161   4.175   0.564  0.6627  3.2553 -0.3674
15464SOL    HW258047   0.287   4.103   0.638 -1.9145  0.5329  1.5002
15465SOL     OW58048   1.041   3.227   4.606 -0.3940  0.0207  0.0736
15465SOL    HW158049   1.035   3.150   4.669 -1.6912 -0.6448 -0.8472
15465SOL    HW258050   1.135   3.235   4.571  0.1352 -0.0951  1.4627
15466SOL     OW58051   1.878   0.910   2.044  0.2391  0.3103  0.1101
15466SOL    HW158052   1.805   0.899   2.111 -0.1216 -0.9620 -0.4766
15466SOL    HW258053   1.855   0.859   1.962  0.2145  2.6544 -1.3801
15467SOL     OW58054   4.101   1.254   5.743 -0.3741  0.1184  0.1193
15467SOL    HW158055   4.086   1.159   5.771  0.2551  0.1057  0.4066
15467SOL    HW258056   4.129   1.256   5.647 -1.1654  0.0720 -0.1210
15468SOL     OW58057   2.542   0.266   0.844  0.0991  0.0415  0.1509
15468SOL    HW158058   2.562   0.201   0.771  1.3960 -0.0898  0.6088
15468SOL    HW258059   2.459   0.318   0.821 -1.3846 -2.2765  0.1305
15469SOL     OW58060   9.965   3.653   4.580  0.5613 -0.1348 -0.0084
15469SOL    HW158061   9.993   3.667   4.676  0.1259  2.0241 -0.1762
15469SOL    HW258062  10.022   3.711   4.521 -0.2879 -0.2133 -0.8967
15470SOL     OW58063   3.587   4.513   1.566 -0.1886  0.6222 -0.1425
15470SOL    HW158064   3.614   4.525   1.661 -1.6745  1.6484  0.1610
15470SOL    HW258065   3.510   4.450   1.560  1.3882 -1.3220 -0.9057
15471SOL     OW58066   0.014   8.661   5.024 -0.2988 -0.2042 -0.2654
15471SOL    HW158067   0.085   8.663   5.095  1.1855  2.8223 -1.7341
15471SOL    HW258068  -0.069   8.619   5.061  1.1535 -0.7026  2.5542
15472SOL     OW58069   5.963   7.719   4.966  0.0590 -0.3510 -0.1442
15472SOL    HW158070   6.001   7.784   5.031 -1.4826  1.8060 -1.3549
15472SOL    HW258071   5.971   7.755   4.874  1.5637 -3.0596 -1.1139
15473SOL     OW58072   7.104   9.926   2.835 -0.2194 -0.1066  0.3796
15473SOL    HW158073   7.181   9.863   2.822  1.1105  1.5969 -0.0859
15473SOL    HW258074   7.118   9.979   2.919 -0.0924  1.3002 -0.5094
15474SOL     OW58075   9.911   2.575   1.957 -0.7604  0.0567  0.4609
15474SOL    HW158076   9.983   2.583   1.889 -1.6352  0.7316 -0.3890
15474SOL    HW258077   9.894   2.664   2.000 -1.4493  0.0225  0.2758
15475SOL     OW58078   9.939   4.380   4.951  0.1035  0.7623 -0.3059
15475SOL    HW158079   9.909   4.394   5.045  0.8867  3.3056 -0.4022
15475SOL    HW258080   9.906   4.455   4.894  0.0871 -0.4731 -1.9707
15476SOL     OW58081   9.741   6.207   1.714 -0.1433  0.3991  0.0823
15476SOL    HW158082   9.791   6.277   1.765  0.5890 -0.5423  0.6707
15476SOL    HW258083   9.681   6.157   1.776  0.0744 -0.1512 -0.1549
15477SOL     OW58084   3.877   3.541   4.392  0.2179  0.2043 -0.1503
15477SOL    HW158085   3.781   3.566   4.377 -0.2628 -1.5012 -0.0160
15477SOL    HW258086   3.927   3.546   4.305 -0.1790  0.3155 -0.3722
15478SOL     OW58087   2.579   9.878   3.741  0.5463  0.6807  0.8185
15478SOL    HW158088   2.583   9.946   3.668 -0.7242 -0.8163 -0.6578
15478SOL    HW258089   2.660   9.820   3.737  0.3936  0.4913  0.5045
15479SOL     OW58090   8.331   8.713   2.868  0.4748 -0.4265 -0.0366
15479SOL    HW158091   8.245   8.665   2.849  0.2829  0.3196 -1.1476
15479SOL    HW258092   8.321   8.809   2.840  1.2149 -0.0061  1.1110
15480SOL     OW58093   0.978   1.528   5.988  0.0983 -0.6621 -0.5100
15480SOL    HW158094   1.020   1.455   6.043 -0.5891  0.5166  1.6023
15480SOL    HW258095   0.879   1.524   5.999  0.1118  1.1592  0.3604
15481SOL     OW58096   8.049   7.062   2.620  0.1836 -0.0115 -0.2876
15481SOL    HW158097   7.996   7.138   2.657  0.4593 -0.3462  0.8204
15481SOL    HW258098   7.986   6.991   2.588 -0.0582  0.0338  0.0749
15482SOL     OW58099   3.153   8.026   1.913  0.2496  0.4984  0.2575
15482SOL    HW158100   3.215   8.105   1.914  1.3286 -0.2910 -1.6575
15482SOL    HW258101   3.171   7.971   1.832 -0.4930 -1.7300  1.5704
15483SOL     OW58102   2.427   2.842   5.661  0.2051  0.0604 -0.4516
15483SOL    HW158103   2.441   2.875   5.755  0.0770 -0.4579 -0.2489
15483SOL    HW258104   2.512   2.803   5.627  0.3368  0.5310 -0.6664
15484SOL     OW58105   2.229   7.708   6.812  0.0289 -0.0157  0.0387
15484SOL    HW158106   2.326   7.709   6.835  0.1547 -1.3313 -0.3596
15484SOL    HW258107   2.175   7.734   6.892  0.6391 -0.7620  0.7006
15485SOL     OW58108   3.675   6.307   4.444  0.0077  0.2970  0.1313
15485SOL    HW158109   3.705   6.400   4.464  1.1156  0.0973 -0.5596
15485SOL    HW258110   3.753   6.245   4.447 -0.5850 -0.4791 -0.2123
15486SOL     OW58111   4.603   7.400   1.954  0.1015  0.1135 -0.6353
15486SOL    HW158112   4.701   7.418   1.947  0.3228 -0.8349 -0.0739
15486SOL    HW258113   4.568   7.374   1.864  0.4963 -0.1786 -0.7096
15487SOL     OW58114   2.634   7.985   7.547 -0.2737 -0.2163  0.3625
15487SOL    HW158115   2.547   7.965   7.592  0.0133 -2.0165  0.1725
15487SOL    HW258116   2.710   7.954   7.606  0.2228  0.9281  0.3299
15488SOL     OW58117   2.317   8.674   2.104  0.4235  0.5409 -0.2717
15488SOL    HW158118   2.270   8.738   2.043 -0.6258  1.2678  1.2527
15488SOL    HW258119   2.255   8.601   2.130  1.8821 -1.6571 -2.6986
15489SOL     OW58120   4.477   3.844   0.728 -0.2310 -0.1965  0.1923
15489SOL    HW158121   4.463   3.852   0.827  0.5926  1.0468  0.2093
15489SOL    HW258122   4.399   3.885   0.680 -0.5184 -0.5924  0.3100
15490SOL     OW58123   0.369   5.178   3.232 -0.0125  0.1465 -0.3531
15490SOL    HW158124   0.339   5.210   3.142  0.0377 -2.3857 -1.3301
15490SOL    HW258125   0.466   5.199   3.244  0.0976  0.0992 -1.1064
15491SOL     OW58126   5.306   0.398   4.529 -0.2054  0.6690  0.2514
15491SOL    HW158127   5.264   0.307   4.532  0.8726  0.1781  0.5705
15491SOL    HW258128   5.288   0.440   4.439 -1.7598  0.6579  0.5486
15492SOL     OW58129   9.294   9.863   2.365 -0.2227 -0.2842 -0.4146
15492SOL    HW158130   9.248   9.952   2.364 -0.9742 -0.6718 -1.0260
15492SOL    HW258131   9.348   9.853   2.282 -1.3491 -1.0109 -1.0742
15493SOL     OW58132   2.062   0.589   2.174 -0.4493  0.1606 -0.9343
15493SOL    HW158133   2.013   0.572   2.260 -0.9478  1.1416 -1.0217
15493SOL    HW258134   2.138   0.652   2.191 -0.7584  0.6254 -1.2785
15494SOL     OW58135   3.988   0.885   6.984  0.3955 -0.5398 -0.3685
15494SOL    HW158136   4.026   0.966   7.029 -0.4413 -0.3746  0.0511
15494SOL    HW258137   3.975   0.903   6.887 -0.0256 -0.0871 -0.2261
15495SOL     OW58138   3.441   4.472   6.876 -0.2132 -0.3712  0.2741
15495SOL    HW158139   3.481   4.544   6.818  0.3440  0.8392  2.1136
15495SOL    HW258140   3.456   4.383   6.833  3.1429  0.1889  0.1166
15496SOL     OW58141   3.507   9.120   7.931 -0.1572  0.0142 -0.1237
15496SOL    HW158142   3.432   9.155   7.876  0.7538  0.0945 -1.3303
15496SOL    HW258143   3.551   9.044   7.884  0.7087  0.1583  0.4405
15497SOL     OW58144   6.878   5.669   1.691  0.0369 -0.8107 -0.4429
15497SOL    HW158145   6.927   5.638   1.773 -1.8477  3.0458  2.2879
15497SOL    HW258146   6.944   5.688   1.618  1.8488 -3.2467  0.4804
15498SOL     OW58147   1.121   4.716   3.697  0.0970 -0.3570  0.2915
15498SOL    HW158148   1.208   4.718   3.747  0.1402 -0.4962  0.2233
15498SOL    HW258149   1.049   4.679   3.755  0.1890 -0.6999  0.1854
15499SOL     OW58150   1.804   7.276   3.435 -0.4987  0.4766 -0.0764
15499SOL    HW158151   1.825   7.293   3.531 -2.0415  0.8816  0.2148
15499SOL    HW258152   1.884   7.239   3.389 -0.4299 -1.9888  1.9180
15500SOL     OW58153   0.900   3.253   1.267  0.6195  0.6104 -0.0089
15500SOL    HW158154   0.931   3.179   1.327  0.5845  0.0815 -0.6428
15500SOL    HW258155   0.800   3.248   1.256  0.7002  0.3023 -0.6408
15501SOL     OW58156   1.520   6.679   3.413 -0.2258  0.3494 -0.1273
15501SOL    HW158157   1.581   6.645   3.341 -1.2997 -0.1742 -0.7978
15501SOL    HW258158   1.562   6.662   3.502  1.4705  1.6866 -0.6266
15502SOL     OW58159   5.924   0.671   3.971 -0.2499 -0.4721 -0.5179
15502SOL    HW158160   5.968   0.726   3.900  1.1963 -1.1570 -0.1807
15502SOL    HW258161   5.929   0.719   4.059  0.2512 -0.7506 -0.3904
15503SOL     OW58162   0.944   5.825   1.332 -0.1960  0.4791  0.1320
15503SOL    HW158163   0.930   5.916   1.371  1.8737  0.6694  0.4436
15503SOL    HW258164   1.006   5.830   1.255  1.2274 -0.8755  1.1544
15504SOL     OW58165   3.712   4.599   6.224 -0.4849 -0.6208  0.0447
15504SOL    HW158166   3.617   4.595   6.195 -0.5310 -0.5533  0.1867
15504SOL    HW258167   3.717   4.629   6.320 -0.1931  1.5573 -0.6371
15505SOL     OW58168   4.803   6.834   3.445 -0.2355  0.4159  0.0687
15505SOL    HW158169   4.799   6.932   3.461  1.2158  0.3760  0.6825
15505SOL    HW258170   4.733   6.809   3.378 -1.1809  1.7292  0.5449
15506SOL     OW58171   4.131   8.683   3.927 -0.5260 -0.0085 -0.5436
15506SOL    HW158172   4.074   8.605   3.904 -1.0802  0.9285 -2.4580
15506SOL    HW258173   4.081   8.743   3.989 -0.0959 -1.1542  0.9393
15507SOL     OW58174   5.469   9.064   6.413  0.3860  0.0429 -0.3017
15507SOL    HW158175   5.408   9.143   6.410  0.9625  0.5596  1.1800
15507SOL    HW258176   5.517   9.062   6.501  1.6261 -1.0265 -0.9893
15508SOL     OW58177   9.941   2.460   4.624  0.2612 -0.1423  0.1832
15508SOL    HW158178   9.923   2.390   4.693  1.0791 -0.6982 -0.1545
15508SOL    HW258179  10.027   2.506   4.645 -0.4605  1.0326  0.6143
15509SOL     OW58180   7.954   6.505   3.079 -0.0190 -0.0205  0.5600
15509SOL    HW158181   7.905   6.422   3.107 -1.7477  0.6920 -0.2869
15509SOL    HW258182   8.034   6.517   3.137 -0.0263 -1.9991  1.0372
15510SOL     OW58183   8.300   8.901   1.441  0.3225 -0.4241 -0.1147
15510SOL    HW158184   8.330   8.809   1.466  0.2353 -0.9074 -1.7694
15510SOL    HW258185   8.363   8.969   1.481  0.4160 -1.1917  1.0618
15511SOL     OW58186   4.549   5.061   2.366  0.2845 -0.0954  0.4961
15511SOL    HW158187   4.631   5.007   2.349  0.7009  1.1237 -1.5750
15511SOL    HW258188   4.468   5.009   2.339  0.3394 -1.3313  2.6205
15512SOL     OW58189   2.905   9.662   0.386 -0.0329 -0.2291 -0.2250
15512SOL    HW158190   2.981   9.600   0.402 -0.6811 -0.6049  1.4211
15512SOL    HW258191   2.834   9.615   0.333 -0.0148 -0.5183  0.0077
15513SOL     OW58192   0.196   7.027   2.284  0.0235 -0.0618  0.5285
15513SOL    HW158193   0.120   7.006   2.222  0.5097  0.2684 -0.1825
15513SOL    HW258194   0.179   6.985   2.373 -1.6645  1.1489  0.7992
15514SOL     OW58195   0.891   8.757   6.972  0.2517 -0.3001 -0.2860
15514SOL    HW158196   0.891   8.673   6.917  1.0325 -0.7132  0.3352
15514SOL    HW258197   0.984   8.776   7.003  0.1551  1.0443 -0.7892
15515SOL     OW58198   3.151   0.029   0.309  0.0513 -0.2655  0.3102
15515SOL    HW158199   3.141  -0.012   0.399 -0.7101 -1.9283 -0.4938
15515SOL    HW258200   3.232   0.088   0.307  1.6148 -2.3084  1.3280
15516SOL     OW58201   7.625   2.958   1.405 -0.2475  0.2658  0.5020
15516SOL    HW158202   7.555   3.005   1.459  0.4500  1.4214  0.4262
15516SOL    HW258203   7.610   2.975   1.308 -0.6910 -0.6581  0.4120
15517SOL     OW58204   2.523   2.085  10.074 -0.3765  0.2145 -0.3611
15517SOL    HW158205   2.563   2.116  10.160  0.4479 -0.9780 -0.3157
15517SOL    HW258206   2.545   2.152  10.002  1.2999 -0.1669 -0.2343
15518SOL     OW58207   8.981   2.878   2.221 -0.3972  0.0765  0.0887
15518SOL    HW158208   8.909   2.812   2.245  0.2189 -0.7101 -0.1851
15518SOL    HW258209   8.952   2.931   2.141 -0.0447 -1.3492 -1.0331
15519SOL     OW58210   6.564   0.388   4.729 -0.0837  0.5419 -0.1850
15519SOL    HW158211   6.489   0.325   4.748  1.1776 -1.9898 -3.0214
15519SOL    HW258212   6.528   0.478   4.704 -2.0048  0.3431  1.7594
15520SOL     OW58213   3.118   0.327   3.407  0.4578 -0.4542  0.3412
15520SOL    HW158214   3.150   0.421   3.392  1.1670 -0.4313  1.8925
15520SOL    HW258215   3.092   0.316   3.502  0.9868 -2.0081  0.3153
15521SOL     OW58216   7.543   9.610   7.226 -0.2193 -0.0374  0.2266
15521SOL    HW158217   7.588   9.534   7.179  0.5426  0.6478 -0.1586
15521SOL    HW258218   7.571   9.696   7.185 -0.4002  0.5107  1.2297
15522SOL     OW58219   2.751   3.852   4.501  0.2206  0.6126 -0.4319
15522SOL    HW158220   2.731   3.943   4.465 -1.8109  0.8221  1.1568
15522SOL    HW258221   2.722   3.784   4.434 -3.7728  0.9983  0.7795
15523SOL     OW58222   3.182   3.382   4.431  0.4805  0.3585  0.1342
15523SOL    HW158223   3.195   3.480   4.420  0.0189  0.3017 -0.9554
15523SOL    HW258224   3.172   3.339   4.341  1.4733 -0.7953  0.5631
15524SOL     OW58225   3.075   6.898   1.498 -0.2123 -0.3614  0.4367
15524SOL    HW158226   3.056   6.908   1.400 -1.4417  1.1353  0.8055
15524SOL    HW258227   3.138   6.970   1.527  1.9414 -2.1339  0.3250
15525SOL     OW58228   4.437   2.805   5.855 -0.6597  0.0063  0.2505
15525SOL    HW158229   4.385   2.869   5.911 -1.4620 -0.7991  0.4475
15525SOL    HW258230   4.395   2.797   5.765  0.1080  0.6211 -0.1659
15526SOL     OW58231   1.211   2.481   5.869  0.1467 -0.7603  0.3527
15526SOL    HW158232   1.304   2.466   5.837  1.0769  2.5952  1.2398
15526SOL    HW258233   1.146   2.453   5.798  1.9973  1.0623 -2.1497
15527SOL     OW58234   0.385   2.672   3.893 -0.2770  0.3138  0.0671
15527SOL    HW158235   0.362   2.640   3.801 -3.6809 -0.4829  1.1143
15527SOL    HW258236   0.341   2.760   3.910  1.1269  0.9286  0.6390
15528SOL     OW58237   9.727   5.368   1.470 -0.2013  0.3823  0.1089
15528SOL    HW158238   9.777   5.334   1.550  1.2321 -1.1199 -1.3871
15528SOL    HW258239   9.635   5.329   1.469  0.4013 -1.0450  0.0396
15529SOL     OW58240   3.336   2.770   0.592 -0.0064  0.4387 -0.3445
15529SOL    HW158241   3.287   2.835   0.533 -0.1719  0.2045 -0.4645
15529SOL    HW258242   3.298   2.774   0.684  0.6229  1.2134 -0.1067
15530SOL     OW58243   1.839   8.025   2.680  0.7864 -0.5766 -0.3205
15530SOL    HW158244   1.913   8.066   2.626  0.2747  0.0835 -0.5135
15530SOL    HW258245   1.754   8.030   2.628  0.1307  0.7454  0.8634
15531SOL     OW58246   8.449   7.918   7.762 -0.0085  0.0338  0.0503
15531SOL    HW158247   8.495   7.877   7.684 -1.2325 -1.1381 -0.0819
15531SOL    HW258248   8.356   7.944   7.735  0.1001  1.0954  0.6820
15532SOL     OW58249   2.488   5.598   2.420 -0.3212 -0.1282  0.0283
15532SOL    HW158250   2.396   5.604   2.379 -0.5824 -1.9110  0.3295
15532SOL    HW258251   2.541   5.528   2.372  0.6271  0.3583  0.3614
15533SOL     OW58252   7.527   6.842   1.342  0.3964  0.4894  0.2548
15533SOL    HW158253   7.603   6.901   1.371 -0.4594  1.5883  0.2919
15533SOL    HW258254   7.510   6.774   1.413  2.9154 -1.3211 -0.8135
15534SOL     OW58255   2.726   7.387   2.923 -0.1724 -0.1147  0.0517
15534SOL    HW158256   2.687   7.422   3.008 -2.5548 -1.9351 -0.2398
15534SOL    HW258257   2.662   7.322   2.881  1.8753 -0.8284 -2.0679
15535SOL     OW58258   9.733   8.869   6.362  0.2367  0.1201 -0.3439
15535SOL    HW158259   9.680   8.804   6.417  2.0044 -0.8771  0.2431
15535SOL    HW258260   9.745   8.954   6.413  1.2485 -0.5360  0.5373
15536SOL     OW58261   3.494   8.148   2.740  0.4826  0.0768  0.6013
15536SOL    HW158262   3.453   8.215   2.678 -1.2547 -1.9638 -0.5144
15536SOL    HW258263   3.517   8.192   2.827  0.1917  2.2909 -0.4131
15537SOL     OW58264   2.079   9.027   6.780  0.5901  0.2921  0.0490
15537SOL    HW158265   2.109   9.095   6.847  0.2988  0.2513  0.2197
15537SOL    HW258266   2.036   9.073   6.703  1.1590  0.3566 -0.2337
15538SOL     OW58267   9.649   3.538   4.061  0.5562 -0.1832 -0.4350
15538SOL    HW158268   9.687   3.624   4.028  0.2378 -0.2898 -1.0866
15538SOL    HW258269   9.722   3.482   4.099  1.1109 -0.5030 -1.9154
15539SOL     OW58270   5.941   5.374   1.311 -0.4324 -0.1957 -0.1721
15539SOL    HW158271   5.885   5.423   1.244 -0.7922 -1.9617 -1.1779
15539SOL    HW258272   5.913   5.400   1.403 -2.7467 -0.8622 -0.6638
15540SOL     OW58273   1.707   1.082   1.455  0.1036  0.4631  0.1949
15540SOL    HW158274   1.798   1.121   1.470  0.6527  1.1132 -4.0701
15540SOL    HW258275   1.651   1.148   1.405 -1.1791 -1.6294 -1.2042
15541SOL     OW58276   0.362   5.114   1.681  0.0020  0.0436  0.3882
15541SOL    HW158277   0.445   5.083   1.635 -0.4697  0.2636 -0.6287
15541SOL    HW258278   0.315   5.035   1.721 -1.5852 -0.7434 -2.8289
15542SOL     OW58279   9.352   2.754   1.310  0.3917  0.0599  0.1514
15542SOL    HW158280   9.268   2.714   1.275  0.7546 -1.3835  0.8842
15542SOL    HW258281   9.403   2.685   1.362  2.4077  0.6888 -0.9146
15543SOL     OW58282   9.903   5.148   0.788 -0.0862  0.1872 -0.6483
15543SOL    HW158283   9.982   5.093   0.761 -0.8356 -0.7705 -0.9449
15543SOL    HW258284   9.887   5.219   0.720 -1.0761 -1.2891 -2.0071
15544SOL     OW58285   2.643   2.646   2.185 -0.4391 -0.6014 -0.3205
15544SOL    HW158286   2.615   2.573   2.248  1.3711 -0.3107  0.8610
15544SOL    HW258287   2.725   2.691   2.220 -0.6044  0.9668 -1.8474
15545SOL     OW58288   1.372   3.967   3.130 -0.2421  0.1938  0.6490
15545SOL    HW158289   1.278   3.935   3.130 -0.4649  0.8279 -0.0864
15545SOL    HW258290   1.416   3.944   3.217 -0.0610 -3.0829 -0.2202
15546SOL     OW58291   4.523   6.103   4.007 -0.1540  0.6129  0.3414
15546SOL    HW158292   4.600   6.167   4.003 -0.5491  1.0081 -1.4515
15546SOL    HW258293   4.438   6.152   3.986 -0.3958 -0.5666 -1.5824
15547SOL     OW58294   9.786   4.386   3.895  0.1232 -0.1536 -0.0405
15547SOL    HW158295   9.686   4.386   3.901  0.1322  0.0055  0.1344
15547SOL    HW258296   9.813   4.370   3.800 -0.0664 -0.3313 -0.0664
15548SOL     OW58297   6.752   3.257   0.956 -0.3037 -0.1149 -0.1778
15548SOL    HW158298   6.764   3.189   1.029  0.0020 -0.9853 -1.0290
15548SOL    HW258299   6.841   3.282   0.919 -0.4476  0.4262 -0.1573
15549SOL     OW58300   2.055   9.563   1.172  0.4845 -0.1179  0.4473
15549SOL    HW158301   2.098   9.621   1.103  0.9665 -1.2126 -0.1813
15549SOL    HW258302   2.090   9.470   1.164  0.0722 -0.3975  1.7594
15550SOL     OW58303   5.294   2.944   1.486 -0.3522 -0.6251  0.0033
15550SOL    HW158304   5.369   3.002   1.452  0.4923 -1.4739  0.4093
15550SOL    HW258305   5.323   2.849   1.487 -1.0918 -0.8458  1.1484
15551SOL     OW58306   4.283   2.455   7.514  0.1310  0.3672 -0.2129
15551SOL    HW158307   4.254   2.508   7.434 -0.5872  0.1254 -0.1114
15551SOL    HW258308   4.309   2.363   7.486 -0.3827  0.1977 -0.1249
15552SOL     OW58309   4.383   6.807   2.173  0.0196 -0.2998  0.0733
15552SOL    HW158310   4.295   6.784   2.133  0.6839 -0.9836 -1.0206
15552SOL    HW258311   4.393   6.907   2.176 -0.5447 -0.2313 -0.3358
15553SOL     OW58312   1.712   5.236   1.876 -0.2416  0.2326  0.3597
15553SOL    HW158313   1.635   5.209   1.935 -0.3938 -0.1920 -0.0290
15553SOL    HW258314   1.779   5.288   1.930 -0.4822  0.0306  0.8557
15554SOL     OW58315   5.344   0.142   5.761 -0.1543 -0.0877 -0.2713
15554SOL    HW158316   5.326   0.182   5.851 -0.8092  0.7732 -0.7756
15554SOL    HW258317   5.428   0.087   5.765  0.3704  0.7589  0.6176
15555SOL     OW58318   1.839   5.643   4.888  0.0720  0.3665  0.5960
15555SOL    HW158319   1.790   5.705   4.948 -1.3822  1.1621 -1.3398
15555SOL    HW258320   1.870   5.563   4.939 -0.7876  1.2087  2.4483
15556SOL     OW58321   8.548   1.315   2.954  0.1725 -0.0264 -0.3533
15556SOL    HW158322   8.491   1.244   2.914  1.1383 -0.6556 -0.6252
15556SOL    HW258323   8.602   1.277   3.029 -2.2425  1.3302  2.1459
15557SOL     OW58324   2.807   1.874   1.363 -0.0377  0.1094 -0.1223
15557SOL    HW158325   2.846   1.783   1.350 -0.5190 -0.3445  1.5221
15557SOL    HW258326   2.799   1.920   1.274  2.8468 -0.3479 -0.6636
15558SOL     OW58327   9.305   1.117   5.813 -0.3498  0.1566 -0.0770
15558SOL    HW158328   9.334   1.053   5.884 -1.8230 -1.2397 -0.7072
15558SOL    HW258329   9.247   1.069   5.747  0.4927  1.5899 -1.8784
15559SOL     OW58330   0.063   4.398   4.640  0.4317 -0.2383  0.1271
15559SOL    HW158331   0.018   4.399   4.550 -0.7539  0.7669  0.7100
15559SOL    HW258332   0.065   4.491   4.677 -0.6615 -0.8861  1.8888
15560SOL     OW58333   0.862   3.306   7.361  0.2870 -0.5323 -0.0041
15560SOL    HW158334   0.818   3.315   7.451 -1.0886  0.6379 -0.7869
15560SOL    HW258335   0.927   3.229   7.364  0.5100 -0.3109  2.0853
15561SOL     OW58336   1.315   7.652   7.077 -0.3985 -0.6883 -0.3303
15561SOL    HW158337   1.333   7.684   6.984 -0.3337  1.1991  0.3046
15561SOL    HW258338   1.244   7.581   7.074 -0.4622 -0.5874 -1.8131
15562SOL     OW58339   8.837   5.620   1.473  0.5370  0.3459 -0.0494
15562SOL    HW158340   8.770   5.547   1.480  0.4394  0.5321  0.9942
15562SOL    HW258341   8.806   5.688   1.406 -0.6329  0.7605  0.9013
15563SOL     OW58342   3.330   4.935   2.951  0.3214  0.0490 -0.1059
15563SOL    HW158343   3.311   4.918   2.855 -1.4249  1.5178 -0.0561
15563SOL    HW258344   3.263   4.887   3.008 -0.0859  1.0396  0.2719
15564SOL     OW58345   1.292   3.630   6.270 -0.4475 -0.5859 -1.3043
15564SOL    HW158346   1.260   3.636   6.365 -0.1471 -2.6147 -1.0439
15564SOL    HW258347   1.263   3.711   6.220 -0.3063  0.6951  0.6104
15565SOL     OW58348   0.245   3.997   2.887 -0.1237 -0.1230 -0.3060
15565SOL    HW158349   0.323   3.988   2.948 -0.1866 -0.8065 -0.3249
15565SOL    HW258350   0.182   4.066   2.923  1.9187  2.6257 -1.8169
15566SOL     OW58351   2.324   7.912   2.059  0.0012  0.6789 -0.2956
15566SOL    HW158352   2.335   7.835   1.996 -0.3335 -0.0070  0.4891
15566SOL    HW258353   2.409   7.927   2.108 -0.3546 -0.0720  0.5570
15567SOL     OW58354   0.884   7.644   0.599  0.2817  0.2692  0.4864
15567SOL    HW158355   0.901   7.733   0.556  0.5778  0.9418  1.9899
15567SOL    HW258356   0.891   7.572   0.529  0.1172  1.4036 -0.7213
15568SOL     OW58357   3.546   1.873   7.390 -0.2236  0.7488 -0.2702
15568SOL    HW158358   3.517   1.948   7.450  0.7474  0.6306  0.3524
15568SOL    HW258359   3.525   1.896   7.295 -0.5028  1.5418 -0.0170
15569SOL     OW58360   2.556   1.955   6.661  0.3385 -0.9037 -0.3238
15569SOL    HW158361   2.586   1.933   6.568  0.3808 -1.7185 -0.1262
15569SOL    HW258362   2.592   2.044   6.688 -0.2365 -0.3448 -1.3430
15570SOL     OW58363   9.226   5.806   6.242  0.3025  0.0747  0.7247
15570SOL    HW158364   9.151   5.751   6.207  0.6781 -1.4423  2.2235
15570SOL    HW258365   9.223   5.808   6.342  2.3545 -0.2053  0.8297
15571SOL     OW58366   0.182   5.062   0.711  0.3340  0.0783 -0.5858
15571SOL    HW158367   0.160   5.021   0.622 -1.9893  1.2025 -0.5744
15571SOL    HW258368   0.273   5.032   0.740  0.4604 -1.5957 -2.5787
15572SOL     OW58369   2.579   0.672   5.075 -0.0494 -0.1247 -0.2896
15572SOL    HW158370   2.512   0.618   5.025  0.2577 -1.6196  0.8647
15572SOL    HW258371   2.662   0.682   5.020  0.1172 -1.3568 -0.2789
15573SOL     OW58372   6.567   2.748   0.584 -0.0672 -0.4050 -0.0870
15573SOL    HW158373   6.582   2.662   0.535 -0.9175 -0.9420  0.5944
15573SOL    HW258374   6.539   2.729   0.678 -0.1091  0.6202  0.1125
15574SOL     OW58375   9.229   2.596   3.582 -0.6450 -0.2314 -0.2741
15574SOL    HW158376   9.282   2.531   3.528 -1.2462 -0.7116 -0.2892
15574SOL    HW258377   9.291   2.665   3.621  0.2358 -1.7869  1.1662
15575SOL     OW58378   0.148   7.001   0.436  1.1313  0.0490 -0.6524
15575SOL    HW158379   0.220   6.941   0.400  1.4582  0.1653 -0.2073
15575SOL    HW258380   0.124   7.070   0.368  1.0507 -0.3314 -1.0113
15576SOL     OW58381   0.329   9.851   6.405 -0.1597 -0.0580 -0.1968
15576SOL    HW158382   0.229   9.852   6.414  0.0045 -0.4791  2.1282
15576SOL    HW258383   0.354   9.869   6.310 -2.4614 -0.5239 -0.9397
15577SOL     OW58384   0.423   3.367   1.417  0.2976  0.1862  0.3075
15577SOL    HW158385   0.365   3.422   1.356 -0.3387  0.2222  0.9434
15577SOL    HW258386   0.372   3.289   1.451 -0.1814  1.5351  2.8090
15578SOL     OW58387   7.485   6.356   1.539  0.8560 -0.6832  0.1673
15578SOL    HW158388   7.441   6.283   1.591 -2.3544  0.8755 -0.2296
15578SOL    HW258389   7.553   6.402   1.595 -1.2069 -0.2718  2.4062
15579SOL     OW58390   4.642   3.882   1.087  0.0325 -0.5839 -0.1548
15579SOL    HW158391   4.547   3.869   1.058 -1.5530 -0.4749  4.4363
15579SOL    HW258392   4.675   3.796   1.127  0.2943  0.5601  2.1778
15580SOL     OW58393   1.910   9.713   1.628  0.1851  0.2010 -0.1418
15580SOL    HW158394   1.846   9.732   1.554 -0.4297  1.4497  0.6869
15580SOL    HW258395   1.872   9.744   1.715  1.7546  0.6669  0.4112
15581SOL     OW58396   3.980   8.623   0.449 -0.0708  0.0771  0.1474
15581SOL    HW158397   4.065   8.675   0.437 -0.8013  1.2664  0.0230
15581SOL    HW258398   3.910   8.683   0.487 -0.9415 -0.8228 -0.0244
15582SOL     OW58399   5.925   7.323   6.243 -0.0648 -0.1661 -0.5471
15582SOL    HW158400   5.925   7.388   6.319 -2.3454 -0.2978 -0.4126
15582SOL    HW258401   5.918   7.373   6.156  0.7865 -0.1165 -0.5979
15583SOL     OW58402   0.756   3.003   3.771  0.0071  0.6376 -0.1002
15583SOL    HW158403   0.808   3.016   3.855 -1.6420  0.0500  1.0513
15583SOL    HW258404   0.710   2.914   3.774 -0.2176  0.6946 -1.5478
15584SOL     OW58405   9.948   5.702   4.718  0.0365 -0.5436 -0.1895
15584SOL    HW158406  10.024   5.650   4.680  0.4346  0.6392 -1.0034
15584SOL    HW258407   9.957   5.706   4.818 -0.2340 -2.3964 -0.0737
15585SOL     OW58408   2.676   5.761   3.076 -0.0179  0.3515 -0.0276
15585SOL    HW158409   2.734   5.832   3.116 -1.0800  0.7239  0.8966
15585SOL    HW258410   2.733   5.692   3.032  1.3878 -1.0352  3.6906
15586SOL     OW58411   1.335   7.443   4.315 -0.1004  0.1893 -0.3776
15586SOL    HW158412   1.374   7.533   4.297  1.8825 -0.3246  1.2076
15586SOL    HW258413   1.355   7.382   4.239  2.4735 -0.1290  0.5051
15587SOL     OW58414   5.417   7.794   5.286  0.7980 -0.2588  0.0204
15587SOL    HW158415   5.394   7.835   5.375 -1.2713 -0.3523 -0.4437
15587SOL    HW258416   5.333   7.765   5.240  1.8097  0.1623 -2.1591
15588SOL     OW58417   2.349   1.848   6.930 -0.5071 -0.5492 -0.2885
15588SOL    HW158418   2.439   1.809   6.916 -0.0179  0.8886 -1.2745
15588SOL    HW258419   2.280   1.776   6.921  0.3795 -1.2361 -1.8769
15589SOL     OW58420   8.698   6.262   3.259  0.0564 -0.2583  0.3806
15589SOL    HW158421   8.670   6.203   3.335  0.0333 -0.1101  0.4886
15589SOL    HW258422   8.768   6.326   3.292 -0.1507 -0.0125  0.3463
15590SOL     OW58423   8.992   6.805   3.261 -0.4459 -0.2608 -0.1578
15590SOL    HW158424   9.036   6.752   3.334  0.9346  0.2939 -0.5761
15590SOL    HW258425   9.011   6.902   3.275  0.5865 -0.2198 -1.7614
15591SOL     OW58426   8.204   2.520   5.020 -0.3938 -0.0059 -0.2337
15591SOL    HW158427   8.131   2.461   4.986  0.2115 -0.5684 -0.5860
15591SOL    HW258428   8.179   2.557   5.109 -0.6899 -0.9876  0.1018
15592SOL     OW58429   3.127   7.489   2.543  0.1463 -0.1403  0.9063
15592SOL    HW158430   3.147   7.577   2.587  2.3364  0.6182 -1.4584
15592SOL    HW258431   3.067   7.504   2.465 -0.7706 -0.9853  1.4420
15593SOL     OW58432   1.071   2.280   2.518  0.5340 -0.1433 -0.3070
15593SOL    HW158433   1.062   2.188   2.558 -0.4840 -0.1138 -0.4350
15593SOL    HW258434   1.159   2.319   2.542  0.6822 -0.8758  0.3520
15594SOL     OW58435   3.109   9.904   0.660  0.3279  0.0548  0.5460
15594SOL    HW158436   3.113   9.974   0.732 -0.4249  0.2985  0.3532
15594SOL    HW258437   3.106   9.813   0.702 -0.9907  0.2317  0.8470
15595SOL     OW58438   9.030   6.444   2.055 -0.4962  0.0131  0.6990
15595SOL    HW158439   9.117   6.494   2.062 -0.0578 -0.9252  2.4618
15595SOL    HW258440   8.954   6.506   2.073 -0.0352  0.3282  1.5836
15596SOL     OW58441   8.075   0.760   7.724  0.3271 -0.2241 -0.1927
15596SOL    HW158442   7.984   0.773   7.764 -0.1729  0.7910 -1.5984
15596SOL    HW258443   8.109   0.669   7.746 -1.2857 -0.8180 -0.1276
15597SOL     OW58444   8.349   5.711   0.368  0.0693  0.2342 -0.1213
15597SOL    HW158445   8.441   5.715   0.329  0.4045 -2.1899  0.3120
15597SOL    HW258446   8.282   5.707   0.295  0.3836  0.7995 -0.4419
15598SOL     OW58447   4.798   9.491   2.871 -0.2814  0.5927 -0.2749
15598SOL    HW158448   4.748   9.527   2.950  1.3713  4.5493 -0.9289
15598SOL    HW258449   4.755   9.524   2.787 -1.4450 -2.8160 -1.1180
15599SOL     OW58450   3.337   0.035   2.899  0.6403 -0.2250 -0.1222
15599SOL    HW158451   3.344  -0.065   2.897  2.7983 -0.1841  2.6594
15599SOL    HW258452   3.293   0.064   2.985 -1.6621  1.1808 -1.7114
15600SOL     OW58453   2.613   2.989  10.074  0.5794 -0.3999 -0.4524
15600SOL    HW158454   2.646   2.984  10.168  2.9410  1.7784 -1.0877
15600SOL    HW258455   2.544   3.060  10.066  0.2529 -0.7045 -0.3154
15601SOL     OW58456   4.129   6.361   3.017 -0.2098  0.0344 -0.3481
15601SOL    HW158457   4.038   6.336   2.984 -0.8947  0.3886  1.2361
15601SOL    HW258458   4.155   6.301   3.093 -1.1691  2.9447  2.3928
15602SOL     OW58459   5.220   9.057   3.861  0.5111  0.2267  0.0943
15602SOL    HW158460   5.221   9.057   3.961 -0.6871  0.1045  0.1198
15602SOL    HW258461   5.191   8.967   3.828 -0.8650  0.8027 -0.3189
15603SOL     OW58462   6.011   8.029   2.052 -0.6769 -0.5405  0.1842
15603SOL    HW158463   6.056   7.951   2.097 -1.5535 -2.5566 -2.2834
15603SOL    HW258464   6.072   8.066   1.982 -2.2466 -2.4743 -2.2985
15604SOL     OW58465   6.931   4.710   0.855  0.2759 -0.0199  0.5112
15604SOL    HW158466   6.904   4.660   0.773  1.3409 -0.6575  0.5497
15604SOL    HW258467   7.024   4.686   0.880 -0.5556 -1.0020  2.7892
15605SOL     OW58468   0.170   1.736   2.609  0.0043 -0.2061  0.3299
15605SOL    HW158469   0.111   1.691   2.541  0.7096  0.1201 -0.5008
15605SOL    HW258470   0.126   1.732   2.698 -0.1287 -2.2188  0.2009
15606SOL     OW58471   7.410   1.300   4.837 -0.3680 -0.1463 -0.4050
15606SOL    HW158472   7.410   1.204   4.863  2.2917  0.0401  0.3957
15606SOL    HW258473   7.372   1.355   4.912  0.4828 -0.3376  0.1728
15607SOL     OW58474   4.036   4.821   7.723  0.5643 -0.1324  0.1774
15607SOL    HW158475   4.072   4.908   7.690  0.7204 -0.7483 -1.3199
15607SOL    HW258476   4.105   4.749   7.710 -0.4974 -0.9644 -0.9436
15608SOL     OW58477   6.076   1.155   5.389 -0.0592 -0.3979  0.0417
15608SOL    HW158478   6.103   1.235   5.442  0.3156 -0.6819  0.2754
15608SOL    HW258479   6.124   1.157   5.301 -0.1311 -0.3100  0.0043
15609SOL     OW58480   0.479   9.422   1.288  0.1413  0.3960 -0.3119
15609SOL    HW158481   0.428   9.336   1.294 -0.4188  0.7712  0.3158
15609SOL    HW258482   0.473   9.457   1.194 -0.6310  0.3607 -0.2781
15610SOL     OW58483   8.043   4.678   3.650 -0.1312  0.0759 -0.1503
15610SOL    HW158484   8.039   4.605   3.718 -2.5445 -0.6099 -0.9596
15610SOL    HW258485   8.089   4.644   3.568  0.8760  0.2393  0.3327
15611SOL     OW58486   5.378   7.209   1.542 -0.0878 -0.0415 -1.2134
15611SOL    HW158487   5.344   7.115   1.537  2.3376 -0.9593 -1.1883
15611SOL    HW258488   5.470   7.214   1.501  0.4766  1.9791  0.2038
15612SOL     OW58489   0.163   8.498   3.751  0.2502 -0.2846 -0.0954
15612SOL    HW158490   0.082   8.439   3.753  0.5720 -0.7994 -1.7016
15612SOL    HW258491   0.213   8.489   3.837  0.6647 -2.9024 -0.5868
15613SOL     OW58492   8.736   8.199   2.737  0.5101  0.9792 -1.0947
15613SOL    HW158493   8.669   8.257   2.690 -0.2604  2.0015  1.1857
15613SOL    HW258494   8.711   8.191   2.834  0.9897 -2.6538 -1.2053
15614SOL     OW58495   8.470   6.582   7.049 -0.3692  0.5610  0.0711
15614SOL    HW158496   8.435   6.536   6.968  0.3290 -1.1692  0.7307
15614SOL    HW258497   8.567   6.560   7.061 -0.6107  0.2884  1.7095
15615SOL     OW58498   8.138   1.685   0.672 -0.8485 -0.2610 -0.2259
15615SOL    HW158499   8.215   1.678   0.608  0.8745  1.3718  1.6048
15615SOL    HW258500   8.072   1.752   0.638  0.7053  1.5693  0.3347
15616SOL     OW58501   9.018   5.788   1.584 -0.8869 -0.2236  0.2096
15616SOL    HW158502   8.941   5.734   1.549 -1.0623  0.8431 -1.1299
15616SOL    HW258503   9.002   5.884   1.564  0.2278  0.1390  1.0285
15617SOL     OW58504   1.624   4.632   7.389  0.6453  0.2018  0.2747
15617SOL    HW158505   1.689   4.631   7.465 -0.2083  0.4702  1.0213
15617SOL    HW258506   1.542   4.580   7.415  1.8983 -2.9823 -1.8778
15618SOL     OW58507   3.882   2.334   5.911  0.4032 -0.4788  0.2430
15618SOL    HW158508   3.797   2.295   5.876  0.2377  0.3207 -0.2611
15618SOL    HW258509   3.960   2.294   5.864  0.2814 -0.8635  0.3673
15619SOL     OW58510   4.228   1.313   7.693  0.5162 -0.0939 -0.6953
15619SOL    HW158511   4.180   1.335   7.777  0.4629 -0.6571 -0.5766
15619SOL    HW258512   4.183   1.359   7.616  1.9987  2.4195 -0.1408
15620SOL     OW58513   3.582   9.105   3.663  0.1413  0.1115 -0.4595
15620SOL    HW158514   3.594   9.123   3.761  0.0460 -0.0142 -0.4249
15620SOL    HW258515   3.660   9.052   3.629  0.0442 -0.0721 -0.3949
15621SOL     OW58516   9.355   6.176   5.299  0.4597 -0.2422 -0.1563
15621SOL    HW158517   9.357   6.101   5.233  0.8969 -0.2294 -0.1583
15621SOL    HW258518   9.386   6.261   5.255 -1.9055  0.3754 -0.6921
15622SOL     OW58519   7.801   5.412   0.568 -0.1263  0.0904  0.3211
15622SOL    HW158520   7.861   5.333   0.584 -0.9742 -0.4291  0.9650
15622SOL    HW258521   7.854   5.486   0.527  0.6646 -0.8476 -0.3776
15623SOL     OW58522   7.405   4.819   0.916 -0.1828 -0.2396  0.4367
15623SOL    HW158523   7.476   4.851   0.979 -0.1902 -0.9675  0.8164
15623SOL    HW258524   7.333   4.889   0.909 -0.1091 -0.0895  1.1246
15624SOL     OW58525   3.037   0.216   1.139 -0.6529 -0.6781  0.8727
15624SOL    HW158526   2.961   0.224   1.074 -0.1816 -1.0698  0.2602
15624SOL    HW258527   3.097   0.295   1.131 -0.5518 -0.7640  0.7673
15625SOL     OW58528   4.886   6.967   1.654  0.1850  0.2706  0.1911
15625SOL    HW158529   4.881   7.021   1.738 -0.1166 -0.4727  0.6535
15625SOL    HW258530   4.873   7.028   1.575 -1.6851  0.6568  0.7682
15626SOL     OW58531   6.096   8.174   2.665 -0.5127  0.0365 -0.4844
15626SOL    HW158532   6.012   8.131   2.698 -0.7241  0.2592 -0.7301
15626SOL    HW258533   6.167   8.104   2.654 -0.0978  0.1204  1.4919
15627SOL     OW58534   8.762   1.207   5.147  0.3342  0.4088  0.0660
15627SOL    HW158535   8.815   1.161   5.076  0.8362  0.6831  0.2626
15627SOL    HW258536   8.793   1.178   5.237 -0.0843  0.3054  0.1807
15628SOL     OW58537   1.701   2.890   3.216 -0.2268 -0.4280 -0.2853
15628SOL    HW158538   1.786   2.849   3.249  0.9509  2.1969  0.0907
15628SOL    HW258539   1.662   2.947   3.288 -0.4272  1.1552 -1.6106
15629SOL     OW58540   0.833   2.110   5.441 -0.3552 -0.1722 -0.1595
15629SOL    HW158541   0.764   2.059   5.491 -1.0733  0.1753 -0.7951
15629SOL    HW258542   0.881   2.172   5.504 -0.5157 -0.5191  0.3046
15630SOL     OW58543   1.095   5.516   1.994  0.0876  0.2694 -0.4511
15630SOL    HW158544   1.095   5.519   2.094 -3.0371  2.3468 -0.4559
15630SOL    HW258545   1.034   5.442   1.963 -0.8661  1.1917 -0.8050
15631SOL     OW58546   3.827   1.671   7.101 -0.2477 -0.6006 -0.0861
15631SOL    HW158547   3.869   1.695   7.189 -0.8726 -1.1912  0.3800
15631SOL    HW258548   3.849   1.576   7.078  0.5740 -0.2094 -0.9632
15632SOL     OW58549   6.311   0.851   2.799  0.2299 -0.1230  0.0585
15632SOL    HW158550   6.262   0.768   2.772  0.4634 -0.4512  0.6311
15632SOL    HW258551   6.406   0.845   2.768  0.7998 -0.9942  1.8611
15633SOL     OW58552   7.262   1.561   3.287  0.5503  0.0387  0.5319
15633SOL    HW158553   7.230   1.613   3.208  1.5005  0.9218  0.7202
15633SOL    HW258554   7.333   1.613   3.335  1.1116 -1.1909  1.0529
15634SOL     OW58555   8.460   7.979   2.051 -0.7237 -0.6222  0.5878
15634SOL    HW158556   8.475   7.961   2.149 -0.2996 -1.1612  0.4270
15634SOL    HW258557   8.480   8.074   2.031  2.0378 -1.1715  0.4866
15635SOL     OW58558   5.327   0.830   5.115 -0.2439  0.4630 -0.5525
15635SOL    HW158559   5.259   0.876   5.172 -0.6245 -0.2507 -0.4321
15635SOL    HW258560   5.311   0.852   5.019  0.4832  1.7822 -0.3869
15636SOL     OW58561   7.899   2.682   1.482  0.4343  0.8287 -0.5523
15636SOL    HW158562   7.820   2.734   1.515  1.5234  1.4633  1.1372
15636SOL    HW258563   7.904   2.594   1.529  1.5435  1.4060  0.4497
15637SOL     OW58564   3.617   7.539   3.756 -0.0214 -0.5235  0.0383
15637SOL    HW158565   3.641   7.455   3.709 -0.4778 -1.3332  1.2189
15637SOL    HW258566   3.687   7.608   3.739 -0.3235 -0.6956 -2.0272
15638SOL     OW58567   4.512   7.706   0.989  0.2086 -0.2713  0.0396
15638SOL    HW158568   4.588   7.719   1.053 -0.1310 -1.2815  0.6570
15638SOL    HW258569   4.511   7.611   0.958 -0.9860 -0.3422  0.2711
15639SOL     OW58570   3.769   8.829   6.930  0.0268 -0.3577  0.0387
15639SOL    HW158571   3.814   8.904   6.979  1.2621 -0.7867 -0.4074
15639SOL    HW258572   3.817   8.744   6.948  0.2506 -0.5883 -1.5631
15640SOL     OW58573   5.863   9.523   7.362  0.4585  0.2697  0.3034
15640SOL    HW158574   5.826   9.572   7.283  1.0222  3.5938  1.9957
15640SOL    HW258575   5.895   9.433   7.334  1.7981  1.8362 -3.5265
15641SOL     OW58576   3.424   5.719   6.915 -0.4256 -0.1041 -0.3462
15641SOL    HW158577   3.480   5.736   6.996  0.3659 -0.9291 -0.7126
15641SOL    HW258578   3.329   5.740   6.936  0.0729  1.8292  0.1276
15642SOL     OW58579   0.648   4.874   7.548  0.1012 -0.3316 -0.5417
15642SOL    HW158580   0.633   4.916   7.458  0.5425 -0.5264 -0.7105
15642SOL    HW258581   0.735   4.824   7.547  1.3010  1.6638  0.7107
15643SOL     OW58582   0.690   7.605   2.827  0.0126  0.4452  0.6257
15643SOL    HW158583   0.682   7.505   2.825  0.2320  0.3736  2.6712
15643SOL    HW258584   0.712   7.638   2.735  1.0725 -1.4738  0.1578
15644SOL     OW58585   6.854   7.314   2.779 -0.0901 -0.0734 -0.6901
15644SOL    HW158586   6.867   7.400   2.828 -2.1250  0.4857 -1.0725
15644SOL    HW258587   6.757   7.304   2.754  0.4101 -1.6921 -2.0910
15645SOL     OW58588   7.061   3.378   0.817  0.1967 -0.2947  0.6774
15645SOL    HW158589   7.119   3.404   0.739  1.6467  0.7574  2.0902
15645SOL    HW258590   7.071   3.280   0.834  0.6979 -0.3312  0.2069
15646SOL     OW58591   6.039   5.806   0.224  0.6153  0.2693 -0.2420
15646SOL    HW158592   6.107   5.805   0.151  1.7198 -0.6990  0.7737
15646SOL    HW258593   6.078   5.848   0.306 -0.5415  1.1517 -0.1333
15647SOL     OW58594   6.217   2.758   0.550  0.7033 -0.2822 -0.5474
15647SOL    HW158595   6.217   2.796   0.642  1.2241 -0.5766 -0.4259
15647SOL    HW258596   6.127   2.772   0.508 -0.6621 -3.2070  1.2673
15648SOL     OW58597   9.324   6.199   5.885 -0.0656 -0.1501  0.0633
15648SOL    HW158598   9.309   6.101   5.888 -0.1220 -0.1931 -1.4082
15648SOL    HW258599   9.329   6.230   5.790  0.6365  1.1614  0.5040
15649SOL     OW58600   7.806   1.600   6.507 -0.0063 -0.5612 -0.1675
15649SOL    HW158601   7.736   1.671   6.513  1.0225  0.5177 -0.7995
15649SOL    HW258602   7.889   1.630   6.554  0.4735 -1.2897 -0.5275
15650SOL     OW58603   0.451   8.097   5.446  0.6429  0.3640 -0.5778
15650SOL    HW158604   0.458   8.016   5.388  1.0461  1.0010 -1.4354
15650SOL    HW258605   0.396   8.166   5.399  2.5863  1.6238 -1.0668
15651SOL     OW58606   2.337   3.633   5.642  0.2439 -0.0582 -0.4880
15651SOL    HW158607   2.350   3.542   5.603  0.3452 -0.6924  0.9824
15651SOL    HW258608   2.394   3.699   5.593  0.2870 -0.8130 -1.4669
15652SOL     OW58609   6.853   7.197   7.627  0.0449 -0.4250  0.2727
15652SOL    HW158610   6.771   7.213   7.682  0.4387 -1.0462  1.0464
15652SOL    HW258611   6.925   7.159   7.685  1.8477  2.7483  0.2583
15653SOL     OW58612   5.247   8.380   2.606  0.5847  0.5150 -0.5400
15653SOL    HW158613   5.217   8.312   2.673  0.9126  1.2575  0.3638
15653SOL    HW258614   5.256   8.336   2.516 -0.2862 -0.3789 -0.1954
15654SOL     OW58615   4.077   1.807   7.800  0.5691  0.4060  0.7569
15654SOL    HW158616   4.111   1.898   7.779 -0.7006  1.1965  2.0821
15654SOL    HW258617   4.148   1.754   7.846  2.1279 -0.1149 -2.1366
15655SOL     OW58618   1.683   4.109   7.627 -0.0908 -0.0646 -0.1365
15655SOL    HW158619   1.745   4.185   7.645 -2.0902  1.9171 -1.3233
15655SOL    HW258620   1.733   4.036   7.580  1.2244  1.7593 -1.6587
15656SOL     OW58621   8.671   5.996   5.857  0.0132 -0.3984 -0.1193
15656SOL    HW158622   8.613   6.073   5.831  1.3862  0.6954 -0.0358
15656SOL    HW258623   8.730   6.023   5.934 -0.4765 -1.9905  0.8387
15657SOL     OW58624   1.709   3.839   0.739 -0.1156  0.1528  0.1430
15657SOL    HW158625   1.778   3.769   0.725  0.7466  0.6074  1.9669
15657SOL    HW258626   1.721   3.912   0.672  1.3911  0.3798  0.6384
15658SOL     OW58627   2.838   5.091   6.021 -0.1030  0.1251  0.0103
15658SOL    HW158628   2.752   5.041   6.009  0.1501 -0.3794  0.2545
15658SOL    HW258629   2.827   5.184   5.988 -0.4023 -0.2768 -1.0646
15659SOL     OW58630   8.520   0.639   2.817 -0.4903  0.0171  0.9343
15659SOL    HW158631   8.506   0.610   2.722  0.6410  0.5476  0.6021
15659SOL    HW258632   8.598   0.592   2.856  2.4095  3.6828 -0.1325
15660SOL     OW58633   4.239   8.345   1.294  0.3273 -0.4503  0.6784
15660SOL    HW158634   4.158   8.293   1.320  0.3900 -0.4555  0.8615
15660SOL    HW258635   4.211   8.432   1.253  0.2359 -0.2184  1.2293
15661SOL     OW58636   8.558   0.375   6.112 -0.0602 -0.1631 -0.1606
15661SOL    HW158637   8.481   0.314   6.095 -0.3562  0.7877 -2.5973
15661SOL    HW258638   8.529   0.470   6.097  0.5892  0.5402  2.7824
15662SOL     OW58639   2.627   6.926   5.709  0.0562 -0.1176  0.2124
15662SOL    HW158640   2.568   6.988   5.760  2.3771  1.4896  1.0059
15662SOL    HW258641   2.682   6.871   5.772  2.1567  1.1149 -0.4857
15663SOL     OW58642   8.121   2.283   1.821 -0.1222 -0.2175 -0.1762
15663SOL    HW158643   8.133   2.186   1.841  1.4474 -0.6209 -2.8505
15663SOL    HW258644   8.157   2.338   1.897 -0.9273 -1.6906  1.3054
15664SOL     OW58645   8.343   1.417   0.835  0.3268 -0.3752 -0.2618
15664SOL    HW158646   8.358   1.356   0.757 -0.0149 -0.3202 -0.3733
15664SOL    HW258647   8.362   1.368   0.920  0.1114 -0.6209 -0.3538
15665SOL     OW58648   3.880   8.960   3.838  0.3116 -0.3615  0.1671
15665SOL    HW158649   3.964   9.007   3.809 -0.1309  0.1323 -0.3250
15665SOL    HW258650   3.833   8.924   3.757  0.9586 -2.1999  0.5835
15666SOL     OW58651   1.416   4.749   4.020  0.2085  0.0551 -0.1237
15666SOL    HW158652   1.513   4.773   4.027  0.8769 -2.9262  1.4788
15666SOL    HW258653   1.378   4.737   4.112 -2.0419  2.4270 -0.6907
15667SOL     OW58654   9.057   4.090   0.963 -0.8051  0.0312  0.7079
15667SOL    HW158655   9.103   4.171   0.999  0.4374 -0.2343 -0.2353
15667SOL    HW258656   9.085   4.009   1.014 -0.0993 -0.1465  0.0645
15668SOL     OW58657   7.340   8.963   5.955 -0.0739 -0.6982  0.5263
15668SOL    HW158658   7.398   8.987   6.033 -0.3003 -0.0762  0.5068
15668SOL    HW258659   7.391   8.976   5.870  0.0848 -1.1197  0.5557
15669SOL     OW58660   9.988   6.681   5.171  0.2636 -0.2284 -0.2303
15669SOL    HW158661   9.903   6.651   5.128 -0.7763 -0.1687  1.7635
15669SOL    HW258662  10.039   6.602   5.203 -0.4809 -0.1148  1.2623
15670SOL     OW58663   7.739   2.049   5.316  0.1275  0.2170  0.8289
15670SOL    HW158664   7.653   2.058   5.266  0.3932 -2.2484 -0.1470
15670SOL    HW258665   7.815   2.048   5.252  0.8964  2.2200  1.6778
15671SOL     OW58666   2.346   2.166   6.745 -0.5535 -0.3422 -0.0108
15671SOL    HW158667   2.342   2.208   6.654 -0.2090 -3.7999 -1.6692
15671SOL    HW258668   2.429   2.111   6.753 -1.8321 -2.1168  1.4532
15672SOL     OW58669   2.629   4.260   0.284 -0.3465  0.3214  0.3571
15672SOL    HW158670   2.658   4.308   0.367  2.9763  0.1110 -0.6300
15672SOL    HW258671   2.607   4.327   0.213  0.0038  0.4531  0.3708
15673SOL     OW58672   0.330   6.816   5.399  0.1310  0.3113 -0.0598
15673SOL    HW158673   0.263   6.792   5.328  0.8553  0.2628 -0.7337
15673SOL    HW258674   0.364   6.732   5.442  0.2466  0.3064 -0.1633
15674SOL     OW58675   3.127   9.891   7.071 -0.1717 -0.0680  0.5075
15674SOL    HW158676   3.049   9.866   7.128 -0.4727  1.3265  0.7263
15674SOL    HW258677   3.163   9.980   7.100  0.4081  0.1094 -0.7047
15675SOL     OW58678   0.378   3.665   4.476  0.7400 -0.2637  0.0474
15675SOL    HW158679   0.387   3.615   4.562  0.2359 -0.6110 -0.0982
15675SOL    HW258680   0.386   3.601   4.400 -0.1622 -0.1702 -0.1347
15676SOL     OW58681   8.617   0.965   0.211 -0.1187 -0.0536 -0.1376
15676SOL    HW158682   8.665   0.954   0.124  0.3767  2.4823 -0.2349
15676SOL    HW258683   8.685   0.972   0.285 -0.4764 -0.3323  0.2171
15677SOL     OW58684   2.990   7.451   1.097  0.3411 -0.1273  0.0162
15677SOL    HW158685   3.049   7.509   1.041  0.3581 -0.6322 -0.4995
15677SOL    HW258686   3.029   7.442   1.188  1.0739 -0.4640 -0.3240
15678SOL     OW58687   8.566   0.694   4.328  0.4409  0.2560  0.5232
15678SOL    HW158688   8.507   0.630   4.377  1.1020  0.4199  1.5613
15678SOL    HW258689   8.519   0.727   4.246 -0.9442  0.4523  1.3681
15679SOL     OW58690   3.613   8.845   5.870 -0.0010  0.5727 -0.2762
15679SOL    HW158691   3.600   8.836   5.771 -1.4543 -1.1696  0.0503
15679SOL    HW258692   3.661   8.931   5.889 -0.7140  1.4889 -2.4000
15680SOL     OW58693   2.010   8.904   3.646  0.1505 -0.0599  1.0607
15680SOL    HW158694   2.050   8.819   3.612  0.3992  0.5485 -0.1987
15680SOL    HW258695   2.081   8.974   3.653 -0.5166  0.7804 -0.3821
15681SOL     OW58696   0.335   2.186   1.047  0.0858 -0.3338  0.2751
15681SOL    HW158697   0.303   2.237   1.126  1.1479  0.5008  0.1645
15681SOL    HW258698   0.282   2.212   0.967 -0.2085 -0.3258  0.4722
15682SOL     OW58699   1.986   5.191   0.291  0.4534 -0.4094 -0.0256
15682SOL    HW158700   1.979   5.127   0.368  1.2693 -2.3298 -1.4901
15682SOL    HW258701   1.900   5.242   0.282 -0.5671 -1.9666  0.6183
15683SOL     OW58702   2.169   3.814   1.956 -0.0468 -0.1786 -0.0837
15683SOL    HW158703   2.207   3.723   1.941 -0.2058 -0.4347  1.0858
15683SOL    HW258704   2.243   3.881   1.958  0.3643 -0.6720  2.1548
15684SOL     OW58705   3.186   2.678   3.064 -0.1793  0.3154 -0.3001
15684SOL    HW158706   3.204   2.597   3.119  0.6514  1.9151  1.8800
15684SOL    HW258707   3.101   2.665   3.013 -2.5656 -0.2022  3.5568
15685SOL     OW58708   0.637   4.871   2.278  0.0600  0.8826  0.0777
15685SOL    HW158709   0.588   4.950   2.314  2.5304  1.5538  2.0986
15685SOL    HW258710   0.727   4.901   2.245  0.1883 -0.7571 -1.0966
15686SOL     OW58711   8.251   9.633   1.405 -0.3582 -0.4436 -0.2578
15686SOL    HW158712   8.219   9.542   1.376  0.1438 -1.0254  0.9591
15686SOL    HW258713   8.172   9.694   1.415 -0.8764 -1.2022  0.4289
15687SOL     OW58714   7.774   7.051   1.340 -0.4320 -0.0987 -0.0441
15687SOL    HW158715   7.779   7.139   1.387 -1.2121  1.2173 -2.3134
15687SOL    HW258716   7.721   7.062   1.256 -0.2918 -2.6899 -0.5039
15688SOL     OW58717   8.655   3.908   6.785  0.6244 -0.1055 -0.3012
15688SOL    HW158718   8.697   3.823   6.753 -0.0980  0.3696 -2.6194
15688SOL    HW258719   8.718   3.956   6.846  1.9695 -1.1863 -0.8262
15689SOL     OW58720   2.778   9.345   1.327 -0.5770 -0.4136 -0.2105
15689SOL    HW158721   2.716   9.358   1.405  0.4031 -1.3877  0.7527
15689SOL    HW258722   2.838   9.424   1.318 -0.2292 -0.6027  0.4553
15690SOL     OW58723   9.037   1.280   1.843 -1.0765 -0.2087 -0.0061
15690SOL    HW158724   9.072   1.360   1.893  1.5691 -0.5432 -1.2242
15690SOL    HW258725   9.028   1.203   1.907 -0.8072  0.2512  0.5982
15691SOL     OW58726   2.433   0.933   2.165  0.6806 -0.4313  0.3431
15691SOL    HW158727   2.394   1.025   2.164  1.5819 -0.0372  0.1933
15691SOL    HW258728   2.460   0.907   2.072 -2.4545 -2.1271 -0.1256
15692SOL     OW58729   5.000   2.954   0.169 -0.4610 -0.4967  0.3847
15692SOL    HW158730   4.946   2.872   0.153 -0.6099  0.0691 -2.1501
15692SOL    HW258731   4.943   3.035   0.154  0.7825  0.0952 -1.2043
15693SOL     OW58732   2.112   6.956   1.309 -0.1352  0.8786 -0.6068
15693SOL    HW158733   2.086   6.925   1.401  0.9492  0.7633 -0.3318
15693SOL    HW258734   2.063   6.903   1.240  0.4794 -0.3439 -0.1150
15694SOL     OW58735   0.931   5.186   4.689  0.2750 -0.3402  0.1251
15694SOL    HW158736   0.927   5.285   4.707  0.9668 -0.2117 -0.3964
15694SOL    HW258737   0.842   5.145   4.709  0.0151  0.3699  0.4598
15695SOL     OW58738   9.340   8.373   5.082 -0.7803 -0.3346  0.0728
15695SOL    HW158739   9.416   8.310   5.066 -0.1667  0.1404  1.0352
15695SOL    HW258740   9.375   8.467   5.081 -1.4229 -0.0928  0.1553
15696SOL     OW58741   2.747   6.471   0.526 -0.2266 -0.2045 -0.0341
15696SOL    HW158742   2.807   6.531   0.473  0.5826 -0.8425  0.1401
15696SOL    HW258743   2.681   6.526   0.577  0.6466  0.5495  0.2955
15697SOL     OW58744   4.899   6.641   2.036 -0.0162  0.0095 -0.1680
15697SOL    HW158745   4.863   6.557   2.076 -0.5504  0.5048  0.4029
15697SOL    HW258746   4.930   6.702   2.109  1.5383 -0.1946 -0.6236
15698SOL     OW58747   4.442   4.770   2.588 -0.1447  0.3651  0.1659
15698SOL    HW158748   4.466   4.694   2.649 -0.4171 -0.9818 -1.3703
15698SOL    HW258749   4.410   4.848   2.643 -2.4995 -1.5672  1.6650
15699SOL     OW58750   5.768   9.102   2.603  0.2353 -0.0727 -0.1313
15699SOL    HW158751   5.792   9.068   2.512 -0.9534  1.0037 -0.8655
15699SOL    HW258752   5.728   9.027   2.656 -3.3031  0.3012 -2.0837
15700SOL     OW58753   5.318   2.940   2.012 -0.2674  0.1576 -0.5997
15700SOL    HW158754   5.340   3.025   1.964 -0.3829  0.0710 -0.8062
15700SOL    HW258755   5.281   2.874   1.947 -0.4989  0.0691 -0.3784
15701SOL     OW58756   4.430   9.614   5.171 -0.3193  0.3183  0.7250
15701SOL    HW158757   4.332   9.631   5.178 -0.2972  0.7551 -0.0482
15701SOL    HW258758   4.473   9.633   5.260 -0.9650 -0.1292  1.1388
15702SOL     OW58759   1.126   4.005   7.639 -0.4566 -0.6467 -0.5770
15702SOL    HW158760   1.133   3.907   7.658 -0.8180 -0.5643  0.0064
15702SOL    HW258761   1.188   4.055   7.700 -2.3859 -0.3015  1.1669
15703SOL     OW58762   0.298   2.958   7.889  0.4100  0.9915  0.0696
15703SOL    HW158763   0.289   3.033   7.824 -1.9108  1.1875  0.5729
15703SOL    HW258764   0.386   2.912   7.875  1.9646  3.8783 -0.1484
15704SOL     OW58765   1.068   3.153   5.099  0.0504  0.1293 -0.4670
15704SOL    HW158766   1.162   3.156   5.132  0.6273  1.9512 -2.2002
15704SOL    HW258767   1.066   3.113   5.007 -0.9314 -0.3337 -0.2543
15705SOL     OW58768   4.132   0.554   5.764  0.4823 -0.2103  0.5397
15705SOL    HW158769   4.210   0.555   5.826  0.1567 -1.1650  0.9816
15705SOL    HW258770   4.070   0.629   5.787  1.6908  1.0914 -0.3834
15706SOL     OW58771   0.694   4.391   4.064  0.3675  0.2331  0.4434
15706SOL    HW158772   0.658   4.366   3.974  0.7089  0.9032  0.1139
15706SOL    HW258773   0.785   4.351   4.075  0.1719 -0.1588  0.6441
15707SOL     OW58774   5.713   0.926   7.316  0.5271 -0.3382 -0.1325
15707SOL    HW158775   5.705   0.829   7.342  0.3728  0.4721  3.0906
15707SOL    HW258776   5.809   0.951   7.309  0.5683 -0.6559 -0.7156
15708SOL     OW58777   0.899   9.189   4.379  0.6831  0.1933  0.5496
15708SOL    HW158778   0.874   9.144   4.294  0.0609  0.5557  0.5365
15708SOL    HW258779   0.823   9.182   4.444  0.9992  0.2660  0.9314
15709SOL     OW58780   2.924   1.795   6.461 -0.3976 -0.1396  0.0148
15709SOL    HW158781   2.835   1.837   6.440 -0.5626 -0.6699 -0.3497
15709SOL    HW258782   2.994   1.837   6.403 -0.2529  0.9271  0.9528
15710SOL     OW58783   9.407   4.319   1.658  0.3932  0.5647  0.0252
15710SOL    HW158784   9.484   4.381   1.669  1.5142 -1.3584  3.8661
15710SOL    HW258785   9.322   4.366   1.684  0.9266  1.1878  0.6459
15711SOL     OW58786   1.779   0.757   2.475  0.1255  0.5575 -0.8062
15711SOL    HW158787   1.763   0.848   2.437  0.3668  1.4592  1.2098
15711SOL    HW258788   1.796   0.693   2.400 -1.1981  1.9197 -2.3110
15712SOL     OW58789   8.126   1.505   5.638 -0.2162  0.3442  0.1949
15712SOL    HW158790   8.109   1.425   5.696 -0.4012  0.0978 -0.1929
15712SOL    HW258791   8.194   1.564   5.681 -0.7843  0.4547  0.9333
15713SOL     OW58792   6.292   8.382   5.022 -0.0649 -1.3675 -0.4514
15713SOL    HW158793   6.382   8.385   5.066  0.1477  2.0741 -0.9307
15713SOL    HW258794   6.220   8.383   5.091  0.2659 -1.1825 -0.1116
15714SOL     OW58795   9.476   4.899   1.082 -0.3885 -0.0303  0.1120
15714SOL    HW158796   9.466   4.936   0.990 -1.9110 -0.8896 -0.0722
15714SOL    HW258797   9.558   4.842   1.086  1.9213  3.1871  0.3676
15715SOL     OW58798   9.571   3.943   5.060  0.5762  0.3070 -0.0142
15715SOL    HW158799   9.610   3.963   5.150 -0.6184  1.0654  0.3358
15715SOL    HW258800   9.476   3.913   5.070  0.7417 -0.5746 -0.9465
15716SOL     OW58801   6.093   8.908   4.478  0.4646 -0.3564 -0.7136
15716SOL    HW158802   5.993   8.913   4.474  0.5441  0.8475 -1.4424
15716SOL    HW258803   6.131   9.001   4.481  1.5705 -0.8064 -0.5396
15717SOL     OW58804   7.731   8.386   3.539 -0.1119  0.6229  0.1848
15717SOL    HW158805   7.632   8.392   3.554 -0.3468 -1.6434 -0.3542
15717SOL    HW258806   7.760   8.291   3.544  2.0890  1.2774  0.4721
15718SOL     OW58807   4.084   3.598   0.276  0.5343  0.3450 -0.1465
15718SOL    HW158808   4.140   3.579   0.356  0.5979  1.0639 -0.0146
15718SOL    HW258809   4.055   3.694   0.278  0.4109  0.3264 -0.9025
15719SOL     OW58810   0.207   5.674   6.595 -0.1105  0.0022 -0.4751
15719SOL    HW158811   0.218   5.646   6.500 -0.1629  0.0562 -0.4975
15719SOL    HW258812   0.291   5.656   6.645 -0.8568 -2.3028  0.0443
15720SOL     OW58813   7.814   4.784   6.583 -0.3018  0.2600  0.2538
15720SOL    HW158814   7.901   4.756   6.623 -1.0477 -2.2896  0.2145
15720SOL    HW258815   7.830   4.847   6.507  1.4811 -0.0252  0.3885
15721SOL     OW58816   1.187   3.666   6.527 -0.0023  0.4169 -0.5730
15721SOL    HW158817   1.188   3.569   6.551  0.9726  0.6769  0.4504
15721SOL    HW258818   1.097   3.704   6.544  0.2633  0.2432  1.2692
15722SOL     OW58819   3.343   3.555   2.859  0.4948  0.4573  0.1303
15722SOL    HW158820   3.366   3.516   2.948  0.9395  0.8422  0.1887
15722SOL    HW258821   3.414   3.620   2.832  0.2444  0.5164 -0.4001
15723SOL     OW58822   2.410   7.311   2.249  0.2926  0.0077 -0.3128
15723SOL    HW158823   2.434   7.392   2.304  0.5536 -0.3877  0.1610
15723SOL    HW258824   2.471   7.305   2.170  2.2449 -1.3579  1.2374
15724SOL     OW58825   9.661   3.979   4.276  0.0571  0.1901  0.1397
15724SOL    HW158826   9.758   4.006   4.274  0.4969 -1.1869  1.7138
15724SOL    HW258827   9.606   4.055   4.311  0.7736  0.4164  0.7814
15725SOL     OW58828   0.448   2.064   4.454 -0.1939  0.0649 -0.3168
15725SOL    HW158829   0.445   2.038   4.550  1.5979 -0.4456 -0.3813
15725SOL    HW258830   0.387   2.141   4.438 -1.9821 -1.0592  0.8308
15726SOL     OW58831   4.245   3.618   6.580 -0.2863 -0.3728  0.5598
15726SOL    HW158832   4.221   3.705   6.621  2.1365 -0.4213  2.2148
15726SOL    HW258833   4.198   3.544   6.628  1.9325 -0.3667  2.9071
15727SOL     OW58834   8.346   0.143   0.284 -0.4449  0.2001 -0.3123
15727SOL    HW158835   8.386   0.068   0.232 -0.4968  0.4310 -0.6889
15727SOL    HW258836   8.410   0.220   0.288 -0.2909  0.0468  0.2846
15728SOL     OW58837   2.468   0.841   1.898 -0.0454 -1.0796 -0.1522
15728SOL    HW158838   2.377   0.800   1.889 -1.6897  2.0367  1.2681
15728SOL    HW258839   2.492   0.887   1.812 -0.2716 -1.0462 -0.1978
15729SOL     OW58840   8.863   9.130   4.946  0.3259  0.1563 -0.0086
15729SOL    HW158841   8.918   9.076   4.882  0.5049 -2.3596  2.1681
15729SOL    HW258842   8.766   9.109   4.934  0.3763 -0.4868  0.6658
15730SOL     OW58843   5.196   6.381   3.057  0.2057  0.3801  0.1690
15730SOL    HW158844   5.145   6.338   2.981  1.1644 -0.1499 -0.1852
15730SOL    HW258845   5.263   6.445   3.020 -0.0755  0.9305  0.6225
15731SOL     OW58846   0.943   4.681  10.029  0.0423 -0.2162  0.3308
15731SOL    HW158847   0.929   4.780  10.040 -0.1600 -0.1142 -0.8181
15731SOL    HW258848   1.035   4.665   9.992 -0.4511 -0.3639 -0.8665
15732SOL     OW58849   9.645   8.132   2.140 -0.3939 -0.1546 -0.2367
15732SOL    HW158850   9.625   8.056   2.201  0.4830  0.1025  0.3821
15732SOL    HW258851   9.683   8.097   2.054 -1.6582 -0.5181 -0.6596
15733SOL     OW58852   8.232   6.684   3.496  0.0936 -0.1054  0.0378
15733SOL    HW158853   8.290   6.610   3.530  0.7997  2.1991  4.1041
15733SOL    HW258854   8.289   6.761   3.468 -0.7429 -0.3364 -2.4788
15734SOL     OW58855   6.902   6.613   1.976  0.2918  0.0385 -0.0990
15734SOL    HW158856   6.904   6.671   2.058 -0.0671  0.9634 -0.7385
15734SOL    HW258857   6.839   6.537   1.991  1.8412 -1.0367  1.2943
15735SOL     OW58858   7.114   7.383   2.673 -0.4955 -0.3258 -0.4915
15735SOL    HW158859   7.039   7.331   2.715 -0.1320 -0.8392 -0.4692
15735SOL    HW258860   7.076   7.462   2.625 -1.0295 -0.4337 -0.2610
15736SOL     OW58861   7.188   6.569   3.361  0.4793  0.0018  0.0240
15736SOL    HW158862   7.193   6.644   3.294 -0.6463 -1.4491 -1.7582
15736SOL    HW258863   7.103   6.576   3.413 -0.3884 -0.8898 -1.2393
15737SOL     OW58864   4.135   9.839   5.670  0.1956 -0.5032 -0.2054
15737SOL    HW158865   4.090   9.872   5.586 -2.2311  0.9055  1.5627
15737SOL    HW258866   4.217   9.893   5.687  0.3587 -0.3776 -1.3507
15738SOL     OW58867   2.997   7.714   2.811 -0.1110 -0.0989  0.3975
15738SOL    HW158868   2.960   7.807   2.813  0.1532  0.0868 -1.8325
15738SOL    HW258869   2.922   7.649   2.802 -0.2105 -0.0172  0.6411
15739SOL     OW58870   8.451   1.983   5.623  0.0015  0.1180  0.4682
15739SOL    HW158871   8.444   2.004   5.525  0.1874 -1.9367 -0.0073
15739SOL    HW258872   8.532   2.028   5.660 -0.0298  0.8621 -0.3332
15740SOL     OW58873   1.315   7.525   0.283  0.2752  0.8991 -0.0978
15740SOL    HW158874   1.299   7.604   0.224  1.3854 -1.0443 -3.1315
15740SOL    HW258875   1.409   7.527   0.318  0.2370  1.0424 -0.0047
15741SOL     OW58876   7.214   4.599   0.897  0.3847  0.4587 -0.7624
15741SOL    HW158877   7.186   4.557   0.983 -1.9498  1.1439 -1.1597
15741SOL    HW258878   7.299   4.649   0.911  0.9965 -0.9293  0.6998
15742SOL     OW58879   5.142   3.190   1.271 -0.2796  0.4250 -0.4719
15742SOL    HW158880   5.122   3.230   1.360  2.3687 -2.0861  1.3842
15742SOL    HW258881   5.072   3.122   1.248  0.5681 -1.0548  1.1626
15743SOL     OW58882   1.704   4.081   2.470 -0.7906  0.2117  0.1078
15743SOL    HW158883   1.789   4.049   2.511 -0.9561 -1.4124 -0.7704
15743SOL    HW258884   1.633   4.012   2.484 -1.4236  0.6475 -0.9650
15744SOL     OW58885   4.738   0.702   2.508  0.6431  0.0341  0.0368
15744SOL    HW158886   4.680   0.626   2.478 -0.4700  0.5506  0.8416
15744SOL    HW258887   4.722   0.781   2.449  3.1228 -0.8491 -1.9476
15745SOL     OW58888   7.564   0.936   2.804 -0.1544 -0.3282 -0.1361
15745SOL    HW158889   7.520   0.903   2.887 -1.5282 -2.6555 -1.7248
15745SOL    HW258890   7.663   0.939   2.818 -0.1458 -3.2088  0.7679
15746SOL     OW58891   6.266   8.279   6.405 -0.0200  0.5549  0.2239
15746SOL    HW158892   6.274   8.379   6.404 -1.4923  0.6857 -0.6164
15746SOL    HW258893   6.281   8.244   6.313  1.0736 -0.0610  0.6309
15747SOL     OW58894   1.002   5.848   7.068  0.0079 -0.1494 -0.1214
15747SOL    HW158895   0.940   5.769   7.072 -0.7882  0.5017  0.7702
15747SOL    HW258896   0.948   5.931   7.056  0.7852  0.3412 -0.2185
15748SOL     OW58897   9.110   3.287   1.564 -0.2802  0.1358 -0.5126
15748SOL    HW158898   9.123   3.251   1.472 -2.1102 -0.3466 -0.6071
15748SOL    HW258899   9.027   3.344   1.567  1.0309  2.0726  0.2976
15749SOL     OW58900   9.967   9.613   7.400  0.0942  0.0773  0.0082
15749SOL    HW158901   9.949   9.670   7.320  0.3703  1.9548  1.2493
15749SOL    HW258902  10.031   9.660   7.461 -0.3723 -1.1644  1.4933
15750SOL     OW58903   3.321   7.656   7.434 -0.4496  0.0464 -0.4132
15750SOL    HW158904   3.381   7.689   7.361  0.3294  0.6423  0.4799
15750SOL    HW258905   3.277   7.734   7.479  1.7622 -0.0160  2.0248
15751SOL     OW58906   3.320   2.138   4.478 -0.0784  0.0108  0.2419
15751SOL    HW158907   3.411   2.146   4.519 -0.0375 -1.6189  0.4977
15751SOL    HW258908   3.329   2.122   4.380 -0.1054  0.0913  0.2259
15752SOL     OW58909   3.027   2.007   7.613 -0.0595  0.3923 -0.5668
15752SOL    HW158910   2.983   1.923   7.644  1.4501 -0.0029  0.5367
15752SOL    HW258911   3.035   2.007   7.513 -1.2507 -0.1666 -0.6667
15753SOL     OW58912   7.188   7.919   5.685 -0.3934  0.5479  0.0376
15753SOL    HW158913   7.276   7.911   5.732 -0.1235  1.2161 -0.3514
15753SOL    HW258914   7.142   7.830   5.686  0.1593  0.2644  0.4885
15754SOL     OW58915   4.360   4.912   1.985  0.1570 -0.2606  0.0098
15754SOL    HW158916   4.378   4.969   1.904  0.5718  0.2508  0.4640
15754SOL    HW258917   4.343   4.818   1.956 -3.5950  0.6474 -1.0487
15755SOL     OW58918   7.196   7.217   4.004 -0.0163 -0.2340  0.0746
15755SOL    HW158919   7.172   7.295   4.062  0.0482  0.1423 -0.3989
15755SOL    HW258920   7.175   7.132   4.053 -0.0262  0.0761  0.6220
15756SOL     OW58921   1.756   7.677   7.216  0.1333 -0.0360  0.2954
15756SOL    HW158922   1.724   7.663   7.309  1.1191  0.3645  0.6999
15756SOL    HW258923   1.825   7.749   7.214  0.2551 -0.1643 -0.7135
15757SOL     OW58924   6.824   0.295   6.388 -0.0376 -0.1457  0.3264
15757SOL    HW158925   6.836   0.364   6.317  3.0519 -0.8910  0.0222
15757SOL    HW258926   6.899   0.302   6.455 -1.9665 -0.5242  2.5987
15758SOL     OW58927   8.567   9.357   3.980 -0.2343 -0.4244 -0.0811
15758SOL    HW158928   8.516   9.392   4.059 -0.8287  0.7628 -0.9863
15758SOL    HW258929   8.504   9.315   3.915  0.1556 -0.5840 -0.3566
15759SOL     OW58930   3.287   4.307   2.608  0.4463 -0.3467  0.4944
15759SOL    HW158931   3.252   4.363   2.683 -0.1427 -0.0103 -0.0295
15759SOL    HW258932   3.386   4.304   2.612  0.5783  2.0521 -0.4173
15760SOL     OW58933   2.685   6.891   4.341 -0.1242  0.0567 -0.7184
15760SOL    HW158934   2.646   6.957   4.406 -0.8979 -1.0699 -0.0087
15760SOL    HW258935   2.780   6.874   4.364 -1.1813 -2.5428  1.9814
15761SOL     OW58936   6.634   3.675   2.060 -0.8914 -0.3363  0.4588
15761SOL    HW158937   6.563   3.605   2.072 -0.2848 -1.0560 -0.0541
15761SOL    HW258938   6.720   3.630   2.038 -1.0302  0.6890 -2.3650
15762SOL     OW58939   4.307   2.905   4.111  0.0424  0.2321  0.0072
15762SOL    HW158940   4.402   2.910   4.141 -0.2660 -0.4570  1.1575
15762SOL    HW258941   4.255   2.847   4.175 -0.7976 -0.7062 -1.5034
15763SOL     OW58942   8.760   4.058   2.249 -0.1922 -0.3811 -0.2945
15763SOL    HW158943   8.713   4.054   2.337 -0.3312 -1.2194 -0.4064
15763SOL    HW258944   8.736   4.143   2.202 -1.0643 -0.4907 -0.0542
15764SOL     OW58945   2.863   3.667   1.490 -0.1145 -0.3256  0.3779
15764SOL    HW158946   2.811   3.738   1.539 -0.1475 -1.2029  1.6411
15764SOL    HW258947   2.908   3.607   1.557 -2.5381 -3.3471 -0.6218
15765SOL     OW58948   9.865   1.106   2.620 -0.0805 -0.2373 -0.2971
15765SOL    HW158949   9.787   1.053   2.585 -0.7748 -1.0337  2.3800
15765SOL    HW258950   9.849   1.203   2.603 -2.0704 -0.3185  0.9400
15766SOL     OW58951   9.120   9.754   1.038  0.5452  0.4912  0.1184
15766SOL    HW158952   9.220   9.755   1.031  0.5399  0.5383  0.0486
15766SOL    HW258953   9.093   9.727   1.130  0.6384  2.1121  0.6404
15767SOL     OW58954   9.594   6.386   3.945  0.2081 -0.6112 -0.0715
15767SOL    HW158955   9.683   6.369   3.987  1.2548  3.2146 -0.5961
15767SOL    HW258956   9.523   6.388   4.015  0.7662 -1.9595  0.5427
15768SOL     OW58957   2.849   5.179   1.140 -0.1972 -1.1709 -0.2610
15768SOL    HW158958   2.825   5.085   1.118 -0.6906 -1.2325  0.5021
15768SOL    HW258959   2.932   5.181   1.196 -0.5164 -1.2020  0.2245
15769SOL     OW58960   1.361   2.543   1.684 -0.6915 -0.4778 -0.0332
15769SOL    HW158961   1.358   2.612   1.756  0.0367  0.6638 -1.0826
15769SOL    HW258962   1.283   2.554   1.623  0.8474  1.2198 -1.7950
15770SOL     OW58963   7.126   6.440   3.068  0.1565 -0.1533 -0.3415
15770SOL    HW158964   7.220   6.447   3.102 -0.5884  0.1323  1.7214
15770SOL    HW258965   7.117   6.493   2.984  1.9237 -0.4548 -0.7377
15771SOL     OW58966   1.020   6.923   5.345  0.0176  0.6992  0.4766
15771SOL    HW158967   1.007   7.021   5.327  0.3097  0.8187  0.9021
15771SOL    HW258968   0.966   6.896   5.424  2.3800  1.2353  2.3537
15772SOL     OW58969   1.255   0.975   5.250 -0.4085 -0.3672  0.3926
15772SOL    HW158970   1.162   0.988   5.214 -0.0841  0.6630 -0.0882
15772SOL    HW258971   1.299   1.064   5.263 -0.1115 -0.7664  2.3068
15773SOL     OW58972   5.919   6.039   0.085 -1.0295  0.3344  1.1738
15773SOL    HW158973   5.875   6.027  -0.003 -0.4855  2.1553  0.6247
15773SOL    HW258974   5.937   5.950   0.127 -2.5215 -0.4857  0.0699
15774SOL     OW58975   0.907   9.649   5.971 -0.4772  0.0844  0.2316
15774SOL    HW158976   0.976   9.719   5.988  1.4915 -2.1858  2.1134
15774SOL    HW258977   0.903   9.629   5.873  1.1981  0.6218  0.0338
15775SOL     OW58978   0.628   0.970   6.235  0.0204  0.2658  0.0674
15775SOL    HW158979   0.612   0.901   6.164  2.1013  0.2611 -0.4164
15775SOL    HW258980   0.644   0.924   6.323  0.9535  0.1302 -0.1665
15776SOL     OW58981   3.013   9.452   5.123  0.4133  0.2841 -0.1071
15776SOL    HW158982   3.090   9.407   5.170 -1.0737  0.4702  2.6361
15776SOL    HW258983   2.981   9.393   5.049  1.8688 -0.7446  0.0405
15777SOL     OW58984   8.887   4.746   5.450 -0.0690  0.3145 -0.2518
15777SOL    HW158985   8.953   4.783   5.384  0.7708 -0.6553  0.0277
15777SOL    HW258986   8.873   4.812   5.524 -0.4345  1.0886 -1.0011
15778SOL     OW58987   2.842   0.813   6.503  0.3164 -0.3982  0.5752
15778SOL    HW158988   2.812   0.884   6.566  1.0316  0.7165 -0.3164
15778SOL    HW258989   2.797   0.825   6.415  1.4955 -0.1902 -0.0092
15779SOL     OW58990   2.398   5.630   4.145  0.6360  0.0971  0.5551
15779SOL    HW158991   2.319   5.690   4.129  2.1489  1.6918 -1.2602
15779SOL    HW258992   2.371   5.535   4.132 -1.0307  0.5996  0.1866
15780SOL     OW58993   6.203   0.865   4.192  0.1515  0.8309  0.1727
15780SOL    HW158994   6.179   0.887   4.097  0.8336 -0.6062 -0.3454
15780SOL    HW258995   6.170   0.774   4.214  0.3352  1.0146  1.1980
15781SOL     OW58996   1.471   8.841   6.534 -0.0527 -0.3870 -0.1228
15781SOL    HW158997   1.454   8.896   6.453  1.3735 -1.1568 -0.9606
15781SOL    HW258998   1.535   8.767   6.512  0.2161 -0.7096  1.6464
15782SOL     OW58999   7.395   8.094   4.503 -0.0583  0.1030 -0.7989
15782SOL    HW159000   7.373   8.144   4.419 -1.3191 -1.3902 -1.3800
15782SOL    HW259001   7.463   8.024   4.483  2.0279  1.8256  0.1019
15783SOL     OW59002   2.933   7.996   6.459  0.3786  0.2126  0.8235
15783SOL    HW159003   2.873   8.036   6.528  1.2736  1.3460  0.9469
15783SOL    HW259004   2.948   7.899   6.481 -0.3876  0.2420  1.4946
15784SOL     OW59005   2.559   9.448   3.004 -0.3289 -0.0859  0.2438
15784SOL    HW159006   2.522   9.421   3.092 -0.6570  0.0362  0.1451
15784SOL    HW259007   2.648   9.492   3.017 -0.6538  0.4907  0.5718
15785SOL     OW59008   1.178   1.628   7.033 -0.1730  0.0717 -0.2984
15785SOL    HW159009   1.181   1.607   7.131  0.1156  1.1885 -0.0587
15785SOL    HW259010   1.236   1.563   6.984  0.7485  0.3323  0.4264
15786SOL     OW59011   5.204   8.513   4.984 -0.4009 -0.4431  0.4861
15786SOL    HW159012   5.113   8.506   5.025 -0.8933  0.2261 -0.4654
15786SOL    HW259013   5.195   8.519   4.884  0.6390  0.4682  0.4368
15787SOL     OW59014   8.801   0.916   5.670 -0.6141 -0.1074  0.1940
15787SOL    HW159015   8.712   0.920   5.717 -0.5474  0.3675  0.2900
15787SOL    HW259016   8.866   0.863   5.724 -0.8933 -0.6198  0.0313
15788SOL     OW59017   3.046   2.041   0.353  0.5621 -0.2361  0.5520
15788SOL    HW159018   3.140   2.051   0.386  0.4452  2.5530  0.1761
15788SOL    HW259019   3.040   1.962   0.293  2.1874 -1.6842  2.2240
15789SOL     OW59020   4.702   3.536   1.414 -0.2443 -0.2374  0.3820
15789SOL    HW159021   4.792   3.512   1.450  0.5401 -0.3255 -1.5874
15789SOL    HW259022   4.688   3.635   1.425  0.7100  0.0240 -0.6054
15790SOL     OW59023   3.713   1.468   6.679  0.0013  0.5833  0.4108
15790SOL    HW159024   3.728   1.479   6.581 -1.0708  1.0697  0.2997
15790SOL    HW259025   3.615   1.468   6.698  0.2362  1.9693  1.6596
15791SOL     OW59026   4.133   2.898   3.872 -0.3580 -0.1361  0.4302
15791SOL    HW159027   4.048   2.951   3.878 -0.1056  0.3072  0.1606
15791SOL    HW259028   4.180   2.899   3.960 -1.2869 -1.4965  0.9597
15792SOL     OW59029   3.915   4.414   1.314  0.3479  0.0425  0.1753
15792SOL    HW159030   3.817   4.405   1.295  0.1112  2.2701  0.2571
15792SOL    HW259031   3.966   4.354   1.252 -0.9386  0.5634 -1.4279
15793SOL     OW59032   3.490   3.977   1.271 -0.4572  0.5330 -0.3522
15793SOL    HW159033   3.507   3.918   1.192 -1.1499  0.1079 -0.1901
15793SOL    HW259034   3.566   3.968   1.336 -0.9563 -0.8446  0.0616
15794SOL     OW59035   7.456   4.359   0.652 -0.6281  0.3857  0.5290
15794SOL    HW159036   7.358   4.338   0.643 -0.2605 -1.2440  0.1313
15794SOL    HW259037   7.468   4.440   0.709 -2.2064  0.5699  0.6180
15795SOL     OW59038   7.466   0.575   2.912 -0.4459  0.1473  0.1373
15795SOL    HW159039   7.416   0.641   2.856  0.4112  0.2454 -0.5277
15795SOL    HW259040   7.476   0.489   2.862 -0.7683 -0.1872  0.6415
15796SOL     OW59041   6.199   7.279   5.925 -0.0911 -0.5155  0.2335
15796SOL    HW159042   6.183   7.309   5.831 -0.2768  1.5183  0.9021
15796SOL    HW259043   6.265   7.339   5.969  0.9004 -2.1579  1.0513
15797SOL     OW59044   9.116   6.761   7.609 -0.0173 -0.0342 -0.4215
15797SOL    HW159045   9.198   6.792   7.561  1.1096 -1.6887  0.3706
15797SOL    HW259046   9.034   6.793   7.561  1.0884  1.1963 -1.5123
15798SOL     OW59047   7.612   1.663   5.237 -0.0323  0.1016  0.6092
15798SOL    HW159048   7.522   1.635   5.272  0.0793 -0.5949  0.3550
15798SOL    HW259049   7.677   1.588   5.250  0.2046  0.1393 -0.3331
15799SOL     OW59050   1.925   2.849   0.967 -0.4279 -0.1468 -0.5332
15799SOL    HW159051   2.017   2.882   0.945 -0.2971  0.0069  0.2302
15799SOL    HW259052   1.926   2.805   1.057 -0.9275 -0.8920 -0.8855
15800SOL     OW59053   8.992   9.827   4.853 -1.1142 -0.5030 -0.0707
15800SOL    HW159054   9.047   9.897   4.900 -2.3675  0.6399 -0.2713
15800SOL    HW259055   9.030   9.812   4.761 -0.7097 -0.2447  0.0497
15801SOL     OW59056   9.611   9.429   3.374 -0.0934 -0.3665 -0.2987
15801SOL    HW159057   9.514   9.435   3.354 -0.1881  0.0545  0.2661
15801SOL    HW259058   9.661   9.493   3.316 -0.2470  0.0421  0.0147
15802SOL     OW59059   6.293   0.503   2.055  0.4817  0.4556  0.4640
15802SOL    HW159060   6.206   0.507   2.103  0.0364  0.8421 -0.3793
15802SOL    HW259061   6.283   0.453   1.969  1.3897 -0.6634  0.9864
15803SOL     OW59062   2.075   4.965   4.953  0.4581 -0.3599 -0.2720
15803SOL    HW159063   2.157   4.917   4.920  2.2305  2.0334  0.4796
15803SOL    HW259064   2.031   5.012   4.876  0.2459 -0.9843 -0.5354
15804SOL     OW59065   1.283   3.953   6.801  0.1875 -0.0577 -0.5802
15804SOL    HW159066   1.382   3.962   6.811  0.2273  1.4168 -1.9815
15804SOL    HW259067   1.239   4.039   6.825 -0.5060  0.1822 -2.5543
15805SOL     OW59068   5.037   3.811   5.930 -0.4832 -0.3225  0.0493
15805SOL    HW159069   5.023   3.857   5.843 -2.4150  0.5210  0.7869
15805SOL    HW259070   5.049   3.880   6.002  1.5024 -1.0054  0.4185
15806SOL     OW59071   4.913   9.235   3.434 -0.5543  0.5874  0.2216
15806SOL    HW159072   4.866   9.177   3.367 -1.7858  0.5575  1.0710
15806SOL    HW259073   4.955   9.177   3.504  1.7547  0.5608 -1.1354
15807SOL     OW59074   2.664   7.148   6.424  0.1354 -0.4143  0.3781
15807SOL    HW159075   2.640   7.053   6.402  4.2994 -1.5286  0.2267
15807SOL    HW259076   2.667   7.202   6.340 -0.0348 -0.7150  0.1773
15808SOL     OW59077   1.693   1.257   6.093  0.5594 -0.0280 -0.2667
15808SOL    HW159078   1.618   1.192   6.103 -0.3218  1.1945  1.3092
15808SOL    HW259079   1.769   1.213   6.045  0.0889 -2.2874  1.0011
15809SOL     OW59080   7.601   0.733   4.721  0.1356 -0.2661 -0.1148
15809SOL    HW159081   7.612   0.829   4.695 -1.2345 -0.1718 -0.4072
15809SOL    HW259082   7.515   0.698   4.683 -0.4267 -0.9874  1.7427
15810SOL     OW59083   6.380   9.547   3.583  0.0420  0.1744 -0.3752
15810SOL    HW159084   6.449   9.598   3.634  0.0426  0.5665 -0.7630
15810SOL    HW259085   6.312   9.511   3.647  0.1149  0.5508 -0.0796
15811SOL     OW59086   6.949   1.816   4.234 -0.5088  0.1393  0.5890
15811SOL    HW159087   6.965   1.837   4.330  3.3563  0.4165 -0.0392
15811SOL    HW259088   6.979   1.723   4.214 -1.7213 -0.0868 -0.2850
15812SOL     OW59089   7.727   0.649   2.996 -0.2827 -0.0645  0.3519
15812SOL    HW159090   7.628   0.637   2.985  0.0040 -0.8142 -1.6127
15812SOL    HW259091   7.763   0.580   3.058 -1.2124  1.1772  2.3234
15813SOL     OW59092   5.226   1.009   6.216  0.0257  0.3664  0.1835
15813SOL    HW159093   5.318   1.003   6.178 -0.1796 -0.7337 -0.1515
15813SOL    HW259094   5.166   1.052   6.148  0.2709  1.0301  0.3801
15814SOL     OW59095   5.894   0.952   6.459  0.6388 -0.0913 -0.2716
15814SOL    HW159096   5.974   1.008   6.440  0.1029  0.7310 -0.1057
15814SOL    HW259097   5.854   0.921   6.373  0.1151  0.9370 -0.3955
15815SOL     OW59098   8.213   8.529   5.318 -0.4165  0.1845 -0.0738
15815SOL    HW159099   8.293   8.501   5.371 -1.1015  0.0217  0.8943
15815SOL    HW259100   8.187   8.622   5.342 -1.4864 -0.3266  0.8377
15816SOL     OW59101   8.127   3.568   4.893 -0.3320  0.4171 -0.5930
15816SOL    HW159102   8.132   3.476   4.853  1.7595  0.5979 -0.8033
15816SOL    HW259103   8.183   3.572   4.976 -1.9352  0.9918  0.4766
15817SOL     OW59104   9.534   3.617   5.130 -0.0510 -0.5653  0.4190
15817SOL    HW159105   9.562   3.527   5.163  1.0156 -0.9928 -1.5714
15817SOL    HW259106   9.612   3.663   5.088 -0.6942  1.1281  1.0676
15818SOL     OW59107   8.006   2.457   0.686  0.2152  0.8002  0.1188
15818SOL    HW159108   8.014   2.481   0.589 -2.2730  0.8127 -0.1231
15818SOL    HW259109   7.957   2.530   0.734  1.0175  0.5673  1.2923
15819SOL     OW59110   4.253   8.482   0.299 -0.1415  0.1257  0.6808
15819SOL    HW159111   4.177   8.433   0.342 -0.2363  1.5709  2.2239
15819SOL    HW259112   4.257   8.576   0.335  1.4174  0.5478 -0.5342
15820SOL     OW59113   4.578   7.523   4.591  0.2758 -0.0443 -0.6345
15820SOL    HW159114   4.613   7.616   4.596 -0.1296  0.1868 -2.0414
15820SOL    HW259115   4.654   7.459   4.577  0.6417 -0.0211  1.1053
15821SOL     OW59116   7.392   5.097   3.196  0.0087  0.1594  0.3222
15821SOL    HW159117   7.410   5.188   3.158  0.6996  0.3628  1.1049
15821SOL    HW259118   7.329   5.047   3.137 -1.9972  1.9131  0.9519
15822SOL     OW59119   4.015   5.607   1.714  0.2285 -0.9009  0.4591
15822SOL    HW159120   4.053   5.577   1.626 -0.2679 -1.8626  0.5640
15822SOL    HW259121   3.928   5.654   1.697  0.7454  0.0109  0.3357
15823SOL     OW59122   8.399   2.430   6.970  0.2030  0.2928 -0.5450
15823SOL    HW159123   8.304   2.419   6.940  0.1775 -2.5767  0.4174
15823SOL    HW259124   8.458   2.375   6.911  0.9184 -0.2578  0.6716
15824SOL     OW59125   8.606   3.445   6.291  0.0123  0.5855 -0.2421
15824SOL    HW159126   8.556   3.367   6.328  0.3473  0.1447 -0.7154
15824SOL    HW259127   8.608   3.439   6.191 -0.2413  1.3708 -0.2940
15825SOL     OW59128   2.146   6.609   4.639  0.2735  0.6174 -0.5415
15825SOL    HW159129   2.193   6.521   4.638 -2.0150 -0.6323 -0.1412
15825SOL    HW259130   2.188   6.668   4.708  1.1178 -0.5587 -0.0415
15826SOL     OW59131   7.088   0.324   1.542  0.0715 -0.4273 -0.3504
15826SOL    HW159132   7.109   0.374   1.458 -0.8632 -0.4465 -0.6035
15826SOL    HW259133   7.090   0.386   1.620  1.2552 -0.4706 -0.3426
15827SOL     OW59134   5.503   0.342   5.304 -0.5619  0.2414 -0.0364
15827SOL    HW159135   5.459   0.320   5.391 -1.4079  0.0619 -0.5050
15827SOL    HW259136   5.493   0.440   5.286  1.1799  0.6259  0.9217
15828SOL     OW59137   1.280   1.425   0.196  0.4413 -0.1992  0.3307
15828SOL    HW159138   1.255   1.396   0.103 -3.0804  0.1545  1.0793
15828SOL    HW259139   1.340   1.356   0.238 -0.7962 -2.1156 -0.9567
15829SOL     OW59140   8.747   0.133   5.187 -0.2871 -0.4154  0.1816
15829SOL    HW159141   8.791   0.173   5.107 -1.4343 -0.0722 -0.2894
15829SOL    HW259142   8.754   0.196   5.264  0.7519 -0.7132  0.3347
15830SOL     OW59143   2.670   6.093   5.183 -0.2953 -0.5688  0.2724
15830SOL    HW159144   2.740   6.140   5.236  0.4978 -0.7092 -0.6313
15830SOL    HW259145   2.714   6.035   5.114 -1.3015  0.8143 -1.5691
15831SOL     OW59146   2.371   1.226   1.758  0.3167  0.2287  0.5649
15831SOL    HW159147   2.287   1.172   1.749  1.1870 -0.7547 -2.0574
15831SOL    HW259148   2.360   1.313   1.710  0.6294  0.2976  0.6195
15832SOL     OW59149   5.594   2.159   6.587  0.2022 -0.3593 -0.0293
15832SOL    HW159150   5.654   2.090   6.548 -0.5145 -0.3983 -1.0742
15832SOL    HW259151   5.503   2.119   6.602 -0.1509  0.2919 -0.4181
15833SOL     OW59152   7.642   0.394   5.300 -0.0113  0.4521  0.1449
15833SOL    HW159153   7.711   0.359   5.364  0.1931 -0.3588 -0.5074
15833SOL    HW259154   7.553   0.396   5.345  0.3867  1.2776  0.9190
15834SOL     OW59155   3.116   1.523   0.059 -0.0129  0.0078 -0.4223
15834SOL    HW159156   3.123   1.610   0.010  0.2173  1.5062  2.1322
15834SOL    HW259157   3.208   1.486   0.076  0.0254  0.5385  0.5968
15835SOL     OW59158   1.874   2.174   7.565  0.0747  0.4967  0.1231
15835SOL    HW159159   1.829   2.257   7.598  0.2770  1.0685 -1.0192
15835SOL    HW259160   1.927   2.195   7.484  1.1564 -0.5000  0.5585
15836SOL     OW59161   4.344   9.321   4.180  0.4075 -0.6924  0.0591
15836SOL    HW159162   4.393   9.407   4.169 -0.1958 -0.3046  0.3478
15836SOL    HW259163   4.270   9.316   4.112  0.0402 -0.6905  0.4547
15837SOL     OW59164   7.637   6.392   7.508 -0.2075  0.2075 -0.0649
15837SOL    HW159165   7.593   6.318   7.559  0.2270  0.2107  0.3153
15837SOL    HW259166   7.715   6.426   7.560 -0.0384  0.5206 -0.5255
15838SOL     OW59167   7.703   8.801   5.073  0.0685 -0.6591 -0.1991
15838SOL    HW159168   7.762   8.728   5.105 -0.3278 -1.2492 -0.8006
15838SOL    HW259169   7.631   8.818   5.141 -0.4386 -1.5253 -0.5061
15839SOL     OW59170   9.306   7.800   1.832 -0.0701 -0.1071 -0.2656
15839SOL    HW159171   9.277   7.850   1.751 -1.6195  0.7942  0.8232
15839SOL    HW259172   9.231   7.741   1.864  0.7148 -0.8788  0.1887
15840SOL     OW59173   8.765   3.012   0.353 -0.1802 -0.1396  0.8756
15840SOL    HW159174   8.781   3.068   0.434 -0.7510  1.0134  0.1904
15840SOL    HW259175   8.835   2.940   0.348  0.7859  0.7449  1.5367
15841SOL     OW59176   9.806   8.538   5.148 -0.5865 -0.5520  0.0538
15841SOL    HW159177   9.736   8.605   5.174 -0.8937 -0.1146 -1.7938
15841SOL    HW259178   9.778   8.447   5.177 -1.8485 -0.3473 -0.4900
15842SOL     OW59179   8.852   2.817   0.769 -0.2855 -0.0178 -0.7629
15842SOL    HW159180   8.861   2.719   0.787  1.9426 -0.4476 -3.8576
15842SOL    HW259181   8.757   2.838   0.746 -0.2438 -2.0200 -2.9366
15843SOL     OW59182   7.178   9.233   6.096  0.3150  0.4635 -0.3748
15843SOL    HW159183   7.192   9.236   6.195 -2.8113 -1.4169  0.2219
15843SOL    HW259184   7.263   9.208   6.050  1.5682  0.4165  1.9156
15844SOL     OW59185   7.249   6.835   7.197 -0.4842  0.3493  0.1702
15844SOL    HW159186   7.282   6.880   7.280 -0.8616  1.5999 -0.3477
15844SOL    HW259187   7.196   6.900   7.142 -1.0474 -0.7314 -0.5916
15845SOL     OW59188   1.488   1.584   7.314  0.5341 -0.0086  0.0082
15845SOL    HW159189   1.483   1.683   7.325 -0.1047 -0.2134  1.7108
15845SOL    HW259190   1.396   1.545   7.313  0.8385 -0.7902  1.4949
15846SOL     OW59191   5.806   2.039   5.439 -0.0716  0.0343  0.1937
15846SOL    HW159192   5.828   1.945   5.463 -1.0751  0.0793  1.3218
15846SOL    HW259193   5.885   2.098   5.455 -0.1762 -0.2307  1.7316
15847SOL     OW59194   6.996   1.807   6.351  0.2917  0.4072 -0.3483
15847SOL    HW159195   6.958   1.887   6.398 -0.9262 -0.8913  0.9412
15847SOL    HW259196   7.081   1.833   6.304  0.8523  2.0359  1.4961
15848SOL     OW59197   4.445   0.617   4.572  0.2204  0.0736 -0.0412
15848SOL    HW159198   4.428   0.586   4.478 -0.2695  0.8883 -0.2234
15848SOL    HW259199   4.422   0.714   4.580  1.1900  0.2511  0.6826
15849SOL     OW59200   5.423   0.073   4.911 -0.3144 -0.3597  0.4472
15849SOL    HW159201   5.341   0.130   4.901 -0.1483 -0.0688  0.7296
15849SOL    HW259202   5.467   0.093   4.999 -0.5789 -1.3495  0.8039
15850SOL     OW59203   2.445   3.552   7.841  0.0305  0.7695 -0.3314
15850SOL    HW159204   2.435   3.638   7.790 -0.2359 -0.3378 -2.1692
15850SOL    HW259205   2.436   3.475   7.779 -0.1109 -0.6193  1.3780
15851SOL     OW59206   9.652   2.063   6.507 -0.1616 -0.2482 -0.1961
15851SOL    HW159207   9.709   1.983   6.490  0.1250  0.2673 -1.7019
15851SOL    HW259208   9.669   2.097   6.600 -0.7929 -2.3301  0.6975
15852SOL     OW59209   8.795   9.797   1.152  0.2880 -0.5906  0.1366
15852SOL    HW159210   8.799   9.791   1.052 -0.1578 -0.1038  0.0872
15852SOL    HW259211   8.871   9.746   1.192  0.3803 -0.9126 -0.4478
15853SOL     OW59212   2.594   0.090   0.624  0.8154  0.1600  0.3871
15853SOL    HW159213   2.671   0.083   0.561  0.0187 -1.6037 -0.4182
15853SOL    HW259214   2.509   0.068   0.575  0.0522 -0.0459  1.7927
15854SOL     OW59215   5.949   1.512   6.179  0.0882  0.5035 -0.6298
15854SOL    HW159216   6.019   1.582   6.195  0.7647 -0.6938  1.7769
15854SOL    HW259217   5.949   1.487   6.082  2.4192  1.1110 -0.8074
15855SOL     OW59218   9.418   4.321   7.352  0.1979  0.2627  0.2571
15855SOL    HW159219   9.381   4.332   7.260  1.0994  1.3528  0.0195
15855SOL    HW259220   9.343   4.301   7.416 -0.8672  2.7164 -0.1752
15856SOL     OW59221   9.196   7.086   1.053 -0.0314 -0.4203 -1.2382
15856SOL    HW159222   9.295   7.080   1.049 -0.0584 -0.1192 -2.5148
15856SOL    HW259223   9.169   7.176   1.087  0.1251  0.8128 -4.1659
15857SOL     OW59224   7.389   4.282   2.852  0.4020 -0.0244 -0.2849
15857SOL    HW159225   7.466   4.261   2.912 -0.2406  0.7513  0.8278
15857SOL    HW259226   7.397   4.229   2.768  1.0465 -1.5173  0.6898
15858SOL     OW59227   2.745   0.449   5.660 -0.3258 -0.4142 -0.0994
15858SOL    HW159228   2.733   0.351   5.643 -1.4023 -0.7693  2.3771
15858SOL    HW259229   2.657   0.496   5.652  0.3187  0.5111 -2.0366
15859SOL     OW59230   0.338   6.246   1.387  0.2752 -0.2148 -0.1209
15859SOL    HW159231   0.359   6.215   1.294  0.3208 -1.5515  0.3351
15859SOL    HW259232   0.286   6.176   1.435  2.9082 -0.8444  1.9047
15860SOL     OW59233   1.463   9.094   1.147  0.0332  0.1519 -0.2804
15860SOL    HW159234   1.414   9.057   1.225 -0.9669  2.0750  0.0440
15860SOL    HW259235   1.520   9.023   1.106 -1.5677 -1.6208  0.4966
15861SOL     OW59236   2.154   9.489   6.712 -0.7104  0.1070  1.0462
15861SOL    HW159237   2.117   9.426   6.644  1.0216  1.9603 -1.7105
15861SOL    HW259238   2.127   9.583   6.690  1.7944  0.9963  1.5542
15862SOL     OW59239   0.331   2.122   2.475 -0.0041  0.3282  0.6488
15862SOL    HW159240   0.317   2.027   2.448  0.4811  0.2422  0.6897
15862SOL    HW259241   0.402   2.126   2.545  0.3723  0.7729  0.2442
15863SOL     OW59242   6.750   8.658   3.043  0.1464 -0.1702 -0.1943
15863SOL    HW159243   6.806   8.635   2.964 -0.2748  0.1861 -0.5949
15863SOL    HW259244   6.739   8.757   3.048 -1.2582 -0.3017 -0.6681
15864SOL     OW59245   0.225   5.411   4.142  0.1269 -0.1379  0.2637
15864SOL    HW159246   0.281   5.344   4.191  0.1111  0.9294  1.7807
15864SOL    HW259247   0.158   5.363   4.086 -0.1607 -1.4084  1.6429
15865SOL     OW59248   4.152   6.139   3.671 -0.4415  0.5724  0.8717
15865SOL    HW159249   4.152   6.182   3.581 -0.8793 -0.5018  0.3489
15865SOL    HW259250   4.246   6.112   3.695 -0.4076  0.3180  0.4646
15866SOL     OW59251   3.997   0.356   0.803 -0.1958  0.4861 -0.4679
15866SOL    HW159252   3.987   0.450   0.834 -0.6644  0.1248  0.5010
15866SOL    HW259253   4.079   0.316   0.844  0.8315  0.9310 -2.0567
15867SOL     OW59254   0.933   2.247   3.981 -0.0635 -0.2494 -0.1997
15867SOL    HW159255   0.857   2.277   4.039  0.2185  1.4828 -0.7034
15867SOL    HW259256   0.975   2.165   4.021 -1.3083 -0.4107  0.8126
15868SOL     OW59257   3.094   3.890   2.732 -0.7004  0.1527  0.4276
15868SOL    HW159258   3.067   3.970   2.678  0.9014 -0.5032 -1.3940
15868SOL    HW259259   3.155   3.919   2.806 -1.5612  0.8325  0.8836
15869SOL     OW59260   8.648   1.140   4.452 -0.0976  0.6118 -0.0251
15869SOL    HW159261   8.680   1.047   4.437  1.4612  1.0861  0.3004
15869SOL    HW259262   8.687   1.200   4.382 -1.4630  0.9550 -0.5153
15870SOL     OW59263   2.937   1.727   5.191  0.1881  0.1861 -0.3828
15870SOL    HW159264   2.924   1.664   5.268  0.5722  0.0424 -0.4348
15870SOL    HW259265   2.897   1.688   5.109  0.5933 -0.0744 -0.4560
15871SOL     OW59266   9.158   1.208   5.414  0.0027  0.3053 -0.0872
15871SOL    HW159267   9.083   1.251   5.363  0.9732  0.2979 -1.5455
15871SOL    HW259268   9.121   1.137   5.474 -1.2697  1.0162 -0.0225
15872SOL     OW59269   2.880   0.549   7.263  1.0482 -0.0391  0.0474
15872SOL    HW159270   2.820   0.535   7.342 -0.8586 -0.3768 -1.4095
15872SOL    HW259271   2.906   0.461   7.224 -0.3476  0.1522 -1.3735
15873SOL     OW59272   2.914   2.911   5.183  0.8542 -0.1836  0.4056
15873SOL    HW159273   2.882   3.005   5.172  2.2695  0.8388  4.1605
15873SOL    HW259274   2.955   2.879   5.097 -0.7237  2.1872 -1.2627
15874SOL     OW59275   6.395   2.967   2.187 -0.6885 -0.2644 -0.1733
15874SOL    HW159276   6.459   3.043   2.182  0.1366 -1.0035 -0.9677
15874SOL    HW259277   6.381   2.929   2.095 -0.3971 -1.6530  0.3492
15875SOL     OW59278   6.878   9.213   7.650 -0.5581 -0.6021  0.0354
15875SOL    HW159279   6.887   9.303   7.607  0.9174  0.2587  2.0709
15875SOL    HW259280   6.961   9.160   7.633 -0.7510 -0.9688  0.2325
15876SOL     OW59281   5.980   0.255   3.873 -0.0061  0.8294 -0.3678
15876SOL    HW159282   5.927   0.215   3.948 -0.6119  0.1025 -1.1700
15876SOL    HW259283   6.002   0.350   3.894 -0.2755  0.6654  0.6740
15877SOL     OW59284   3.505   6.453   3.124 -0.1785  0.2539 -0.1961
15877SOL    HW159285   3.537   6.388   3.192 -1.3026 -1.0035 -0.8448
15877SOL    HW259286   3.549   6.542   3.139  0.5108 -0.3401  1.3927
15878SOL     OW59287   6.618   5.228   0.291 -0.1353  0.2257  0.0322
15878SOL    HW159288   6.569   5.305   0.331 -0.9937 -0.4299  0.2384
15878SOL    HW259289   6.580   5.142   0.325  1.9479 -0.2857  1.1843
15879SOL     OW59290   1.835   6.007   5.183  0.1359 -0.3081  0.3948
15879SOL    HW159291   1.820   6.090   5.236 -0.1932  0.7871 -1.3454
15879SOL    HW259292   1.875   5.936   5.241 -2.3018  0.1002  2.6213
15880SOL     OW59293   1.947   9.693   5.770  0.3789 -0.6057 -0.6504
15880SOL    HW159294   1.995   9.610   5.743  0.1713 -1.2827  0.9727
15880SOL    HW259295   2.013   9.759   5.806  0.1499 -1.4995  1.4905
15881SOL     OW59296   0.672   8.771   1.996  0.3221  0.3013  0.2159
15881SOL    HW159297   0.650   8.849   2.054  1.1189  0.4099  0.3706
15881SOL    HW259298   0.715   8.699   2.051  0.0531 -0.0491 -0.0257
15882SOL     OW59299   7.352   0.401   4.975  0.1382  0.0335  0.1590
15882SOL    HW159300   7.385   0.431   4.886 -1.6031  1.3775 -0.0784
15882SOL    HW259301   7.426   0.360   5.027  1.5855  0.8808 -1.2137
15883SOL     OW59302   1.234   0.501   7.364 -0.4055  0.1309 -0.6507
15883SOL    HW159303   1.229   0.584   7.419  0.5739 -0.9112  1.0771
15883SOL    HW259304   1.162   0.438   7.393  1.0580 -1.0380  0.5450
15884SOL     OW59305   0.343   7.229   4.162 -0.1880 -0.5997 -0.7151
15884SOL    HW159306   0.355   7.169   4.241 -2.2156  0.1950  0.2373
15884SOL    HW259307   0.401   7.310   4.173 -1.0856 -0.0865  0.3970
15885SOL     OW59308   2.831   0.810   7.157 -0.0523  0.6990  0.4407
15885SOL    HW159309   2.826   0.874   7.234  0.6902 -0.2497  1.2862
15885SOL    HW259310   2.846   0.717   7.191 -0.2574  0.1873 -0.8248
15886SOL     OW59311   7.711   5.122   3.408 -0.4773  1.0785  0.2287
15886SOL    HW159312   7.611   5.118   3.410 -0.4432  0.4874  1.3585
15886SOL    HW259313   7.745   5.169   3.490  0.2100 -0.0866  0.6402
15887SOL     OW59314   6.486   1.437   6.326  0.0598  0.4477  0.6911
15887SOL    HW159315   6.534   1.403   6.245  1.8271 -0.2844  2.0102
15887SOL    HW259316   6.547   1.434   6.405 -1.9029  0.2727  2.2631
15888SOL     OW59317   7.041   1.700   5.943 -0.8320  0.7256  0.2212
15888SOL    HW159318   7.090   1.707   5.856  0.7279 -0.2628  1.0057
15888SOL    HW259319   7.038   1.790   5.987  0.3341  0.7904  0.1785
15889SOL     OW59320   7.297   0.139   1.477  0.5111  0.2060  0.0615
15889SOL    HW159321   7.203   0.154   1.508 -0.3659  0.2328 -2.4849
15889SOL    HW259322   7.300   0.058   1.419  2.1636 -0.0317  0.4375
15890SOL     OW59323   7.926   9.755   5.106  0.0837 -0.4826 -0.1777
15890SOL    HW159324   7.968   9.788   5.021  0.8942 -0.6541  0.1591
15890SOL    HW259325   7.847   9.813   5.128  0.8511  0.5805 -0.1679
15891SOL     OW59326   6.549   9.700   3.732  0.0082  0.0410  0.3461
15891SOL    HW159327   6.581   9.785   3.691 -2.8211  0.5293 -0.9343
15891SOL    HW259328   6.489   9.721   3.810 -0.6138 -0.7649  0.0903
15892SOL     OW59329   6.206   8.914   6.943 -0.4602 -0.2611 -0.1414
15892SOL    HW159330   6.159   8.826   6.930  1.0677 -0.8403 -1.9264
15892SOL    HW259331   6.190   8.972   6.863  0.7378  0.0612 -0.1543
15893SOL     OW59332   2.039   9.200   2.581 -0.4253 -0.5775 -0.2369
15893SOL    HW159333   2.009   9.159   2.495  0.9255 -1.0960 -0.4738
15893SOL    HW259334   1.964   9.252   2.621 -1.6182 -1.7748 -0.8532
15894SOL     OW59335   3.350   5.340   1.516 -0.3513 -0.4085  0.0029
15894SOL    HW159336   3.306   5.302   1.597  1.6762 -0.4707  1.0970
15894SOL    HW259337   3.356   5.439   1.524  0.9454 -0.5213  0.4982
15895SOL     OW59338   9.583   7.386   3.993  0.3542 -0.3555 -0.2675
15895SOL    HW159339   9.633   7.311   4.037  0.6621 -0.5033 -0.8702
15895SOL    HW259340   9.508   7.415   4.053 -0.1561 -1.5680 -0.2931
15896SOL     OW59341   4.928   8.834   8.307  0.1302  0.4538 -0.1949
15896SOL    HW159342   5.006   8.791   8.261 -0.1772  0.4556 -0.7243
15896SOL    HW259343   4.960   8.915   8.356  0.5538  0.1468  0.0388
15897SOL     OW59344   0.257   8.489   7.503  0.1389 -0.1001  0.1020
15897SOL    HW159345   0.251   8.392   7.527  0.2790 -0.2084 -0.2981
15897SOL    HW259346   0.169   8.520   7.468  0.0615 -0.0542  0.3373
15898SOL     OW59347   2.640   6.858   6.275 -0.0751 -0.4848  0.3114
15898SOL    HW159348   2.566   6.804   6.314 -0.3475 -0.1637  0.2396
15898SOL    HW259349   2.635   6.855   6.175 -1.4837  1.5505  0.2893
15899SOL     OW59350   8.122   9.271   7.216  0.3847  0.2622 -0.5242
15899SOL    HW159351   8.192   9.300   7.281 -0.3054 -0.1115  0.4104
15899SOL    HW259352   8.161   9.206   7.151  1.1263  0.7747 -0.6010
15900SOL     OW59353   3.868   1.507   0.747 -0.8068 -0.3424  0.2361
15900SOL    HW159354   3.945   1.571   0.748 -0.9282 -0.1230  3.9789
15900SOL    HW259355   3.895   1.422   0.702  0.8387  0.6258 -0.6496
15901SOL     OW59356   9.582   6.059   0.480 -0.4570 -0.6613 -0.5371
15901SOL    HW159357   9.676   6.071   0.513 -0.9080  1.6973  0.0059
15901SOL    HW259358   9.583   6.055   0.380  0.2230 -0.4564 -0.5424
15902SOL     OW59359   7.004   6.673   5.440  0.6698  0.0936  0.0715
15902SOL    HW159360   7.040   6.746   5.382  0.5142 -0.4990 -0.7794
15902SOL    HW259361   7.020   6.696   5.536  0.1903  1.4870 -0.1624
15903SOL     OW59362   8.852   4.175   5.524 -0.4121 -0.0422  0.8178
15903SOL    HW159363   8.835   4.247   5.458  1.4186 -0.6644 -0.3822
15903SOL    HW259364   8.814   4.089   5.491  0.0430 -0.2475  0.8236
15904SOL     OW59365   2.224   8.232   6.485  0.0038 -0.1277  0.3105
15904SOL    HW159366   2.211   8.310   6.546  0.4736  1.3804 -1.4796
15904SOL    HW259367   2.160   8.159   6.510 -0.4901  0.8483  1.9532
15905SOL     OW59368   8.298   6.639   2.012 -0.3860  0.5142  0.5060
15905SOL    HW159369   8.205   6.625   1.978  0.0571  2.6485 -1.7517
15905SOL    HW259370   8.337   6.551   2.040 -2.6003 -0.5943  0.2136
15906SOL     OW59371   1.990   0.915   3.602  0.6009 -0.2438 -0.2199
15906SOL    HW159372   2.078   0.916   3.649 -1.1498 -1.8388  3.2758
15906SOL    HW259373   1.932   0.987   3.640 -0.5174 -0.8914 -0.6955
15907SOL     OW59374   3.326   1.999   7.782  0.4150 -0.1629  0.3130
15907SOL    HW159375   3.227   1.984   7.777  0.5011 -0.5221 -0.3540
15907SOL    HW259376   3.359   2.035   7.694  1.3432 -2.8939 -0.5259
15908SOL     OW59377   4.114   6.293   0.248 -0.0395  0.0995  0.0112
15908SOL    HW159378   4.113   6.260   0.343 -1.8242  0.6118  0.1978
15908SOL    HW259379   4.045   6.245   0.195 -1.0111  1.7931 -0.3049
15909SOL     OW59380   8.170   8.965   6.623 -0.0488 -0.5469  0.3120
15909SOL    HW159381   8.214   8.942   6.537 -0.8454 -1.4755  0.1519
15909SOL    HW259382   8.191   8.896   6.692  1.9555  1.0321  1.3698
15910SOL     OW59383   0.715   2.435   2.867 -0.3645  0.0155 -0.4886
15910SOL    HW159384   0.688   2.376   2.791  1.6417  1.9983 -2.7935
15910SOL    HW259385   0.636   2.450   2.927 -1.4407 -3.2365 -0.9947
15911SOL     OW59386   2.868   5.358   0.630 -0.0111 -0.2751 -0.4165
15911SOL    HW159387   2.873   5.379   0.532 -2.6379 -0.8259 -0.7106
15911SOL    HW259388   2.791   5.406   0.671  0.3918 -0.9174  1.1556
15912SOL     OW59389   0.599   2.042   1.096 -0.1057  0.3775  0.2342
15912SOL    HW159390   0.671   2.109   1.110 -1.0367  1.0385  2.0438
15912SOL    HW259391   0.516   2.088   1.064 -0.1658 -0.1882 -0.4540
15913SOL     OW59392   7.049   8.947   2.011  0.0318  0.2073  0.3633
15913SOL    HW159393   7.043   9.046   2.022  2.1157  0.1613  2.4119
15913SOL    HW259394   7.117   8.926   1.940 -1.6799  0.2351 -1.3296
15914SOL     OW59395   1.979   5.331   1.645  0.6422 -0.5253  0.0256
15914SOL    HW159396   1.923   5.394   1.591 -0.5659 -0.8367  0.8948
15914SOL    HW259397   2.029   5.270   1.584 -1.3595 -1.4377 -0.7364
15915SOL     OW59398   2.224   5.809   0.606 -0.0914 -0.1377 -0.4003
15915SOL    HW159399   2.173   5.727   0.580 -0.0624 -0.1427 -0.4427
15915SOL    HW259400   2.321   5.796   0.587 -0.0841 -0.1013 -0.3886
15916SOL     OW59401   7.494   3.688   1.156 -0.1312  0.3124 -0.9925
15916SOL    HW159402   7.397   3.673   1.173  0.4350 -1.2410  1.0021
15916SOL    HW259403   7.524   3.631   1.080 -0.2510 -1.0483 -0.0285
15917SOL     OW59404   1.978   3.909   2.162  0.3587 -0.2071 -0.3498
15917SOL    HW159405   2.027   3.884   2.078 -2.2918 -0.4868 -1.8532
15917SOL    HW259406   1.886   3.871   2.160 -1.4236  3.7624  0.5029
15918SOL     OW59407   7.480   8.402   2.058  0.1377  0.7970 -0.1893
15918SOL    HW159408   7.542   8.437   1.988 -0.1375 -1.4859 -1.6397
15918SOL    HW259409   7.386   8.428   2.037  0.1106  0.5204 -0.4155
15919SOL     OW59410   1.503   5.776   2.006  0.4318  0.6978 -0.0357
15919SOL    HW159411   1.428   5.764   1.941  0.0070 -0.8871  0.7229
15919SOL    HW259412   1.506   5.871   2.036 -0.5605  1.0218 -0.9271
15920SOL     OW59413   9.271   8.558   1.956 -0.3553 -0.0950  0.7164
15920SOL    HW159414   9.298   8.469   1.993  1.1933 -0.5185 -1.3268
15920SOL    HW259415   9.320   8.631   2.005  1.2211 -0.6113 -0.0518
15921SOL     OW59416   0.152   5.250   6.164  0.1702 -0.1357  0.5721
15921SOL    HW159417   0.210   5.221   6.240 -0.8068 -0.9444  1.0274
15921SOL    HW259418   0.056   5.234   6.188 -0.2097  0.6569 -0.3905
15922SOL     OW59419   1.867   1.977   4.190 -0.1242 -0.0101  0.7224
15922SOL    HW159420   1.874   1.928   4.103 -0.2249 -0.5827  1.0375
15922SOL    HW259421   1.894   1.917   4.265 -1.1082  0.1175  1.1966
15923SOL     OW59422   8.917   2.742   6.412  0.0829 -0.4741  0.1433
15923SOL    HW159423   8.848   2.776   6.349 -0.0243 -1.2511 -0.1678
15923SOL    HW259424   8.963   2.819   6.457  1.2112  0.1409 -2.0074
15924SOL     OW59425   9.987   6.287   4.922 -0.8107  0.0620 -0.0644
15924SOL    HW159426  10.066   6.337   4.886 -1.0234 -0.3118 -1.0405
15924SOL    HW259427  10.015   6.239   5.005  0.2191 -0.7477 -0.8602
15925SOL     OW59428   4.930   6.429   3.471 -0.2902  0.8104  0.0079
15925SOL    HW159429   4.925   6.331   3.489  1.9326  0.8088  0.7592
15925SOL    HW259430   5.010   6.448   3.414 -1.0173  2.1260 -0.5976
15926SOL     OW59431   1.213   8.380   0.053 -0.4950 -0.1471 -0.0232
15926SOL    HW159432   1.137   8.444   0.061 -0.4202 -0.0339 -0.2138
15926SOL    HW259433   1.199   8.321  -0.026  1.6985  2.6786 -2.6155
15927SOL     OW59434   7.776   3.518   3.474  0.2537 -0.4749 -0.6577
15927SOL    HW159435   7.750   3.424   3.453 -0.8319 -0.7339  1.6551
15927SOL    HW259436   7.721   3.581   3.420 -0.6006 -1.1383 -0.5732
15928SOL     OW59437   2.869   6.635   0.263 -0.2530 -0.2833  0.1192
15928SOL    HW159438   2.826   6.700   0.200 -1.1134  0.1733  1.1675
15928SOL    HW259439   2.942   6.681   0.314  1.2125 -0.9381 -1.3233
15929SOL     OW59440   9.134   0.176   7.093  0.4626 -0.0643  0.1272
15929SOL    HW159441   9.081   0.139   7.016  0.8075 -0.5164  0.1096
15929SOL    HW259442   9.112   0.126   7.176  1.9715 -1.2540 -0.1637
15930SOL     OW59443   1.813   4.681   7.582  0.1020 -0.2801 -0.0860
15930SOL    HW159444   1.837   4.776   7.602  1.0914 -0.1554 -1.7721
15930SOL    HW259445   1.896   4.627   7.566 -0.5352 -0.5427 -2.9120
15931SOL     OW59446   4.322   9.133   2.467 -0.4238 -0.0552  0.0090
15931SOL    HW159447   4.257   9.128   2.391 -0.9085 -1.5610  0.4870
15931SOL    HW259448   4.318   9.047   2.519  1.3088  0.1794  0.5693
15932SOL     OW59449   4.347   6.499   4.290  0.1010  0.4864 -0.0782
15932SOL    HW159450   4.297   6.568   4.342  0.9727  0.2425  1.1138
15932SOL    HW259451   4.437   6.535   4.265  0.9235 -0.5230  1.3470
15933SOL     OW59452   1.095   2.169   7.189  0.1716  0.5011 -0.6243
15933SOL    HW159453   1.169   2.183   7.254 -1.2705 -3.5259  2.0915
15933SOL    HW259454   1.032   2.247   7.193 -0.2020  0.1175  3.3407
15934SOL     OW59455   1.163   8.253   4.889 -0.3255  0.4262  0.0366
15934SOL    HW159456   1.140   8.195   4.811 -1.3367 -0.7097  1.1463
15934SOL    HW259457   1.137   8.347   4.870 -0.9388  0.0843 -0.8346
15935SOL     OW59458   2.437   4.644   7.223  0.6333  0.0882 -0.1290
15935SOL    HW159459   2.484   4.557   7.206 -0.4295 -0.3797 -0.6999
15935SOL    HW259460   2.505   4.717   7.233  1.5613 -0.8828  0.8625
15936SOL     OW59461   7.610   1.725   3.262  0.0077 -0.0809  0.1872
15936SOL    HW159462   7.675   1.655   3.289  0.6412  0.7762  0.9381
15936SOL    HW259463   7.659   1.800   3.217 -0.7708 -0.5135 -1.4408
15937SOL     OW59464   5.025   9.275   1.332  0.2937 -0.4572 -0.1378
15937SOL    HW159465   5.057   9.212   1.402  4.0266  1.3155 -0.1207
15937SOL    HW259466   4.980   9.353   1.375 -0.5101 -1.0223  0.0616
15938SOL     OW59467   4.136   8.123   4.415  0.3223 -0.0575 -0.0563
15938SOL    HW159468   4.209   8.058   4.436  1.0388  1.2403  1.5644
15938SOL    HW259469   4.051   8.073   4.398  0.8005 -1.4255  1.4440
15939SOL     OW59470   2.206   6.658   7.214  0.0785  0.6126  0.2881
15939SOL    HW159471   2.207   6.658   7.114 -0.1547  0.7772  0.2851
15939SOL    HW259472   2.129   6.713   7.246 -0.7413 -0.6763  0.5506
15940SOL     OW59473   1.836   2.355   3.546  0.0728 -0.4698  0.5747
15940SOL    HW159474   1.886   2.364   3.633 -0.3687 -0.3707  0.8200
15940SOL    HW259475   1.784   2.270   3.546  1.6759 -1.4619 -0.4242
15941SOL     OW59476   2.354   9.006   4.084 -0.0163 -0.4865 -0.7327
15941SOL    HW159477   2.317   8.980   4.173 -1.7963 -0.4364 -1.4246
15941SOL    HW259478   2.420   8.937   4.053  0.5736 -0.5227  0.5937
15942SOL     OW59479   5.960   9.246   5.929  0.3910  0.4105 -0.5243
15942SOL    HW159480   6.004   9.319   5.981  1.9530 -0.2561 -0.8901
15942SOL    HW259481   6.027   9.202   5.869 -0.8148 -0.4987 -1.2404
15943SOL     OW59482   1.947   7.179   4.170 -0.4971  0.8907  0.1342
15943SOL    HW159483   1.890   7.231   4.107  0.7026  1.3577 -0.5778
15943SOL    HW259484   2.005   7.116   4.119  0.3847  1.1711  0.7776
15944SOL     OW59485   2.718   0.709   2.407 -0.2645  0.1916  0.5060
15944SOL    HW159486   2.722   0.635   2.339  0.2067 -0.2031  0.9523
15944SOL    HW259487   2.766   0.680   2.490  1.4297  1.6382  0.0735
15945SOL     OW59488   8.073   1.285   4.861  0.1718  0.3644 -0.5901
15945SOL    HW159489   8.144   1.223   4.826 -0.3122  0.4698 -1.8053
15945SOL    HW259490   7.991   1.233   4.884  0.4965  0.2943  0.4158
15946SOL     OW59491   2.089   3.316   4.985 -0.0722  0.1257  0.1002
15946SOL    HW159492   1.994   3.285   4.993 -0.6914  1.6265 -1.2884
15946SOL    HW259493   2.137   3.258   4.920  0.1034 -0.8805  1.0886
15947SOL     OW59494   1.324   0.491   3.386  0.2692 -0.5510  0.1158
15947SOL    HW159495   1.411   0.467   3.343 -0.3153 -0.1106 -1.3082
15947SOL    HW259496   1.307   0.589   3.376  0.4605 -0.3039  1.9691
15948SOL     OW59497   0.421   0.724   2.737  0.6140  0.2110 -0.0300
15948SOL    HW159498   0.487   0.797   2.719  1.0340 -0.0369  0.4940
15948SOL    HW259499   0.329   0.762   2.740  0.8724  0.7905  0.6919
15949SOL     OW59500   5.820   9.171   3.756 -0.0414 -0.1967 -0.0187
15949SOL    HW159501   5.863   9.196   3.669  0.5843 -0.1363  0.3016
15949SOL    HW259502   5.789   9.076   3.751  0.8602 -0.4981  0.0226
15950SOL     OW59503   1.619   6.048   0.805  0.0404 -0.3315 -0.4154
15950SOL    HW159504   1.660   6.077   0.719 -1.2246  0.3150 -0.7957
15950SOL    HW259505   1.645   5.953   0.824  1.3688 -0.0676 -0.8596
15951SOL     OW59506   8.725   7.410   1.977 -0.5292 -0.4680  1.0604
15951SOL    HW159507   8.750   7.494   2.025  2.2959 -0.9214  0.4632
15951SOL    HW259508   8.723   7.334   2.042 -1.0249 -0.3321  1.2122
15952SOL     OW59509   2.538   9.162   1.401 -0.4590  0.5345  0.6157
15952SOL    HW159510   2.448   9.147   1.443 -1.0514  1.7254 -0.1812
15952SOL    HW259511   2.537   9.129   1.307 -0.7081  2.3125 -0.0374
15953SOL     OW59512   6.291   0.170   5.194  0.0433 -0.5126  0.0675
15953SOL    HW159513   6.390   0.169   5.205 -0.0164 -2.6960  0.6254
15953SOL    HW259514   6.254   0.256   5.228  1.5794 -0.3643  1.3840
15954SOL     OW59515   7.794   0.904   4.440  0.9354  0.1910 -0.3670
15954SOL    HW159516   7.865   0.964   4.402  0.6922  0.8428  0.1866
15954SOL    HW259517   7.789   0.820   4.387  2.8920 -0.3506  0.2550
15955SOL     OW59518   9.465   3.907   0.950 -0.0836  0.2788 -0.8788
15955SOL    HW159519   9.380   3.886   0.997  0.8555 -2.7599 -0.3776
15955SOL    HW259520   9.542   3.885   1.010  1.0838 -0.7827 -2.7224
15956SOL     OW59521   3.417   8.868   1.004  0.5641  0.1704 -0.2090
15956SOL    HW159522   3.481   8.887   1.078  0.9711 -0.4074 -0.4113
15956SOL    HW259523   3.326   8.850   1.041  0.5699  0.7444  0.0923
15957SOL     OW59524   9.456   8.780   0.052  0.0896  0.2609  0.0898
15957SOL    HW159525   9.431   8.735  -0.034  1.9000 -0.0222 -0.3158
15957SOL    HW259526   9.453   8.712   0.126  0.4897  0.0245 -0.1068
15958SOL     OW59527   9.992   6.090   4.075 -0.4874 -0.1478 -0.0593
15958SOL    HW159528   9.968   5.998   4.108  0.3682 -0.2179  0.3790
15958SOL    HW259529   9.938   6.158   4.125 -0.1161 -0.3335  0.5997
15959SOL     OW59530   1.690   9.912   3.857  0.1137 -0.2170  0.4787
15959SOL    HW159531   1.747   9.944   3.933 -1.0555 -0.8590  1.6434
15959SOL    HW259532   1.593   9.918   3.884 -0.4153  1.4310 -1.6830
15960SOL     OW59533   4.161   9.395   5.963  0.1561  0.7026  0.2292
15960SOL    HW159534   4.191   9.468   5.902  1.0281 -0.9172 -1.3288
15960SOL    HW259535   4.096   9.337   5.914  0.4145 -0.2726  1.0440
15961SOL     OW59536   8.838   5.410   4.177  0.8383  0.3575  0.0163
15961SOL    HW159537   8.775   5.442   4.248  0.8359 -0.1294  0.2316
15961SOL    HW259538   8.932   5.429   4.206  0.8958 -0.8210  0.6489
15962SOL     OW59539   6.756   9.893   7.669 -0.0340  0.2233  0.3255
15962SOL    HW159540   6.802   9.920   7.754 -1.3180 -0.0416  1.1151
15962SOL    HW259541   6.786   9.952   7.594 -1.8005  3.0134  1.7519
15963SOL     OW59542   1.564   8.704   1.228  0.2594  0.2757 -0.4952
15963SOL    HW159543   1.606   8.785   1.188  0.6331  0.3001 -0.0570
15963SOL    HW259544   1.601   8.689   1.320 -0.5043  0.1497 -0.2038
15964SOL     OW59545   7.951   9.197   5.954  0.4893  0.2573 -0.1011
15964SOL    HW159546   8.015   9.130   5.992  0.9816  0.7951  0.0197
15964SOL    HW259547   7.887   9.150   5.893  0.7605 -0.3442  0.0673
15965SOL     OW59548   1.235   6.606  10.002  0.2747  0.6420 -0.3794
15965SOL    HW159549   1.267   6.512  10.016  1.8299  1.2664  0.3685
15965SOL    HW259550   1.210   6.647  10.089 -2.7179  0.1665 -0.9453
15966SOL     OW59551   8.151   3.825   4.814  0.3351  0.1502 -0.2261
15966SOL    HW159552   8.088   3.812   4.738 -1.4567 -0.1489  1.2606
15966SOL    HW259553   8.159   3.739   4.865  0.5037  0.6790  0.6557
15967SOL     OW59554   9.609   5.273   0.918 -0.1452 -0.0170  0.2577
15967SOL    HW159555   9.592   5.326   1.002 -1.2531 -1.0230  0.6662
15967SOL    HW259556   9.565   5.184   0.925  1.9458 -1.1215 -0.3200
15968SOL     OW59557   8.283   6.124   6.415  0.2969 -0.5452  0.0035
15968SOL    HW159558   8.261   6.085   6.505 -0.7549  0.6079  0.2633
15968SOL    HW259559   8.357   6.072   6.373  0.1845 -1.6503  1.1543
15969SOL     OW59560   3.148   9.090   2.033 -0.4470  0.1551  0.1224
15969SOL    HW159561   3.173   9.118   1.940  0.0125  0.0149  0.2031
15969SOL    HW259562   3.070   9.144   2.064  1.3388  2.4095  0.8502
15970SOL     OW59563   1.761   7.725   6.767  0.2439  0.1440  0.4435
15970SOL    HW159564   1.754   7.631   6.799 -0.1094  0.0959  0.2186
15970SOL    HW259565   1.843   7.734   6.710 -0.2299 -0.2457 -0.3027
15971SOL     OW59566   8.377   2.313   0.800  0.0790 -0.0555 -0.0004
15971SOL    HW159567   8.474   2.323   0.781 -0.0322  3.5427  1.0782
15971SOL    HW259568   8.324   2.349   0.723 -0.3729  1.9700  1.2424
15972SOL     OW59569   4.772   6.591   3.602  0.0404  0.3504  0.3337
15972SOL    HW159570   4.776   6.685   3.567  1.1398  0.4246  0.6381
15972SOL    HW259571   4.842   6.536   3.556 -0.2523 -0.1953  0.5416
15973SOL     OW59572   2.849   9.522   1.582 -0.3775 -0.3086  0.3622
15973SOL    HW159573   2.833   9.616   1.611 -1.6262  0.2070 -1.8826
15973SOL    HW259574   2.762   9.474   1.571  0.1060 -0.9187 -1.0224
15974SOL     OW59575   1.393   6.856   3.601  0.0638  0.1390 -0.0289
15974SOL    HW159576   1.431   6.790   3.537 -1.7203 -0.2323 -0.7419
15974SOL    HW259577   1.358   6.808   3.682 -0.8661  0.2370 -0.3651
15975SOL     OW59578   8.552   4.597   5.978 -0.0671  0.6679 -0.0686
15975SOL    HW159579   8.488   4.666   5.944 -2.1549 -0.4766  1.3657
15975SOL    HW259580   8.565   4.609   6.076 -0.5871 -1.0333  0.2361
15976SOL     OW59581   1.382   9.154   4.832  0.2920 -0.2789 -0.2307
15976SOL    HW159582   1.383   9.231   4.768  0.4312 -0.7475 -0.8047
15976SOL    HW259583   1.455   9.165   4.899  1.4097 -0.7531 -1.3421
15977SOL     OW59584   0.760   7.591   1.007  0.3322  0.2845  0.2015
15977SOL    HW159585   0.753   7.531   1.086 -0.5367  1.0514  0.7239
15977SOL    HW259586   0.672   7.592   0.958  1.2033 -1.0745 -1.4303
15978SOL     OW59587   5.093   7.347   4.435  0.4314  0.0865  0.1572
15978SOL    HW159588   5.082   7.393   4.523 -0.9378  1.6615 -0.8220
15978SOL    HW259589   5.033   7.267   4.432 -1.3705  1.4303 -0.2725
15979SOL     OW59590   1.603   7.425   5.392  0.0979 -0.6318  0.3833
15979SOL    HW159591   1.682   7.483   5.412  0.2423 -0.9088  0.6251
15979SOL    HW259592   1.618   7.377   5.306 -1.0112  1.4167 -0.9978
15980SOL     OW59593   4.887   0.642   2.855  0.1855 -0.6132 -0.3669
15980SOL    HW159594   4.929   0.701   2.785  0.0084 -0.8775 -0.6997
15980SOL    HW259595   4.944   0.643   2.938  0.2094 -0.0155 -0.3881
15981SOL     OW59596   0.568   5.802   5.642  0.3815 -0.5982 -0.4305
15981SOL    HW159597   0.499   5.782   5.713  1.1973  0.7690  0.7854
15981SOL    HW259598   0.522   5.833   5.559 -0.4782  0.6194  0.4771
15982SOL     OW59599   7.288   6.716   6.876 -0.1625  0.1969  0.4152
15982SOL    HW159600   7.277   6.730   6.974 -0.2413 -0.5628  0.5188
15982SOL    HW259601   7.221   6.648   6.844  0.5210 -0.3037  0.0258
15983SOL     OW59602   6.388   7.767   4.886 -0.1947  0.0050  0.0333
15983SOL    HW159603   6.445   7.796   4.962  1.0778 -1.5491 -0.3103
15983SOL    HW259604   6.396   7.834   4.811  1.2182 -0.2229 -0.0291
15984SOL     OW59605   3.370   8.045   5.059  0.3358  0.4772 -0.2156
15984SOL    HW159606   3.329   7.957   5.035 -0.6038  1.4049 -2.1037
15984SOL    HW259607   3.334   8.116   4.999  1.5920  2.0448  0.8510
15985SOL     OW59608   1.989   6.618   4.160 -0.1353  0.5891  0.4325
15985SOL    HW159609   1.983   6.673   4.243 -1.4024  0.5637  0.3760
15985SOL    HW259610   1.902   6.625   4.110  1.2645  2.1695 -1.8829
15986SOL     OW59611   2.491   1.909   1.998 -0.2666 -0.4065  0.3039
15986SOL    HW159612   2.549   1.858   1.935 -1.1416 -1.2455  0.1587
15986SOL    HW259613   2.522   2.004   2.003 -0.6864 -0.1175 -2.0260
15987SOL     OW59614   2.807   4.078   3.742 -0.2706  0.1540  0.4518
15987SOL    HW159615   2.865   4.149   3.702 -0.1879  0.3389  0.8965
15987SOL    HW259616   2.824   4.073   3.840 -1.9720  1.1318  0.8146
15988SOL     OW59617   1.976   7.567   0.707  0.2118 -0.1299 -0.0487
15988SOL    HW159618   1.913   7.490   0.719  0.1105 -0.2174 -1.1146
15988SOL    HW259619   2.020   7.587   0.794 -0.2414 -0.9748  0.3875
15989SOL     OW59620   7.940   9.467   1.019  0.3120 -0.5984 -0.1735
15989SOL    HW159621   7.849   9.459   1.059  0.4223 -0.9228  0.0066
15989SOL    HW259622   7.931   9.495   0.923  0.0398 -0.1429 -0.0207
15990SOL     OW59623   1.238   4.140   5.122 -0.4011 -0.8476 -0.2367
15990SOL    HW159624   1.337   4.133   5.112 -0.0190  1.6198  1.5188
15990SOL    HW259625   1.206   4.224   5.079 -1.8967 -2.0167 -1.5145
15991SOL     OW59626   2.046   2.213   1.843 -0.0282  0.1555 -0.0843
15991SOL    HW159627   2.107   2.172   1.775 -0.4901 -0.9261  0.1404
15991SOL    HW259628   2.095   2.223   1.930  0.2805  0.6897 -0.3141
15992SOL     OW59629   0.851   3.604   3.254  0.1881  0.4687  0.2490
15992SOL    HW159630   0.795   3.668   3.201 -0.3964  0.5704  0.9755
15992SOL    HW259631   0.843   3.512   3.215 -0.8471  0.3962  0.5979
15993SOL     OW59632   9.042   7.008   1.434 -0.1903 -0.1021 -0.1375
15993SOL    HW159633   9.008   6.942   1.501 -0.6599  0.5703  0.2941
15993SOL    HW259634   8.988   6.999   1.350  0.2429 -0.7817 -0.3454
15994SOL     OW59635   0.690   0.128   6.387 -0.2618 -0.5433 -0.6012
15994SOL    HW159636   0.647   0.216   6.409  1.2785  0.6496 -2.2236
15994SOL    HW259637   0.783   0.144   6.355 -0.4992 -2.6475 -2.4321
15995SOL     OW59638   3.203   8.437   0.152  0.6986 -0.2750  0.1955
15995SOL    HW159639   3.129   8.488   0.107 -0.1994 -0.7838  1.0562
15995SOL    HW259640   3.282   8.433   0.092 -0.0652  0.0648 -0.8575
15996SOL     OW59641   9.855   0.233   6.332 -0.3995 -0.0678 -0.3739
15996SOL    HW159642   9.858   0.333   6.329  0.1562 -0.0421  0.7275
15996SOL    HW259643   9.922   0.196   6.268  0.6534  0.2938  0.4973
15997SOL     OW59644   5.311   6.584   1.938 -0.1405  0.1071  0.0236
15997SOL    HW159645   5.224   6.556   1.897  1.5087 -1.0948 -2.7923
15997SOL    HW259646   5.323   6.538   2.027 -0.4849 -3.0919 -1.5050
15998SOL     OW59647   8.854   8.171   4.454  0.3659 -0.4095 -0.2636
15998SOL    HW159648   8.795   8.107   4.503  2.5084 -0.4951  2.2859
15998SOL    HW259649   8.825   8.176   4.359 -2.6249 -1.7844  0.5121
15999SOL     OW59650   8.263   5.373   5.406 -0.6744 -0.0987 -0.0878
15999SOL    HW159651   8.212   5.306   5.460  0.7596 -0.8153  0.4028
15999SOL    HW259652   8.238   5.465   5.436 -2.9906 -0.3635 -1.0718
16000SOL     OW59653   3.391   5.907  10.046  0.4689 -0.4779  0.5084
16000SOL    HW159654   3.325   5.873  10.113 -1.8981  0.8672 -1.0369
16000SOL    HW259655   3.399   6.007  10.055 -0.3884 -0.1948 -1.6183
16001SOL     OW59656   8.240   7.054   3.868 -0.2857 -0.3318 -0.5715
16001SOL    HW159657   8.141   7.054   3.857 -0.1690 -1.4183 -1.7603
16001SOL    HW259658   8.273   6.960   3.873  0.5805  0.0356  0.9470
16002SOL     OW59659   8.024   2.312   2.371  0.1706 -0.1412 -0.3896
16002SOL    HW159660   8.034   2.218   2.403  0.1965  0.0309  0.1165
16002SOL    HW259661   7.931   2.326   2.339 -0.8253  0.5855  2.6508
16003SOL     OW59662   8.718   2.723   4.407  0.3080  0.5738  0.3110
16003SOL    HW159663   8.670   2.637   4.425  0.0307  0.7237  0.2853
16003SOL    HW259664   8.663   2.781   4.347 -0.0205  1.2445  1.2391
16004SOL     OW59665   0.755   9.997   2.401 -0.2412  0.0538 -0.2405
16004SOL    HW159666   0.762   9.937   2.481 -0.9587 -0.0265 -0.2334
16004SOL    HW259667   0.823   9.971   2.334 -0.6885 -0.9177 -0.3285
16005SOL     OW59668   0.519   8.830   7.259 -0.3432  0.3208 -0.3885
16005SOL    HW159669   0.493   8.846   7.355 -0.3957  0.6752 -0.4616
16005SOL    HW259670   0.543   8.917   7.216  1.3008 -0.0425 -0.2284
16006SOL     OW59671   1.337   7.848   0.220  0.0584  0.1633  0.1293
16006SOL    HW159672   1.340   7.922   0.152  1.2444  0.0165  0.0073
16006SOL    HW259673   1.282   7.877   0.298 -0.0181  0.9265 -0.2012
16007SOL     OW59674   8.180   3.103   5.765 -0.3126  0.2721 -0.5739
16007SOL    HW159675   8.145   3.166   5.695 -0.4161 -0.4714 -1.2026
16007SOL    HW259676   8.267   3.137   5.800 -0.2384  0.6302 -1.0990
16008SOL     OW59677   3.778   2.205   4.384 -0.5730  0.2182  0.4850
16008SOL    HW159678   3.809   2.122   4.338 -1.6748  0.4524 -0.6827
16008SOL    HW259679   3.857   2.251   4.425  0.4055 -0.0985 -1.0073
16009SOL     OW59680   9.682   9.000   7.892  0.1418 -0.1981  0.0631
16009SOL    HW159681   9.741   9.056   7.834  0.5933 -0.3086  0.4180
16009SOL    HW259682   9.719   8.907   7.898  0.1642 -0.1497  0.6408
16010SOL     OW59683   6.965   7.091   5.417 -0.2329  0.0253 -0.2328
16010SOL    HW159684   6.868   7.112   5.421 -0.3223  0.1113 -2.1983
16010SOL    HW259685   6.979   7.006   5.365  0.8503  1.1146 -1.7785
16011SOL     OW59686   9.234   4.492   3.166 -0.0200  0.3265  0.1273
16011SOL    HW159687   9.272   4.503   3.258 -1.5754 -0.0098  0.8356
16011SOL    HW259688   9.231   4.395   3.142  1.6697  0.5089 -0.8491
16012SOL     OW59689   9.944   8.335   1.933 -0.0602 -0.8636 -0.1770
16012SOL    HW159690   9.956   8.296   2.024 -0.6078 -0.4894  0.0566
16012SOL    HW259691   9.876   8.281   1.883  0.8762 -1.5917 -0.6759
16013SOL     OW59692   4.509   2.654   1.327 -1.0651 -0.0904  0.1640
16013SOL    HW159693   4.544   2.635   1.236 -0.4915 -0.9517  0.5557
16013SOL    HW259694   4.532   2.578   1.388  0.7985  1.6357  1.6513
16014SOL     OW59695   1.639   9.886   0.042  0.1285  0.0202 -0.2178
16014SOL    HW159696   1.675   9.971   0.003 -0.4251 -0.3469 -1.5893
16014SOL    HW259697   1.633   9.894   0.141 -0.9856  2.0113 -0.4155
16015SOL     OW59698   1.943   8.823   3.886  0.2296  0.3332  0.7117
16015SOL    HW159699   1.945   8.874   3.800  1.6011 -0.2715  0.3804
16015SOL    HW259700   2.033   8.784   3.904 -0.5518 -1.1515  1.4681
16016SOL     OW59701   8.783   6.271   6.957  0.3644  0.4048 -0.0081
16016SOL    HW159702   8.739   6.306   6.874  0.7031  1.4562  0.2488
16016SOL    HW259703   8.715   6.262   7.030 -0.0277 -0.9555 -0.5079
16017SOL     OW59704   1.775   1.226   2.911  0.0902  0.1627 -0.1649
16017SOL    HW159705   1.680   1.218   2.879  0.2601  0.9617 -0.8930
16017SOL    HW259706   1.834   1.250   2.834  0.5422  1.9191  0.6961
16018SOL     OW59707   0.811   5.179   1.440 -0.2232 -0.5265  0.0760
16018SOL    HW159708   0.870   5.098   1.433 -1.8589 -1.7032 -0.5234
16018SOL    HW259709   0.867   5.261   1.441  1.2975 -1.4329 -3.8759
16019SOL     OW59710   3.106   1.460   1.329 -0.5906  0.3884 -0.3755
16019SOL    HW159711   3.067   1.387   1.385 -2.6121 -0.4368 -2.7943
16019SOL    HW259712   3.205   1.449   1.325 -0.5911 -0.5910  1.4916
16020SOL     OW59713   9.365   6.869   0.776 -0.1918 -0.0471 -0.0499
16020SOL    HW159714   9.367   6.806   0.699 -2.5123  1.0419 -1.0811
16020SOL    HW259715   9.458   6.895   0.801  0.6139 -0.6279 -2.3128
16021SOL     OW59716   0.247   1.134   1.359 -0.4212 -0.0241 -0.2406
16021SOL    HW159717   0.186   1.213   1.348 -0.1144 -0.0485 -2.2840
16021SOL    HW259718   0.206   1.054   1.317  0.3505 -0.3878 -0.3107
16022SOL     OW59719   7.653   7.469   5.427 -0.2246  0.1157 -0.2453
16022SOL    HW159720   7.577   7.494   5.367  0.0295 -0.5351 -0.8457
16022SOL    HW259721   7.729   7.533   5.414 -1.6994  2.5436  2.4566
16023SOL     OW59722   1.681   5.931   5.706  0.1915  0.0752 -0.7359
16023SOL    HW159723   1.696   5.849   5.761 -0.8098  0.5631  0.2865
16023SOL    HW259724   1.657   5.905   5.613 -0.2253 -0.8018 -0.3884
16024SOL     OW59725   8.967   7.776   7.249 -0.2141  0.5390  0.0463
16024SOL    HW159726   8.951   7.856   7.190 -0.1323  0.1820 -0.4662
16024SOL    HW259727   8.968   7.693   7.193 -0.3952  0.1657  0.5877
16025SOL     OW59728   0.759   0.508   6.245  0.2715 -0.2985  0.5403
16025SOL    HW159729   0.708   0.578   6.296 -0.1789  1.7201 -2.4536
16025SOL    HW259730   0.857   0.528   6.250  0.3818 -1.2264  2.1668
16026SOL     OW59731   9.294   6.292   5.628 -0.0942  0.0794 -0.2147
16026SOL    HW159732   9.234   6.370   5.613  0.6656  0.2977 -2.1932
16026SOL    HW259733   9.387   6.316   5.601 -0.0194 -1.7994 -1.7130
16027SOL     OW59734   2.614   1.644   5.568 -0.3674  0.2627 -0.1525
16027SOL    HW159735   2.698   1.688   5.537 -0.4628  0.9651  0.5834
16027SOL    HW259736   2.599   1.561   5.514  1.2292 -0.3159  0.2634
16028SOL     OW59737   9.227   4.483   5.786 -0.3411 -0.0349  0.4810
16028SOL    HW159738   9.283   4.562   5.811  2.0487 -1.4651 -0.1638
16028SOL    HW259739   9.176   4.503   5.702  2.2310 -0.0133 -1.1352
16029SOL     OW59740   5.154   9.901   4.020  0.0182  0.1014  0.7453
16029SOL    HW159741   5.057   9.886   4.003 -0.1573  1.1896  0.7673
16029SOL    HW259742   5.193   9.956   3.946  1.0168 -1.8186 -0.1880
16030SOL     OW59743   9.262   3.841   2.205 -0.1244 -0.3842  0.1405
16030SOL    HW159744   9.167   3.857   2.230 -0.5616 -1.0143 -1.0483
16030SOL    HW259745   9.282   3.743   2.209  0.7831 -0.1462  1.4361
16031SOL     OW59746   0.608   2.014   3.339 -0.0492 -0.3330  0.3090
16031SOL    HW159747   0.658   2.022   3.425 -1.3124 -0.1610  1.0509
16031SOL    HW259748   0.619   1.921   3.303 -0.6057 -0.8215  1.3593
16032SOL     OW59749   5.090   9.546   2.110 -0.2248  0.5467 -0.3453
16032SOL    HW159750   5.148   9.575   2.034  0.2502  0.5948  0.0283
16032SOL    HW259751   4.994   9.554   2.084 -0.0564 -0.0101 -1.1454
16033SOL     OW59752   8.201   7.160   0.473 -0.5276 -0.2292  0.4150
16033SOL    HW159753   8.166   7.102   0.400 -2.3993  0.3288  0.8415
16033SOL    HW259754   8.159   7.251   0.466  0.8416  0.4554  0.9592
16034SOL     OW59755   2.448   2.996   0.781 -0.2538  0.6443 -0.4596
16034SOL    HW159756   2.433   2.931   0.855  1.1892  1.7685  0.8589
16034SOL    HW259757   2.359   3.031   0.750 -0.9377 -0.6604 -0.0326
16035SOL     OW59758   2.961   7.161   6.386 -0.5606 -0.3106 -0.1064
16035SOL    HW159759   2.945   7.242   6.443 -0.7551  0.0898 -0.7224
16035SOL    HW259760   2.924   7.177   6.295  2.1201  0.0906 -1.1683
16036SOL     OW59761   7.935   4.101   4.474 -0.5592  0.2391 -0.0867
16036SOL    HW159762   7.865   4.171   4.487  0.2720  1.5588 -2.4265
16036SOL    HW259763   7.933   4.069   4.379  2.6510  1.0263 -0.4752
16037SOL     OW59764   8.162   9.757   4.867  0.8892 -0.2987 -0.2137
16037SOL    HW159765   8.237   9.770   4.802  0.9922 -2.3793 -0.5415
16037SOL    HW259766   8.079   9.800   4.831  1.3566  0.0200 -0.9272
16038SOL     OW59767   3.269   9.632   0.994  0.2846  0.2119  0.5892
16038SOL    HW159768   3.222   9.632   1.082 -0.6953 -3.2184  0.1561
16038SOL    HW259769   3.364   9.604   1.007  0.5934  1.3535  0.7660
16039SOL     OW59770   0.780   8.379   2.665 -1.0248 -0.3274  0.4539
16039SOL    HW159771   0.859   8.338   2.711 -0.2469  1.9181  1.1502
16039SOL    HW259772   0.701   8.318   2.674  0.7868 -3.0019 -0.9356
16040SOL     OW59773   9.092   3.887   1.771 -0.2319 -0.9936 -0.6271
16040SOL    HW159774   9.164   3.908   1.837 -0.6278 -2.6821  0.3793
16040SOL    HW259775   9.130   3.840   1.692 -0.0450 -0.7082 -0.7082
16041SOL     OW59776   8.460   3.806   4.312 -0.1654  0.8815 -0.1925
16041SOL    HW159777   8.382   3.778   4.255  1.4498 -2.1246 -1.0648
16041SOL    HW259778   8.432   3.807   4.408 -1.2842 -0.2247 -0.4888
16042SOL     OW59779   2.666   2.170   6.788 -0.1466 -0.4765 -0.4079
16042SOL    HW159780   2.701   2.172   6.881  0.2248  1.5417 -0.5733
16042SOL    HW259781   2.662   2.263   6.751 -2.1114 -1.0405 -1.7249
16043SOL     OW59782   8.323   7.001   4.471  0.1492 -0.5901 -0.0569
16043SOL    HW159783   8.371   6.987   4.385 -2.5915 -1.1095 -1.5694
16043SOL    HW259784   8.334   7.095   4.501  1.0340 -0.3807 -1.0240
16044SOL     OW59785   1.503   3.843   7.643 -0.3917 -0.0242 -0.1545
16044SOL    HW159786   1.568   3.770   7.664 -0.7182 -0.1832  0.3115
16044SOL    HW259787   1.553   3.927   7.620 -0.0125  0.4573  2.2793
16045SOL     OW59788   0.101   4.331   7.459  0.6863  0.2466  0.4203
16045SOL    HW159789   0.199   4.312   7.457  0.5606 -0.5122  1.1294
16045SOL    HW259790   0.050   4.245   7.460  0.0258  0.6325  0.4483
16046SOL     OW59791   8.077   0.488   2.396  0.0629  0.2904 -0.1961
16046SOL    HW159792   8.157   0.513   2.341  0.6152  0.6224  0.7517
16046SOL    HW259793   8.057   0.561   2.461 -0.4428 -0.2024  0.2059
16047SOL     OW59794   1.753   1.260   4.061  0.1847 -0.8369 -0.1340
16047SOL    HW159795   1.819   1.313   4.009  0.1402 -1.2627 -0.6357
16047SOL    HW259796   1.786   1.166   4.070 -0.8421 -1.3314 -1.3173
16048SOL     OW59797   0.302   3.255   7.971  0.2006 -0.1472  0.2215
16048SOL    HW159798   0.304   3.244   7.871  2.7697 -0.6542  0.3163
16048SOL    HW259799   0.220   3.210   8.007 -1.9170  1.8877 -1.8406
16049SOL     OW59800   0.849   8.066   3.804 -0.6567  0.0235 -0.1485
16049SOL    HW159801   0.867   8.145   3.745  0.6711 -0.0695  0.1166
16049SOL    HW259802   0.930   8.008   3.806 -0.7373 -0.0328  1.6734
16050SOL     OW59803   4.217   3.214   0.440 -0.3756  1.1088 -0.1436
16050SOL    HW159804   4.271   3.156   0.501  0.0609  2.5972  0.9234
16050SOL    HW259805   4.120   3.192   0.450  0.0109 -1.5957 -2.0911
16051SOL     OW59806   7.947   0.022   5.889 -0.6998  0.2858 -0.0208
16051SOL    HW159807   7.907   0.108   5.857  0.2794  1.0147  0.7197
16051SOL    HW259808   7.920   0.005   5.983  0.2452  0.4798  0.2884
16052SOL     OW59809   0.131   5.318   2.745 -0.5485  0.1894  0.2354
16052SOL    HW159810   0.167   5.404   2.782 -0.3142 -0.7073  2.1499
16052SOL    HW259811   0.206   5.267   2.701 -0.2835  0.1008  0.7844
16053SOL     OW59812   8.730   8.422   1.164 -0.0905 -0.3109  0.5030
16053SOL    HW159813   8.640   8.431   1.121 -0.0225 -1.1620  0.1656
16053SOL    HW259814   8.796   8.478   1.114 -0.2919 -0.2302  0.3265
16054SOL     OW59815   9.199   5.265   3.198  0.2758  0.2553 -0.1202
16054SOL    HW159816   9.277   5.320   3.168  2.3892 -1.3336  2.2695
16054SOL    HW259817   9.163   5.302   3.284  1.8899 -2.1289  1.6592
16055SOL     OW59818   9.724   1.318   6.693  0.1761  0.0094 -0.1480
16055SOL    HW159819   9.784   1.251   6.737  0.6062  0.4033 -0.1268
16055SOL    HW259820   9.723   1.402   6.748  0.8056  0.5452 -0.9513
16056SOL     OW59821   6.166   9.399   6.878  0.0432  0.2708  0.1520
16056SOL    HW159822   6.181   9.363   6.786  2.0671 -0.3380  0.7093
16056SOL    HW259823   6.149   9.324   6.941  2.0320  0.4363  0.9000
16057SOL     OW59824   8.724   4.921   1.922 -0.9080  0.0137  0.2225
16057SOL    HW159825   8.778   4.991   1.969 -1.9429  0.5036  0.7220
16057SOL    HW259826   8.771   4.890   1.840  0.8066 -0.6306  1.4312
16058SOL     OW59827   3.414   1.911   2.865  0.4547  0.1763  0.4659
16058SOL    HW159828   3.496   1.967   2.851  1.9867 -2.1503 -0.1431
16058SOL    HW259829   3.436   1.836   2.928 -0.7787 -1.3972 -0.9553
16059SOL     OW59830   7.396   9.427   6.503  0.0092 -0.1360  0.1415
16059SOL    HW159831   7.365   9.521   6.493  0.2547 -0.2027 -1.3646
16059SOL    HW259832   7.360   9.389   6.588  0.1571  1.4032  0.9084
16060SOL     OW59833   5.790   0.653   7.676  0.6621 -0.2572  0.6683
16060SOL    HW159834   5.872   0.696   7.637  0.7449  0.2164  1.3511
16060SOL    HW259835   5.794   0.659   7.776 -1.0190  1.2884  0.6601
16061SOL     OW59836   3.750   0.044   5.268  0.3772 -0.8503 -0.0507
16061SOL    HW159837   3.684  -0.014   5.222  1.2820 -2.4826  0.6866
16061SOL    HW259838   3.837   0.042   5.219  1.2274 -2.2817  1.4723
16062SOL     OW59839   5.816   7.851   3.934  0.5207 -0.3260 -0.3885
16062SOL    HW159840   5.792   7.944   3.904 -0.8519 -0.7746 -0.7034
16062SOL    HW259841   5.910   7.851   3.970  0.5090  1.1927 -0.3239
16063SOL     OW59842   3.171   3.760   0.652  0.2036  0.0917  0.2934
16063SOL    HW159843   3.074   3.742   0.667  0.3576  0.0457  1.3030
16063SOL    HW259844   3.194   3.851   0.688  0.8986 -0.6256  1.7536
16064SOL     OW59845   2.045   8.345   6.182  0.3057 -0.1749  0.0918
16064SOL    HW159846   2.140   8.315   6.192 -0.1100 -2.0536 -1.2465
16064SOL    HW259847   1.985   8.277   6.222 -0.5809 -0.1338 -1.1498
16065SOL     OW59848   7.250   7.612   4.641 -0.2097  0.3745  0.0792
16065SOL    HW159849   7.177   7.545   4.651  0.8051 -0.7698 -0.0989
16065SOL    HW259850   7.272   7.652   4.730 -1.1732  0.8582  0.1021
16066SOL     OW59851   1.843   6.573   4.563 -0.0974 -0.1681 -0.0238
16066SOL    HW159852   1.896   6.629   4.627 -1.3593  0.9800  0.0481
16066SOL    HW259853   1.885   6.483   4.555  1.6702  0.6032  0.2751
16067SOL     OW59854   0.773   4.936   3.076  0.1283 -0.3116 -0.0911
16067SOL    HW159855   0.680   4.926   3.112  0.0450 -1.2519 -0.5328
16067SOL    HW259856   0.839   4.912   3.147 -0.0091 -1.0317 -0.1965
16068SOL     OW59857   4.065   7.305   3.702  0.1628 -0.4861  0.5176
16068SOL    HW159858   4.121   7.286   3.621 -0.5395  0.7495 -0.2820
16068SOL    HW259859   4.115   7.278   3.784  1.4321 -0.5489 -0.2582
16069SOL     OW59860   5.353   2.709   2.232 -0.2884 -0.4746  0.5141
16069SOL    HW159861   5.352   2.782   2.163  0.1075 -1.1112 -0.1640
16069SOL    HW259862   5.260   2.693   2.264 -0.6571 -1.1221 -0.8678
16070SOL     OW59863   7.285   3.301   5.108  0.0455 -0.1408 -0.2155
16070SOL    HW159864   7.366   3.265   5.064  0.7060  0.4761  0.4812
16070SOL    HW259865   7.204   3.255   5.073  0.8682 -2.3340  0.6982
16071SOL     OW59866   5.054   1.951   1.681  0.2020  0.0121  0.2181
16071SOL    HW159867   5.006   2.028   1.722 -0.9943 -0.4822 -0.2444
16071SOL    HW259868   5.149   1.977   1.661 -0.6847  1.9615 -1.6418
16072SOL     OW59869   0.305   9.462   2.460  0.5263 -0.0965 -0.1170
16072SOL    HW159870   0.221   9.503   2.423  0.2942  0.1932  0.7267
16072SOL    HW259871   0.379   9.475   2.395 -0.3688 -1.4865 -1.4558
16073SOL     OW59872   2.447   8.746   2.558  0.4837  0.0398 -0.0725
16073SOL    HW159873   2.474   8.650   2.571 -0.3314 -0.0785  0.8517
16073SOL    HW259874   2.404   8.779   2.642  0.7967  1.2328 -0.3850
16074SOL     OW59875   9.098   7.636   1.517  0.0842  0.4494  0.3684
16074SOL    HW159876   9.144   7.699   1.454 -1.7672 -1.2502 -2.7917
16074SOL    HW259877   9.164   7.570   1.552  0.6956 -0.1241 -1.7796
16075SOL     OW59878   6.503   1.263   0.785 -0.6004  0.2845  0.1069
16075SOL    HW159879   6.441   1.204   0.835 -0.0335  0.0402  0.5315
16075SOL    HW259880   6.593   1.264   0.830 -0.7693  1.9413  0.4564
16076SOL     OW59881   9.007   5.797   5.154 -0.1622 -0.3620  0.1320
16076SOL    HW159882   8.934   5.824   5.091  0.6278 -2.8547 -1.9188
16076SOL    HW259883   8.966   5.772   5.242 -1.9894 -2.7555 -1.3066
16077SOL     OW59884   1.133   8.124   4.583 -0.2916 -0.2369  0.0844
16077SOL    HW159885   1.058   8.188   4.600 -0.3588  0.0558 -1.2726
16077SOL    HW259886   1.208   8.171   4.538  0.3352 -0.7395  0.6021
16078SOL     OW59887   3.254   0.692   4.567  0.9267  0.5289 -0.1907
16078SOL    HW159888   3.214   0.681   4.658  0.1141 -0.1180 -0.6071
16078SOL    HW259889   3.267   0.789   4.547 -2.0712  0.8693 -0.7102
16079SOL     OW59890   3.194   2.642   6.760  0.4965 -0.1754 -0.4174
16079SOL    HW159891   3.233   2.719   6.708  0.2361 -0.2952 -0.7949
16079SOL    HW259892   3.119   2.675   6.817  2.9737  0.5853  2.5058
16080SOL     OW59893   3.750   9.016   6.424  0.2728 -0.7524  0.4929
16080SOL    HW159894   3.666   8.975   6.388  0.2217 -0.8703  0.7416
16080SOL    HW259895   3.786   9.083   6.359 -0.6586  0.1643  0.9230
16081SOL     OW59896   0.738   2.910   4.446  0.5332  0.7043  0.4810
16081SOL    HW159897   0.687   2.944   4.367  0.3030  0.5215  0.5472
16081SOL    HW259898   0.679   2.914   4.527  0.6455  0.5453  0.5699
16082SOL     OW59899   1.206   9.535   5.444 -0.2374  0.0657  0.4121
16082SOL    HW159900   1.234   9.564   5.536  2.1362  0.5309 -0.4221
16082SOL    HW259901   1.199   9.614   5.384 -1.4699 -0.2715  0.1054
16083SOL     OW59902   2.469   3.666   3.293  0.8279  0.1198 -0.9544
16083SOL    HW159903   2.541   3.611   3.250 -0.0946  0.2035 -2.6556
16083SOL    HW259904   2.388   3.610   3.307  0.6353  0.4761 -0.6366
16084SOL     OW59905   2.626   6.656   4.682 -0.8102 -0.2909 -0.4041
16084SOL    HW159906   2.584   6.637   4.593  0.3580 -0.3715 -0.9501
16084SOL    HW259907   2.631   6.755   4.696 -1.3706 -0.2852 -0.2491
16085SOL     OW59908   5.788   1.631   4.392  0.0497 -0.2531 -0.1610
16085SOL    HW159909   5.772   1.599   4.299  0.2569 -0.1251 -0.2416
16085SOL    HW259910   5.701   1.649   4.437 -0.0597 -0.7428 -0.1806
16086SOL     OW59911   1.283   6.231   6.618 -0.2264 -0.5045  0.0428
16086SOL    HW159912   1.313   6.137   6.605  0.2911 -0.2013 -1.0548
16086SOL    HW259913   1.195   6.245   6.573  0.0895 -0.2655 -0.5208
16087SOL     OW59914   1.101   6.386   5.129  0.0070 -0.5916 -0.1198
16087SOL    HW159915   1.115   6.476   5.087  3.1335 -0.8716  0.2286
16087SOL    HW259916   1.075   6.320   5.058  1.6341 -0.2611 -1.0557
16088SOL     OW59917   8.381   6.941   3.074  0.0375  0.0002 -0.1463
16088SOL    HW159918   8.405   7.016   3.134 -1.5022  0.3013  0.1097
16088SOL    HW259919   8.428   6.858   3.103  1.6503  0.8239 -0.3620
16089SOL     OW59920   8.055   8.822   4.789 -0.1615  0.1000 -0.2069
16089SOL    HW159921   8.110   8.760   4.733  0.3830  1.9877 -1.8071
16089SOL    HW259922   8.098   8.834   4.878 -0.2870 -1.8194  0.1266
16090SOL     OW59923   1.919   1.291   0.332 -0.1860  0.2688 -0.7408
16090SOL    HW159924   1.948   1.275   0.426  0.6605  1.1738 -0.8318
16090SOL    HW259925   1.876   1.208   0.295  0.8859 -0.5998 -0.0704
16091SOL     OW59926   6.816   9.786   8.212  0.0396  0.4500 -0.1808
16091SOL    HW159927   6.798   9.877   8.250  2.2991 -0.1644  2.5406
16091SOL    HW259928   6.896   9.791   8.152 -0.3687  0.4231 -0.7279
16092SOL     OW59929   9.354   6.720   1.873 -0.2724 -0.0314  0.2905
16092SOL    HW159930   9.278   6.755   1.818  1.1968 -0.0065 -1.8123
16092SOL    HW259931   9.399   6.646   1.824  2.0055  0.9786  0.7721
16093SOL     OW59932   0.791   2.540   5.797 -0.2187  0.2284  0.2062
16093SOL    HW159933   0.886   2.573   5.800 -0.2088  0.1288  1.1287
16093SOL    HW259934   0.760   2.538   5.702  0.8846 -0.2571 -0.1531
16094SOL     OW59935   9.837   1.399   3.614 -0.3466 -0.2748  0.3226
16094SOL    HW159936   9.748   1.399   3.569  0.7493 -1.2652 -1.9256
16094SOL    HW259937   9.892   1.474   3.579  1.1259 -2.0581 -1.3131
16095SOL     OW59938   8.547   9.726   5.285  0.4116  0.3479 -0.0110
16095SOL    HW159939   8.557   9.685   5.376 -1.0534  0.9026  0.4205
16095SOL    HW259940   8.489   9.807   5.291 -0.3521 -0.0588 -1.5524
16096SOL     OW59941   6.756   2.206   0.737  0.3246 -0.6091  0.2891
16096SOL    HW159942   6.855   2.194   0.738  0.3967 -0.3024 -1.9481
16096SOL    HW259943   6.712   2.116   0.743  0.7456 -0.8479 -0.1845
16097SOL     OW59944   7.962   6.703   5.533  0.5299 -0.1746 -0.5281
16097SOL    HW159945   7.898   6.650   5.476  0.1562  1.1361 -1.3496
16097SOL    HW259946   8.016   6.764   5.475  2.0306 -0.7430  0.2510
16098SOL     OW59947   2.194   9.957   2.005  0.5388 -0.3080  0.4424
16098SOL    HW159948   2.175  10.052   2.028  0.2809 -0.1510 -0.3945
16098SOL    HW259949   2.264   9.954   1.933  0.2785 -0.7370  0.2079
16099SOL     OW59950   0.237   4.653   3.701  0.4377  0.3086  0.6718
16099SOL    HW159951   0.322   4.701   3.678  1.2046 -1.6280 -0.6593
16099SOL    HW259952   0.205   4.601   3.622 -0.4519 -1.2270  1.9964
16100SOL     OW59953   2.796   7.011   2.544  0.4369  0.4690 -0.5286
16100SOL    HW159954   2.860   7.082   2.515  3.1932 -1.7793 -0.1872
16100SOL    HW259955   2.799   7.002   2.643  1.6443 -1.4756 -0.7203
16101SOL     OW59956   0.921   7.222   3.872 -0.2310 -0.0730 -0.0759
16101SOL    HW159957   0.827   7.236   3.905  0.5794 -0.9025  2.8024
16101SOL    HW259958   0.950   7.301   3.818 -2.8145 -0.1216 -1.6024
16102SOL     OW59959   4.299   5.836   4.227  0.1037  0.7835 -0.3108
16102SOL    HW159960   4.317   5.820   4.130 -1.1075  1.5249 -0.6666
16102SOL    HW259961   4.385   5.836   4.278  0.8251  1.3294 -1.5239
16103SOL     OW59962   0.870   0.714   0.239  0.2898 -0.7584  0.0417
16103SOL    HW159963   0.849   0.726   0.142  2.4885 -0.3258 -0.4111
16103SOL    HW259964   0.955   0.663   0.248  0.1363 -0.7439  1.7625
16104SOL     OW59965   9.799   1.032   2.865 -0.8579  0.2819 -0.0624
16104SOL    HW159966   9.827   1.081   2.782 -0.9962 -1.4323 -1.1563
16104SOL    HW259967   9.710   0.989   2.850 -0.4501 -0.8383  0.6249
16105SOL     OW59968   8.781   2.731   5.813 -0.0326 -0.5416  0.0712
16105SOL    HW159969   8.763   2.680   5.729 -2.1130  0.9576 -0.4253
16105SOL    HW259970   8.855   2.687   5.863  0.0279 -2.4898 -1.6629
16106SOL     OW59971   0.631   9.037   1.163  0.4736  0.0355  0.6494
16106SOL    HW159972   0.559   9.088   1.117  1.2866  0.5155 -0.1040
16106SOL    HW259973   0.641   8.947   1.120  1.3234  0.5353 -0.2033
16107SOL     OW59974   6.352   8.926   3.363 -0.2128  0.1708 -0.2935
16107SOL    HW159975   6.346   8.950   3.267 -1.1050 -0.1438 -0.3229
16107SOL    HW259976   6.260   8.908   3.399  0.1409 -0.0349  0.5260
16108SOL     OW59977   0.647   9.379   0.827 -0.5869  0.4884 -0.4409
16108SOL    HW159978   0.600   9.465   0.809  0.7107  1.5895  1.3447
16108SOL    HW259979   0.588   9.303   0.800 -1.6482  1.9218 -2.2707
16109SOL     OW59980   1.724   9.987   3.132  0.5896 -0.5341  0.6177
16109SOL    HW159981   1.712  10.069   3.077 -1.1682 -0.4225  1.1459
16109SOL    HW259982   1.809   9.994   3.184  1.1148  0.3556 -0.3548
16110SOL     OW59983   0.944   5.320   0.786 -0.5137  0.4567  0.1646
16110SOL    HW159984   0.901   5.409   0.802  0.3351  0.8216  0.4158
16110SOL    HW259985   0.984   5.318   0.694  0.4112  0.7262  0.5550
16111SOL     OW59986   0.141   6.294   3.256  0.4421 -0.2446 -0.1112
16111SOL    HW159987   0.233   6.300   3.294 -0.4910  2.9176  1.7788
16111SOL    HW259988   0.136   6.215   3.195  3.5497 -2.2063  2.0103
16112SOL     OW59989   3.187   0.213   4.775  0.3610  0.2980 -0.1083
16112SOL    HW159990   3.144   0.284   4.719 -0.4972 -1.3119 -1.5192
16112SOL    HW259991   3.219   0.254   4.860  0.5231  2.5283 -1.1950
16113SOL     OW59992   9.200   8.165   1.379  0.3598  0.8761  0.0131
16113SOL    HW159993   9.255   8.216   1.312 -0.6327  1.4850 -0.3429
16113SOL    HW259994   9.112   8.211   1.391  0.1016  0.1424  0.9118
16114SOL     OW59995   6.703   8.759   5.151 -0.1090  0.1597 -0.1275
16114SOL    HW159996   6.614   8.756   5.106  0.8341  2.0283 -2.2007
16114SOL    HW259997   6.692   8.788   5.246 -1.8296 -1.0280  0.0534
16115SOL     OW59998   8.764   9.941   7.154  0.0717  0.5649  0.0467
16115SOL    HW159999   8.681   9.888   7.137  0.3563 -0.0060  0.4151
16115SOL    HW260000   8.815   9.952   7.069 -0.5685  1.2431 -0.2547
16116SOL     OW60001   8.916   6.978   6.923 -0.5371 -0.2405  0.1630
16116SOL    HW160002   8.928   6.920   7.004 -1.7466  1.0869  1.3295
16116SOL    HW260003   8.822   6.969   6.890 -0.7610  1.1055  0.4124
16117SOL     OW60004   4.712   9.684   7.007 -0.0578  0.1850 -0.2545
16117SOL    HW160005   4.779   9.694   6.933  0.1238  0.9136  0.0112
16117SOL    HW260006   4.759   9.654   7.090 -0.2235 -0.3595 -0.3535
16118SOL     OW60007   8.930   5.950   7.623 -0.1250  0.2450 -0.2144
16118SOL    HW160008   9.001   6.012   7.592 -0.8866  0.3952 -1.6851
16118SOL    HW260009   8.968   5.885   7.690  0.9889  1.3655  0.2418
16119SOL     OW60010   8.008   6.921   0.917  0.3047 -0.2993 -0.0928
16119SOL    HW160011   7.964   6.846   0.966  1.5776 -0.3907  0.9231
16119SOL    HW260012   8.104   6.928   0.944  0.2503  1.5965 -0.2752
16120SOL     OW60013   8.072   3.653   2.808  0.3843 -0.1031  0.3993
16120SOL    HW160014   7.994   3.707   2.775 -1.4379 -1.9096  1.5794
16120SOL    HW260015   8.137   3.638   2.734 -0.8660  0.6390 -0.8700
16121SOL     OW60016   5.937   7.217   5.894  0.0577 -0.5753  1.0667
16121SOL    HW160017   5.880   7.298   5.878  1.0581 -0.3342 -1.6069
16121SOL    HW260018   6.031   7.246   5.909  0.8183 -1.2637 -1.9873
16122SOL     OW60019   8.854   0.253   4.923  0.0271  0.3412  0.2612
16122SOL    HW160020   8.876   0.225   4.830  0.1462 -0.1579  0.4422
16122SOL    HW260021   8.840   0.352   4.925  0.7157  0.4468 -0.1474
16123SOL     OW60022   6.617   7.586   6.060  0.4434  0.1362  0.3333
16123SOL    HW160023   6.670   7.554   6.138  0.9951  2.1720  0.8138
16123SOL    HW260024   6.664   7.662   6.015  0.3727 -1.3021 -2.3101
16124SOL     OW60025   7.454   5.027   7.044 -0.2605 -0.0410 -0.0663
16124SOL    HW160026   7.523   4.993   7.108 -1.2862  0.3443  1.2628
16124SOL    HW260027   7.364   4.994   7.071 -0.8268  0.9205 -0.7538
16125SOL     OW60028   0.391   0.765   1.106  0.7221 -0.5999  0.0803
16125SOL    HW160029   0.323   0.823   1.061  1.1499  0.1828  0.4359
16125SOL    HW260030   0.347   0.682   1.141  0.4485 -1.4337 -2.1323
16126SOL     OW60031   6.046   9.190   1.296 -0.1755  0.6513 -0.4151
16126SOL    HW160032   5.956   9.228   1.272  0.0017 -0.7812 -3.5563
16126SOL    HW260033   6.034   9.100   1.338 -0.1585 -0.4711 -2.7584
16127SOL     OW60034   6.089   0.058   6.156  0.3065 -0.2190  0.2145
16127SOL    HW160035   6.010   0.101   6.200  0.7762  0.5373  0.3258
16127SOL    HW260036   6.058  -0.017   6.098 -0.4087 -0.5527  1.0207
16128SOL     OW60037   9.243   0.037   1.370 -0.2842  0.1942  0.2805
16128SOL    HW160038   9.190  -0.029   1.423  0.5045 -1.0093 -0.3993
16128SOL    HW260039   9.264   0.116   1.427 -0.9710 -0.2767  1.2047
16129SOL     OW60040   9.608   2.193   4.519 -0.2859 -0.4882  0.1020
16129SOL    HW160041   9.666   2.150   4.450  0.8456 -0.2294  0.8705
16129SOL    HW260042   9.514   2.196   4.487  0.0433 -1.3568 -0.9653
16130SOL     OW60043   2.928   7.842   1.592  0.0479  0.0418 -0.8381
16130SOL    HW160044   2.943   7.786   1.511  0.2192 -0.6556 -0.3288
16130SOL    HW260045   3.014   7.883   1.621  0.0484  0.0250 -0.8155
16131SOL     OW60046   6.811   3.362   0.395 -0.0406 -0.1617 -0.0677
16131SOL    HW160047   6.800   3.414   0.480 -0.7154 -0.6659  0.1584
16131SOL    HW260048   6.791   3.421   0.317 -1.5555 -0.2772  0.2184
16132SOL     OW60049   9.859   0.212   3.889 -0.1140 -0.3000 -0.0634
16132SOL    HW160050   9.891   0.306   3.878  1.2098 -0.6189  0.9190
16132SOL    HW260051   9.855   0.168   3.799 -0.6029  0.6452 -0.5142
16133SOL     OW60052   3.963   5.497   5.336  0.8059 -0.0736  0.2754
16133SOL    HW160053   4.039   5.561   5.319 -0.0434  0.3443 -2.2748
16133SOL    HW260054   3.993   5.426   5.399  3.4133 -0.0505 -0.8438
16134SOL     OW60055   2.610   0.823   6.967  0.1843 -0.3527  0.4330
16134SOL    HW160056   2.685   0.826   7.033 -0.9025 -1.4443  1.7349
16134SOL    HW260057   2.589   0.728   6.946  0.4790 -0.0186 -1.4688
16135SOL     OW60058   1.047   1.850   0.608  0.0769 -0.3133 -0.1479
16135SOL    HW160059   0.964   1.899   0.634 -0.7020 -2.5024  1.6413
16135SOL    HW260060   1.080   1.885   0.520 -3.0100  0.2361 -1.1543
16136SOL     OW60061   5.635   8.338   2.400  0.0596  0.3344  0.2963
16136SOL    HW160062   5.557   8.308   2.345  1.3636  2.0944 -2.6231
16136SOL    HW260063   5.715   8.283   2.376  1.1139  2.3854 -1.0865
16137SOL     OW60064   9.469   3.799   4.410  0.4533 -0.4938 -0.1797
16137SOL    HW160065   9.526   3.852   4.346  0.8017 -0.4786  0.1436
16137SOL    HW260066   9.518   3.786   4.495 -0.2593  0.0244  0.3195
16138SOL     OW60067   1.633   1.238   0.652 -0.4431 -0.2955  0.2228
16138SOL    HW160068   1.536   1.258   0.670 -0.6461  0.8132 -2.0316
16138SOL    HW260069   1.690   1.299   0.708 -1.0512  0.7802 -0.3260
16139SOL     OW60070   2.680   9.519   3.386  0.5475 -0.6218 -0.4081
16139SOL    HW160071   2.752   9.581   3.417  0.5673 -1.3511  1.0208
16139SOL    HW260072   2.617   9.568   3.326  0.3331  0.8955  1.0337
16140SOL     OW60073   2.556   4.556   1.961 -0.2062 -0.1921  0.6419
16140SOL    HW160074   2.651   4.586   1.967 -0.0142 -0.4452 -1.0067
16140SOL    HW260075   2.508   4.609   1.891 -1.3695  0.1381  1.6557
16141SOL     OW60076   7.343   2.065   1.865  0.0725  0.2731  0.5234
16141SOL    HW160077   7.402   2.043   1.942  0.1997 -0.0450  0.3325
16141SOL    HW260078   7.247   2.049   1.890  0.1405 -0.1557  0.4973
16142SOL     OW60079   8.651   2.104   0.393  0.2992  0.8259  0.2728
16142SOL    HW160080   8.596   2.048   0.455  2.6859 -4.1905 -1.8797
16142SOL    HW260081   8.748   2.083   0.405  1.1574  3.2903 -1.8650
16143SOL     OW60082   1.678   1.422   1.197 -0.1636  0.3030 -0.0514
16143SOL    HW160083   1.712   1.328   1.191 -0.3037  0.2703 -0.3468
16143SOL    HW260084   1.749   1.484   1.164 -0.8929  0.1295 -2.0121
16144SOL     OW60085   7.860   1.842   1.788 -0.3517  0.0531 -0.2508
16144SOL    HW160086   7.798   1.911   1.752 -0.1182 -0.9616 -2.6763
16144SOL    HW260087   7.844   1.755   1.742  2.0408 -0.5215 -0.0625
16145SOL     OW60088   4.462   6.120   3.670 -0.1746 -0.6103 -0.2761
16145SOL    HW160089   4.507   6.202   3.704  2.4020 -2.1910  0.2984
16145SOL    HW260090   4.525   6.071   3.609 -1.4910 -2.3881 -0.2434
16146SOL     OW60091   2.783   5.978   7.472  0.6561 -0.5923 -0.2774
16146SOL    HW160092   2.736   6.066   7.462  1.7817 -0.0008 -0.4824
16146SOL    HW260093   2.855   5.986   7.541  0.4715 -1.4810  0.0240
16147SOL     OW60094   9.347   1.947   4.349 -0.7561  0.1451 -0.1578
16147SOL    HW160095   9.331   2.031   4.297 -0.5641  1.1563  1.3894
16147SOL    HW260096   9.444   1.922   4.343 -0.4418  1.0954  0.9449
16148SOL     OW60097   7.972   0.151   7.140 -0.1180  0.0241 -0.0363
16148SOL    HW160098   7.903   0.116   7.204  0.6134 -0.4910  0.4702
16148SOL    HW260099   8.012   0.235   7.177 -1.3641  1.0526 -0.9233
16149SOL     OW60100   7.567   3.885   2.431  0.0263 -0.4529 -0.3219
16149SOL    HW160101   7.495   3.856   2.368  0.3961 -2.9074  0.3494
16149SOL    HW260102   7.640   3.930   2.379  0.0409 -1.8916 -1.5895
16150SOL     OW60103   8.065   6.391   4.423  0.0667  0.1270 -0.7500
16150SOL    HW160104   8.127   6.314   4.408  1.6183  1.1550  0.2547
16150SOL    HW260105   7.984   6.359   4.473  0.5328 -0.9017 -0.6333
16151SOL     OW60106   3.959   3.477   3.069 -0.9106  0.0746  0.0602
16151SOL    HW160107   3.945   3.521   2.980  1.5767 -0.1479 -0.4594
16151SOL    HW260108   3.928   3.538   3.142 -0.7157  1.2564 -0.8390
16152SOL     OW60109   2.406   3.472   0.943 -0.2073  0.0765  0.2921
16152SOL    HW160110   2.335   3.524   0.896  1.0560 -0.1235 -1.9414
16152SOL    HW260111   2.370   3.434   1.028 -1.7851  2.6934  0.8379
16153SOL     OW60112   7.849   0.589   6.703  0.0176  0.0758 -0.3234
16153SOL    HW160113   7.763   0.561   6.746 -1.0254  0.2237 -2.2561
16153SOL    HW260114   7.912   0.622   6.773 -1.0435 -1.1876  1.2639
16154SOL     OW60115   3.874   1.720   6.773 -0.3665  0.5472  0.1365
16154SOL    HW160116   3.786   1.680   6.798  0.6304  0.6616  4.2623
16154SOL    HW260117   3.861   1.813   6.740 -1.9385 -0.2038 -1.4575
16155SOL     OW60118   0.669   6.998   3.454  0.0933  0.0100  0.1676
16155SOL    HW160119   0.720   6.922   3.492  1.9832  0.9756 -0.3702
16155SOL    HW260120   0.606   7.034   3.522 -0.0809 -1.3894  0.7433
16156SOL     OW60121   1.189   9.401   3.695 -0.4862  0.5516 -0.5209
16156SOL    HW160122   1.120   9.328   3.700  1.4461 -1.3075 -0.4613
16156SOL    HW260123   1.201   9.429   3.600 -1.1677  0.7338 -0.5551
16157SOL     OW60124   3.557   3.070   3.867 -0.4872  0.7531  0.4143
16157SOL    HW160125   3.542   2.975   3.838  0.8435  0.3747  0.9468
16157SOL    HW260126   3.483   3.127   3.831 -0.2317 -0.1249 -1.6199
16158SOL     OW60127   2.422   1.007   5.902 -0.1798  0.6011 -0.6053
16158SOL    HW160128   2.351   1.063   5.944 -1.0257  1.2359 -2.8461
16158SOL    HW260129   2.509   1.057   5.905  0.3254 -0.3424  2.5004
16159SOL     OW60130   3.735   5.222   5.918 -0.5393 -0.2258  0.2753
16159SOL    HW160131   3.764   5.130   5.891  2.4937  0.7080  0.0748
16159SOL    HW260132   3.748   5.234   6.017  3.3545  1.3165 -0.3178
16160SOL     OW60133   4.683   5.273   4.708  0.0586  0.1428  0.1832
16160SOL    HW160134   4.717   5.330   4.783 -0.2469  0.4104  0.1196
16160SOL    HW260135   4.719   5.180   4.718 -0.2877  0.0809  0.8757
16161SOL     OW60136   7.212   0.246   5.366  0.2828 -0.5854 -0.1373
16161SOL    HW160137   7.250   0.332   5.402  1.1457 -0.3231 -1.6321
16161SOL    HW260138   7.249   0.169   5.418 -0.6253 -0.0471  1.3241
16162SOL     OW60139   5.135   8.049   4.679  0.4964 -0.0122 -0.0037
16162SOL    HW160140   5.214   8.095   4.638 -0.8063  1.0362 -1.3619
16162SOL    HW260141   5.117   7.964   4.630  0.5004 -0.0249  0.0157
16163SOL     OW60142   6.540   0.358   6.409 -0.4665 -0.3203 -0.8821
16163SOL    HW160143   6.516   0.400   6.322 -0.1647  1.8014  0.0262
16163SOL    HW260144   6.639   0.338   6.411  0.2320  2.9599  0.2919
16164SOL     OW60145   7.650   3.512   0.055  0.1007  0.3900  0.2287
16164SOL    HW160146   7.641   3.608   0.030 -0.7709 -0.2425 -1.9326
16164SOL    HW260147   7.578   3.458   0.011 -0.0701 -1.1199  2.2518
16165SOL     OW60148   7.170   1.022   2.433 -0.1427  0.2263 -0.3578
16165SOL    HW160149   7.257   0.977   2.453 -0.8637 -0.4129  1.4340
16165SOL    HW260150   7.143   1.001   2.339  1.9783  1.0440 -1.1822
16166SOL     OW60151   1.905   3.940   2.630 -0.3349 -0.2364 -0.1620
16166SOL    HW160152   1.855   3.945   2.717 -0.5423 -2.5362 -0.1294
16166SOL    HW260153   2.003   3.950   2.648 -0.0957 -3.5612  0.7311
16167SOL     OW60154   0.416   8.952   1.803 -0.0757  0.5732 -0.2151
16167SOL    HW160155   0.451   8.966   1.896 -0.2728  2.8176 -0.4582
16167SOL    HW260156   0.322   8.920   1.808  0.2803 -0.4472  0.3508
16168SOL     OW60157   9.859   3.379   4.240 -0.3696 -0.4976 -0.3090
16168SOL    HW160158   9.819   3.290   4.260 -0.0689 -0.5810 -0.0646
16168SOL    HW260159   9.831   3.445   4.311 -0.4740 -0.4344 -0.4093
16169SOL     OW60160   1.678   3.611   5.406 -0.5718 -0.2306 -0.0157
16169SOL    HW160161   1.770   3.584   5.379  0.5012  2.1740  1.0495
16169SOL    HW260162   1.613   3.585   5.334  1.0707 -1.0675 -1.2252
16170SOL     OW60163   5.786   3.514   2.154 -0.0673 -0.0643 -0.0862
16170SOL    HW160164   5.865   3.500   2.094 -0.1902 -1.7667  0.1305
16170SOL    HW260165   5.712   3.453   2.127 -1.0061  0.9001  0.2722
16171SOL     OW60166   6.209   9.892   2.357  0.7347 -0.3198  0.3911
16171SOL    HW160167   6.280   9.948   2.402  0.2074 -0.2957  1.2089
16171SOL    HW260168   6.188   9.931   2.268 -1.2901  2.1732  1.8898
16172SOL     OW60169   1.696   9.169   3.363 -0.4922  0.1724 -0.5032
16172SOL    HW160170   1.653   9.185   3.452  0.7992 -0.8023  0.3105
16172SOL    HW260171   1.790   9.138   3.377  0.7070  2.8565 -2.2609
16173SOL     OW60172   5.383   4.035   2.434  0.8454  0.7744  0.5350
16173SOL    HW160173   5.385   4.135   2.431 -2.1127  1.0268  3.6964
16173SOL    HW260174   5.311   4.005   2.497  2.4124 -3.3461  0.5225
16174SOL     OW60175   3.206   0.997   2.534 -0.4241 -0.7315 -0.0297
16174SOL    HW160176   3.267   1.059   2.484 -0.6269 -0.4397  0.0811
16174SOL    HW260177   3.257   0.918   2.565  0.3591  0.4668  1.8030
16175SOL     OW60178   4.864   4.580   6.928 -0.0461  0.0238 -0.5095
16175SOL    HW160179   4.874   4.660   6.986 -0.7210  0.5450 -1.0983
16175SOL    HW260180   4.814   4.509   6.978  1.1717 -0.3093  0.2628
16176SOL     OW60181   7.717   5.748   0.065  0.2316 -0.6765 -0.6620
16176SOL    HW160182   7.655   5.689   0.115  0.3515 -1.1503 -1.0726
16176SOL    HW260183   7.666   5.823   0.023  0.1695 -0.1073  0.4132
16177SOL     OW60184   2.815   8.453   5.536  0.3687 -0.0402  0.2353
16177SOL    HW160185   2.745   8.525   5.527  0.2283 -0.3038 -0.8873
16177SOL    HW260186   2.901   8.494   5.568  0.2697  0.6159 -0.3275
16178SOL     OW60187   5.669   8.593   2.305 -0.3679  0.1896 -0.3645
16178SOL    HW160188   5.677   8.498   2.338  1.2565 -0.2643 -1.9668
16178SOL    HW260189   5.694   8.655   2.379  0.3945 -0.7183  0.1654
16179SOL     OW60190   5.845   8.943   4.839 -0.1037 -0.5397  0.2310
16179SOL    HW160191   5.873   8.987   4.754 -1.1009  0.0700  0.2082
16179SOL    HW260192   5.819   8.849   4.821 -0.5554 -0.3363 -0.1850
16180SOL     OW60193   3.471   6.803   3.422 -0.9267  0.6879  0.1225
16180SOL    HW160194   3.372   6.791   3.431 -0.6074 -1.0168  1.8210
16180SOL    HW260195   3.518   6.745   3.489  1.3080 -0.6392 -2.4751
16181SOL     OW60196   3.372   8.733   0.129  0.3889  0.0730 -0.0477
16181SOL    HW160197   3.470   8.723   0.146 -0.0489  0.0825  2.6213
16181SOL    HW260198   3.321   8.709   0.211 -1.7256  2.9768 -0.4522
16182SOL     OW60199   2.201   7.675   5.120 -0.2134 -0.0592  0.0776
16182SOL    HW160200   2.217   7.773   5.121 -0.8620  0.0579 -0.4226
16182SOL    HW260201   2.128   7.652   5.185  0.5764 -0.3270  0.8724
16183SOL     OW60202   8.954   2.999   6.839 -0.0662  0.0321  0.5046
16183SOL    HW160203   9.040   3.050   6.832 -0.7534  1.1895  0.2746
16183SOL    HW260204   8.892   3.028   6.765 -0.6825 -0.7295  0.7151
16184SOL     OW60205   2.885   2.111   4.431  0.0002 -0.3692 -0.8020
16184SOL    HW160206   2.977   2.146   4.448  0.3432 -0.7515 -1.8268
16184SOL    HW260207   2.879   2.077   4.337 -1.3854  0.2824 -0.9670
16185SOL     OW60208   8.269   9.060   4.615  0.5904  0.4662  0.1065
16185SOL    HW160209   8.277   8.976   4.561 -0.5849  0.5284 -0.1850
16185SOL    HW260210   8.173   9.089   4.618  0.1946 -0.9655  4.4545
16186SOL     OW60211   9.749   7.151   0.626  0.3832  0.0297  0.2797
16186SOL    HW160212   9.737   7.171   0.529 -1.5822 -1.5682  0.1358
16186SOL    HW260213   9.692   7.213   0.680 -1.2380 -1.3210  0.1718
16187SOL     OW60214   6.019   3.288   2.467 -0.5000  0.2845 -0.2181
16187SOL    HW160215   6.053   3.303   2.560 -2.3152  0.7901  0.3743
16187SOL    HW260216   5.981   3.195   2.461 -1.4789  0.6785 -0.1154
16188SOL     OW60217   4.699   0.599   6.845 -0.6149 -0.2257  0.0251
16188SOL    HW160218   4.619   0.631   6.895 -0.6491  1.4213 -1.0480
16188SOL    HW260219   4.720   0.505   6.872 -2.1217 -0.2184  1.2691
16189SOL     OW60220   0.213   1.953   0.425  0.4470 -0.6771 -0.1940
16189SOL    HW160221   0.268   1.872   0.406 -1.0137 -1.5038 -0.9545
16189SOL    HW260222   0.166   1.943   0.512 -0.4919 -1.0684 -0.7422
16190SOL     OW60223   8.697   7.454   3.534  0.2200 -0.5983  0.0675
16190SOL    HW160224   8.625   7.416   3.475  0.3146  0.0329 -0.4574
16190SOL    HW260225   8.779   7.398   3.525  0.2596 -0.4614 -0.4639
16191SOL     OW60226   6.819   0.098   4.816 -0.1027 -0.0932  0.0751
16191SOL    HW160227   6.853   0.177   4.766 -0.0904 -0.6954 -0.8891
16191SOL    HW260228   6.723   0.111   4.839  0.7539  1.6731  2.9142
16192SOL     OW60229   9.036   4.751   5.916 -0.5769  0.0081  0.4665
16192SOL    HW160230   9.130   4.737   5.883  0.5622 -0.0593  3.5534
16192SOL    HW260231   8.972   4.703   5.856  1.3322  0.2338 -1.8165
16193SOL     OW60232   3.883   9.765   5.750  0.0075 -0.4719 -0.4282
16193SOL    HW160233   3.981   9.782   5.741  0.4991 -1.3494  2.6865
16193SOL    HW260234   3.834   9.852   5.757  0.7522 -0.0810 -0.1015
16194SOL     OW60235   2.984   4.775   6.444 -0.9332 -0.1905 -0.8801
16194SOL    HW160236   3.075   4.757   6.480 -1.6772 -0.2744  1.0023
16194SOL    HW260237   2.917   4.714   6.488 -2.4111  2.2684  0.4367
16195SOL     OW60238   1.726   8.306   5.136  0.6191  0.2378 -0.4078
16195SOL    HW160239   1.715   8.340   5.229  0.8731  1.9651 -0.9838
16195SOL    HW260240   1.793   8.363   5.088  1.1164 -1.1473 -1.3998
16196SOL     OW60241   9.454   5.056   0.834  0.0678 -0.0118  0.6982
16196SOL    HW160242   9.379   5.121   0.845  0.0588  0.4466 -1.7247
16196SOL    HW260243   9.483   5.054   0.738  3.0804 -0.2730  1.5541
16197SOL     OW60244   7.431   5.351   0.104  0.7744  0.1473 -0.6533
16197SOL    HW160245   7.387   5.262   0.118 -0.7716  0.6272 -2.3002
16197SOL    HW260246   7.396   5.415   0.173  2.4837 -0.6841  1.0437
16198SOL     OW60247   8.610   4.399   6.766  0.3723  0.2911  1.0151
16198SOL    HW160248   8.558   4.379   6.683 -0.6020 -1.4327  2.0079
16198SOL    HW260249   8.648   4.491   6.760 -1.4751  1.0011 -0.4162
16199SOL     OW60250   6.966   6.181   1.896  0.1617  0.1967 -0.4627
16199SOL    HW160251   7.030   6.106   1.909 -0.5907 -0.0475  2.0781
16199SOL    HW260252   6.881   6.162   1.946 -0.8986  1.6966 -1.6422
16200SOL     OW60253   7.179   0.895   7.346 -0.2570  0.1459 -0.4804
16200SOL    HW160254   7.263   0.860   7.304  0.3148  1.3667 -0.3917
16200SOL    HW260255   7.106   0.827   7.337  0.6970 -0.8643 -0.6976
16201SOL     OW60256   7.732   6.574   1.253 -0.0217 -0.0230 -0.3088
16201SOL    HW160257   7.751   6.481   1.221 -1.6649 -0.1522 -0.9964
16201SOL    HW260258   7.641   6.601   1.222 -0.3789  1.0588  1.6464
16202SOL     OW60259   4.848   4.501   3.332 -0.1425 -0.1600  0.1351
16202SOL    HW160260   4.766   4.464   3.376  0.0151  1.2740  1.6992
16202SOL    HW260261   4.846   4.480   3.234 -1.8784 -1.0219  0.3413
16203SOL     OW60262   2.440   0.154   2.951  0.0042 -0.1347  0.6930
16203SOL    HW160263   2.495   0.071   2.964 -1.1648 -0.6883  2.3078
16203SOL    HW260264   2.363   0.153   3.015 -0.5358  1.7725  0.1016
16204SOL     OW60265   3.541   5.323   3.121 -0.1171  0.1298  0.2398
16204SOL    HW160266   3.630   5.356   3.155  0.3783 -1.9138  0.9828
16204SOL    HW260267   3.553   5.236   3.075 -2.0643 -1.3586  2.4418
16205SOL     OW60268   7.614   5.938   1.250  0.1717  0.0275  0.6796
16205SOL    HW160269   7.641   6.026   1.288 -1.0426  0.9204 -0.4897
16205SOL    HW260270   7.679   5.910   1.180  1.1499 -0.5295  1.7966
16206SOL     OW60271   7.331   0.059   5.899 -0.0249  0.2951 -0.1862
16206SOL    HW160272   7.327  -0.015   5.967 -0.1728 -1.8043 -2.4353
16206SOL    HW260273   7.425   0.073   5.871 -0.0952  0.4198 -0.3588
16207SOL     OW60274   9.445   8.549   8.027  0.2021  0.2030 -0.1122
16207SOL    HW160275   9.430   8.640   8.064  0.4904 -1.2401  3.7775
16207SOL    HW260276   9.360   8.496   8.033  0.6917 -0.5811  0.0225
16208SOL     OW60277   1.472   7.125   3.590 -0.4431  0.9354 -0.8389
16208SOL    HW160278   1.427   7.036   3.595 -1.2521  1.4421  2.2667
16208SOL    HW260279   1.558   7.116   3.540 -0.8624 -1.4403 -1.1985
16209SOL     OW60280   2.547   6.953   6.687  0.0197  0.4209 -0.5173
16209SOL    HW160281   2.587   6.871   6.646 -0.0442 -0.7593  1.6801
16209SOL    HW260282   2.617   7.024   6.695  0.5611 -0.0896 -0.7076
16210SOL     OW60283   3.870   4.545   4.297 -0.0054 -0.8062 -0.2685
16210SOL    HW160284   3.959   4.591   4.290 -0.2122 -0.4454 -0.5364
16210SOL    HW260285   3.817   4.587   4.370 -1.1254  0.9644 -2.0525
16211SOL     OW60286   9.116   5.595   5.497 -0.9754  0.0708  0.3220
16211SOL    HW160287   9.074   5.671   5.547 -0.9392  0.7004 -0.5919
16211SOL    HW260288   9.205   5.623   5.463 -1.0311 -0.3254 -0.1500
16212SOL     OW60289   7.321   2.566   3.509  0.2575  0.2650 -0.0690
16212SOL    HW160290   7.232   2.608   3.527 -0.9276 -2.4861  0.7748
16212SOL    HW260291   7.324   2.475   3.551  1.9609 -1.3553 -3.4653
16213SOL     OW60292   0.817   3.326   0.508  0.0627  0.5646  0.3553
16213SOL    HW160293   0.864   3.391   0.568 -1.5577  0.8999  1.3175
16213SOL    HW260294   0.740   3.286   0.558  0.1586 -0.9889 -0.7214
16214SOL     OW60295   9.310   9.058   6.647 -0.6298  0.4279 -0.1805
16214SOL    HW160296   9.364   9.135   6.684 -0.2113  0.0723 -0.0488
16214SOL    HW260297   9.310   9.063   6.547  1.7198 -0.9646 -0.2864
16215SOL     OW60298   1.341   2.390   0.851 -0.0155  0.0861 -0.5706
16215SOL    HW160299   1.259   2.430   0.810  0.1777  1.0522 -0.0123
16215SOL    HW260300   1.421   2.445   0.827  0.8560 -2.1936 -3.1446
16216SOL     OW60301   2.492   5.304   5.360 -0.4594  0.0179 -0.5695
16216SOL    HW160302   2.516   5.333   5.267  1.5070 -2.3875 -0.8540
16216SOL    HW260303   2.533   5.215   5.379  0.9464  1.3859  3.3684
16217SOL     OW60304   2.695   4.059   2.244  0.1741  0.2086  0.0445
16217SOL    HW160305   2.658   4.114   2.318 -0.8148  0.3148 -0.5233
16217SOL    HW260306   2.786   4.093   2.219 -0.1611  1.1697  0.1273
16218SOL     OW60307   1.693   9.560   3.033 -0.9231 -0.6201 -0.1508
16218SOL    HW160308   1.639   9.603   2.961  0.2735 -1.2699 -1.4527
16218SOL    HW260309   1.746   9.629   3.082 -1.9269 -0.1485  0.2839
16219SOL     OW60310   2.903   1.563   3.794  0.1299 -0.0870  0.2852
16219SOL    HW160311   2.958   1.500   3.739  0.4183  0.2530  0.1759
16219SOL    HW260312   2.836   1.512   3.848 -0.3052 -0.4106 -0.5541
16220SOL     OW60313   7.042   9.197   2.054 -0.0177 -0.5399 -0.3891
16220SOL    HW160314   7.060   9.262   1.980 -0.3267 -0.3578 -0.3013
16220SOL    HW260315   6.948   9.207   2.086 -0.2636 -1.4274 -0.7800
16221SOL     OW60316   8.339   4.517   0.758 -0.4034 -0.3872  0.1927
16221SOL    HW160317   8.372   4.478   0.672  0.2527  0.3636  0.0973
16221SOL    HW260318   8.276   4.592   0.738  0.3712  0.3150  0.3542
16222SOL     OW60319   8.963   8.854   5.795 -0.2649  0.0109  0.3035
16222SOL    HW160320   9.004   8.802   5.870  0.1014  0.5957  0.5068
16222SOL    HW260321   9.005   8.945   5.790 -0.2257 -0.0557 -0.6625
16223SOL     OW60322   7.758   3.376   4.125 -0.2712 -0.0504  0.4646
16223SOL    HW160323   7.704   3.362   4.042  0.2142 -0.6807  0.2533
16223SOL    HW260324   7.704   3.427   4.192 -0.6850  0.4149 -0.2166
16224SOL     OW60325   1.105   4.494   1.583  0.2364 -0.1717 -0.1573
16224SOL    HW160326   1.124   4.396   1.577  0.4464 -0.0520 -1.8580
16224SOL    HW260327   1.110   4.534   1.491  0.1345  1.4298  0.5226
16225SOL     OW60328   4.189   2.199   4.943  0.1297  1.0792  0.3987
16225SOL    HW160329   4.234   2.112   4.963  0.1370  0.5170 -1.9317
16225SOL    HW260330   4.257   2.270   4.930  0.4833  0.1781 -3.3773
16226SOL     OW60331   7.641   6.274   7.906 -0.9610 -0.1505  0.7715
16226SOL    HW160332   7.683   6.213   7.973  0.4400 -1.2090 -1.0151
16226SOL    HW260333   7.638   6.367   7.943  2.5685 -0.1261  1.1774
16227SOL     OW60334   0.956   4.799   2.850  0.2131 -0.1925  0.4565
16227SOL    HW160335   0.905   4.772   2.768  1.1895 -0.6190 -0.0255
16227SOL    HW260336   0.900   4.860   2.906 -0.9548 -0.9553  0.1312
16228SOL     OW60337   1.025   1.957   6.887  0.1503 -0.0023 -0.3881
16228SOL    HW160338   1.033   1.892   6.812  0.8183 -0.3208 -0.0491
16228SOL    HW260339   1.095   2.028   6.877  0.6727 -0.4155  0.2843
16229SOL     OW60340   9.568   8.924   1.039 -0.3129  0.3226 -0.5007
16229SOL    HW160341   9.643   8.991   1.036 -1.9223  2.1437 -1.1726
16229SOL    HW260342   9.547   8.903   1.134 -0.2553  1.3120 -0.2646
16230SOL     OW60343   6.845   2.331   1.161 -0.2850  0.0886 -0.1566
16230SOL    HW160344   6.796   2.249   1.131  0.2209 -0.2410 -0.0947
16230SOL    HW260345   6.850   2.331   1.261  0.5908 -0.3155 -0.2029
16231SOL     OW60346   8.225   4.829   0.994 -0.0318 -0.3941  0.3110
16231SOL    HW160347   8.325   4.833   0.994 -0.0710  1.0899  0.3990
16231SOL    HW260348   8.189   4.915   1.031 -1.3348 -1.3787  1.3780
16232SOL     OW60349   0.021   5.954   5.592 -0.3136 -0.3915  0.2995
16232SOL    HW160350   0.051   6.047   5.571 -0.6000 -0.3364  0.1324
16232SOL    HW260351  -0.077   5.954   5.611 -0.6086 -0.9014 -1.2027
16233SOL     OW60352   1.720   7.242   5.603 -0.2680  0.0639 -0.2901
16233SOL    HW160353   1.655   7.314   5.577 -1.8887 -1.8570 -1.7871
16233SOL    HW260354   1.669   7.162   5.636  1.5395 -0.0823  2.2565
16234SOL     OW60355   2.232   0.899   0.468 -0.5562  0.8286  0.5529
16234SOL    HW160356   2.180   0.880   0.385 -1.5893 -0.3586  1.4542
16234SOL    HW260357   2.258   0.996   0.470 -0.3941  0.8300 -1.2092
16235SOL     OW60358   9.756   8.164   7.733 -1.0510  0.4348 -0.2664
16235SOL    HW160359   9.705   8.248   7.751 -1.7019  0.3464 -1.6260
16235SOL    HW260360   9.767   8.152   7.634  1.4643  0.3649 -0.0155
16236SOL     OW60361   1.787   0.546   0.077 -0.1135  0.2606  0.3141
16236SOL    HW160362   1.770   0.466   0.020 -0.1764  1.2648 -1.0906
16236SOL    HW260363   1.712   0.612   0.067  0.2879  0.8228  0.9119
16237SOL     OW60364   7.117   0.925   5.652 -0.0354  0.4396 -0.1758
16237SOL    HW160365   7.151   0.851   5.595 -0.1191 -0.1178  0.4843
16237SOL    HW260366   7.145   1.013   5.613 -1.4275  0.1343 -1.9161
16238SOL     OW60367   4.315   2.216   7.409  0.8768  0.2562  0.1708
16238SOL    HW160368   4.342   2.127   7.446  0.5592 -0.2450 -0.8002
16238SOL    HW260369   4.219   2.214   7.384  0.2879  1.5766  2.1978
16239SOL     OW60370   6.819   2.454   3.936  0.1079  0.0295 -0.6310
16239SOL    HW160371   6.776   2.379   3.886  0.7545 -1.4711  1.0365
16239SOL    HW260372   6.751   2.498   3.995  0.4564 -1.2423  0.7224
16240SOL     OW60373   8.216   6.618   1.340 -0.3917 -0.5028  0.1676
16240SOL    HW160374   8.227   6.553   1.265  1.4153 -1.7151  1.4074
16240SOL    HW260375   8.124   6.611   1.378 -0.1775 -2.4868  0.3792
16241SOL     OW60376   2.101   5.203   5.258  0.2590 -0.2385  0.5608
16241SOL    HW160377   2.080   5.200   5.356  1.3811  0.9784  0.8574
16241SOL    HW260378   2.067   5.120   5.214 -1.4134 -0.1931  1.7405
16242SOL     OW60379   6.823   2.320   1.445  0.3509  0.9826 -0.4846
16242SOL    HW160380   6.739   2.269   1.428 -0.1491  2.3902 -2.5291
16242SOL    HW260381   6.881   2.270   1.509 -1.4123 -0.6812 -0.1463
16243SOL     OW60382   7.098   8.038   4.559 -0.1659 -0.8417  0.7112
16243SOL    HW160383   7.038   8.111   4.529  0.6060  0.2058  1.6423
16243SOL    HW260384   7.193   8.061   4.535  0.1447 -1.2464  1.5026
16244SOL     OW60385   4.143   6.536   0.368  0.4306  0.1176  0.8485
16244SOL    HW160386   4.124   6.451   0.320 -0.3857 -0.0294  1.4374
16244SOL    HW260387   4.237   6.535   0.402  0.4399 -0.5127  0.7943
16245SOL     OW60388   7.589   8.700   3.702 -0.0132  0.0250 -0.3462
16245SOL    HW160389   7.571   8.798   3.711  0.0456 -0.0295  0.4799
16245SOL    HW260390   7.621   8.680   3.610  0.3616  0.8480 -0.3997
16246SOL     OW60391   4.462   5.572   2.765  0.1284  0.4707  0.3956
16246SOL    HW160392   4.441   5.487   2.715 -0.6002 -0.6496  2.5226
16246SOL    HW260393   4.376   5.618   2.789  0.5033  1.4820 -0.1790
16247SOL     OW60394   4.658   7.812   4.603 -0.5815  0.6350 -0.0954
16247SOL    HW160395   4.652   7.839   4.699 -0.9690 -0.7876  0.2961
16247SOL    HW260396   4.741   7.851   4.562  0.2235  0.2437  1.1477
16248SOL     OW60397   8.886   2.766   0.412 -0.5851 -0.1600  0.2087
16248SOL    HW160398   8.879   2.670   0.438  0.9772 -0.1382  0.7539
16248SOL    HW260399   8.870   2.824   0.491 -4.2380  0.1453 -0.6478
16249SOL     OW60400   4.586   7.228   4.791 -0.0736  0.5070 -0.2805
16249SOL    HW160401   4.547   7.315   4.821 -0.9355  0.6120 -1.6645
16249SOL    HW260402   4.518   7.156   4.800  1.1125 -0.3506  2.2936
16250SOL     OW60403   5.638   7.840   2.727  0.0850 -0.2267  0.0638
16250SOL    HW160404   5.707   7.848   2.800  0.9860 -0.9200 -0.7054
16250SOL    HW260405   5.553   7.805   2.766  0.9842 -1.9322  0.5548
16251SOL     OW60406   4.954   8.027   1.906  0.5402  0.2420 -0.5097
16251SOL    HW160407   4.924   8.053   1.998 -1.4730 -0.3635 -0.9730
16251SOL    HW260408   4.992   7.935   1.908  1.0225  0.4431 -0.1952
16252SOL     OW60409   7.132   8.464   7.879 -0.1894  0.6200  0.3939
16252SOL    HW160410   7.045   8.451   7.831 -0.6971 -0.7791  1.6571
16252SOL    HW260411   7.117   8.463   7.978  1.2384  0.5036  0.6292
16253SOL     OW60412   7.473   4.544   1.716 -0.3051 -0.1179  0.1583
16253SOL    HW160413   7.426   4.540   1.628 -0.6410  1.8317  0.2231
16253SOL    HW260414   7.572   4.532   1.702 -0.4032 -0.2544 -0.4283
16254SOL     OW60415   3.518   0.275   4.367 -0.4730  0.0779  0.1916
16254SOL    HW160416   3.564   0.354   4.329 -0.6363 -0.4960 -1.2377
16254SOL    HW260417   3.581   0.224   4.426 -0.4483  1.3962  1.3122
16255SOL     OW60418   4.117   8.822   1.709 -0.4431 -0.1973  0.7006
16255SOL    HW160419   4.117   8.817   1.609  0.4011 -0.8681  0.7283
16255SOL    HW260420   4.080   8.910   1.739  0.0683  0.3252 -0.2170
16256SOL     OW60421   7.168   7.840   6.453  0.0654  0.4486  0.6962
16256SOL    HW160422   7.180   7.891   6.368 -2.5899  0.0193  0.0253
16256SOL    HW260423   7.114   7.895   6.517 -0.8025 -0.5549  0.8359
16257SOL     OW60424   3.129   4.289   3.772  0.4821 -0.3540 -0.1508
16257SOL    HW160425   3.178   4.209   3.738  1.4700  0.9995 -1.9770
16257SOL    HW260426   3.054   4.312   3.710  0.7797  0.6805 -0.1434
16258SOL     OW60427   1.556   7.648   0.831 -0.6528  0.0494  0.1016
16258SOL    HW160428   1.596   7.734   0.862  0.5200 -0.7694  0.8748
16258SOL    HW260429   1.458   7.648   0.851 -0.4107  0.6566  1.3487
16259SOL     OW60430   6.146   5.662   2.049  0.4854  0.0510  0.4188
16259SOL    HW160431   6.109   5.607   2.125  2.2396 -0.0950  1.1795
16259SOL    HW260432   6.190   5.601   1.983  0.6357  0.3666  0.2291
16260SOL     OW60433   7.824   3.003   6.909  0.0719  0.4719  0.1538
16260SOL    HW160434   7.817   2.932   6.840 -0.5280  1.1499 -0.4960
16260SOL    HW260435   7.845   2.962   6.998 -0.2479 -0.5035 -0.2161
16261SOL     OW60436   3.728   9.579   4.070 -0.3089 -0.5852 -1.0631
16261SOL    HW160437   3.704   9.532   3.985 -0.8895 -0.9849 -0.6788
16261SOL    HW260438   3.766   9.512   4.134 -1.4428 -0.5859 -0.3929
16262SOL     OW60439   7.714   9.366   1.994 -0.2542  0.2079  0.3970
16262SOL    HW160440   7.716   9.462   2.021 -0.2379  0.0163  1.0938
16262SOL    HW260441   7.712   9.359   1.895  0.1196  0.9229  0.3377
16263SOL     OW60442   9.908   2.309   4.397  0.4316  0.6280 -0.0625
16263SOL    HW160443   9.900   2.324   4.496  2.0905  1.5368 -0.0414
16263SOL    HW260444   9.887   2.394   4.349  1.4474  0.6989 -0.3896
16264SOL     OW60445   1.812   3.945   7.426  0.6741  0.3375  0.6047
16264SOL    HW160446   1.873   3.872   7.458  1.9808  1.6061  1.0372
16264SOL    HW260447   1.849   3.985   7.342  0.0351  0.6015  0.4487
16265SOL     OW60448   0.643   1.705   2.069 -0.0303  0.1151 -0.1694
16265SOL    HW160449   0.654   1.759   1.985 -1.3505  0.4269 -0.1475
16265SOL    HW260450   0.724   1.648   2.082  0.2501  0.1723 -1.5746
16266SOL     OW60451   7.913   3.342   0.718  1.1726  0.5104  0.2740
16266SOL    HW160452   7.919   3.316   0.815  0.4542 -0.0228  0.1791
16266SOL    HW260453   8.004   3.345   0.679  1.6997  3.0987  1.5873
16267SOL     OW60454   0.213   7.279   4.796 -0.1582 -0.6865  0.3249
16267SOL    HW160455   0.181   7.374   4.794  1.4249 -0.1079 -4.5410
16267SOL    HW260456   0.307   7.276   4.832  0.2485 -0.2291 -0.6923
16268SOL     OW60457   0.767   5.090   2.832 -0.5564  0.3986 -0.4297
16268SOL    HW160458   0.793   5.043   2.916 -0.9012  2.1218  0.6742
16268SOL    HW260459   0.695   5.038   2.785 -0.5647 -0.4228  0.4949
16269SOL     OW60460   4.482   2.955   7.753 -0.0887  0.2714  0.5338
16269SOL    HW160461   4.426   2.915   7.681  0.1538 -0.9335  1.0003
16269SOL    HW260462   4.474   3.055   7.750 -1.7106  0.1506  0.1604
16270SOL     OW60463   6.501   2.183   4.156 -1.0577  0.2293  0.3886
16270SOL    HW160464   6.535   2.099   4.199 -0.0002  0.0701 -0.7117
16270SOL    HW260465   6.508   2.173   4.056 -0.2545  1.9007  0.2663
16271SOL     OW60466   5.630   8.330   3.925 -0.8436  0.0071 -0.1613
16271SOL    HW160467   5.663   8.421   3.901  1.5504 -0.4770  1.1352
16271SOL    HW260468   5.567   8.337   4.003  0.6424  0.4362  1.0418
16272SOL     OW60469   8.755   2.883   7.326  0.0085 -0.1157  0.5570
16272SOL    HW160470   8.834   2.885   7.264 -0.5115 -0.2380 -0.1227
16272SOL    HW260471   8.730   2.977   7.351  0.6042 -0.0943  1.0847
16273SOL     OW60472   4.432   4.262   2.280 -0.3490 -0.5043  0.0625
16273SOL    HW160473   4.363   4.191   2.265 -1.7648  0.4340  1.9458
16273SOL    HW260474   4.404   4.346   2.235 -0.0302 -0.3608  0.1340
16274SOL     OW60475   9.708   6.847   1.753 -0.3656 -0.5274 -0.2133
16274SOL    HW160476   9.715   6.754   1.716 -0.4727 -1.7043  2.6068
16274SOL    HW260477   9.784   6.864   1.816 -0.9573  0.8872  0.1442
16275SOL     OW60478   7.488   7.755   6.130 -0.1734  0.0497  0.1055
16275SOL    HW160479   7.496   7.722   6.224 -0.9367 -1.2262 -0.2641
16275SOL    HW260480   7.568   7.726   6.077  0.4430  1.0998  0.4522
16276SOL     OW60481   5.999   7.770   4.705 -0.0159  0.2502  0.0021
16276SOL    HW160482   5.956   7.740   4.620 -0.5968  1.7985 -0.2807
16276SOL    HW260483   6.095   7.791   4.688  0.6921 -2.5041  0.4668
16277SOL     OW60484   4.379   6.171   3.271  0.2475 -0.1622  0.3294
16277SOL    HW160485   4.302   6.206   3.324  0.7433  1.6426 -0.1083
16277SOL    HW260486   4.463   6.219   3.298  0.5495  0.5833 -1.8861
16278SOL     OW60487   2.951   5.682   0.339  0.4800  0.4600  0.3387
16278SOL    HW160488   2.949   5.701   0.241 -0.4579 -0.4088  0.1753
16278SOL    HW260489   3.045   5.685   0.372  1.2058 -2.5357 -1.2651
16279SOL     OW60490   7.593   0.535   0.929 -0.7219 -0.4443 -0.3543
16279SOL    HW160491   7.590   0.634   0.927 -0.1511 -0.4334 -1.1332
16279SOL    HW260492   7.520   0.498   0.872 -2.3055 -0.5041  1.6925
16280SOL     OW60493   0.124   5.605   1.471 -0.1393  0.2993 -0.3114
16280SOL    HW160494   0.136   5.509   1.445 -1.9552 -0.9238  3.1701
16280SOL    HW260495   0.034   5.637   1.443 -0.4556  0.2738  0.6763
16281SOL     OW60496   0.428   7.132   2.223 -0.4389 -0.2126 -0.4461
16281SOL    HW160497   0.336   7.095   2.239  0.0909 -1.2901  0.1120
16281SOL    HW260498   0.485   7.063   2.180 -0.3776  1.0334 -2.4156
16282SOL     OW60499   9.720   7.687   0.635  0.1342  0.6013  0.6970
16282SOL    HW160500   9.635   7.634   0.630  0.6020 -0.0502 -0.5370
16282SOL    HW260501   9.709   7.772   0.582  0.7844 -0.2466 -0.8224
16283SOL     OW60502   1.885   2.030   0.521 -0.2000 -0.5961 -0.0159
16283SOL    HW160503   1.928   1.940   0.523  0.6460 -0.1966  0.3232
16283SOL    HW260504   1.893   2.072   0.611  0.3810  0.2569 -0.4566
16284SOL     OW60505   8.087   4.295   3.905 -0.3241 -0.3609  0.4351
16284SOL    HW160506   8.134   4.273   3.991 -4.1741  0.0412  2.7620
16284SOL    HW260507   8.067   4.393   3.903  0.9310 -0.1134 -1.6133
16285SOL     OW60508   3.417   8.915   3.545 -0.3501 -0.5333  0.3256
16285SOL    HW160509   3.459   8.825   3.539 -0.4946 -0.5807  0.0195
16285SOL    HW260510   3.485   8.982   3.574  0.6228 -0.1284 -2.6969
16286SOL     OW60511   1.832   3.306   0.314  0.9899  0.0409 -0.5048
16286SOL    HW160512   1.912   3.250   0.335  1.0432  0.5796  0.7848
16286SOL    HW260513   1.780   3.263   0.240  0.7467 -1.9961  0.8090
16287SOL     OW60514   5.873   1.500   7.089  0.6030  0.3135  0.2324
16287SOL    HW160515   5.900   1.596   7.090  1.3129  0.1117  0.4284
16287SOL    HW260516   5.821   1.481   7.005 -0.6483  1.1588  0.7915
16288SOL     OW60517   2.952   0.350   2.329 -0.3497 -0.0670 -0.5347
16288SOL    HW160518   3.021   0.398   2.274  0.0772 -0.6795 -0.5306
16288SOL    HW260519   2.993   0.318   2.414 -0.7595 -0.0223 -0.3154
16289SOL     OW60520   4.040   5.705   3.445  0.4455 -0.2334  0.1702
16289SOL    HW160521   3.949   5.674   3.472  0.0002  0.9050  0.0246
16289SOL    HW260522   4.075   5.769   3.514  1.0933 -0.5716  0.1679
16290SOL     OW60523   8.840   1.430  10.066 -1.4256 -0.2972 -0.5319
16290SOL    HW160524   8.934   1.445  10.099 -2.1931  1.3541  0.9850
16290SOL    HW260525   8.839   1.433   9.966 -0.1205  1.3865 -0.5218
16291SOL     OW60526   9.972   0.825   5.983 -0.3220  0.0582  0.0616
16291SOL    HW160527  10.048   0.767   6.014  0.4495  0.2064 -1.5095
16291SOL    HW260528   9.987   0.851   5.888 -1.9701  0.7343 -0.0222
16292SOL     OW60529   2.952   4.799   6.822 -0.2937  0.3718 -0.1032
16292SOL    HW160530   3.034   4.747   6.799 -0.0079  1.1179 -0.8055
16292SOL    HW260531   2.974   4.897   6.826 -0.9547  0.5004  0.5873
16293SOL     OW60532   8.430   7.212   5.980 -0.2465  0.3011 -0.4055
16293SOL    HW160533   8.374   7.181   5.902  0.8333  0.5638 -1.2913
16293SOL    HW260534   8.497   7.279   5.948  0.6247 -0.0678  0.6440
16294SOL     OW60535   5.483   9.303   2.348  0.2511 -0.2586  0.5112
16294SOL    HW160536   5.494   9.280   2.445  3.9861 -0.2449  0.1602
16294SOL    HW260537   5.419   9.239   2.306 -0.9650 -0.6293  2.8278
16295SOL     OW60538   4.696   0.069   3.872 -0.0315  0.2972  0.0124
16295SOL    HW160539   4.631  -0.004   3.891  0.1521  0.1927  0.2379
16295SOL    HW260540   4.661   0.156   3.906  1.1777 -0.1982  2.6099
16296SOL     OW60541   2.142   8.895   2.031  0.2548  0.2077  0.2784
16296SOL    HW160542   2.072   8.929   2.094  0.1406  0.9966 -0.2815
16296SOL    HW260543   2.106   8.891   1.938  0.4691 -0.8316  0.2283
16297SOL     OW60544   9.940   5.686   0.504 -0.2265  0.2808 -0.3919
16297SOL    HW160545   9.945   5.622   0.427 -0.2969  1.5709 -1.4812
16297SOL    HW260546   9.849   5.726   0.508 -0.5493 -0.5742  1.0221
16298SOL     OW60547   2.223   0.800   0.209 -0.2490 -0.1841 -0.6281
16298SOL    HW160548   2.168   0.729   0.165  1.7684 -0.3658 -2.9572
16298SOL    HW260549   2.200   0.889   0.170  1.7995 -0.3884 -2.3592
16299SOL     OW60550   0.969   7.646   0.844  0.0508  0.3391 -0.3183
16299SOL    HW160551   0.893   7.623   0.905 -0.5418 -2.0214 -1.8671
16299SOL    HW260552   0.946   7.621   0.751  2.3140  0.6276 -0.9957
16300SOL     OW60553   4.283   3.424   4.032 -0.4067  0.2059 -0.4632
16300SOL    HW160554   4.254   3.329   4.022  0.7824 -0.3214  0.9216
16300SOL    HW260555   4.354   3.430   4.102  0.1778  1.9979 -1.1862
16301SOL     OW60556   0.118   5.877   5.304 -0.7613  0.2943  0.0130
16301SOL    HW160557   0.085   5.919   5.388 -0.1080  0.4874  0.1753
16301SOL    HW260558   0.042   5.832   5.257 -1.2989  0.9401  0.2578
16302SOL     OW60559   8.702   0.011   5.876  0.5518 -0.8395 -0.1668
16302SOL    HW160560   8.746   0.039   5.791  1.1919  0.0625  0.4489
16302SOL    HW260561   8.757  -0.060   5.920  1.1884 -0.0046  0.3980
16303SOL     OW60562   3.120   0.374  10.061 -0.2697 -0.5361 -0.7118
16303SOL    HW160563   3.216   0.346  10.065  0.1923  1.1929  0.8124
16303SOL    HW260564   3.066   0.317  10.123  0.1712 -0.0600  0.1280
16304SOL     OW60565   8.000   4.028   1.153 -0.6701  0.3303  0.1768
16304SOL    HW160566   7.926   3.960   1.146  0.0311 -0.6498  1.9205
16304SOL    HW260567   7.997   4.070   1.243  1.4581 -0.3871  0.6056
16305SOL     OW60568   9.991   9.115   1.270  0.0207  0.2075  0.2243
16305SOL    HW160569   9.915   9.179   1.255 -1.7191 -1.6884  0.7547
16305SOL    HW260570   9.989   9.083   1.365  1.7759  0.4699  0.3688
16306SOL     OW60571   7.835   1.250   3.054  0.6616  0.2635 -0.2250
16306SOL    HW160572   7.783   1.284   3.132  1.2656  0.0035  0.2949
16306SOL    HW260573   7.812   1.154   3.038 -0.0393  0.5303 -0.8543
16307SOL     OW60574   4.967   8.747   2.305  0.2071 -0.2217 -0.0558
16307SOL    HW160575   4.872   8.751   2.274  0.3635 -0.1218 -0.5172
16307SOL    HW260576   4.989   8.654   2.333  0.1610 -0.3747 -0.5339
16308SOL     OW60577   1.385   8.963  10.013 -0.1463  0.1358 -0.2373
16308SOL    HW160578   1.300   8.974  10.065 -0.7367  0.8060 -1.3323
16308SOL    HW260579   1.438   9.047  10.019  0.3464 -0.2109  0.2709
16309SOL     OW60580   4.873   0.243   1.513 -0.4195 -0.2940 -0.0948
16309SOL    HW160581   4.949   0.212   1.570 -0.4282 -1.2990 -0.6105
16309SOL    HW260582   4.815   0.164   1.490  0.3327 -0.1402 -2.6045
16310SOL     OW60583   8.945   5.222   7.329 -0.2436  0.4640  0.0088
16310SOL    HW160584   8.880   5.214   7.405  1.6420 -0.4648  1.5603
16310SOL    HW260585   8.933   5.145   7.267 -3.3089  2.3766 -1.8998
16311SOL     OW60586   0.537   2.341   5.502 -0.4332 -0.3825  0.3825
16311SOL    HW160587   0.599   2.350   5.424 -0.6093  0.7457  0.3582
16311SOL    HW260588   0.467   2.273   5.482 -1.2685  0.8676 -0.9780
16312SOL     OW60589   2.426   8.539   0.672  0.2735 -0.1789 -0.3862
16312SOL    HW160590   2.471   8.459   0.711  0.4230 -0.3170 -0.8423
16312SOL    HW260591   2.432   8.616   0.736 -0.7858 -0.8227  0.5060
16313SOL     OW60592   8.144   8.423   2.846  0.6462  0.3605  0.0128
16313SOL    HW160593   8.225   8.367   2.862  0.5563  0.8768  2.5821
16313SOL    HW260594   8.068   8.386   2.900 -0.2760  1.0848 -0.7747
16314SOL     OW60595   2.687   1.155   0.132 -0.3152  0.2626 -0.7219
16314SOL    HW160596   2.642   1.067   0.120 -2.0461  1.3560 -2.5838
16314SOL    HW260597   2.619   1.228   0.129  1.0379  1.6559  1.2332
16315SOL     OW60598   0.875   4.743   1.604  0.1414  0.3875  0.5213
16315SOL    HW160599   0.885   4.652   1.563  0.8755 -0.3204  2.1836
16315SOL    HW260600   0.779   4.766   1.612 -0.1303 -1.0325  1.6730
16316SOL     OW60601   7.490   9.966   8.204 -0.3331 -0.2316 -0.6610
16316SOL    HW160602   7.414  10.029   8.223  0.8459  0.7514  0.9685
16316SOL    HW260603   7.472   9.878   8.249 -0.3683  0.1063 -0.0052
16317SOL     OW60604   8.114   5.478   1.080  0.0891 -0.0545 -0.2209
16317SOL    HW160605   8.162   5.395   1.107  0.6604  0.0511 -0.8979
16317SOL    HW260606   8.022   5.478   1.120  0.4266 -0.5517  0.5610
16318SOL     OW60607   8.129   7.614   1.412 -0.1041 -0.5280 -0.3197
16318SOL    HW160608   8.206   7.621   1.476 -0.3056 -0.6906 -0.0603
16318SOL    HW260609   8.097   7.706   1.389 -1.1988 -0.5118  1.2255
16319SOL     OW60610   1.950   9.408   4.152 -0.5819 -0.1992 -0.0217
16319SOL    HW160611   1.958   9.490   4.209 -1.7237 -0.6595  0.8266
16319SOL    HW260612   1.859   9.406   4.110  0.1414 -0.0286 -1.6190
16320SOL     OW60613   7.740   0.878   7.553 -0.1991 -0.1075 -0.2038
16320SOL    HW160614   7.746   0.843   7.647  0.4025  3.0946  1.0221
16320SOL    HW260615   7.808   0.951   7.540 -0.3229 -0.4570 -3.1234
16321SOL     OW60616   2.020   8.366   5.910  0.1035 -0.7103  0.1286
16321SOL    HW160617   2.008   8.457   5.871  0.3650 -0.8097 -0.1877
16321SOL    HW260618   2.062   8.373   6.000  1.9138 -0.6203 -0.7056
16322SOL     OW60619   2.299   5.047   7.047 -0.3180 -0.0366 -0.0227
16322SOL    HW160620   2.324   5.038   7.143 -1.9630  0.6948  0.4872
16322SOL    HW260621   2.343   4.974   6.994  4.2749  2.1439  0.5151
16323SOL     OW60622   9.012   4.162   1.909 -0.4447  0.1444 -0.1909
16323SOL    HW160623   9.019   4.063   1.901  1.1267  0.2250 -0.0651
16323SOL    HW260624   8.991   4.187   2.003 -1.5767 -0.0930 -0.3759
16324SOL     OW60625   7.786   6.038   2.289 -0.3644 -0.0712  0.1587
16324SOL    HW160626   7.761   6.005   2.198 -0.1277 -0.6762  0.3058
16324SOL    HW260627   7.847   6.116   2.280 -0.7983  0.2315 -0.2016
16325SOL     OW60628   0.260   4.393   6.768  0.1508 -0.6560 -0.1320
16325SOL    HW160629   0.334   4.330   6.793  1.7462  1.3546  0.3805
16325SOL    HW260630   0.296   4.487   6.767 -2.5024  0.3994  0.5111
16326SOL     OW60631   3.046   4.357   4.263  0.0610 -0.2037 -0.3948
16326SOL    HW160632   2.963   4.314   4.227  0.4923 -1.5975  0.2334
16326SOL    HW260633   3.125   4.328   4.209  0.4515 -0.7975  0.4806
16327SOL     OW60634   8.118   6.989   1.999  0.2437 -0.0525 -0.2863
16327SOL    HW160635   8.200   6.996   1.942 -0.5244  0.7484 -1.3239
16327SOL    HW260636   8.086   7.081   2.022 -0.3164 -0.3611  0.1913
16328SOL     OW60637   0.367   2.854   5.792  0.0276  0.1089  0.1772
16328SOL    HW160638   0.462   2.829   5.808  0.7199  0.5719 -2.9206
16328SOL    HW260639   0.352   2.950   5.818  0.8767  0.5775 -1.0442
16329SOL     OW60640   4.346   0.371   4.737  0.1593 -0.8968  0.4361
16329SOL    HW160641   4.397   0.336   4.815  0.5036 -1.3666  0.0032
16329SOL    HW260642   4.404   0.433   4.684  0.2105 -1.2469  0.0761
16330SOL     OW60643   9.543   7.358   3.089  0.0041 -0.0802 -0.0841
16330SOL    HW160644   9.596   7.274   3.101  0.3073 -0.0168 -0.9588
16330SOL    HW260645   9.470   7.342   3.023  0.3604  0.4729 -0.6214
16331SOL     OW60646   2.867   5.913   3.186 -0.4338  0.2319 -0.2835
16331SOL    HW160647   2.960   5.884   3.162 -0.7686 -0.6981 -0.4804
16331SOL    HW260648   2.859   5.921   3.285 -0.7675 -1.8922 -0.1176
16332SOL     OW60649   7.899   0.152   0.619  0.2862 -0.1294 -0.3387
16332SOL    HW160650   7.955   0.233   0.635  1.6113 -1.2477  0.7931
16332SOL    HW260651   7.879   0.145   0.521  0.6261  1.2447 -0.5249
16333SOL     OW60652   7.068   1.428   3.609  0.0247 -0.2900 -0.9123
16333SOL    HW160653   7.149   1.480   3.584  0.2252 -1.1708 -2.1477
16333SOL    HW260654   7.030   1.464   3.694  1.0506  0.8568 -0.9273
16334SOL     OW60655   7.393   7.532   7.634  0.8662  0.2831 -0.0831
16334SOL    HW160656   7.301   7.516   7.598  1.4954  3.5053 -3.4487
16334SOL    HW260657   7.405   7.630   7.651  3.2098 -0.2802  1.7436
16335SOL     OW60658   3.665   4.178   3.821  0.3956 -0.3980  0.1046
16335SOL    HW160659   3.592   4.114   3.845 -0.9424  0.9133 -0.3543
16335SOL    HW260660   3.680   4.241   3.897  0.3131  0.0032 -0.2100
16336SOL     OW60661   6.303   4.193   1.738 -0.5810  0.8470 -0.1329
16336SOL    HW160662   6.218   4.197   1.789 -1.5592  2.1238 -1.8218
16336SOL    HW260663   6.305   4.266   1.670  1.7454  0.6716 -0.2917
16337SOL     OW60664   2.378   1.234   5.620 -0.1133  0.3539  0.2018
16337SOL    HW160665   2.379   1.307   5.552  0.2367  0.6918  0.5621
16337SOL    HW260666   2.397   1.147   5.575  1.8294  0.8005  0.1090
16338SOL     OW60667   2.751   5.211   3.184  0.5009 -0.2100  0.0906
16338SOL    HW160668   2.671   5.270   3.181  0.7232  0.1237  0.6493
16338SOL    HW260669   2.752   5.160   3.271 -0.2349 -1.8013 -0.8124
16339SOL     OW60670   2.009   5.457   3.553  0.5976 -0.0253 -0.6905
16339SOL    HW160671   2.025   5.548   3.591  0.7273  0.1009 -1.0467
16339SOL    HW260672   1.946   5.406   3.612  0.1186  0.4782 -0.7711
16340SOL     OW60673   2.335   9.120   1.602 -0.3873 -0.2634 -0.3160
16340SOL    HW160674   2.356   9.043   1.662  3.0917 -0.5422 -1.8047
16340SOL    HW260675   2.350   9.206   1.651 -1.5743 -0.4737  0.4539
16341SOL     OW60676   2.967   9.282   5.813  0.0608 -0.1439 -0.1263
16341SOL    HW160677   2.963   9.226   5.896  0.3855 -0.7065 -0.4804
16341SOL    HW260678   2.963   9.378   5.837 -0.1274 -0.3136  0.5260
16342SOL     OW60679   0.702   3.569   6.434 -0.0771 -0.8130  0.5527
16342SOL    HW160680   0.753   3.643   6.478  0.6436 -1.3690  0.6590
16342SOL    HW260681   0.725   3.564   6.337 -2.2242  0.8923 -0.0877
16343SOL     OW60682   1.750   6.226   5.310 -0.1122 -0.7473 -1.2823
16343SOL    HW160683   1.699   6.304   5.275  1.2005  0.4739 -0.5213
16343SOL    HW260684   1.732   6.214   5.408  1.0207 -0.3260 -1.0134
16344SOL     OW60685   4.662   2.053   5.378  0.1070  0.0107 -0.3049
16344SOL    HW160686   4.660   2.058   5.478  1.2913 -2.1423 -0.1465
16344SOL    HW260687   4.722   2.125   5.343 -0.0894  0.5982  0.5456
16345SOL     OW60688   3.067   8.412   3.538  0.1328 -0.5509  0.4954
16345SOL    HW160689   2.971   8.440   3.544  0.2361  0.6082 -2.5149
16345SOL    HW260690   3.072   8.322   3.495  0.3394 -1.1366  1.7344
16346SOL     OW60691   3.556   4.123   1.627  0.2309 -0.1284 -0.3292
16346SOL    HW160692   3.645   4.157   1.594  0.5624 -0.9721 -0.3201
16346SOL    HW260693   3.483   4.167   1.576  0.6607  0.5229 -0.3918
16347SOL     OW60694   4.695   9.923   4.565 -0.2113  0.1307  0.0108
16347SOL    HW160695   4.700   9.835   4.518 -0.5423 -0.8168  1.6926
16347SOL    HW260696   4.753   9.919   4.647 -2.5991  0.4094  1.7560
16348SOL     OW60697   8.581   3.353   7.582  0.0243 -0.0392 -0.4839
16348SOL    HW160698   8.646   3.353   7.658 -0.8425 -0.9492  0.2738
16348SOL    HW260699   8.489   3.334   7.617 -0.4061 -0.3228 -1.7478
16349SOL     OW60700   0.841   9.279   3.000 -0.3190  0.0232  0.2396
16349SOL    HW160701   0.940   9.266   3.007 -0.2150  1.0553  0.6811
16349SOL    HW260702   0.802   9.204   2.946  0.7731 -0.0827 -0.4155
16350SOL     OW60703   8.848   8.440   3.791 -0.1707 -0.2606 -0.4416
16350SOL    HW160704   8.893   8.522   3.755  3.1461 -0.9847  1.8196
16350SOL    HW260705   8.876   8.361   3.736  0.6000 -0.5569  0.3523
16351SOL     OW60706   3.374   9.472   4.435 -0.3223  1.0819  0.1986
16351SOL    HW160707   3.307   9.412   4.478 -1.6646  0.4756 -2.6084
16351SOL    HW260708   3.328   9.552   4.396  0.7273  1.3014 -0.6316
16352SOL     OW60709   4.153   7.496   5.941 -0.2135  0.5799  0.0309
16352SOL    HW160710   4.092   7.562   5.985 -3.0391  0.1943 -3.1391
16352SOL    HW260711   4.205   7.543   5.869  0.1309 -0.0244 -0.1149
16353SOL     OW60712   5.063   6.298   2.803  0.2112  0.2189 -0.0694
16353SOL    HW160713   4.969   6.274   2.779 -0.4152  1.7434  0.8066
16353SOL    HW260714   5.125   6.228   2.768 -1.3025 -1.1640 -0.0561
16354SOL     OW60715   2.964   8.616   0.191 -0.1238 -0.3761 -0.0401
16354SOL    HW160716   2.899   8.594   0.118 -1.1996 -0.7692  1.0278
16354SOL    HW260717   2.931   8.580   0.278  1.3505 -0.2649  0.5857
16355SOL     OW60718   8.453   3.104   2.545  0.4376  0.5324  0.0634
16355SOL    HW160719   8.453   3.161   2.463  0.7311 -1.4588 -1.3498
16355SOL    HW260720   8.544   3.064   2.556 -0.4358 -1.5728 -0.3156
16356SOL     OW60721   0.351   9.984   6.843  0.0570  0.0486  0.3846
16356SOL    HW160722   0.328   9.965   6.748  2.8299  0.5587 -0.4403
16356SOL    HW260723   0.290  10.054   6.879 -0.7315  0.1693 -1.1667
16357SOL     OW60724   0.807   9.119   1.797  0.2011  0.1615 -0.0853
16357SOL    HW160725   0.847   9.044   1.848  2.2147 -0.0057 -1.8662
16357SOL    HW260726   0.799   9.094   1.700 -2.0232  1.0836 -0.1763
16358SOL     OW60727   4.555   2.625   2.140  0.0189  0.5819 -0.3502
16358SOL    HW160728   4.482   2.569   2.179  0.5632  0.8519  1.1126
16358SOL    HW260729   4.531   2.653   2.047 -1.5571  0.3517 -0.0200
16359SOL     OW60730   3.586   8.906   1.787 -0.3581  0.6482  0.4267
16359SOL    HW160731   3.521   8.936   1.856 -1.3924  0.7363 -0.5750
16359SOL    HW260732   3.675   8.889   1.830 -1.4672 -1.0803  2.0780
16360SOL     OW60733   4.708   6.617   1.813  0.0421  1.2562 -0.0933
16360SOL    HW160734   4.697   6.520   1.791 -1.5233  1.2764  0.4763
16360SOL    HW260735   4.779   6.628   1.883  1.0481  0.6480 -1.0120
16361SOL     OW60736   9.519   0.132   5.957 -0.4773  0.1427  0.0058
16361SOL    HW160737   9.545   0.168   6.046 -1.1986  0.1304  0.2167
16361SOL    HW260738   9.522   0.205   5.889  1.6210 -0.1606 -0.2926
16362SOL     OW60739   1.736   6.864   2.541 -0.2592 -0.0081  0.2310
16362SOL    HW160740   1.811   6.924   2.514  1.4333 -1.9364  0.5235
16362SOL    HW260741   1.694   6.825   2.459 -0.9643  1.0884  0.0662
16363SOL     OW60742   6.741   7.712   8.239  0.1509  0.2284 -0.4902
16363SOL    HW160743   6.795   7.786   8.278  0.5637  0.2093 -1.0179
16363SOL    HW260744   6.781   7.624   8.264 -0.2645  0.1813  0.0273
16364SOL     OW60745   8.594   3.356   1.238  0.3029 -0.0638 -0.0238
16364SOL    HW160746   8.523   3.408   1.285  1.2214  0.4385  0.8440
16364SOL    HW260747   8.599   3.264   1.276 -0.7290 -0.5070 -0.9512
16365SOL     OW60748   3.561   2.206   4.586 -0.1338 -0.0525  0.0549
16365SOL    HW160749   3.633   2.136   4.586  0.2936  0.3857  0.0160
16365SOL    HW260750   3.597   2.291   4.548 -0.4033  0.4455  0.8886
16366SOL     OW60751   6.942   5.551   1.910 -0.5011 -0.3636 -0.1324
16366SOL    HW160752   6.999   5.471   1.929 -0.4202 -0.1845  0.3822
16366SOL    HW260753   6.846   5.526   1.920 -0.4384  0.0410  1.8320
16367SOL     OW60754   2.707   8.964   5.225 -0.0094 -0.4865  0.5630
16367SOL    HW160755   2.621   9.009   5.247 -0.1707 -0.1191 -0.7968
16367SOL    HW260756   2.779   8.998   5.286 -0.1519  1.5114 -0.3523
16368SOL     OW60757   6.745   1.085   5.565  0.3072  0.6014  0.5521
16368SOL    HW160758   6.670   1.105   5.629  0.9856  0.5144  1.3722
16368SOL    HW260759   6.781   0.994   5.583  1.3518  1.0787  0.8895
16369SOL     OW60760   2.741   9.036   1.543 -0.4113 -0.4447 -0.8250
16369SOL    HW160761   2.661   9.096   1.540 -1.4349 -1.8248 -1.5400
16369SOL    HW260762   2.783   9.032   1.452  0.6537  0.4965 -0.3890
16370SOL     OW60763   6.229   8.463   2.165 -0.3170 -0.2843 -0.1163
16370SOL    HW160764   6.269   8.541   2.214 -0.8481  0.9353 -1.5890
16370SOL    HW260765   6.210   8.489   2.071 -1.4472 -1.8915 -0.3526
16371SOL     OW60766   7.387   4.752   2.332  0.6411 -0.3711  0.2080
16371SOL    HW160767   7.475   4.792   2.306  1.0078 -0.7080  0.9240
16371SOL    HW260768   7.322   4.826   2.351  0.6259 -0.1185 -0.7572
16372SOL     OW60769   0.291   4.967   6.176  0.4115 -0.0323 -0.3003
16372SOL    HW160770   0.316   4.989   6.271  3.2700  0.9604 -1.2173
16372SOL    HW260771   0.349   4.892   6.143 -1.1579 -0.9512 -1.0061
16373SOL     OW60772   8.440   8.766   5.588 -0.2143 -0.2300 -0.0323
16373SOL    HW160773   8.534   8.795   5.610 -0.6740  0.7355  0.6942
16373SOL    HW260774   8.443   8.680   5.537  1.2363  1.3661 -2.8038
16374SOL     OW60775   3.603   5.926   4.204  0.0217 -0.2003  0.1667
16374SOL    HW160776   3.562   5.902   4.292 -0.9392 -0.9065 -0.4599
16374SOL    HW260777   3.577   5.857   4.136  0.3815  0.5926 -0.7782
16375SOL     OW60778   9.220   1.261   7.525 -0.1173  0.0113 -0.1906
16375SOL    HW160779   9.229   1.197   7.448  0.6852 -0.0278 -0.0650
16375SOL    HW260780   9.256   1.219   7.608  1.5397  1.0711 -0.3529
16376SOL     OW60781   1.894   8.037   5.494  0.5819 -0.1187  0.5824
16376SOL    HW160782   1.855   8.016   5.405 -0.4236 -2.3591  1.5115
16376SOL    HW260783   1.946   8.122   5.489  1.0780 -0.5541 -2.2839
16377SOL     OW60784   0.210   4.014   1.273 -0.1130  0.6762 -0.1701
16377SOL    HW160785   0.255   3.980   1.191 -0.3381  0.3770 -0.1706
16377SOL    HW260786   0.184   3.937   1.332  0.7985  0.9437  0.5778
16378SOL     OW60787   1.089   2.946   2.881  0.3976  0.5021  0.1776
16378SOL    HW160788   1.114   2.855   2.847  0.8196  0.3340  0.9298
16378SOL    HW260789   1.163   3.010   2.864 -0.1451  0.8556 -0.9082
16379SOL     OW60790   5.936   1.806   6.297  0.1084 -0.0050  0.1759
16379SOL    HW160791   5.883   1.828   6.214  0.3200  0.1099  0.0722
16379SOL    HW260792   5.877   1.757   6.361 -0.0702 -0.0559 -0.0244
16380SOL     OW60793   3.764   2.634   5.323 -0.4441  0.7808 -0.4323
16380SOL    HW160794   3.800   2.541   5.310  3.0274  1.9260  0.4472
16380SOL    HW260795   3.686   2.632   5.386  0.9618 -1.2830  1.2911
16381SOL     OW60796   5.746   5.979   1.576 -0.1085 -0.5616  0.7092
16381SOL    HW160797   5.707   5.984   1.668  0.6998  1.4060  0.9637
16381SOL    HW260798   5.699   6.043   1.516  0.2208 -0.9251  0.0507
16382SOL     OW60799   2.291   8.380   4.898  0.0907  0.0059  0.3428
16382SOL    HW160800   2.286   8.386   4.799  0.1029  1.1597  0.4074
16382SOL    HW260801   2.335   8.462   4.935 -0.6599 -0.0338  1.3565
16383SOL     OW60802   0.771   3.969   3.068  0.0668 -0.0440 -0.3711
16383SOL    HW160803   0.739   3.945   3.160  2.3441 -0.9853  0.2222
16383SOL    HW260804   0.772   3.887   3.011  0.3940  0.1831 -0.6890
16384SOL     OW60805   5.757   8.293   4.288  0.2685  0.2300  0.2648
16384SOL    HW160806   5.825   8.263   4.221  0.4634  0.3017  0.4269
16384SOL    HW260807   5.793   8.279   4.380  0.8014  1.9273  0.3413
16385SOL     OW60808   4.254   2.304   7.748  0.0402 -0.0076  0.0958
16385SOL    HW160809   4.266   2.367   7.671 -0.0884 -0.8721 -0.6391
16385SOL    HW260810   4.292   2.346   7.831  1.2320  0.4471 -0.6663
16386SOL     OW60811   7.046   8.442   4.002  0.4548  0.0882 -0.3421
16386SOL    HW160812   7.081   8.533   4.023 -1.0172  0.9335 -1.4387
16386SOL    HW260813   7.097   8.374   4.055  2.3113  1.4342 -0.3238
16387SOL     OW60814   5.890   8.239   4.857  0.1277 -0.2660  0.4728
16387SOL    HW160815   5.882   8.250   4.956  0.3171  0.0874  0.4514
16387SOL    HW260816   5.986   8.249   4.831 -0.0965  1.0099  0.0935
16388SOL     OW60817   1.448   5.598   2.328  0.1640  0.0934 -0.5182
16388SOL    HW160818   1.439   5.674   2.264  2.3612  1.4845  0.7489
16388SOL    HW260819   1.487   5.632   2.414  0.0905 -2.2710  0.4816
16389SOL     OW60820   2.721   4.350   4.858 -0.0164  0.6990  0.4275
16389SOL    HW160821   2.690   4.275   4.800 -0.0128 -1.1296  2.7126
16389SOL    HW260822   2.666   4.432   4.840 -1.9240 -0.6747 -0.0634
16390SOL     OW60823   1.030   4.635   3.434  0.4407 -0.1550 -0.0108
16390SOL    HW160824   1.077   4.685   3.507  0.2140 -0.3651  0.2804
16390SOL    HW260825   0.979   4.559   3.474 -0.4334  0.2848 -0.2887
16391SOL     OW60826   7.722   1.612   4.087  0.3274 -0.5599  0.1188
16391SOL    HW160827   7.786   1.643   4.158  1.1231  1.4540 -1.4331
16391SOL    HW260828   7.773   1.589   4.004 -0.6908 -1.9594 -0.1443
16392SOL     OW60829   7.447   7.614   3.505  0.2709 -0.7882 -0.4437
16392SOL    HW160830   7.406   7.524   3.494  1.5468 -1.1601 -2.5867
16392SOL    HW260831   7.395   7.681   3.451  0.1161 -0.5072  0.0557
16393SOL     OW60832   8.871   8.267   6.009 -0.1647  0.4999 -0.1158
16393SOL    HW160833   8.813   8.204   5.957  1.3414 -0.2773 -0.9096
16393SOL    HW260834   8.921   8.215   6.079 -1.1223  1.3119  1.1879
16394SOL     OW60835   2.653   2.517   3.637 -0.0170 -0.0979 -0.3597
16394SOL    HW160836   2.577   2.576   3.611  0.4774  0.4141 -0.6495
16394SOL    HW260837   2.647   2.430   3.587 -1.0235 -0.4967  0.4397
16395SOL     OW60838   4.714   4.087   0.746 -0.3051 -0.1602 -0.5051
16395SOL    HW160839   4.714   3.987   0.740  0.2466 -0.0663 -2.0711
16395SOL    HW260840   4.683   4.114   0.838 -1.9250 -1.7229 -0.5631
16396SOL     OW60841   6.643   8.856   5.407  0.7129 -0.1087 -0.0398
16396SOL    HW160842   6.689   8.920   5.468 -0.5565  0.1456  0.6631
16396SOL    HW260843   6.571   8.903   5.356  2.1035 -0.2077 -2.1403
16397SOL     OW60844   9.368   6.211   2.805  0.1403 -0.8331  0.5816
16397SOL    HW160845   9.411   6.165   2.727  0.4066 -2.2942  1.5714
16397SOL    HW260846   9.421   6.292   2.828  1.6360 -1.8795  0.9371
16398SOL     OW60847   1.704   2.601   4.021  0.7461  0.3748  0.1196
16398SOL    HW160848   1.698   2.566   4.115  0.2541  0.9201  0.2981
16398SOL    HW260849   1.652   2.541   3.960  2.0202 -0.6263  0.0003
16399SOL     OW60850   9.129   2.069   6.058  0.1039  0.0084 -0.2429
16399SOL    HW160851   9.067   1.991   6.055 -0.3024  0.3330 -0.3643
16399SOL    HW260852   9.224   2.037   6.052 -0.0977 -0.4008 -1.2280
16400SOL     OW60853   7.979   3.809   6.366 -0.3565 -0.1235 -0.3263
16400SOL    HW160854   7.981   3.711   6.388 -0.2079  0.0706  0.5466
16400SOL    HW260855   8.031   3.826   6.283  1.4900 -0.4724  0.7478
16401SOL     OW60856   0.006   1.007   6.710 -0.1232 -0.0329  0.0815
16401SOL    HW160857   0.033   0.990   6.615  0.0355  1.5089 -0.1680
16401SOL    HW260858   0.033   0.930   6.767  0.3214 -0.7069 -1.0303
16402SOL     OW60859   6.875   9.452   7.222  0.3805 -0.1199  0.0466
16402SOL    HW160860   6.900   9.376   7.161  2.0190 -0.2303  0.8218
16402SOL    HW260861   6.901   9.538   7.179 -0.0605 -0.0921 -0.1649
16403SOL     OW60862   6.197   9.167   1.837 -0.7225  0.1518 -0.0311
16403SOL    HW160863   6.294   9.148   1.852 -0.5231  1.0958 -0.1340
16403SOL    HW260864   6.146   9.080   1.837 -0.2331 -0.1620  2.3977
16404SOL     OW60865   8.994   9.272   6.667  0.4230 -0.8011  0.2895
16404SOL    HW160866   8.899   9.244   6.661  0.0715  0.3311  0.5067
16404SOL    HW260867   9.023   9.310   6.579  0.3878 -0.2630  0.5070
16405SOL     OW60868   7.152   1.090   0.845 -0.5302  0.3715 -0.2709
16405SOL    HW160869   7.154   1.170   0.905 -0.6814  0.2647 -0.1243
16405SOL    HW260870   7.063   1.083   0.802 -0.4294  0.4344 -0.4925
16406SOL     OW60871   2.189   7.702   3.613  0.0607  0.2528 -0.6391
16406SOL    HW160872   2.276   7.752   3.610  0.9513 -1.1898  0.2873
16406SOL    HW260873   2.148   7.699   3.522  1.3749  0.2998 -1.2421
16407SOL     OW60874   2.909   0.132   2.832  0.4999 -0.5530  0.0378
16407SOL    HW160875   2.936   0.191   2.755 -0.5162  0.3692  0.3795
16407SOL    HW260876   2.958   0.160   2.914 -0.2085  0.0184  0.2692
16408SOL     OW60877   1.717   2.105   6.469 -0.3191 -0.1075  0.0626
16408SOL    HW160878   1.739   2.197   6.503  0.8540 -0.6157  0.6919
16408SOL    HW260879   1.670   2.054   6.541  1.2683 -0.8396  0.6108
16409SOL     OW60880   4.742   9.987   6.121 -0.1739 -0.0083 -0.3218
16409SOL    HW160881   4.721  10.069   6.175 -1.4348 -0.7574  0.3650
16409SOL    HW260882   4.668   9.921   6.132  1.6100 -1.9364  0.5091
16410SOL     OW60883   4.322   7.617   2.358  0.5850 -0.2766  0.1365
16410SOL    HW160884   4.269   7.638   2.275  0.6987  0.4905  0.2571
16410SOL    HW260885   4.354   7.522   2.353 -0.6167 -0.6936 -0.0418
16411SOL     OW60886   3.442   8.333   4.540  0.3374  0.4612 -0.0135
16411SOL    HW160887   3.437   8.423   4.584  2.3877  0.8083 -0.4215
16411SOL    HW260888   3.357   8.315   4.492 -0.1761  2.1180  0.2259
16412SOL     OW60889   2.294   9.467   1.494 -0.0745  0.0703  0.0927
16412SOL    HW160890   2.307   9.449   1.591 -2.2147 -2.6467 -0.0733
16412SOL    HW260891   2.237   9.549   1.482  2.0459  1.7124  1.0500
16413SOL     OW60892   1.209   3.183   0.416  0.6903  0.2385 -0.1233
16413SOL    HW160893   1.292   3.128   0.407 -1.0935 -2.8292  1.1784
16413SOL    HW260894   1.188   3.198   0.512  0.0061  1.4227 -0.4416
16414SOL     OW60895   4.607   5.041   0.116  0.7208  0.3003 -0.0713
16414SOL    HW160896   4.600   5.090   0.029 -0.1555 -1.3404 -0.9523
16414SOL    HW260897   4.563   5.094   0.188 -1.3096  0.2646 -1.2529
16415SOL     OW60898   1.545   2.697   0.494  0.0783  0.3219  0.0829
16415SOL    HW160899   1.627   2.744   0.526  1.4048 -2.9822  1.8570
16415SOL    HW260900   1.464   2.745   0.526  1.3672  1.4820  1.7042
16416SOL     OW60901   2.487   9.309   5.687 -0.5979 -0.0343  0.4419
16416SOL    HW160902   2.569   9.253   5.674 -1.6350 -1.5397  0.2282
16416SOL    HW260903   2.453   9.337   5.597 -1.4556 -1.1319  0.4050
16417SOL     OW60904   3.942   3.880   2.763  0.3499 -0.3962 -0.3842
16417SOL    HW160905   3.943   3.938   2.681 -0.3940  1.0802  0.6408
16417SOL    HW260906   3.956   3.936   2.844 -1.1036 -1.5653  0.6883
16418SOL     OW60907   2.966   7.288   2.972  0.2540 -0.3428  0.3003
16418SOL    HW160908   2.878   7.324   2.942  0.9430  0.6763 -0.5600
16418SOL    HW260909   3.031   7.364   2.980  0.8732 -0.9941  1.5757
16419SOL     OW60910   7.876   0.403   1.155 -0.1598  0.2499 -0.7687
16419SOL    HW160911   7.841   0.312   1.131 -1.9265  0.8750 -0.6556
16419SOL    HW260912   7.817   0.444   1.225  0.9882  1.2396 -0.3499
16420SOL     OW60913   7.290   9.614   4.092  0.3435 -0.1684 -0.3355
16420SOL    HW160914   7.316   9.537   4.034  0.3824 -1.0708  0.8647
16420SOL    HW260915   7.208   9.657   4.056  1.2443  0.2532 -1.9389
16421SOL     OW60916   2.106   3.292   3.271  0.1465  0.2339 -0.3316
16421SOL    HW160917   2.032   3.275   3.336 -1.0424 -1.0943 -1.9680
16421SOL    HW260918   2.181   3.227   3.288  0.4188  0.7590  0.5269
16422SOL     OW60919   8.971   3.515   5.518 -0.1845  0.1906  0.0956
16422SOL    HW160920   9.021   3.443   5.566 -0.8062 -1.0246 -1.0365
16422SOL    HW260921   8.989   3.603   5.562  2.2505 -0.3355  0.2104
16423SOL     OW60922   2.036   2.232   4.427  0.5223 -0.8343  0.3368
16423SOL    HW160923   1.989   2.245   4.340  1.2448 -0.3753  0.0191
16423SOL    HW260924   1.969   2.204   4.496 -0.2494 -0.0687 -0.0843
16424SOL     OW60925   3.667   1.882   6.727 -0.1438 -1.1154 -0.4792
16424SOL    HW160926   3.588   1.821   6.738  0.4012 -2.0121 -1.4651
16424SOL    HW260927   3.707   1.902   6.816 -2.3156  0.4485  0.1780
16425SOL     OW60928   3.538   5.417   0.298 -0.0200 -0.3083  0.0047
16425SOL    HW160929   3.517   5.337   0.241  0.5219  0.2393 -0.9883
16425SOL    HW260930   3.457   5.446   0.347 -0.4557 -0.9040 -0.3592
16426SOL     OW60931   2.276   3.799   1.026  0.2291 -0.0412 -0.1618
16426SOL    HW160932   2.229   3.879   0.990 -0.0985  0.3886  1.2157
16426SOL    HW260933   2.321   3.822   1.112  2.3975 -0.6252 -1.1133
16427SOL     OW60934   3.387   2.249   1.146 -0.4372  0.1816  0.3004
16427SOL    HW160935   3.429   2.251   1.237  0.7505  0.4452 -0.2491
16427SOL    HW260936   3.438   2.309   1.084 -0.0977 -1.4194 -1.0192
16428SOL     OW60937   8.497   0.033   6.967  0.2231  0.1108  0.7927
16428SOL    HW160938   8.412   0.007   6.919  0.7760  2.4004 -1.5278
16428SOL    HW260939   8.475   0.068   7.057 -1.3788  1.3675 -0.0658
16429SOL     OW60940   1.015   0.712   4.711 -0.4078  0.1404 -0.1914
16429SOL    HW160941   1.111   0.687   4.696 -0.7879 -1.7120  0.3299
16429SOL    HW260942   1.010   0.808   4.739  1.3376  0.0735  0.4346
16430SOL     OW60943   0.603   3.813   3.275 -0.1487  0.1087  0.0171
16430SOL    HW160944   0.537   3.808   3.200  0.8503 -1.0936 -0.8234
16430SOL    HW260945   0.591   3.735   3.336  0.2089  0.0997  0.0815
16431SOL     OW60946   8.849   9.508   4.700 -0.0482 -0.1408 -0.5291
16431SOL    HW160947   8.778   9.549   4.757  1.4232  0.6621  0.7555
16431SOL    HW260948   8.807   9.469   4.618 -2.0367 -0.2360  0.5068
16432SOL     OW60949   6.034   2.819   2.651  0.5348  0.9398  0.3226
16432SOL    HW160950   6.030   2.856   2.558 -1.8123  0.6180  0.2780
16432SOL    HW260951   6.080   2.884   2.711  2.4555  0.9712 -1.1316
16433SOL     OW60952   7.140   6.509   2.211  0.0979 -0.6370 -0.4470
16433SOL    HW160953   7.102   6.468   2.128 -0.4858  0.1440 -0.5676
16433SOL    HW260954   7.096   6.597   2.229  0.7740 -0.4295  0.2570
16434SOL     OW60955   8.732   6.981   7.703  0.4104  0.4871 -0.3283
16434SOL    HW160956   8.691   6.918   7.637  0.7174 -0.5468  0.4483
16434SOL    HW260957   8.715   7.075   7.674 -1.5365  0.0753 -0.6179
16435SOL     OW60958   6.567   0.784   3.127 -0.2883 -0.3066 -0.0532
16435SOL    HW160959   6.526   0.871   3.099 -0.2341 -0.1875  0.2283
16435SOL    HW260960   6.666   0.796   3.138  0.3332 -1.3493 -3.7255
16436SOL     OW60961   2.608   4.649   3.626 -0.1585 -0.2246 -0.2108
16436SOL    HW160962   2.531   4.697   3.583 -0.1462 -0.1558 -0.1575
16436SOL    HW260963   2.644   4.706   3.700  1.5090  0.8372 -1.8200
16437SOL     OW60964   8.606   0.946   2.728 -0.1300 -0.5010  0.1875
16437SOL    HW160965   8.695   0.990   2.734 -0.0136 -0.3275 -2.2394
16437SOL    HW260966   8.616   0.848   2.745  0.5292 -0.4965 -0.1703
16438SOL     OW60967   0.791   2.702   7.444 -0.5053  0.0910  0.3124
16438SOL    HW160968   0.805   2.605   7.465 -0.0349  0.2932  0.9388
16438SOL    HW260969   0.713   2.711   7.382  0.2956 -0.7932 -0.8331
16439SOL     OW60970   0.216   7.438   1.969 -0.2946  1.0975 -0.0218
16439SOL    HW160971   0.298   7.398   2.011 -1.7284 -0.7019  1.1362
16439SOL    HW260972   0.141   7.374   1.976 -2.1884  3.2718  0.1585
16440SOL     OW60973   2.533   9.062   6.453  0.1921  0.0918 -0.0027
16440SOL    HW160974   2.542   8.963   6.465  0.0002 -0.0059 -0.6481
16440SOL    HW260975   2.619   9.099   6.418  0.2026  0.1222  0.0560
16441SOL     OW60976   1.402   9.554   7.661  0.0810  0.2645 -0.5087
16441SOL    HW160977   1.373   9.647   7.682 -0.3380 -0.0824  0.4497
16441SOL    HW260978   1.349   9.489   7.715 -0.7946 -0.6192 -2.3852
16442SOL     OW60979   1.776   0.772   1.819  0.5004  0.1553 -0.3927
16442SOL    HW160980   1.711   0.743   1.889  0.6773  0.3947 -0.1271
16442SOL    HW260981   1.821   0.692   1.779  0.1463 -0.0000 -0.4732
16443SOL     OW60982   2.105   1.051   2.029  0.9944 -0.4890  0.1254
16443SOL    HW160983   2.063   1.130   1.984  0.1203  1.4379  4.0885
16443SOL    HW260984   2.036   1.001   2.081  1.2286 -4.9031 -3.4964
16444SOL     OW60985   0.567   9.654   1.411 -0.1215  0.1097 -0.0566
16444SOL    HW160986   0.505   9.576   1.402 -0.7875  0.5848  0.4442
16444SOL    HW260987   0.607   9.674   1.321  0.7355 -1.3558 -0.0299
16445SOL     OW60988   9.839   8.314   7.483 -0.2858  0.0076 -0.1301
16445SOL    HW160989   9.808   8.349   7.572 -0.0029  0.6700 -0.2913
16445SOL    HW260990   9.781   8.351   7.411  0.7756  1.1282 -0.4203
16446SOL     OW60991   9.198   7.625   6.769 -0.1455 -0.4745 -0.2708
16446SOL    HW160992   9.296   7.625   6.751  0.4929  3.3699  2.4965
16446SOL    HW260993   9.151   7.677   6.698  0.0408 -0.6086 -0.4963
16447SOL     OW60994   8.659   5.746   0.290 -0.3981 -0.7161  0.5195
16447SOL    HW160995   8.690   5.677   0.355  2.6129 -0.8029 -0.9026
16447SOL    HW260996   8.675   5.713   0.196 -2.8436  0.1909 -0.2445
16448SOL     OW60997   8.220   9.893   1.827 -0.2008  0.0486  0.0405
16448SOL    HW160998   8.278   9.934   1.757  0.2519 -0.9106 -0.1596
16448SOL    HW260999   8.191   9.963   1.893  1.6465  0.4382  0.4592
16449SOL     OW61000   2.913   7.689   6.238 -0.8627  0.3370 -0.5911
16449SOL    HW161001   3.009   7.707   6.262 -1.3316  0.2283  1.4449
16449SOL    HW261002   2.864   7.775   6.230 -0.5752  0.3994 -1.7783
16450SOL     OW61003   6.288   8.569   5.803 -0.0896 -0.3788  0.0054
16450SOL    HW161004   6.198   8.558   5.760  0.1610 -1.6610 -0.2093
16450SOL    HW261005   6.322   8.480   5.833  1.0070  0.1309  0.3133
16451SOL     OW61006   1.860   9.432   7.602  0.3408  0.3608  0.3313
16451SOL    HW161007   1.811   9.396   7.681  2.3044  0.4172  1.6087
16451SOL    HW261008   1.937   9.372   7.580  1.5608  1.9192  0.3047
16452SOL     OW61009   6.768   0.547   1.529  0.1936  0.4199  0.9820
16452SOL    HW161010   6.685   0.591   1.495  1.0931  2.0894  0.8673
16452SOL    HW261011   6.846   0.571   1.471  0.6359 -1.7557  0.6388
16453SOL     OW61012   8.079   2.360   4.466 -0.2206 -0.7311 -0.2457
16453SOL    HW161013   8.002   2.337   4.525 -0.3094 -0.8085 -0.3921
16453SOL    HW261014   8.165   2.352   4.518 -0.3824  0.3312  0.2083
16454SOL     OW61015   2.384   7.555   1.530  0.1068 -0.1658  0.0782
16454SOL    HW161016   2.288   7.534   1.549  0.0121 -1.2877 -1.5121
16454SOL    HW261017   2.394   7.577   1.433  1.5689 -0.7619  0.0933
16455SOL     OW61018   9.943   2.002   2.351  0.1712  0.2731  0.0148
16455SOL    HW161019   9.998   1.970   2.273  1.8186 -0.9198  1.6139
16455SOL    HW261020   9.935   2.101   2.347  0.3295  0.2383 -1.6084
16456SOL     OW61021   2.069   2.850   6.327 -0.1969 -0.2179 -0.2081
16456SOL    HW161022   2.004   2.797   6.273 -1.2110  0.2006  0.5953
16456SOL    HW261023   2.035   2.943   6.341  0.3522 -0.1255  0.5949
16457SOL     OW61024   2.712   2.516   3.911  0.3163  0.0983  0.2087
16457SOL    HW161025   2.694   2.528   3.813 -2.4520  0.8921  0.7809
16457SOL    HW261026   2.739   2.603   3.951  1.8034 -0.3042  0.0879
16458SOL     OW61027   4.643   2.386   7.405  0.0287  0.1987  0.1894
16458SOL    HW161028   4.588   2.328   7.465 -0.7845  1.2381  0.4750
16458SOL    HW261029   4.632   2.482   7.432  2.8697  0.3614  0.9804
16459SOL     OW61030   6.575   6.813   6.291  0.0547  0.5158 -0.5745
16459SOL    HW161031   6.478   6.833   6.301  0.4177  1.8165  0.5447
16459SOL    HW261032   6.616   6.878   6.227  0.5963  1.3072  0.5677
16460SOL     OW61033   9.322   8.314   1.176 -0.4284 -0.0363 -0.1357
16460SOL    HW161034   9.284   8.405   1.194 -1.3794 -0.2802 -0.8610
16460SOL    HW261035   9.418   8.322   1.149 -0.1570  0.6561  0.9966
16461SOL     OW61036   6.763   2.547   5.595  0.0918 -0.3871 -0.1469
16461SOL    HW161037   6.702   2.469   5.609 -0.4494 -0.1393 -1.0611
16461SOL    HW261038   6.824   2.556   5.674 -0.9669 -0.7156  0.7251
16462SOL     OW61039   9.758   8.610   2.342 -0.0388  0.0832  0.4237
16462SOL    HW161040   9.836   8.554   2.312  0.4988  1.6942 -1.2115
16462SOL    HW261041   9.673   8.571   2.307  0.1924 -0.5236  0.5250
16463SOL     OW61042   3.181   5.201   2.834 -0.0522  0.0764 -0.0349
16463SOL    HW161043   3.196   5.265   2.910  2.4451 -0.3260 -0.1535
16463SOL    HW261044   3.231   5.116   2.852 -0.0228 -0.2976 -1.8087
16464SOL     OW61045   4.344   9.006   3.238 -0.6608  0.5080 -0.6668
16464SOL    HW161046   4.381   8.971   3.152  0.3056 -1.5079  0.5068
16464SOL    HW261047   4.244   9.009   3.233 -0.6314 -0.0567 -1.6974
16465SOL     OW61048   2.443   8.805   3.849  0.3114 -0.4700  0.7316
16465SOL    HW161049   2.491   8.883   3.808  0.7242 -0.2611  1.6139
16465SOL    HW261050   2.420   8.739   3.777  0.1377  0.3715  0.0126
16466SOL     OW61051   9.431   7.102   5.222 -0.7844 -0.6353 -0.1515
16466SOL    HW161052   9.445   7.081   5.319 -1.7424  0.2237  0.1796
16466SOL    HW261053   9.334   7.092   5.199 -0.7909  0.5460 -0.6801
16467SOL     OW61054   6.296   7.839   5.293 -0.1352  0.3316 -0.0412
16467SOL    HW161055   6.320   7.749   5.329 -0.5502  0.4930  0.6428
16467SOL    HW261056   6.376   7.899   5.297 -0.0005  0.1523 -0.0118
16468SOL     OW61057   1.971   4.476   3.925 -0.0033  0.2648 -0.0643
16468SOL    HW161058   2.010   4.563   3.953 -1.7893 -0.0239  3.6618
16468SOL    HW261059   2.011   4.402   3.980 -1.4985 -0.7348 -0.2885
16469SOL     OW61060   5.226   0.478   4.286  0.0336  0.1076 -0.1457
16469SOL    HW161061   5.309   0.525   4.255  0.0982  0.5425  0.6526
16469SOL    HW261062   5.152   0.545   4.294  0.2635  0.1887  1.5019
16470SOL     OW61063   2.358   0.275   3.405 -0.1329  0.4223 -0.5294
16470SOL    HW161064   2.295   0.220   3.460  0.5268 -1.5211 -1.6774
16470SOL    HW261065   2.343   0.372   3.425 -3.0037 -0.0202 -0.2596
16471SOL     OW61066   9.974   8.756   1.032 -0.1084 -0.4767  0.3548
16471SOL    HW161067   9.942   8.701   0.955  0.7366  1.6256 -1.5547
16471SOL    HW261068  10.060   8.719   1.066  0.4448 -0.3762 -0.9066
16472SOL     OW61069   6.880   4.364   0.248  0.3019 -0.1776 -0.2118
16472SOL    HW161070   6.967   4.399   0.213 -0.0144  0.3210 -0.5000
16472SOL    HW261071   6.876   4.377   0.347 -0.5995  2.3487 -0.5496
16473SOL     OW61072   3.638   8.016   4.797  0.1846 -0.2915  0.4869
16473SOL    HW161073   3.657   7.934   4.744  0.7534  0.5736 -0.6609
16473SOL    HW261074   3.670   8.097   4.748  0.4493  0.5584  1.9973
16474SOL     OW61075   0.671   7.694   3.334 -0.7610  0.3017  0.3277
16474SOL    HW161076   0.644   7.738   3.420  0.6440 -0.6914  1.3124
16474SOL    HW261077   0.757   7.734   3.302 -0.8459  0.0984 -0.1538
16475SOL     OW61078   7.592   8.391   2.742  0.0206 -0.3591 -0.2229
16475SOL    HW161079   7.674   8.334   2.749  0.0461 -0.3036 -0.0582
16475SOL    HW261080   7.610   8.481   2.782  0.7721  0.6678 -2.8242
16476SOL     OW61081   3.150   2.653   4.599  0.2156 -0.1780  0.1600
16476SOL    HW161082   3.159   2.597   4.516  0.8315 -2.3598  1.6554
16476SOL    HW261083   3.065   2.628   4.646 -0.6276  1.7536 -0.2928
16477SOL     OW61084   2.789   3.373   0.405  0.5020 -0.5825  0.5790
16477SOL    HW161085   2.747   3.353   0.493 -0.6021 -2.6003 -0.3557
16477SOL    HW261086   2.814   3.287   0.360 -0.0651  0.3576 -1.6066
16478SOL     OW61087   2.997   0.963   4.833 -0.1076  0.6920 -0.6292
16478SOL    HW161088   3.061   1.039   4.844  1.2890 -0.7048  1.2335
16478SOL    HW261089   3.045   0.885   4.793 -1.1160  0.2477 -0.9766
16479SOL     OW61090   3.202   5.262  10.057 -0.6686  0.0054  0.3868
16479SOL    HW161091   3.227   5.341  10.002 -1.3181 -1.0166 -1.4448
16479SOL    HW261092   3.263   5.255  10.135  1.2550  0.6626 -1.0038
16480SOL     OW61093   8.350   3.550   5.075  0.0120 -0.1045  0.2172
16480SOL    HW161094   8.350   3.599   5.162 -0.1462  0.0957  0.1024
16480SOL    HW261095   8.328   3.454   5.092 -2.9385  0.5116  0.0571
16481SOL     OW61096   3.653   2.983   1.090  0.1688  0.2892 -0.1404
16481SOL    HW161097   3.647   3.082   1.076 -0.5103  0.2307 -0.2935
16481SOL    HW261098   3.624   2.961   1.184 -0.9797  0.1108 -0.5278
16482SOL     OW61099   6.898   0.560   7.591  0.7773 -0.4900  0.1056
16482SOL    HW161100   6.838   0.597   7.662  1.5343 -0.3693  0.6828
16482SOL    HW261101   6.879   0.463   7.579 -1.3419  0.0613 -1.5322
16483SOL     OW61102   0.887   1.602   6.949 -0.3065 -0.3302 -0.3957
16483SOL    HW161103   0.868   1.576   7.044 -0.9070 -0.3238 -0.5097
16483SOL    HW261104   0.985   1.616   6.937 -0.2288 -0.3273  0.2265
16484SOL     OW61105   2.033   5.923   7.554 -0.3569 -0.2975  0.2075
16484SOL    HW161106   2.070   5.932   7.646  0.6552  0.5917 -0.2712
16484SOL    HW261107   1.963   5.993   7.539  0.2478  0.2699 -0.0454
16485SOL     OW61108   0.637   4.352   5.063  0.3481  0.0803 -0.0474
16485SOL    HW161109   0.718   4.386   5.111  1.3821  1.2956 -2.5242
16485SOL    HW261110   0.601   4.424   5.004 -2.4673 -0.5131  0.8827
16486SOL     OW61111   1.240   0.886   4.440  0.4949  0.3927  0.4285
16486SOL    HW161112   1.325   0.933   4.416 -0.4443  2.7160  1.5254
16486SOL    HW261113   1.239   0.867   4.538 -0.2372  0.3673  0.4175
16487SOL     OW61114   3.279   9.758   0.508  0.0352 -0.0466 -0.7265
16487SOL    HW161115   3.227   9.830   0.555  1.1420 -1.2184  2.4103
16487SOL    HW261116   3.216   9.693   0.466 -1.0302 -0.1582  1.0075
16488SOL     OW61117   8.769   9.649   2.679  0.1430  0.1848 -0.6279
16488SOL    HW161118   8.836   9.680   2.611 -0.0338  0.1346 -0.8254
16488SOL    HW261119   8.724   9.566   2.646  1.0329 -0.6231  0.1583
16489SOL     OW61120   5.481   0.074   2.075 -0.7730  0.7908  0.1894
16489SOL    HW161121   5.399   0.104   2.025 -0.2674  2.8634  0.5660
16489SOL    HW261122   5.562   0.116   2.034 -0.0156 -0.1906  0.6591
16490SOL     OW61123   7.244   4.743   1.462  0.9553  0.7818 -0.5726
16490SOL    HW161124   7.316   4.739   1.393 -0.5456  1.7529 -2.2516
16490SOL    HW261125   7.213   4.650   1.483  1.4800  0.4737 -1.1556
16491SOL     OW61126   6.941   2.289   2.073 -0.2394  0.5058  0.5177
16491SOL    HW161127   6.910   2.370   2.123  0.9680  1.4773 -0.2790
16491SOL    HW261128   6.963   2.314   1.979  0.9727 -0.5729  0.5020
16492SOL     OW61129   2.724   9.343   6.361  0.3709 -0.0223 -0.1157
16492SOL    HW161130   2.804   9.301   6.404  0.7449  2.1545  1.3894
16492SOL    HW261131   2.676   9.400   6.427 -1.0469  0.6268 -1.6540
16493SOL     OW61132   5.101   8.125   0.750 -0.6768 -0.4311 -0.5700
16493SOL    HW161133   5.089   8.127   0.651 -1.0919 -2.4024 -0.5750
16493SOL    HW261134   5.072   8.213   0.788  0.9335  0.9082 -2.3301
16494SOL     OW61135   5.861   1.610   6.468 -0.1837 -0.2085  0.0664
16494SOL    HW161136   5.784   1.567   6.515  0.0447 -1.1777 -0.4298
16494SOL    HW261137   5.906   1.542   6.410  2.1107 -0.0798  1.6606
16495SOL     OW61138   2.120   7.107   6.678  0.3314 -0.2058 -0.0100
16495SOL    HW161139   2.192   7.087   6.744  0.2011  0.4519  0.3246
16495SOL    HW261140   2.113   7.030   6.614  0.4942 -0.8195  0.6958
16496SOL     OW61141   4.007   2.971   2.896 -0.4532  0.2193  0.5605
16496SOL    HW161142   4.020   2.914   2.976 -1.6920  0.2087  0.7739
16496SOL    HW261143   4.050   2.929   2.817 -0.8066 -0.6892  0.8510
16497SOL     OW61144   3.618   0.781   5.844 -0.1518  0.1488 -0.2934
16497SOL    HW161145   3.529   0.763   5.886 -1.2103  2.3439 -1.5021
16497SOL    HW261146   3.687   0.722   5.886 -2.0280 -1.0699  1.1776
16498SOL     OW61147   3.388   6.273   6.369  0.6412  0.2449  0.2334
16498SOL    HW161148   3.358   6.307   6.458  0.0036  0.3813 -0.0375
16498SOL    HW261149   3.370   6.341   6.299 -0.1407 -0.4235 -0.2228
16499SOL     OW61150   1.463   2.043   7.186 -0.0363  0.0599 -0.3063
16499SOL    HW161151   1.444   1.982   7.262  0.7593 -0.1631 -0.2853
16499SOL    HW261152   1.470   2.137   7.219 -2.8255  0.4126 -0.5512
16500SOL     OW61153   6.986   5.753   6.732  0.4490 -0.4120 -0.3469
16500SOL    HW161154   6.982   5.833   6.792  3.8486 -0.4771  0.0560
16500SOL    HW261155   6.934   5.678   6.772 -2.2372  1.3686 -0.4144
16501SOL     OW61156   9.921   5.401   3.223  0.1603 -0.0653 -0.8524
16501SOL    HW161157   9.832   5.393   3.178 -0.3757 -0.6652  0.3011
16501SOL    HW261158   9.967   5.312   3.222 -0.0579 -0.1897  0.2071
16502SOL     OW61159   6.554   0.251   1.494 -0.3598  0.3612 -0.2386
16502SOL    HW161160   6.530   0.342   1.529 -0.2238  0.4508 -0.3768
16502SOL    HW261161   6.473   0.209   1.452 -0.9102 -0.3665  1.5016
16503SOL     OW61162   1.968   6.290   6.899 -0.2598 -0.3340  0.2614
16503SOL    HW161163   2.007   6.377   6.870 -1.1343  0.8517  2.5602
16503SOL    HW261164   1.881   6.275   6.851 -0.7621  0.6953  0.8451
16504SOL     OW61165   9.507   2.952   1.678 -0.4097 -0.1786  0.2963
16504SOL    HW161166   9.593   2.925   1.636 -1.1181 -1.3851 -0.4212
16504SOL    HW261167   9.516   2.948   1.778  1.3039  2.8008  0.3212
16505SOL     OW61168   2.366   9.506   7.454  0.7697  0.3522 -0.0194
16505SOL    HW161169   2.299   9.438   7.423 -0.4816  1.5493 -0.0067
16505SOL    HW261170   2.452   9.493   7.406 -0.5572  0.9774 -2.6628
16506SOL     OW61171   7.679   2.807   5.140  0.0461  0.3344  0.2426
16506SOL    HW161172   7.604   2.871   5.155  0.4795  0.5597  1.4534
16506SOL    HW261173   7.746   2.849   5.078  0.9853  1.5960  2.0748
16507SOL     OW61174   1.679   8.942   1.068  0.1666  0.1070 -0.5673
16507SOL    HW161175   1.680   8.895   0.980  0.4330 -0.6978 -0.1343
16507SOL    HW261176   1.772   8.968   1.093  0.5648 -2.7582  1.1190
16508SOL     OW61177   0.685   1.468   6.026 -0.1313 -0.2368 -0.3178
16508SOL    HW161178   0.662   1.463   5.929 -0.4347  0.4355 -0.2828
16508SOL    HW261179   0.608   1.507   6.077 -0.1864 -1.1047  0.2725
16509SOL     OW61180   5.240   9.196   2.965  0.0676  0.2101  0.2162
16509SOL    HW161181   5.259   9.292   2.945 -2.9757  1.1761  1.6259
16509SOL    HW261182   5.142   9.184   2.978  0.3706 -3.1948 -0.3587
16510SOL     OW61183   0.928   8.160   2.501  0.0270  0.7387  0.3234
16510SOL    HW161184   0.919   8.136   2.598 -1.2175 -2.7596 -0.5655
16510SOL    HW261185   1.001   8.105   2.460  1.1584  2.8492 -0.5436
16511SOL     OW61186   9.671   6.172   7.766  0.3407 -0.1816 -0.6356
16511SOL    HW161187   9.745   6.170   7.833 -1.3200 -1.5745  1.2455
16511SOL    HW261188   9.602   6.239   7.795 -0.8433 -1.4665 -0.3944
16512SOL     OW61189   7.657   7.287   3.865  0.4225 -0.5222 -0.1169
16512SOL    HW161190   7.702   7.199   3.854  1.6470 -0.0508  0.9625
16512SOL    HW261191   7.561   7.279   3.840  0.9490 -1.6957 -1.8666
16513SOL     OW61192   1.062   0.831   2.950  0.1693 -0.4442 -0.2896
16513SOL    HW161193   0.988   0.764   2.947  0.3856 -0.6802 -0.3184
16513SOL    HW261194   1.150   0.784   2.946  0.4026 -0.3904  3.0800
16514SOL     OW61195   9.028   6.922   3.632 -0.6294  0.2153  0.1219
16514SOL    HW161196   9.027   7.015   3.594 -0.2892  0.5856  1.0061
16514SOL    HW261197   9.056   6.926   3.728 -1.1948 -0.7426  0.3287
16515SOL     OW61198   9.765   4.741   1.879  0.6835  0.3087  0.4696
16515SOL    HW161199   9.733   4.807   1.947 -0.9951 -1.6406  1.6456
16515SOL    HW261200   9.723   4.762   1.791 -1.1659 -0.1393  1.2146
16516SOL     OW61201   7.392   8.123   1.702  0.1369  0.1717 -0.0803
16516SOL    HW161202   7.412   8.076   1.788  1.3416 -0.7682 -0.8517
16516SOL    HW261203   7.419   8.065   1.625 -1.0912  0.9311 -1.0994
16517SOL     OW61204   9.065   6.778   2.965  0.2142  0.0847  0.4345
16517SOL    HW161205   9.026   6.759   2.876  2.7805 -1.4446 -0.4278
16517SOL    HW261206   9.013   6.732   3.036  0.0789 -1.3876 -0.6103
16518SOL     OW61207   9.380   3.393   4.463  0.1019 -0.4007 -0.2775
16518SOL    HW161208   9.409   3.452   4.387  1.4940 -0.5980  0.0908
16518SOL    HW261209   9.443   3.404   4.539 -0.3890 -1.3978  0.2750
16519SOL     OW61210   8.998   7.082   5.580 -0.2231 -0.0612  0.8027
16519SOL    HW161211   9.030   6.989   5.562 -0.7420 -0.1755  0.4785
16519SOL    HW261212   8.947   7.116   5.500 -1.8690 -0.2777  1.7490
16520SOL     OW61213   2.665   8.774   1.293  0.7266  0.5971  0.8152
16520SOL    HW161214   2.755   8.736   1.273  0.2399  0.1414 -0.5467
16520SOL    HW261215   2.669   8.874   1.286  1.1423  0.5844  0.8538
16521SOL     OW61216   2.077   3.521   1.182 -0.4341  0.0875  0.2705
16521SOL    HW161217   2.007   3.553   1.245 -0.0994  2.2654 -0.4259
16521SOL    HW261218   2.037   3.505   1.092 -0.1800  0.6919  0.0453
16522SOL     OW61219   6.564   0.492   2.169 -0.7073 -0.1046  0.0739
16522SOL    HW161220   6.471   0.510   2.137 -1.5472 -1.8447  1.4589
16522SOL    HW261221   6.609   0.428   2.108 -1.1686 -0.8909  0.5485
16523SOL     OW61222   3.652   4.693   7.097  0.6330 -0.0989  0.2793
16523SOL    HW161223   3.595   4.622   7.054  0.5675 -0.3543  0.7840
16523SOL    HW261224   3.612   4.719   7.184  0.6665  0.5579  0.0981
16524SOL     OW61225   7.291   5.469   7.450 -0.2425 -0.0423 -0.1475
16524SOL    HW161226   7.357   5.543   7.462 -1.2941  1.0163 -0.7991
16524SOL    HW261227   7.339   5.384   7.428  0.9009  0.7489 -0.7353
16525SOL     OW61228   5.324   1.989   7.028  0.2093 -0.2615  0.2725
16525SOL    HW161229   5.227   2.011   7.025  0.6032  2.0016  2.2274
16525SOL    HW261230   5.374   2.046   6.963  0.5542  0.7912  1.4204
16526SOL     OW61231   9.743   2.865   5.824  0.1317  0.6450  0.2005
16526SOL    HW161232   9.678   2.918   5.879 -1.1836  0.3276 -1.0203
16526SOL    HW261233   9.728   2.884   5.727  0.7738 -0.6724 -0.1717
16527SOL     OW61234   8.148   8.336   4.557 -0.3148  0.2348  0.1861
16527SOL    HW161235   8.180   8.243   4.571 -0.5859  0.2300  0.8234
16527SOL    HW261236   8.048   8.339   4.567 -0.3199  0.5659  0.0467
16528SOL     OW61237   4.600   4.758   5.666  0.6248  0.0613 -0.1694
16528SOL    HW161238   4.648   4.836   5.707  0.0464  0.0124  0.6136
16528SOL    HW261239   4.618   4.676   5.720 -1.3897  0.3006  0.9086
16529SOL     OW61240   0.422   3.458   8.135  0.3757  0.6968 -0.5522
16529SOL    HW161241   0.373   3.545   8.134  0.0104  0.4980 -0.2305
16529SOL    HW261242   0.356   3.383   8.148  0.9913  0.5975  2.3190
16530SOL     OW61243   4.265   9.784   1.141 -0.1717 -0.4317  0.3885
16530SOL    HW161244   4.294   9.807   1.047  0.7227 -0.0095  0.7532
16530SOL    HW261245   4.167   9.802   1.151 -0.1860 -0.0543 -0.3443
16531SOL     OW61246   2.366   3.087   7.479 -0.1536  0.2268  0.6657
16531SOL    HW161247   2.348   3.035   7.563  1.7044  0.1780  1.0570
16531SOL    HW261248   2.440   3.151   7.496  0.1141  0.3384 -0.9109
16532SOL     OW61249   8.570   2.215   7.268 -0.3291 -0.2710  0.0932
16532SOL    HW161250   8.517   2.298   7.286 -2.3421 -1.6703  0.8375
16532SOL    HW261251   8.624   2.192   7.348 -1.7006 -1.0454  0.8112
16533SOL     OW61252   6.374   2.407   4.245 -0.3706 -0.0203 -0.5149
16533SOL    HW161253   6.405   2.330   4.190 -0.0805  0.1715 -0.6198
16533SOL    HW261254   6.275   2.417   4.235 -0.1128  0.9932 -2.2607
16534SOL     OW61255   5.530   8.436   2.648 -0.1534  0.1875 -0.3392
16534SOL    HW161256   5.442   8.388   2.640 -0.5733  1.1505 -1.5728
16534SOL    HW261257   5.577   8.433   2.560  1.4752 -1.1058  0.5556
16535SOL     OW61258   7.342   9.752   2.828 -0.3432  0.1348  0.0660
16535SOL    HW161259   7.404   9.687   2.784  0.1018 -0.3002  1.3224
16535SOL    HW261260   7.267   9.702   2.871 -1.4937  0.6526 -1.3158
16536SOL     OW61261   8.803   8.982   7.195 -0.0830  0.4173 -0.0358
16536SOL    HW161262   8.808   8.887   7.165  0.7481  0.5761 -0.4263
16536SOL    HW261263   8.726   8.994   7.257  0.8599 -0.9022  1.4262
16537SOL     OW61264   1.130   7.198   5.882 -0.1410  0.2153  0.0184
16537SOL    HW161265   1.071   7.243   5.815 -0.7216 -1.6686 -0.7605
16537SOL    HW261266   1.200   7.144   5.834 -0.6063 -1.2005  0.9267
16538SOL     OW61267   8.649   5.032   4.333 -0.8324  0.5260  0.1246
16538SOL    HW161268   8.748   5.021   4.341 -1.0019  0.0677  1.8136
16538SOL    HW261269   8.616   4.981   4.254  0.1039 -0.4876  0.3695
16539SOL     OW61270   9.326   0.967   6.802  0.5080 -0.1319  0.3280
16539SOL    HW161271   9.253   0.977   6.735  0.2922 -2.2301  0.1885
16539SOL    HW261272   9.411   1.002   6.764 -0.1663  1.1653 -0.0019
16540SOL     OW61273   9.292   3.659   3.122 -0.2587  0.1494 -0.2834
16540SOL    HW161274   9.278   3.562   3.138 -1.2649  0.4068  0.4497
16540SOL    HW261275   9.331   3.701   3.205  1.7475  0.0675 -1.1576
16541SOL     OW61276   3.230   5.716   0.438 -0.2154  0.2853 -0.1847
16541SOL    HW161277   3.269   5.692   0.349  1.5779 -0.8413  0.8567
16541SOL    HW261278   3.305   5.736   0.502 -1.3727 -1.2646  1.7087
16542SOL     OW61279   9.707   8.653   1.675  0.3959 -0.1608  0.2468
16542SOL    HW161280   9.608   8.648   1.664  0.5568 -0.2595 -1.2318
16542SOL    HW261281   9.750   8.583   1.617  1.2357 -1.5001  2.4370
16543SOL     OW61282   2.367   7.810   3.212  0.0617 -0.2596  0.0453
16543SOL    HW161283   2.442   7.773   3.156  1.0408  0.1156  1.0938
16543SOL    HW261284   2.383   7.788   3.308 -1.5134 -0.7229  0.2109
16544SOL     OW61285   2.411   8.390   5.242  0.0738 -0.8046 -0.4040
16544SOL    HW161286   2.433   8.426   5.152 -1.1699  1.1945  0.0439
16544SOL    HW261287   2.492   8.350   5.284  1.3395  0.8191 -1.2620
16545SOL     OW61288   9.863   1.350   4.745  0.7113  0.7484  0.3894
16545SOL    HW161289   9.892   1.273   4.802 -0.2626 -0.1985 -0.3640
16545SOL    HW261290   9.781   1.391   4.784 -0.2977 -0.2736 -0.6313
16546SOL     OW61291   7.699   0.763   5.631  0.3379  0.1136  0.0233
16546SOL    HW161292   7.672   0.816   5.551 -0.3075  0.1760  0.2783
16546SOL    HW261293   7.797   0.746   5.629  0.4184  0.6465 -0.4644
16547SOL     OW61294   9.096   5.822   4.617 -0.3861 -0.2637 -0.2555
16547SOL    HW161295   9.024   5.797   4.552 -0.1178  0.2953 -0.7683
16547SOL    HW261296   9.180   5.773   4.595 -0.3200 -0.1367 -0.2889
16548SOL     OW61297   0.602   5.778   6.695  0.1305  0.0233 -0.7981
16548SOL    HW161298   0.521   5.721   6.705 -0.4015  0.5999 -1.6642
16548SOL    HW261299   0.582   5.852   6.630  0.6052  1.5387  0.7479
16549SOL     OW61300   4.455   9.725   6.444 -0.0222  0.6088 -0.1050
16549SOL    HW161301   4.488   9.650   6.501  0.8117  1.0118 -0.0593
16549SOL    HW261302   4.368   9.698   6.401 -0.0069 -0.1708  0.3447
16550SOL     OW61303   0.873   3.781   3.534  0.2677 -0.4183 -0.2184
16550SOL    HW161304   0.776   3.759   3.540  0.4395 -1.1851 -0.2917
16550SOL    HW261305   0.915   3.732   3.458  0.5151  0.6533 -0.7900
16551SOL     OW61306   4.280   8.336   6.410 -0.1354  0.1332  0.2165
16551SOL    HW161307   4.192   8.359   6.368 -0.7786  1.2954  2.1180
16551SOL    HW261308   4.322   8.419   6.447  2.5210 -0.1474 -2.0099
16552SOL     OW61309   0.710   4.340   1.660 -0.2050  0.6789 -0.0376
16552SOL    HW161310   0.633   4.391   1.700  0.2969 -0.1151  1.9804
16552SOL    HW261311   0.679   4.250   1.631  0.1861 -0.0840  1.8437
16553SOL     OW61312   0.859   8.989   0.130  0.3094  0.1752  0.3151
16553SOL    HW161313   0.897   9.078   0.107  1.2619  0.3139  2.2995
16553SOL    HW261314   0.814   8.993   0.219 -0.0996 -1.2045  0.1989
16554SOL     OW61315   4.326   8.838   4.016 -0.3831  0.3946 -0.0433
16554SOL    HW161316   4.354   8.897   3.940 -1.2529  1.5620  0.5126
16554SOL    HW261317   4.261   8.770   3.983  0.9754 -0.5551 -0.7840
16555SOL     OW61318   7.704   1.177   2.408  0.5366  0.2042  0.4003
16555SOL    HW161319   7.645   1.209   2.482 -2.2050 -0.6199 -1.3385
16555SOL    HW261320   7.721   1.251   2.343  1.1946  0.3536  0.7334
16556SOL     OW61321   1.902   4.726   9.869 -0.6122 -0.1921  0.2126
16556SOL    HW161322   1.962   4.667   9.814 -1.2097 -0.4688 -0.1391
16556SOL    HW261323   1.815   4.680   9.884 -1.3983  0.9379 -0.7806
16557SOL     OW61324   4.512   8.016   5.363 -0.6832  0.4955 -0.0272
16557SOL    HW161325   4.596   7.971   5.331  0.0677  1.4645  0.5649
16557SOL    HW261326   4.523   8.115   5.356 -1.3820  0.6510  1.0327
16558SOL     OW61327   0.386   9.637   6.567 -0.0922 -0.2294  0.5961
16558SOL    HW161328   0.382   9.726   6.522  0.8888 -0.0865  0.7769
16558SOL    HW261329   0.454   9.579   6.521 -1.0911 -1.0680  0.1558
16559SOL     OW61330   3.036   6.978   0.347 -0.2663 -0.2732 -0.1343
16559SOL    HW161331   2.991   6.973   0.257  0.0138  0.8230 -0.3420
16559SOL    HW261332   2.968   7.001   0.417 -0.6552 -2.0323  0.0843
16560SOL     OW61333   0.975   4.881   3.292 -0.0433  0.1441  0.4415
16560SOL    HW161334   1.049   4.943   3.316 -0.1396  0.2201  0.5408
16560SOL    HW261335   1.005   4.786   3.304  1.2704  0.0421 -2.9581
16561SOL     OW61336   8.599   1.900   7.446 -0.4416 -0.4610  0.2912
16561SOL    HW161337   8.686   1.873   7.488 -1.0805  0.5193  2.3432
16561SOL    HW261338   8.604   1.887   7.347  1.2379 -2.5508  0.6224
16562SOL     OW61339   1.264   1.369   5.010 -0.1198 -0.2103 -0.1868
16562SOL    HW161340   1.220   1.415   4.932 -1.3208 -1.2819 -0.1667
16562SOL    HW261341   1.323   1.433   5.059 -3.2550  1.8759  0.9835
16563SOL     OW61342   0.040   3.801   4.192  0.2793  0.3573 -0.7142
16563SOL    HW161343   0.068   3.804   4.288  0.5107  3.1403 -0.8178
16563SOL    HW261344   0.115   3.837   4.135 -0.1194 -0.6201 -1.8796
16564SOL     OW61345   0.544   8.792   7.537  0.0053 -0.6022 -0.2746
16564SOL    HW161346   0.617   8.809   7.603 -0.0530  0.3356 -0.4412
16564SOL    HW261347   0.540   8.695   7.516  1.0693 -0.6931 -0.0926
16565SOL     OW61348   5.478   3.076   1.099 -0.0406 -0.2291  0.0796
16565SOL    HW161349   5.524   3.048   1.015 -0.8589 -0.4000 -0.3190
16565SOL    HW261350   5.423   3.158   1.082  0.6335  0.3567  0.7101
16566SOL     OW61351   1.577   0.049   6.840  0.3184  0.6730 -0.0094
16566SOL    HW161352   1.608   0.053   6.745 -0.0228 -0.0948 -0.1556
16566SOL    HW261353   1.633  -0.017   6.890  0.3737  0.9370  0.2725
16567SOL     OW61354   1.931   8.464   4.935  0.1989 -0.2410 -0.1252
16567SOL    HW161355   1.961   8.532   4.869  0.8227 -0.2830  0.1084
16567SOL    HW261356   1.977   8.480   5.023 -1.7699  0.7630  0.7602
16568SOL     OW61357   2.357   2.993   1.420  0.4098  0.2525 -0.1472
16568SOL    HW161358   2.382   2.905   1.379 -0.3522  0.2917 -0.7235
16568SOL    HW261359   2.320   2.978   1.511  0.2503 -0.0407 -0.2579
16569SOL     OW61360   4.663   5.443   3.552 -0.1555 -0.0174 -0.8674
16569SOL    HW161361   4.761   5.424   3.554 -0.0801  0.4261  0.9223
16569SOL    HW261362   4.630   5.455   3.646 -2.1373 -1.2224 -1.3937
16570SOL     OW61363   1.934   4.361   2.406  0.4853  0.0528  0.5024
16570SOL    HW161364   1.941   4.262   2.391 -0.6009 -0.4624  3.1400
16570SOL    HW261365   1.861   4.398   2.349  0.9835 -0.6034 -0.6041
16571SOL     OW61366   4.924   1.491   7.521 -0.0564  0.1850 -0.0622
16571SOL    HW161367   5.003   1.464   7.467 -1.8390  0.1427 -2.7619
16571SOL    HW261368   4.892   1.413   7.574  0.0300 -0.5959 -1.1443
16572SOL     OW61369   9.039   5.923   0.466 -0.0694 -0.9993  0.8627
16572SOL    HW161370   9.120   5.878   0.429 -0.1256 -1.3022  1.1051
16572SOL    HW261371   9.064   5.970   0.551  1.1899  3.7371 -1.9438
16573SOL     OW61372   7.022   9.905   1.245  0.2585 -0.2980  0.2741
16573SOL    HW161373   7.113   9.925   1.280 -0.3354 -1.2462  2.4426
16573SOL    HW261374   7.029   9.852   1.161  1.7029  0.6161 -0.1965
16574SOL     OW61375   2.181   6.959   3.337 -0.0264 -0.1127  0.0049
16574SOL    HW161376   2.237   6.888   3.294 -0.1019  0.6069 -1.3111
16574SOL    HW261377   2.235   7.008   3.406  0.2378 -0.9672  0.4126
16575SOL     OW61378   9.122   1.529   1.985 -0.1092  0.1186 -0.1718
16575SOL    HW161379   9.116   1.552   2.082 -0.1823 -1.0856  0.1139
16575SOL    HW261380   9.057   1.584   1.933  0.6330  1.4868  0.3302
16576SOL     OW61381   1.586   8.162   1.152  0.0631 -0.4517 -0.1130
16576SOL    HW161382   1.660   8.138   1.215 -0.7689  0.4278  1.2268
16576SOL    HW261383   1.519   8.088   1.150 -0.8849  0.3417  1.5463
16577SOL     OW61384   5.458   6.213   1.605  0.0609  0.3920 -0.1644
16577SOL    HW161385   5.483   6.201   1.509  1.2297  1.0909  0.0401
16577SOL    HW261386   5.537   6.190   1.663 -0.8542 -0.7379  0.6698
16578SOL     OW61387   8.679   2.934   5.182 -0.3672  0.9820 -0.2533
16578SOL    HW161388   8.751   2.950   5.115 -0.9312  0.6182 -0.9544
16578SOL    HW261389   8.618   3.013   5.186 -0.2707  1.0494 -0.0821
16579SOL     OW61390   5.858   9.182   4.987  0.0764  0.5837  0.3339
16579SOL    HW161391   5.871   9.089   4.954  0.1704  0.9597 -0.7181
16579SOL    HW261392   5.873   9.185   5.086  0.5615 -0.4177  0.2971
16580SOL     OW61393   8.638   5.442   3.493 -0.4000  0.7395 -0.3288
16580SOL    HW161394   8.615   5.373   3.561  0.6633 -0.3150 -1.0091
16580SOL    HW261395   8.671   5.525   3.538 -0.2338  0.2522  0.4521
16581SOL     OW61396   9.279   8.040   7.221 -0.2593  0.2151 -0.5299
16581SOL    HW161397   9.354   7.985   7.183 -0.3486 -1.1539  1.2191
16581SOL    HW261398   9.236   7.991   7.296 -2.7430  1.1339 -1.3090
16582SOL     OW61399   4.569   9.506   7.472  0.0582 -0.2662 -0.1870
16582SOL    HW161400   4.613   9.535   7.556  1.4240 -1.1490 -0.5898
16582SOL    HW261401   4.598   9.564   7.396 -0.8843  0.2964 -0.1271
16583SOL     OW61402   2.610   3.279   1.980  0.3348 -0.0795 -0.6473
16583SOL    HW161403   2.592   3.298   2.077  0.5605  3.1917 -1.2212
16583SOL    HW261404   2.526   3.294   1.928  0.6451 -0.2861 -1.2051
16584SOL     OW61405   8.965   9.433   2.615 -0.1038  0.1074 -0.4828
16584SOL    HW161406   9.058   9.432   2.578 -0.2649  0.0975 -0.8891
16584SOL    HW261407   8.959   9.501   2.688  1.2095 -2.4549  2.1051
16585SOL     OW61408   0.531   9.613   0.762  0.5714  0.0686 -0.0018
16585SOL    HW161409   0.486   9.649   0.844 -0.0282 -0.1440 -0.2324
16585SOL    HW261410   0.580   9.687   0.716 -0.1151  0.4611 -0.1200
16586SOL     OW61411   6.962   3.362   2.942  0.8325  0.2767 -0.8981
16586SOL    HW161412   6.955   3.264   2.959 -1.8674  0.4278 -1.0120
16586SOL    HW261413   7.023   3.402   3.011  0.5397 -1.2043  0.2678
16587SOL     OW61414   2.432   9.646   3.697 -0.7724  0.8331  0.0922
16587SOL    HW161415   2.380   9.613   3.776  0.2376 -0.6677  0.1520
16587SOL    HW261416   2.480   9.730   3.721  1.5536 -0.9388  1.9176
16588SOL     OW61417   8.167   8.436   2.197  0.1858 -0.3762  0.6517
16588SOL    HW161418   8.205   8.348   2.227 -1.4945 -1.5168 -0.4435
16588SOL    HW261419   8.215   8.466   2.115 -0.7484 -1.4763 -0.3354
16589SOL     OW61420   3.001   6.787   0.697 -0.0509  0.0526 -0.0108
16589SOL    HW161421   3.057   6.709   0.667 -1.7058 -0.6705 -1.2764
16589SOL    HW261422   3.051   6.838   0.767  1.8796 -1.0066 -0.5710
16590SOL     OW61423   9.016   2.351   1.861 -0.3228  0.1984 -0.1260
16590SOL    HW161424   8.949   2.313   1.797 -0.6102  0.8203 -0.1966
16590SOL    HW261425   9.083   2.405   1.811 -1.4271  1.9637  0.2437
16591SOL     OW61426   7.371   6.506   4.659  0.0282 -0.5743  0.5367
16591SOL    HW161427   7.384   6.448   4.740  1.7898  0.0758  0.7527
16591SOL    HW261428   7.395   6.454   4.577  1.3264 -0.2609  0.7073
16592SOL     OW61429   6.423   7.737   7.063 -0.5425  0.3876  0.5366
16592SOL    HW161430   6.520   7.719   7.051 -0.7462  0.6123 -1.7245
16592SOL    HW261431   6.409   7.827   7.104  0.1878  1.2509 -1.0495
16593SOL     OW61432   2.592   4.951   5.126  0.2809 -0.2142 -0.4336
16593SOL    HW161433   2.656   4.909   5.190  0.3249 -0.1947 -0.4646
16593SOL    HW261434   2.523   5.002   5.177 -0.1374 -0.8414 -0.3658
16594SOL     OW61435   0.988   2.471   0.254  0.5264 -0.5683  0.5396
16594SOL    HW161436   1.043   2.542   0.210  1.1594 -2.0166 -1.1086
16594SOL    HW261437   1.046   2.393   0.276 -0.7434 -1.9234 -0.7681
16595SOL     OW61438   0.926   5.942   3.647  0.3054 -0.1900 -0.3824
16595SOL    HW161439   0.937   5.990   3.560 -1.0410  1.0557  0.1064
16595SOL    HW261440   0.860   5.868   3.637 -2.0417  1.7591  0.2223
16596SOL     OW61441   4.058   6.650   3.367 -0.9868 -0.3442  0.4168
16596SOL    HW161442   4.131   6.610   3.311 -1.9323 -1.5115  0.0175
16596SOL    HW261443   4.068   6.619   3.462 -1.1064 -0.7001  0.3135
16597SOL     OW61444   7.038   4.565   2.490 -0.5123 -0.3231 -0.1170
16597SOL    HW161445   7.027   4.655   2.448  0.5721  0.5950  1.4861
16597SOL    HW261446   6.952   4.514   2.485 -1.0384  0.6750 -1.3200
16598SOL     OW61447   2.042   9.683   4.911  0.1986  0.7503 -0.2256
16598SOL    HW161448   1.964   9.635   4.953  1.3924 -0.2999  0.8471
16598SOL    HW261449   2.058   9.769   4.960 -1.2933  1.7939 -1.4959
16599SOL     OW61450   4.301   2.542   5.417  0.9696 -0.0715  0.3846
16599SOL    HW161451   4.225   2.591   5.375  1.2884  0.6439  0.6380
16599SOL    HW261452   4.309   2.451   5.376 -0.5350 -0.4592  0.9291
16600SOL     OW61453   8.655   0.716   4.650  0.5996  0.0403  0.1685
16600SOL    HW161454   8.695   0.785   4.589 -0.8085  0.8262  0.1214
16600SOL    HW261455   8.638   0.756   4.740 -0.3992 -0.1916  0.0830
16601SOL     OW61456   2.841   0.199   1.379  0.2837 -0.5594 -0.0482
16601SOL    HW161457   2.779   0.277   1.366 -1.0945 -1.7039 -0.4883
16601SOL    HW261458   2.911   0.199   1.309 -0.1102 -0.0726 -0.4421
16602SOL     OW61459   9.321   9.913   0.875 -0.3878  0.5249 -0.1356
16602SOL    HW161460   9.306   9.918   0.776 -1.9080  3.3449  0.1833
16602SOL    HW261461   9.299  10.002   0.917 -1.1614 -1.0286  2.9166
16603SOL     OW61462   0.358   7.261   7.177  0.4406 -0.5727  0.3617
16603SOL    HW161463   0.301   7.219   7.248 -1.6356 -0.4332 -1.1834
16603SOL    HW261464   0.331   7.226   7.088  0.0478  2.5196 -0.7739
16604SOL     OW61465   1.105   6.200   1.100  0.1303 -0.2564 -0.2582
16604SOL    HW161466   1.110   6.114   1.151  1.2694  0.8013  1.4463
16604SOL    HW261467   1.026   6.252   1.130 -0.0550 -0.3009 -0.6632
16605SOL     OW61468   4.295   7.628   0.490  0.2371 -0.3940  0.3505
16605SOL    HW161469   4.296   7.638   0.589 -2.2066 -1.2062  0.5052
16605SOL    HW261470   4.285   7.531   0.466  1.7415 -0.3064 -0.7176
16606SOL     OW61471   8.662   4.935   2.732  0.2391 -0.0017  0.0469
16606SOL    HW161472   8.622   4.893   2.650  0.7902 -0.2943 -0.0773
16606SOL    HW261473   8.755   4.900   2.745  0.2093  0.1610  0.7130
16607SOL     OW61474   1.685   8.338   6.715  0.2095  0.0439  0.6552
16607SOL    HW161475   1.783   8.317   6.714  0.1245 -0.3470  0.4893
16607SOL    HW261476   1.672   8.437   6.711  0.6229  0.1685  2.1680
16608SOL     OW61477   7.408   6.519   2.108  0.3948 -0.1370 -0.0319
16608SOL    HW161478   7.315   6.504   2.142  0.3064 -2.0735 -1.1098
16608SOL    HW261479   7.469   6.530   2.186 -0.6878  0.9367  0.6915
16609SOL     OW61480   0.736   1.622   5.088 -0.1541  0.5122 -0.3619
16609SOL    HW161481   0.812   1.557   5.080 -0.9743 -0.5569  0.3536
16609SOL    HW261482   0.747   1.675   5.172  1.2763  2.3086 -1.6676
16610SOL     OW61483   2.275   1.874   6.255 -0.0149 -0.1114  0.2621
16610SOL    HW161484   2.266   1.973   6.266  1.1157  0.0697 -0.3805
16610SOL    HW261485   2.185   1.835   6.238 -0.9766  0.3365  4.0047
16611SOL     OW61486   6.416   0.058   6.111 -0.3853 -0.6323  0.1089
16611SOL    HW161487   6.450   0.078   6.203 -0.7597  0.4398  0.0221
16611SOL    HW261488   6.320   0.088   6.104 -0.6629 -1.6057 -0.3265
16612SOL     OW61489   8.634   7.120   4.085  0.1081 -0.4996 -0.0944
16612SOL    HW161490   8.731   7.126   4.064  0.3190 -2.3054  0.3071
16612SOL    HW261491   8.588   7.060   4.019  0.1147 -3.2554  2.3020
16613SOL     OW61492   9.075   7.607   3.294  0.3337  0.4907 -0.0762
16613SOL    HW161493   9.021   7.557   3.226  0.7262 -0.0871  0.0355
16613SOL    HW261494   9.172   7.587   3.280  0.2601 -1.9034  2.4532
16614SOL     OW61495   9.914   9.294   2.700  0.1367 -0.4268  0.4514
16614SOL    HW161496   9.906   9.353   2.780  1.2658 -2.4615  2.1084
16614SOL    HW261497   9.973   9.338   2.632 -0.3004  1.0108  0.9724
16615SOL     OW61498   9.082   8.695   3.459 -0.1436  0.3235  0.1846
16615SOL    HW161499   9.159   8.644   3.497 -1.3258 -1.5513  0.1377
16615SOL    HW261500   9.108   8.734   3.371  1.3700  1.3773  1.0749
16616SOL     OW61501   2.825   6.887   2.825 -0.7123 -0.0045  0.0943
16616SOL    HW161502   2.801   6.933   2.910  0.3459  1.3689 -0.3380
16616SOL    HW261503   2.750   6.827   2.797 -1.9586  1.1694  0.8624
16617SOL     OW61504   9.820   7.405   7.208  0.2494  0.1784  0.2405
16617SOL    HW161505   9.826   7.462   7.290  1.0091  0.5078 -0.0385
16617SOL    HW261506   9.798   7.311   7.234  0.0753  0.3710  0.7901
16618SOL     OW61507   8.850   3.426   1.370  0.1723 -0.3543  0.1060
16618SOL    HW161508   8.869   3.431   1.468 -1.1085 -0.4539  0.3684
16618SOL    HW261509   8.768   3.371   1.355  0.2729 -0.2037 -1.0123
16619SOL     OW61510   2.036   8.360   4.357 -0.1131 -0.2350  0.5524
16619SOL    HW161511   1.948   8.371   4.310 -0.0122  1.6192  0.7510
16619SOL    HW261512   2.095   8.300   4.303 -1.2854 -1.0473  0.1416
16620SOL     OW61513   5.145   2.063   4.242  0.2393  0.0738 -0.7497
16620SOL    HW161514   5.240   2.076   4.212  0.7805 -0.2326  0.8018
16620SOL    HW261515   5.124   1.966   4.247 -0.2710  0.1432 -1.4052
16621SOL     OW61516   2.551   1.109   3.640  0.1056  0.0662 -0.1657
16621SOL    HW161517   2.626   1.168   3.670 -0.3698  1.5302 -1.7656
16621SOL    HW261518   2.467   1.136   3.686  0.0886 -0.0074 -0.1539
16622SOL     OW61519   8.879   0.745   2.179 -0.3179  0.0447 -0.0542
16622SOL    HW161520   8.893   0.782   2.087 -0.2993  0.8156  0.2503
16622SOL    HW261521   8.849   0.650   2.173 -1.7253  0.5161 -0.9075
16623SOL     OW61522   7.448   6.915   6.937  0.0713  0.3050  0.7803
16623SOL    HW161523   7.391   6.888   6.859  1.9229 -0.5813 -0.2963
16623SOL    HW261524   7.458   7.014   6.938  0.3673  0.2910 -0.3617
16624SOL     OW61525   4.190   2.022   1.224 -0.8678 -0.1836  0.2252
16624SOL    HW161526   4.270   2.028   1.164 -1.7455  0.8566 -0.8580
16624SOL    HW261527   4.142   1.936   1.207 -1.7664  0.6188 -1.4247
16625SOL     OW61528   9.409   9.857   2.083 -0.1318 -0.3890  0.2077
16625SOL    HW161529   9.486   9.836   2.023 -0.3609 -1.5936  0.3227
16625SOL    HW261530   9.388   9.955   2.078  0.0874 -0.4203 -1.3854
16626SOL     OW61531   0.552   4.617   5.230  0.3405 -0.0239  0.7609
16626SOL    HW161532   0.552   4.670   5.145 -1.5028 -0.2405  0.6022
16626SOL    HW261533   0.643   4.578   5.244  0.9356  0.8106 -0.6099
16627SOL     OW61534   9.127   1.566   4.981 -0.3762  0.0506  0.0322
16627SOL    HW161535   9.148   1.611   4.894 -2.1974  2.1802  0.6358
16627SOL    HW261536   9.190   1.599   5.052 -1.3853  1.3307  0.3596
16628SOL     OW61537   4.804   0.840   3.804  0.0495 -0.1184 -0.2077
16628SOL    HW161538   4.780   0.909   3.871  0.8026 -0.7071  0.6778
16628SOL    HW261539   4.837   0.758   3.850 -1.6464 -1.3963 -1.2067
16629SOL     OW61540   3.527   2.358   5.457 -0.2712  0.3800 -0.2553
16629SOL    HW161541   3.559   2.344   5.363 -0.3768  0.1242 -0.2517
16629SOL    HW261542   3.532   2.456   5.479  1.8374  0.1815  0.2306
16630SOL     OW61543   3.612   2.810   5.126 -0.1419  0.5574 -0.1970
16630SOL    HW161544   3.658   2.742   5.183  1.0239  0.3227 -1.4002
16630SOL    HW261545   3.521   2.777   5.102  0.2806 -0.4151 -0.4701
16631SOL     OW61546   3.588   0.183   6.835  0.0719  0.2116 -0.2165
16631SOL    HW161547   3.622   0.184   6.929  0.3160  1.4073 -0.3088
16631SOL    HW261548   3.532   0.102   6.820  1.7004 -1.0362  0.3584
16632SOL     OW61549   1.250   2.419   3.528  0.3464 -0.0944 -0.0214
16632SOL    HW161550   1.273   2.328   3.562 -2.2668 -0.4443  0.9446
16632SOL    HW261551   1.219   2.412   3.433 -2.3142 -0.6201  0.8485
16633SOL     OW61552   3.021   4.072   5.360  0.5758 -0.4325  0.6474
16633SOL    HW161553   3.110   4.076   5.405  0.8160 -0.3236  0.1736
16633SOL    HW261554   2.994   4.164   5.331  1.2693 -0.7345 -1.0326
16634SOL     OW61555   8.979   9.971   7.526 -0.6547 -0.1125 -0.6715
16634SOL    HW161556   9.044   9.950   7.598 -0.1857  0.5671 -0.8928
16634SOL    HW261557   8.923  10.049   7.553 -1.4054 -0.7199 -0.4647
16635SOL     OW61558   0.425   6.355   7.563  0.1167  0.0073 -0.0615
16635SOL    HW161559   0.472   6.322   7.481  1.0054  0.3098  0.3195
16635SOL    HW261560   0.475   6.325   7.644 -0.4567  0.1711  0.3520
16636SOL     OW61561   2.089   7.833   1.570  0.2105 -0.2129  0.4584
16636SOL    HW161562   2.044   7.916   1.603  1.2891  0.8241 -0.6044
16636SOL    HW261563   2.180   7.826   1.612  0.5698 -0.2375 -0.3035
16637SOL     OW61564   1.452   6.794   9.995 -0.7069  0.0991  0.3147
16637SOL    HW161565   1.522   6.788   9.924 -0.2098  1.0686  0.7146
16637SOL    HW261566   1.388   6.718   9.985 -0.0235 -0.3765 -0.5088
16638SOL     OW61567   3.014   7.720   6.590 -0.1247  0.1212  0.4940
16638SOL    HW161568   3.041   7.625   6.575 -0.0346  0.5539 -2.4066
16638SOL    HW261569   3.094   7.780   6.578 -0.5409  0.6841  0.5078
16639SOL     OW61570   5.447   8.127   7.447  0.0746 -0.2133  0.3279
16639SOL    HW161571   5.428   8.116   7.349 -0.4155  0.2025  0.3750
16639SOL    HW261572   5.494   8.046   7.481  1.1095  0.0389 -0.4603
16640SOL     OW61573   8.774   0.485   2.182  0.4295  0.3273 -0.1620
16640SOL    HW161574   8.864   0.476   2.225 -0.5106  1.1070  2.0337
16640SOL    HW261575   8.726   0.397   2.187  0.5453  0.2643 -0.1420
16641SOL     OW61576   8.403   2.717   1.101 -0.0725  0.3645 -0.4063
16641SOL    HW161577   8.400   2.618   1.084  1.0342  0.7170 -2.8620
16641SOL    HW261578   8.413   2.765   1.014  1.9945  2.5196  0.9715
16642SOL     OW61579   8.120   3.633   1.204 -0.0410 -0.3435  0.3033
16642SOL    HW161580   8.042   3.656   1.146  0.9086 -0.0467 -0.8705
16642SOL    HW261581   8.139   3.709   1.266  1.6265  1.1951 -1.9763
16643SOL     OW61582   7.657   3.305   0.716  0.5754 -0.2058  0.3379
16643SOL    HW161583   7.748   3.343   0.699  0.1236  0.0596 -1.5700
16643SOL    HW261584   7.592   3.343   0.651 -0.7306 -1.0805  1.1071
16644SOL     OW61585   6.471   7.183   6.112  0.8368 -0.1501  0.3268
16644SOL    HW161586   6.419   7.149   6.190  1.1182 -1.3516  0.0068
16644SOL    HW261587   6.447   7.131   6.030  0.9939  0.6902 -0.2561
16645SOL     OW61588   4.520   0.255   5.836  0.6536  0.5664 -0.8503
16645SOL    HW161589   4.561   0.203   5.760 -0.3244  0.6808 -1.4671
16645SOL    HW261590   4.558   0.347   5.836 -0.1675  0.9185 -1.9129
16646SOL     OW61591   9.008   3.941   3.850 -0.0889  0.2587 -0.0190
16646SOL    HW161592   8.939   3.976   3.913 -1.3322 -0.5273 -0.9339
16646SOL    HW261593   9.018   4.004   3.773 -1.6941 -0.8986 -1.2163
16647SOL     OW61594   4.279   8.661   7.895 -0.0905 -0.0286 -0.7365
16647SOL    HW161595   4.296   8.622   7.805  1.3451  0.5807 -0.7335
16647SOL    HW261596   4.342   8.737   7.912 -1.2897  0.7905  0.2070
16648SOL     OW61597   9.014   7.866   0.368  0.5297 -0.1721  0.0981
16648SOL    HW161598   9.089   7.801   0.357 -1.3990 -2.3903 -0.2465
16648SOL    HW261599   9.012   7.928   0.290  1.7114 -0.3941 -0.1142
16649SOL     OW61600   1.976   3.948   5.525 -0.1537  0.2513 -0.0126
16649SOL    HW161601   2.003   3.883   5.454 -0.8318  0.3836 -0.3883
16649SOL    HW261602   1.976   3.901   5.614  0.0249 -0.0882 -0.1907
16650SOL     OW61603   1.727   2.333   3.897 -0.5240 -0.0317 -0.2828
16650SOL    HW161604   1.802   2.391   3.865 -0.1844 -0.2727  0.0661
16650SOL    HW261605   1.659   2.324   3.825 -0.2121  0.1858 -0.6082
16651SOL     OW61606   7.590   9.825   5.380 -0.1643  0.1643 -0.2728
16651SOL    HW161607   7.544   9.877   5.452  0.2346 -0.3086  0.3281
16651SOL    HW261608   7.580   9.727   5.397  1.3023  0.0509  0.0436
16652SOL     OW61609   0.982   7.343   5.692  0.3418 -0.5907 -0.1717
16652SOL    HW161610   0.935   7.422   5.732 -1.3246 -0.7829 -1.6764
16652SOL    HW261611   1.066   7.373   5.647 -0.7495  0.4838 -1.5328
16653SOL     OW61612   2.417   0.816   0.656  0.4962 -0.4252 -0.0053
16653SOL    HW161613   2.338   0.852   0.608  0.2750 -1.8368 -0.7101
16653SOL    HW261614   2.492   0.800   0.591  0.9646 -0.2027  0.4713
16654SOL     OW61615   3.785   1.521   4.854  0.4067 -0.3117 -0.3129
16654SOL    HW161616   3.816   1.428   4.835  0.8584 -0.0895 -0.6596
16654SOL    HW261617   3.863   1.578   4.879  0.0386 -0.1928  0.5736
16655SOL     OW61618   6.204   5.929   0.405 -0.5449 -0.5337  0.0648
16655SOL    HW161619   6.209   6.026   0.381 -1.7580 -0.3897  0.3846
16655SOL    HW261620   6.292   5.886   0.386  0.5724  1.0031  1.5532
16656SOL     OW61621   9.833   9.041   2.136  0.1880 -0.2838 -0.0650
16656SOL    HW161622   9.823   8.945   2.164  1.4870 -0.8583 -1.5156
16656SOL    HW261623   9.813   9.100   2.214 -0.6411 -1.7257  0.8466
16657SOL     OW61624   4.272   7.385   5.183 -0.2755 -0.2518  0.5268
16657SOL    HW161625   4.239   7.474   5.151  1.8989  0.4776  0.1915
16657SOL    HW261626   4.230   7.313   5.128 -0.8738  0.6621 -0.2420
16658SOL     OW61627   9.787   9.425   4.566  0.4156  0.0793  0.1742
16658SOL    HW161628   9.699   9.379   4.575  0.8123 -0.5453  0.9125
16658SOL    HW261629   9.852   9.364   4.520  0.6859  0.2300  0.3530
16659SOL     OW61630   2.307   6.910   5.627 -0.9776 -0.5855 -0.1867
16659SOL    HW161631   2.358   6.834   5.667 -0.9758 -0.0744  0.7978
16659SOL    HW261632   2.311   6.904   5.527 -0.2042 -1.3550 -0.1171
16660SOL     OW61633   9.412   5.438   7.875 -0.0300 -0.6179 -0.7316
16660SOL    HW161634   9.404   5.387   7.960  0.3769  0.5200  0.0012
16660SOL    HW261635   9.390   5.378   7.798 -0.9500 -1.5002  0.2039
16661SOL     OW61636   1.437   0.256   4.497  0.4784  0.1254 -0.1833
16661SOL    HW161637   1.527   0.299   4.509  0.6743 -0.0809 -0.8824
16661SOL    HW261638   1.366   0.325   4.507  0.8209  0.7488 -1.9143
16662SOL     OW61639   0.096   0.980   1.625 -0.3000  0.6185 -0.4807
16662SOL    HW161640   0.079   0.926   1.543 -0.5219  1.5355 -1.0442
16662SOL    HW261641   0.191   0.969   1.653 -0.2216  0.3113 -0.8579
16663SOL     OW61642   5.444   0.114   4.282  0.0429  0.5520  0.6536
16663SOL    HW161643   5.510   0.098   4.208 -2.0196  0.4779 -1.2105
16663SOL    HW261644   5.363   0.057   4.268 -1.7010  2.8194  1.2454
16664SOL     OW61645   5.355   6.739   2.348  0.2315 -0.1195  0.5618
16664SOL    HW161646   5.365   6.762   2.251  0.8900 -0.6391  0.5056
16664SOL    HW261647   5.318   6.818   2.397  0.3324  0.2978 -0.0293
16665SOL     OW61648   6.835   9.032   3.746  0.3756  0.2498 -0.0177
16665SOL    HW161649   6.811   9.100   3.677  1.0287  0.0384 -0.4672
16665SOL    HW261650   6.815   9.067   3.837 -0.3729  0.5816 -0.3069
16666SOL     OW61651   7.870   1.643   4.289 -0.9143  0.0918  0.6472
16666SOL    HW161652   7.874   1.742   4.307 -0.1663  0.2044 -0.1131
16666SOL    HW261653   7.919   1.594   4.362 -1.3930  0.2717  1.0927
16667SOL     OW61654   9.668   2.434   6.536 -0.7207  0.0460 -0.2488
16667SOL    HW161655   9.677   2.521   6.583  2.7862 -0.2260 -0.2632
16667SOL    HW261656   9.645   2.449   6.440  1.7050  1.1326 -0.7175
16668SOL     OW61657   8.812   9.744   0.869 -0.0467 -0.1968  0.6044
16668SOL    HW161658   8.891   9.682   0.862  0.0440  0.0305 -0.5984
16668SOL    HW261659   8.819   9.813   0.797 -0.8784  0.3736  1.0717
16669SOL     OW61660   2.444   4.632   2.257  0.0398  0.8518  0.2042
16669SOL    HW161661   2.352   4.633   2.217  0.4410  2.2114 -0.7350
16669SOL    HW261662   2.488   4.544   2.237 -0.0096  1.2704 -1.8249
16670SOL     OW61663   2.273   3.294   6.048  0.1412  0.0132 -0.2911
16670SOL    HW161664   2.231   3.205   6.033 -0.1518 -0.2329  1.9394
16670SOL    HW261665   2.258   3.323   6.142  1.4761  1.7724 -0.5970
16671SOL     OW61666   3.138   4.427   4.539  0.2966 -1.0559 -0.1141
16671SOL    HW161667   3.056   4.437   4.595  0.4365  0.5024 -0.1692
16671SOL    HW261668   3.111   4.408   4.444 -0.2136  3.8193 -1.0951
16672SOL     OW61669   1.317   3.837   3.600  0.0611  0.2210 -0.3079
16672SOL    HW161670   1.394   3.801   3.549  1.1242  0.8882  0.7833
16672SOL    HW261671   1.253   3.882   3.538  0.9492  0.3448 -1.1311
16673SOL     OW61672   6.164   0.227   7.143 -0.1276 -0.5139  0.1893
16673SOL    HW161673   6.191   0.288   7.069  0.2102  2.2770  2.5235
16673SOL    HW261674   6.242   0.213   7.204 -1.1428 -0.6296  1.4688
16674SOL     OW61675   9.175   5.440   5.927  0.4033  0.2932 -0.6803
16674SOL    HW161676   9.095   5.383   5.908  1.2892 -0.6667 -1.5652
16674SOL    HW261677   9.163   5.530   5.885  0.1001 -0.0975 -1.4359
16675SOL     OW61678   8.571   7.068   4.788  0.0299  0.0606  0.2391
16675SOL    HW161679   8.658   7.112   4.766  0.0488 -0.3491 -0.5277
16675SOL    HW261680   8.517   7.128   4.849  0.7284  0.4300  0.4972
16676SOL     OW61681   7.873   2.548   6.138  0.2052 -0.0793 -0.6744
16676SOL    HW161682   7.792   2.491   6.119  0.3812  0.0335 -1.8305
16676SOL    HW261683   7.847   2.623   6.198 -0.0928 -1.2157  0.6590
16677SOL     OW61684   8.543   7.085   1.717 -0.0794  0.0086 -0.1121
16677SOL    HW161685   8.583   7.001   1.754 -0.6565  0.6386  1.9493
16677SOL    HW261686   8.446   7.089   1.740 -0.3377  0.6578 -1.2664
16678SOL     OW61687   3.485   0.113   0.804 -0.0301 -0.1835 -0.0578
16678SOL    HW161688   3.431   0.042   0.849 -0.2150 -0.5010 -0.7822
16678SOL    HW261689   3.579   0.112   0.840  0.9611 -3.1074 -2.4903
16679SOL     OW61690   8.836   9.323   5.668 -0.2348 -0.4609  0.1253
16679SOL    HW161691   8.865   9.305   5.762 -0.3553 -0.8382  0.0889
16679SOL    HW261692   8.772   9.252   5.638 -0.4466 -0.1641 -0.1312
16680SOL     OW61693   2.198   7.757   6.296 -0.4997 -0.0871 -0.0110
16680SOL    HW161694   2.197   7.683   6.229  0.7122  0.1100 -0.2594
16680SOL    HW261695   2.164   7.723   6.384  1.6025 -1.3731  0.3232
16681SOL     OW61696   3.283   7.734   3.551  0.1840  0.0378 -0.2417
16681SOL    HW161697   3.256   7.637   3.545 -1.1085  0.3508  0.4219
16681SOL    HW261698   3.341   7.748   3.631  2.0336 -0.5496 -1.4273
16682SOL     OW61699   5.079   9.391   4.035  0.5156 -0.1731 -0.3604
16682SOL    HW161700   5.009   9.320   4.043  1.2132 -0.7714  0.5823
16682SOL    HW261701   5.085   9.422   3.940  1.2716 -2.4774 -1.1094
16683SOL     OW61702   8.509   8.368   6.294  0.2077 -0.3355 -0.0489
16683SOL    HW161703   8.534   8.462   6.269 -1.2374  0.1920  0.3671
16683SOL    HW261704   8.522   8.308   6.216  3.1449 -0.2051  0.2803
16684SOL     OW61705   0.881   7.535   5.864 -0.3955  0.3077 -0.1338
16684SOL    HW161706   0.921   7.517   5.954  0.0939 -0.8288 -0.5760
16684SOL    HW261707   0.798   7.590   5.876  0.9632  2.2300  0.8304
16685SOL     OW61708   8.857   8.056   8.228 -0.1861  0.1284  0.4636
16685SOL    HW161709   8.827   8.118   8.301  0.3537  0.1476  0.6717
16685SOL    HW261710   8.781   8.039   8.166 -0.7982 -0.2734  1.3021
16686SOL     OW61711   0.378   7.388   5.796 -0.8034 -0.0999 -0.2280
16686SOL    HW161712   0.472   7.356   5.791 -1.3393 -1.3076 -4.3795
16686SOL    HW261713   0.376   7.488   5.788  0.2146  0.1372  2.1374
16687SOL     OW61714   4.398   3.472   7.199  0.5091  0.4711  0.2465
16687SOL    HW161715   4.422   3.453   7.295 -0.0813 -0.5519  0.2034
16687SOL    HW261716   4.334   3.402   7.167  0.3637  1.0661 -0.7647
16688SOL     OW61717   9.860   3.902   0.468 -0.7040 -0.3432  0.3896
16688SOL    HW161718   9.793   3.842   0.424 -0.1281  0.0653 -1.0511
16688SOL    HW261719   9.950   3.860   0.462 -0.4675  0.1746  0.3029
16689SOL     OW61720   6.988   3.200   1.854  0.1683 -0.9721  0.1822
16689SOL    HW161721   7.032   3.260   1.787  2.9226 -0.5054  2.3270
16689SOL    HW261722   6.890   3.218   1.854  0.2176 -0.3151 -3.0185
16690SOL     OW61723   9.019   5.593   6.194 -0.6703 -0.4845  0.1739
16690SOL    HW161724   8.967   5.636   6.120  1.1543 -0.9471 -1.4341
16690SOL    HW261725   9.047   5.501   6.165  2.9090  0.5679  0.0684
16691SOL     OW61726   8.448   5.635   4.159 -0.0807  0.2697  0.5219
16691SOL    HW161727   8.493   5.579   4.228 -1.2940 -0.7577  0.5118
16691SOL    HW261728   8.438   5.582   4.074  0.4478  1.1548 -0.1012
16692SOL     OW61729   2.652   9.473   5.484  0.1443 -0.0982  0.2041
16692SOL    HW161730   2.585   9.406   5.452 -0.7305  0.3389  1.0809
16692SOL    HW261731   2.733   9.426   5.519 -0.5795 -0.7133  1.0725
16693SOL     OW61732   0.946   0.568   2.886 -0.2355  0.4102 -0.4067
16693SOL    HW161733   0.991   0.544   2.972 -2.3086  1.4319  1.0052
16693SOL    HW261734   1.005   0.542   2.809  1.6464 -0.5236  1.3015
16694SOL     OW61735   9.453   3.168   1.486  0.4851  0.3549  0.5024
16694SOL    HW161736   9.372   3.129   1.442 -1.3978  1.2688  3.0758
16694SOL    HW261737   9.483   3.107   1.559  2.5240 -0.2709 -0.8146
16695SOL     OW61738   2.502   0.618   7.256 -0.6530  0.3811 -0.0277
16695SOL    HW161739   2.511   0.717   7.264 -1.0993  0.4861 -0.8397
16695SOL    HW261740   2.510   0.591   7.160  1.9454 -0.6197  0.4391
16696SOL     OW61741   6.316   7.847   4.586 -0.0679  0.3385 -0.4856
16696SOL    HW161742   6.336   7.760   4.541  1.2470  0.9566 -1.1100
16696SOL    HW261743   6.318   7.921   4.520 -1.9852  0.7767 -0.1051
16697SOL     OW61744   1.612   1.207   3.807 -0.1003  0.0073  0.2726
16697SOL    HW161745   1.648   1.224   3.899 -1.6753 -1.4626  1.2105
16697SOL    HW261746   1.600   1.293   3.759  1.0786  0.7719  1.3202
16698SOL     OW61747   5.397   0.999   5.660 -0.3987 -0.0600 -0.3950
16698SOL    HW161748   5.466   1.027   5.592 -0.5696 -0.1685 -0.6128
16698SOL    HW261749   5.424   0.911   5.700  0.2759  0.5278  0.4813
16699SOL     OW61750   0.137   5.192   6.771 -0.1716 -0.2976 -0.8232
16699SOL    HW161751   0.172   5.262   6.710 -0.7362  0.4178 -0.3334
16699SOL    HW261752   0.144   5.224   6.866  0.9412 -1.4942 -0.4874
16700SOL     OW61753   9.250   3.673   7.400 -0.6239 -0.8105  0.1620
16700SOL    HW161754   9.259   3.602   7.330  2.2469  0.6239 -1.0125
16700SOL    HW261755   9.191   3.746   7.366  0.1304 -0.4890 -0.4737
16701SOL     OW61756   1.686   3.483   7.109  0.0456  0.0007  0.5542
16701SOL    HW161757   1.674   3.579   7.083 -2.0984 -0.2116  0.6952
16701SOL    HW261758   1.670   3.472   7.207  1.7600 -0.2834  0.8294
16702SOL     OW61759   3.005   9.647   4.162  0.0198  0.1777  0.5556
16702SOL    HW161760   3.059   9.562   4.160  1.4644  1.0259  2.4600
16702SOL    HW261761   2.910   9.626   4.137  0.5833 -1.8090 -0.0600
16703SOL     OW61762   9.286   0.523   5.719  0.1266  0.1989  0.4030
16703SOL    HW161763   9.265   0.427   5.739  0.8231 -0.1857 -0.6615
16703SOL    HW261764   9.203   0.570   5.688  0.0727 -0.4108 -0.3844
16704SOL     OW61765   9.133   1.453   0.110  0.5040  0.1100 -1.0221
16704SOL    HW161766   9.131   1.359   0.143 -0.7779  0.8537  1.1413
16704SOL    HW261767   9.225   1.490   0.121  0.4745 -0.1804  0.2803
16705SOL     OW61768   5.267   3.649   1.606 -0.4100  0.0519 -0.3424
16705SOL    HW161769   5.259   3.691   1.697  1.5237  1.1110 -0.6291
16705SOL    HW261770   5.358   3.608   1.596 -1.4520 -2.2397 -0.9279
16706SOL     OW61771   2.071   0.646   0.567 -0.3099 -0.4468  0.0950
16706SOL    HW161772   2.021   0.586   0.504 -0.4099  0.5014 -0.7515
16706SOL    HW261773   2.155   0.678   0.523 -0.8674  1.0155  0.0500
16707SOL     OW61774   9.911   5.976   2.911 -0.0347  0.7581 -0.1791
16707SOL    HW161775   9.856   5.931   2.981 -1.0395  0.0002 -1.4460
16707SOL    HW261776   9.851   6.018   2.843  0.9368  0.3068 -1.3340
16708SOL     OW61777   8.342   5.054   3.482  0.5066  0.2679  0.0445
16708SOL    HW161778   8.332   5.153   3.489 -0.9906  0.2637 -1.6099
16708SOL    HW261779   8.307   5.011   3.565 -1.7196  0.9850 -0.4766
16709SOL     OW61780   3.160   8.966   6.992 -0.0236  0.1659  0.1179
16709SOL    HW161781   3.202   9.045   6.948 -0.5228 -0.3015 -1.2260
16709SOL    HW261782   3.231   8.903   7.024  0.3310  0.2441 -0.5242
16710SOL     OW61783   7.034   1.833   3.699 -0.2469 -0.3943 -0.0200
16710SOL    HW161784   6.980   1.884   3.767 -1.3264  1.8254 -2.4865
16710SOL    HW261785   6.981   1.754   3.668 -0.3340 -0.6132  0.6718
16711SOL     OW61786   5.811   3.459   2.419  0.5043  0.3941 -0.3730
16711SOL    HW161787   5.805   3.492   2.325  0.8560 -1.6624 -1.1318
16711SOL    HW261788   5.891   3.399   2.429 -0.6096 -0.9282  0.7695
16712SOL     OW61789   5.490   0.636   7.617  0.3708 -0.0776 -0.0739
16712SOL    HW161790   5.585   0.632   7.588  0.2452  0.5096 -0.5645
16712SOL    HW261791   5.468   0.729   7.648 -0.6557  0.3861 -2.0805
16713SOL     OW61792   9.914   0.469   4.376 -0.5142  0.0733  0.2353
16713SOL    HW161793   9.983   0.397   4.386  0.3498  0.7381 -0.7873
16713SOL    HW261794   9.916   0.528   4.457 -0.0880 -0.0962  0.3502
16714SOL     OW61795   8.924   2.666   1.713 -0.4598  0.0610 -0.4960
16714SOL    HW161796   9.014   2.622   1.712 -0.7735 -0.6030  0.1976
16714SOL    HW261797   8.934   2.762   1.685  0.3330 -0.2372 -1.2423
16715SOL     OW61798   5.049   3.984   6.138 -0.3554 -0.2152  0.2328
16715SOL    HW161799   4.996   4.069   6.132 -1.2590 -0.8326 -1.0135
16715SOL    HW261800   5.124   3.995   6.202 -1.6394  0.8980  1.5769
16716SOL     OW61801   7.599   6.367   1.959 -0.1703 -0.5225  0.2022
16716SOL    HW161802   7.674   6.388   2.022 -0.0561  0.1598 -0.1629
16716SOL    HW261803   7.512   6.390   2.003 -0.1858 -1.4851  0.6961
16717SOL     OW61804   7.932   9.319   6.543  0.0862 -0.1939  0.2212
16717SOL    HW161805   7.940   9.333   6.642  1.5389 -0.3922  0.1442
16717SOL    HW261806   7.836   9.313   6.518 -0.2799 -0.8272  1.7210
16718SOL     OW61807   2.838   4.566   1.133  0.2027 -0.3600  0.2121
16718SOL    HW161808   2.852   4.479   1.085  0.8800  0.1030 -0.4390
16718SOL    HW261809   2.752   4.607   1.103  2.2695  1.6488 -3.3272
16719SOL     OW61810   8.709   0.720   7.471 -0.7002 -0.4221 -0.0657
16719SOL    HW161811   8.696   0.646   7.404 -3.7602  0.2744 -0.2856
16719SOL    HW261812   8.738   0.680   7.558  1.5753 -1.4929 -1.2395
16720SOL     OW61813   3.764   7.595   5.931  0.0083  0.1753 -0.1733
16720SOL    HW161814   3.848   7.609   5.983  0.0949  0.1966 -0.3161
16720SOL    HW261815   3.699   7.542   5.985  0.8369 -1.4796 -0.7740
16721SOL     OW61816   6.910   1.707   5.634  0.0334  0.3053 -0.0595
16721SOL    HW161817   6.882   1.612   5.616  1.1391  0.2851 -1.7564
16721SOL    HW261818   7.004   1.707   5.669  0.0593  0.7809 -0.1331
16722SOL     OW61819   3.104   6.778   6.514  0.5005 -0.1736  0.2502
16722SOL    HW161820   3.183   6.823   6.473 -0.6897  1.7755  0.0534
16722SOL    HW261821   3.029   6.774   6.449  0.0292 -0.9832  0.8178
16723SOL     OW61822   2.993   6.693   7.204  0.2752 -0.1754  0.3201
16723SOL    HW161823   3.031   6.618   7.258  3.0223 -0.9760 -2.5817
16723SOL    HW261824   3.048   6.775   7.216 -0.4912  0.3134  0.5368
16724SOL     OW61825   0.449   4.252   8.021  0.6441  0.3105 -0.1537
16724SOL    HW161826   0.391   4.296   7.952 -0.0004 -0.1909  0.0667
16724SOL    HW261827   0.542   4.245   7.986  0.3598  0.2318 -0.9044
16725SOL     OW61828   0.782   7.013   1.487 -0.3534 -0.2181 -0.4376
16725SOL    HW161829   0.810   7.101   1.525  0.7972 -0.2207 -1.2424
16725SOL    HW261830   0.863   6.963   1.455 -1.2297 -0.4542 -2.3680
16726SOL     OW61831   8.150   8.443   5.061 -0.1891  0.3213 -0.1020
16726SOL    HW161832   8.230   8.426   5.003 -0.9547 -2.2990 -0.4400
16726SOL    HW261833   8.181   8.470   5.152  1.0965 -0.5860 -0.2511
16727SOL     OW61834   1.860   1.227   1.121 -0.2306 -0.0303 -0.0644
16727SOL    HW161835   1.852   1.163   1.044  0.8680  0.7165 -0.7991
16727SOL    HW261836   1.954   1.260   1.128 -0.6670  1.0816  0.6707
16728SOL     OW61837   8.163   6.350   7.626 -0.0388  0.0156  0.4984
16728SOL    HW161838   8.144   6.406   7.545 -1.1770 -0.7408  0.2359
16728SOL    HW261839   8.233   6.282   7.603  1.2137  1.1772  0.7671
16729SOL     OW61840   7.800   6.698   7.266 -0.2493 -0.2367 -0.4045
16729SOL    HW161841   7.739   6.668   7.339 -0.1471  0.2408 -0.1217
16729SOL    HW261842   7.754   6.766   7.209  0.3078  0.7965  0.3434
16730SOL     OW61843   9.016   4.383   3.671  0.4547  0.3605 -0.1405
16730SOL    HW161844   8.937   4.427   3.713 -1.3323 -1.1068 -1.8676
16730SOL    HW261845   9.034   4.425   3.582 -0.2282 -1.2418 -1.0545
16731SOL     OW61846   1.177   2.926   1.264  0.1794  0.1610 -0.2284
16731SOL    HW161847   1.109   2.905   1.334  0.0561 -1.0381 -0.7020
16731SOL    HW261848   1.254   2.863   1.273  0.9977  1.1755 -0.0272
16732SOL     OW61849   7.658   6.908   7.121  0.3734  0.0614 -0.5648
16732SOL    HW161850   7.715   6.957   7.055 -0.3296 -0.5556 -1.6467
16732SOL    HW261851   7.577   6.872   7.074 -0.3605  0.0058  0.7356
16733SOL     OW61852   2.616   5.351   2.313 -0.4479  0.1638 -0.0099
16733SOL    HW161853   2.533   5.337   2.259 -1.2665  1.6070  0.8469
16733SOL    HW261854   2.651   5.262   2.342 -2.3246 -0.4315  0.5256
16734SOL     OW61855   8.069   3.309   3.916 -0.0664 -0.6904  0.1966
16734SOL    HW161856   8.031   3.380   3.975 -1.4138 -1.1377 -0.1170
16734SOL    HW261857   8.010   3.296   3.836  1.8228  0.0368 -1.3823
16735SOL     OW61858   1.140   4.202   0.500  0.3918 -0.0310  0.4358
16735SOL    HW161859   1.109   4.179   0.407 -0.4537  1.1377  0.4257
16735SOL    HW261860   1.228   4.158   0.517  0.4689 -0.3998 -0.8602
16736SOL     OW61861   8.998   9.678   4.547 -0.2665  0.5620 -0.0757
16736SOL    HW161862   8.958   9.608   4.607  0.2031  0.6786  0.3805
16736SOL    HW261863   9.057   9.633   4.479 -0.1890  0.4851  0.0403
16737SOL     OW61864   1.746   0.644   1.391 -0.6141 -0.2011  0.2551
16737SOL    HW161865   1.715   0.680   1.303 -2.7499  1.3580  1.5975
16737SOL    HW261866   1.830   0.691   1.419 -1.8857  1.8869  0.6982
16738SOL     OW61867   5.169   9.215   5.403 -0.2890  0.1607 -0.1598
16738SOL    HW161868   5.069   9.226   5.397 -0.5010 -0.6317  1.5038
16738SOL    HW261869   5.213   9.303   5.388 -1.3025  0.7239  0.0913
16739SOL     OW61870   0.680   8.645   5.762 -0.5335 -0.5664 -0.3533
16739SOL    HW161871   0.603   8.681   5.709 -0.9941 -1.0903 -0.0474
16739SOL    HW261872   0.660   8.551   5.790 -0.4271 -0.2110  0.9662
16740SOL     OW61873   2.276   3.234   0.999  0.3367  0.0221 -0.0032
16740SOL    HW161874   2.301   3.190   0.913  1.7969  1.6644 -0.4609
16740SOL    HW261875   2.241   3.166   1.063 -0.3665 -1.2828 -1.7483
16741SOL     OW61876   4.276   8.874   1.474 -0.0272 -0.2223  0.2692
16741SOL    HW161877   4.336   8.880   1.553  0.7931  0.6847 -0.4060
16741SOL    HW261878   4.318   8.817   1.404 -0.9567 -1.4007  0.6623
16742SOL     OW61879   3.689   4.882   0.752  0.2549 -0.3888  0.4051
16742SOL    HW161880   3.592   4.890   0.731  0.6577  0.4368 -1.2619
16742SOL    HW261881   3.717   4.960   0.809 -0.0217 -0.5491  0.7641
16743SOL     OW61882   2.774   9.573   3.100 -0.2478 -0.0314  0.1909
16743SOL    HW161883   2.687   9.598   3.141 -0.2788 -1.6867  1.1746
16743SOL    HW261884   2.837   9.651   3.105 -1.1992  0.7082  0.7682
16744SOL     OW61885   1.793   2.531   7.914 -0.4115 -0.2125  0.9062
16744SOL    HW161886   1.838   2.571   7.993 -0.1885 -0.3992  0.8763
16744SOL    HW261887   1.830   2.439   7.897  0.8541  0.5299 -0.5092
16745SOL     OW61888   6.311   2.787   1.240  0.4782  0.1904 -0.1485
16745SOL    HW161889   6.341   2.835   1.322 -0.6857  1.4665 -0.4506
16745SOL    HW261890   6.316   2.848   1.161  1.3970 -0.9683 -1.0043
16746SOL     OW61891   7.366   2.321   5.248  0.5813 -0.0867 -0.5005
16746SOL    HW161892   7.268   2.318   5.267  0.1096  1.2774 -2.5799
16746SOL    HW261893   7.399   2.416   5.256  1.3636 -0.2595 -1.5748
16747SOL     OW61894   5.568   9.768   4.740 -0.4604  0.3659  0.3042
16747SOL    HW161895   5.481   9.811   4.715  0.5559  2.7556  0.7535
16747SOL    HW261896   5.622   9.750   4.658 -1.7665 -2.0931 -0.0743
16748SOL     OW61897   8.773   0.536   2.836 -0.6944 -0.1458 -0.5937
16748SOL    HW161898   8.825   0.600   2.894 -1.6795 -0.7765  1.0202
16748SOL    HW261899   8.772   0.570   2.742  0.1734  1.3726 -0.0761
16749SOL     OW61900   9.755   0.201   5.719 -0.5789  0.2298  0.0513
16749SOL    HW161901   9.737   0.284   5.772  0.3485  0.2544  0.3413
16749SOL    HW261902   9.853   0.196   5.698 -0.7926 -0.2543 -0.8696
16750SOL     OW61903   9.049   3.486   4.288 -0.5835 -0.1575 -0.4360
16750SOL    HW161904   9.021   3.423   4.360 -0.5002  0.1545 -0.1315
16750SOL    HW261905   9.145   3.470   4.265 -0.0494  1.0666  0.8959
16751SOL     OW61906   1.107   8.031   7.966  0.0555  0.6591  0.1370
16751SOL    HW161907   1.035   8.037   7.897 -0.1841  0.4460  0.3682
16751SOL    HW261908   1.177   7.965   7.937 -0.8254 -0.5786  0.8091
16752SOL     OW61909   9.674   3.855   1.138  0.1407 -0.1630  0.9017
16752SOL    HW161910   9.764   3.898   1.136 -0.2373  0.6346  0.5303
16752SOL    HW261911   9.610   3.914   1.187 -0.6427  0.2227 -0.5455
16753SOL     OW61912   1.654   3.741   7.290 -0.4201 -0.4949  0.0848
16753SOL    HW161913   1.627   3.761   7.195  3.6181  1.2797 -0.7721
16753SOL    HW261914   1.703   3.819   7.328  3.7079 -3.5758  1.4085
16754SOL     OW61915   4.864   1.855   4.618 -0.4363  0.3482 -0.0548
16754SOL    HW161916   4.825   1.947   4.622 -1.8577 -0.2578  0.3218
16754SOL    HW261917   4.803   1.790   4.664  1.9584 -0.3267  2.3500
16755SOL     OW61918   6.359   2.743   1.689 -0.3779  0.2177 -0.5748
16755SOL    HW161919   6.273   2.729   1.738 -1.3576  1.5934 -1.8665
16755SOL    HW261920   6.370   2.672   1.620  0.7841 -1.4540  1.2660
16756SOL     OW61921   4.093   5.001   6.840 -0.5371  0.0976 -0.0215
16756SOL    HW161922   4.059   5.031   6.751 -1.5754 -0.4745  0.1807
16756SOL    HW261923   4.118   4.904   6.836 -1.4669 -0.1674  0.5649
16757SOL     OW61924   5.553   2.116   5.493 -0.5196  0.1553 -0.1198
16757SOL    HW161925   5.643   2.080   5.466 -1.4878 -1.0890 -1.8404
16757SOL    HW261926   5.522   2.182   5.424  0.0346  2.2880  1.6192
16758SOL     OW61927   3.184   5.963   6.055  0.0535  0.1669 -0.3358
16758SOL    HW161928   3.158   5.930   6.146  1.7377  2.1758  0.9205
16758SOL    HW261929   3.184   5.886   5.990  1.7851 -1.8976  2.0053
16759SOL     OW61930   1.855   1.638   3.276 -0.2965  0.0592  0.2797
16759SOL    HW161931   1.845   1.737   3.273 -0.1713  0.1285  2.0367
16759SOL    HW261932   1.825   1.599   3.188 -2.0730  1.4817  0.2227
16760SOL     OW61933   5.088   0.536   5.274 -0.0497 -0.3595 -0.0643
16760SOL    HW161934   5.113   0.512   5.180 -0.8087 -2.5731  0.2842
16760SOL    HW261935   5.167   0.579   5.318  0.9006 -0.9342 -1.1565
16761SOL     OW61936   3.811   4.123   4.204  0.3122 -0.4532  0.4475
16761SOL    HW161937   3.747   4.078   4.142 -0.1891  0.3985  0.3439
16761SOL    HW261938   3.864   4.191   4.154 -0.2034  0.3460  0.9912
16762SOL     OW61939   8.741   6.073   3.471 -0.3642 -0.1616 -0.3793
16762SOL    HW161940   8.707   6.087   3.564  1.2215 -2.4070  0.5783
16762SOL    HW261941   8.673   6.022   3.418 -0.2662 -1.0054  0.2913
16763SOL     OW61942   8.467   3.485   2.819  0.1440  0.2568  0.4194
16763SOL    HW161943   8.560   3.478   2.781 -0.2668 -1.8131 -0.2508
16763SOL    HW261944   8.464   3.440   2.908 -0.6625 -1.4372 -0.4378
16764SOL     OW61945   5.009   3.186   6.459 -0.7070 -0.2601  0.2485
16764SOL    HW161946   4.995   3.119   6.386 -0.5072 -1.6789  1.5023
16764SOL    HW261947   5.071   3.257   6.427 -0.5613 -0.9101 -0.9461
16765SOL     OW61948   4.333   0.514   1.170  0.0028  0.3694  0.1713
16765SOL    HW161949   4.264   0.447   1.142  0.8395 -0.0078 -1.0450
16765SOL    HW261950   4.293   0.577   1.236 -0.2486 -2.4835  2.8553
16766SOL     OW61951   1.597   7.414   7.498 -0.2620  0.1445 -0.1832
16766SOL    HW161952   1.684   7.460   7.477  0.6406 -1.4519 -0.0837
16766SOL    HW261953   1.549   7.393   7.413 -0.1179  0.2400 -0.2886
16767SOL     OW61954   2.087   1.609   4.417  0.2167 -0.7544 -0.0820
16767SOL    HW161955   2.151   1.535   4.438 -0.1507 -1.3764 -1.1154
16767SOL    HW261956   2.021   1.577   4.349 -0.4809  0.2503  0.1156
16768SOL     OW61957   6.028   7.165   2.765 -0.1791 -0.4714  0.0983
16768SOL    HW161958   5.980   7.145   2.680  1.5129 -1.5428 -0.6343
16768SOL    HW261959   5.983   7.119   2.841 -2.6428  1.7729  0.0649
16769SOL     OW61960   2.549   7.202   2.811 -0.0448  0.2092 -0.0534
16769SOL    HW161961   2.505   7.114   2.827  0.9743 -0.6151 -1.6626
16769SOL    HW261962   2.535   7.229   2.715  2.4234  0.2021 -0.4531
16770SOL     OW61963   3.004   5.843   5.390 -0.2651 -0.0191 -0.2687
16770SOL    HW161964   3.019   5.832   5.489 -1.5709  1.4200  0.1071
16770SOL    HW261965   2.910   5.817   5.368  0.0062 -0.2718 -1.1338
16771SOL     OW61966   9.261   9.064   5.620 -0.5346 -0.1596  0.7714
16771SOL    HW161967   9.215   9.027   5.540  0.4473 -0.8113  0.4978
16771SOL    HW261968   9.311   9.147   5.595  0.7373 -1.0120  0.4314
16772SOL     OW61969   3.160   4.789   5.647  0.4137  0.2151 -0.7764
16772SOL    HW161970   3.080   4.730   5.640 -0.2277  0.9183  0.4323
16772SOL    HW261971   3.137   4.870   5.701  2.2039 -0.0318  0.3977
16773SOL     OW61972   1.252   2.215   7.480  0.3868 -0.5831 -0.1249
16773SOL    HW161973   1.321   2.248   7.416  0.4396  0.7942  0.6142
16773SOL    HW261974   1.239   2.283   7.553 -0.3196 -1.7120  0.8257
16774SOL     OW61975   0.994   7.426   6.111  0.2032 -0.0151 -0.0270
16774SOL    HW161976   1.090   7.418   6.084  0.8082 -0.1648  2.0935
16774SOL    HW261977   0.988   7.439   6.210 -2.0750 -2.6481  0.2334
16775SOL     OW61978   6.159   9.055   7.356  0.4432 -0.3440  0.1609
16775SOL    HW161979   6.079   9.055   7.297 -1.2410  0.6833  2.3588
16775SOL    HW261980   6.146   9.120   7.431  1.5671 -3.1121  2.8921
16776SOL     OW61981   1.338   6.349   3.154 -0.5831 -0.0032 -0.5710
16776SOL    HW161982   1.357   6.440   3.116 -1.0907  0.4451  0.2453
16776SOL    HW261983   1.402   6.283   3.115  1.5065  1.1682  0.7923
16777SOL     OW61984   3.866   5.395   3.957  0.0004  0.4191 -0.6806
16777SOL    HW161985   3.772   5.377   3.986 -0.1890  0.7894 -1.0642
16777SOL    HW261986   3.903   5.472   4.009 -0.1277  0.6819 -0.9734
16778SOL     OW61987   2.293   4.545   0.039  0.3048 -0.3615 -0.1775
16778SOL    HW161988   2.253   4.529  -0.052 -1.3913  0.9167  0.3307
16778SOL    HW261989   2.241   4.494   0.107 -1.0230  1.9354  0.5917
16779SOL     OW61990   0.685   1.068   7.259 -0.1924  0.0813  0.3898
16779SOL    HW161991   0.757   1.022   7.208 -0.7030 -0.1840 -0.0865
16779SOL    HW261992   0.613   1.002   7.283 -0.5842  0.4779  0.3110
16780SOL     OW61993   1.346   2.941   5.880  0.1706  0.3217 -0.1300
16780SOL    HW161994   1.312   3.026   5.840 -0.4820 -0.2038 -0.7038
16780SOL    HW261995   1.315   2.863   5.824  1.7764 -0.2083 -0.3068
16781SOL     OW61996   7.851   9.696   3.374 -0.0600 -0.7861 -0.9538
16781SOL    HW161997   7.892   9.632   3.309 -0.5278  0.3761 -2.4323
16781SOL    HW261998   7.751   9.690   3.368 -0.1172 -1.2609  0.2759
16782SOL     OW61999   7.212   9.382   3.909 -0.6549 -0.4005 -0.6773
16782SOL    HW162000   7.282   9.323   3.951 -1.6204 -1.5221 -0.6249
16782SOL    HW262001   7.124   9.367   3.954 -1.1156  0.3796 -1.3054
16783SOL     OW62002   6.814   3.597   3.243 -0.7607 -0.9874 -0.2501
16783SOL    HW162003   6.841   3.640   3.157  0.1140  0.1102  0.5684
16783SOL    HW262004   6.714   3.588   3.246 -0.8227 -0.6490 -1.1913
16784SOL     OW62005   0.721   2.050   1.478  0.2198  0.2638 -0.4058
16784SOL    HW162006   0.721   2.117   1.404 -0.7434  0.5857 -0.1150
16784SOL    HW262007   0.747   1.961   1.442  0.5446  0.5868 -0.9784
16785SOL     OW62008   8.748   3.434   4.576 -0.0001 -0.4392 -0.2056
16785SOL    HW162009   8.840   3.433   4.616 -1.1365  1.2293  2.6216
16785SOL    HW262010   8.703   3.347   4.594  1.1292 -1.4083 -1.9338
16786SOL     OW62011   4.400   2.048   7.044  0.2709  0.1361  0.0932
16786SOL    HW162012   4.486   2.090   7.073  2.0950 -2.3269 -1.5402
16786SOL    HW262013   4.419   1.962   6.996 -3.1005 -0.3171 -0.5762
16787SOL     OW62014   4.166   8.642   1.015 -0.7157  0.3262 -0.1731
16787SOL    HW162015   4.132   8.640   1.110  1.7106 -0.5879  0.6991
16787SOL    HW262016   4.158   8.550   0.975  0.8354  0.0797  0.0796
16788SOL     OW62017   2.241   5.638   2.293 -0.1164  0.6204  0.4227
16788SOL    HW162018   2.217   5.728   2.328 -0.4607  0.8325 -0.3310
16788SOL    HW262019   2.207   5.629   2.199 -0.4552 -0.4492  0.6387
16789SOL     OW62020   8.958   8.038   7.395  0.0037  0.1356  0.1245
16789SOL    HW162021   9.035   7.975   7.385 -0.7063 -0.6645 -0.4036
16789SOL    HW262022   8.906   8.014   7.478 -0.6489 -0.4028 -0.4345
16790SOL     OW62023   1.964   7.733   4.425 -0.1190 -0.3544 -0.4354
16790SOL    HW162024   1.913   7.819   4.427 -1.7528 -1.3130  0.4977
16790SOL    HW262025   1.916   7.665   4.481  1.8360 -1.4930 -0.0943
16791SOL     OW62026   0.802   6.857   7.235 -0.0954 -0.1070 -0.2460
16791SOL    HW162027   0.816   6.947   7.276  0.3419 -0.5518  0.5903
16791SOL    HW262028   0.872   6.840   7.166 -1.2682  0.9493 -1.7238
16792SOL     OW62029   3.542   4.273   2.634  0.2769  0.2343  0.3850
16792SOL    HW162030   3.600   4.232   2.563 -0.5487 -0.5137  0.1282
16792SOL    HW262031   3.554   4.372   2.635 -0.2970  0.3366 -1.3439
16793SOL     OW62032   2.296   4.702   6.069  0.4457 -0.4584 -0.2622
16793SOL    HW162033   2.363   4.668   6.136  0.4512  0.8793  0.4330
16793SOL    HW262034   2.275   4.798   6.089 -2.8320 -1.2606  0.4469
16794SOL     OW62035   8.921   0.837   4.077 -0.3858  0.7510 -0.3153
16794SOL    HW162036   8.897   0.820   3.982 -0.7976  0.2337 -0.1229
16794SOL    HW262037   8.930   0.750   4.125  2.9167  0.8737 -0.6222
16795SOL     OW62038   3.145   2.591   7.205 -0.4178 -0.3077  0.5416
16795SOL    HW162039   3.074   2.660   7.190 -0.7140 -0.5515  0.8182
16795SOL    HW262040   3.103   2.503   7.224 -0.0295 -1.1892 -2.5438
16796SOL     OW62041   4.956   6.692   1.636  0.1160 -0.0361  0.1195
16796SOL    HW162042   4.912   6.776   1.667 -0.8706 -0.7023  0.5313
16796SOL    HW262043   5.008   6.651   1.711 -1.3674 -1.0615  0.5961
16797SOL     OW62044   3.673   9.358   2.770 -0.0763 -0.0351  0.5865
16797SOL    HW162045   3.633   9.350   2.678  2.5512  0.4703 -0.6568
16797SOL    HW262046   3.639   9.283   2.827 -3.5234  0.9465 -0.0592
16798SOL     OW62047   9.063   5.817   1.237 -0.0396  0.2009 -0.2008
16798SOL    HW162048   8.972   5.818   1.279 -0.2828 -0.5136 -0.7037
16798SOL    HW262049   9.106   5.906   1.249 -1.7026  1.2835 -1.9159
16799SOL     OW62050   0.533   5.761   4.187  0.5474 -0.1234 -0.8747
16799SOL    HW162051   0.470   5.716   4.123  0.7756 -1.0120 -0.4874
16799SOL    HW262052   0.610   5.700   4.206 -0.8504 -1.0084  2.3090
16800SOL     OW62053   1.690   6.106   5.954  0.5944 -0.3135  0.1069
16800SOL    HW162054   1.680   6.022   6.008  0.7735 -0.4535 -0.0791
16800SOL    HW262055   1.719   6.083   5.861  2.5795  0.0792  0.6215
16801SOL     OW62056   0.168   7.869   6.719 -0.0608  0.1199  0.1761
16801SOL    HW162057   0.115   7.877   6.634  1.2724  0.5720 -0.6191
16801SOL    HW262058   0.195   7.774   6.733 -0.0996  0.0810 -0.0068
16802SOL     OW62059   0.815   4.460   9.913 -0.4370  0.0355  0.4089
16802SOL    HW162060   0.878   4.410   9.854 -2.2023  0.3004 -1.7798
16802SOL    HW262061   0.855   4.548   9.940  0.4878 -0.2097 -0.1911
16803SOL     OW62062   3.860   8.361   1.421 -0.0624  0.3160  0.3403
16803SOL    HW162063   3.929   8.296   1.390 -0.2554 -0.1057  0.7861
16803SOL    HW262064   3.802   8.317   1.489  0.8421  1.4696  1.8782
16804SOL     OW62065   9.583   5.524   0.331 -0.5980  0.1274 -0.5565
16804SOL    HW162066   9.681   5.504   0.326 -0.4915  0.4749  0.0862
16804SOL    HW262067   9.567   5.619   0.304 -0.7632  0.0560 -0.7099
16805SOL     OW62068   2.571   0.673   5.968 -0.0630 -0.4260  0.3595
16805SOL    HW162069   2.543   0.665   6.063  0.0235 -0.4419  0.3826
16805SOL    HW262070   2.521   0.749   5.926  0.3084 -0.0655  0.5657
16806SOL     OW62071   0.967   1.390   4.101  0.5091 -0.5996  0.3245
16806SOL    HW162072   1.056   1.352   4.075 -1.0685 -2.5575 -2.4498
16806SOL    HW262073   0.913   1.319   4.147 -0.7302 -0.3531 -0.7274
16807SOL     OW62074   7.957   9.725   6.153 -0.3775  0.0074  0.2819
16807SOL    HW162075   8.053   9.749   6.139  0.6257 -3.8940 -0.0687
16807SOL    HW262076   7.944   9.693   6.246 -0.6346 -2.3953 -0.5534
16808SOL     OW62077   4.032   1.513   5.152  0.3841 -0.5266 -0.0098
16808SOL    HW162078   4.005   1.600   5.110  2.2812  1.6738  3.0854
16808SOL    HW262079   3.953   1.474   5.200 -0.0414  0.3378  0.0033
16809SOL     OW62080   4.907   8.515   5.421  0.1105  0.1928  0.0398
16809SOL    HW162081   4.905   8.431   5.475  0.6631 -0.9697 -1.7010
16809SOL    HW262082   4.901   8.493   5.323 -0.2555  2.2082 -0.4286
16810SOL     OW62083   8.529   9.104   0.715  0.0429 -0.5190  0.4417
16810SOL    HW162084   8.588   9.165   0.769 -0.2397 -0.8222  1.1019
16810SOL    HW262085   8.545   9.009   0.743 -0.2569 -0.6604  0.1332
16811SOL     OW62086   3.813   3.274   4.432  0.3659 -0.9981 -0.0356
16811SOL    HW162087   3.808   3.343   4.360 -0.9682 -0.9946  0.0459
16811SOL    HW262088   3.806   3.183   4.391  2.1262 -1.0921 -0.1435
16812SOL     OW62089   8.901   8.737   8.106 -0.8722 -0.5715  0.1062
16812SOL    HW162090   8.994   8.766   8.087 -0.1976 -1.5093  1.9147
16812SOL    HW262091   8.878   8.660   8.047  0.1273 -1.4688  0.8653
16813SOL     OW62092   7.926   3.442   1.307 -0.0635  0.0900  0.1817
16813SOL    HW162093   8.022   3.468   1.297 -0.1941  0.6297  0.2857
16813SOL    HW262094   7.904   3.432   1.404 -0.6141  1.9526  0.2761
16814SOL     OW62095   1.027   0.302   6.556  0.0754 -0.0704  0.4699
16814SOL    HW162096   0.982   0.239   6.620 -2.6213  1.1092 -0.1643
16814SOL    HW262097   1.091   0.360   6.606 -0.6244 -0.4078  1.7908
16815SOL     OW62098   4.795   8.856   2.611 -0.4360 -0.7956 -0.0977
16815SOL    HW162099   4.775   8.854   2.709  0.2769 -1.8648  0.0252
16815SOL    HW262100   4.893   8.849   2.597 -0.5476 -0.7688 -0.9036
16816SOL     OW62101   7.225   9.709   7.893 -0.5823  0.3151 -0.5965
16816SOL    HW162102   7.322   9.707   7.918 -0.9064  1.2988  0.7927
16816SOL    HW262103   7.213   9.758   7.807  0.0859  0.7790 -0.4234
16817SOL     OW62104   6.688   2.798   4.328  0.3073 -0.2492 -0.0600
16817SOL    HW162105   6.604   2.750   4.304  0.5101 -0.2000 -0.8788
16817SOL    HW262106   6.765   2.758   4.277  0.5692  0.5674 -0.3128
16818SOL     OW62107   8.237   5.310   2.583 -0.0551 -0.3663 -0.1764
16818SOL    HW162108   8.174   5.238   2.612  0.3832 -0.3967  0.7348
16818SOL    HW262109   8.327   5.270   2.563 -0.6566 -0.5111 -2.7353
16819SOL     OW62110   2.700   3.347   2.264 -0.4286  0.3600 -0.6903
16819SOL    HW162111   2.772   3.395   2.215 -0.2877 -0.3489 -1.1798
16819SOL    HW262112   2.738   3.304   2.346 -0.6412  1.4461 -0.0133
16820SOL     OW62113   4.353   5.458   7.253 -0.1391 -0.0936  0.2504
16820SOL    HW162114   4.290   5.533   7.234  0.4653  1.3769  3.6120
16820SOL    HW262115   4.420   5.451   7.179 -0.6677  2.2056 -0.4975
16821SOL     OW62116   6.556   4.705   0.779  0.9373  0.1583  0.4345
16821SOL    HW162117   6.628   4.704   0.710  0.7765  1.5831  0.2214
16821SOL    HW262118   6.474   4.748   0.741  0.8369  0.9191  1.4792
16822SOL     OW62119   9.525   9.852   3.219  0.7670  0.6340  0.4148
16822SOL    HW162120   9.520   9.907   3.136  0.6365  0.2046  0.1331
16822SOL    HW262121   9.464   9.773   3.210 -1.2303  1.9350  1.9427
16823SOL     OW62122   2.305   8.849   2.331 -0.0076  0.4019 -0.0440
16823SOL    HW162123   2.344   8.826   2.420 -0.0122  2.3688  0.4855
16823SOL    HW262124   2.317   8.772   2.269  0.9349 -0.5994  1.3446
16824SOL     OW62125   4.562   8.349   0.064 -0.0642  0.4210  0.0018
16824SOL    HW162126   4.490   8.418   0.065 -0.0946  0.3898  0.0472
16824SOL    HW262127   4.580   8.321  -0.030 -2.7175 -2.2966  0.2168
16825SOL     OW62128   7.481   0.057   5.499  0.4144  0.0402 -0.1345
16825SOL    HW162129   7.557   0.075   5.561  0.6943  0.4966 -0.5984
16825SOL    HW262130   7.396   0.053   5.550  0.8572 -1.4041  0.5234
16826SOL     OW62131   8.945   9.006   6.143  0.6102 -0.4819  0.2729
16826SOL    HW162132   8.930   9.002   6.241 -0.8212 -0.1656  0.0877
16826SOL    HW262133   9.039   9.034   6.124  1.1386 -1.3607  1.5429
16827SOL     OW62134   8.966   7.813   5.339  0.1044 -0.3502 -0.4867
16827SOL    HW162135   9.046   7.764   5.303  0.8841 -0.2369  1.0539
16827SOL    HW262136   8.891   7.805   5.274  0.4969 -2.8343 -0.6948
16828SOL     OW62137   4.504   3.774   3.833 -0.0929 -0.0113 -0.4321
16828SOL    HW162138   4.520   3.776   3.932  0.1834 -1.0171 -0.4530
16828SOL    HW262139   4.414   3.812   3.813 -0.4248 -0.4175  0.2701
16829SOL     OW62140   5.281   8.032   6.707 -0.1187  0.4577 -0.0497
16829SOL    HW162141   5.375   8.010   6.684 -0.2186  0.1084 -0.1178
16829SOL    HW262142   5.250   8.110   6.652  0.4717  1.2397  0.7129
16830SOL     OW62143   2.148   6.042   3.011 -0.1199 -0.4755  0.3494
16830SOL    HW162144   2.102   5.966   2.966 -0.9555 -0.6518  1.4790
16830SOL    HW262145   2.198   6.096   2.943  0.1228 -1.7727 -0.5128
16831SOL     OW62146   9.888   4.619   4.853  0.2571 -0.7376 -0.0212
16831SOL    HW162147   9.932   4.668   4.778 -0.4291 -1.8417 -1.1616
16831SOL    HW262148   9.896   4.673   4.937  1.0155  0.5173 -0.8808
16832SOL     OW62149   7.313   9.503   2.543 -0.3980  0.0610  0.4302
16832SOL    HW162150   7.223   9.513   2.586  0.1283 -1.2370  1.8827
16832SOL    HW262151   7.383   9.493   2.613  0.8648  0.8020 -0.6959
16833SOL     OW62152   8.307   5.341   6.770 -0.0463 -0.3130  0.1032
16833SOL    HW162153   8.220   5.297   6.793 -0.2418 -0.3734 -0.7263
16833SOL    HW262154   8.378   5.309   6.832 -0.8448  0.5554  1.4738
16834SOL     OW62155   6.049   5.036   0.907  0.0137  0.0891  0.2132
16834SOL    HW162156   6.125   5.005   0.964  0.6895 -1.3126 -1.3843
16834SOL    HW262157   6.046   5.136   0.906  0.4817  0.1247  2.0395
16835SOL     OW62158   2.935   1.742   4.295  0.1941 -0.2909 -0.3042
16835SOL    HW162159   2.926   1.644   4.280 -0.8337  0.1502 -2.7353
16835SOL    HW262160   2.855   1.775   4.345  0.9428 -0.8034  1.2740
16836SOL     OW62161   1.080   3.503   7.424  0.1979 -0.3514  0.6072
16836SOL    HW162162   1.023   3.423   7.406  1.5868 -1.0205 -0.9787
16836SOL    HW262163   1.176   3.480   7.407  0.4085  2.2800 -2.0669
16837SOL     OW62164   6.284   3.861   2.717 -0.2485 -0.0148  0.2057
16837SOL    HW162165   6.276   3.884   2.814 -0.0108 -0.9857  0.4645
16837SOL    HW262166   6.201   3.814   2.687 -0.4685  0.6027 -0.1510
16838SOL     OW62167   3.738   8.199   3.624 -0.3091  0.3028 -0.1390
16838SOL    HW162168   3.831   8.235   3.625 -0.6280  1.1211  0.4374
16838SOL    HW262169   3.680   8.255   3.683 -1.2362 -0.0295 -0.7351
16839SOL     OW62170   5.393   1.888   4.327 -0.0861 -0.3393 -0.2689
16839SOL    HW162171   5.451   1.952   4.376 -0.7648  0.3531 -0.3528
16839SOL    HW262172   5.436   1.863   4.240  0.8946 -1.1996  0.4509
16840SOL     OW62173   9.854   7.226   6.100 -0.1556  0.0725 -0.5219
16840SOL    HW162174   9.767   7.275   6.094 -1.2711 -1.9644 -1.4671
16840SOL    HW262175   9.885   7.226   6.195 -0.5194  1.8860 -0.3714
16841SOL     OW62176   5.095   9.543   6.929  0.6549  0.2616 -0.2266
16841SOL    HW162177   5.017   9.552   6.867  0.0610 -0.7239  0.3648
16841SOL    HW262178   5.179   9.532   6.876  0.0689 -1.2385 -0.8578
16842SOL     OW62179   7.983   9.568   7.504 -0.2790 -0.1419 -0.3031
16842SOL    HW162180   7.971   9.642   7.570 -1.2539 -1.5213  1.1061
16842SOL    HW262181   8.075   9.531   7.512 -0.3904 -0.2999  0.2957
16843SOL     OW62182   7.565   5.878   6.155  0.9921  0.0411  0.3439
16843SOL    HW162183   7.496   5.828   6.102  0.6822 -1.0603  1.7605
16843SOL    HW262184   7.627   5.926   6.093  0.1802 -0.6244 -0.9876
16844SOL     OW62185   1.218   6.460   1.486  0.5976 -0.8843  0.5447
16844SOL    HW162186   1.128   6.431   1.518  0.0775  1.2268  1.0789
16844SOL    HW262187   1.253   6.533   1.546 -0.0959  2.6939 -3.2061
16845SOL     OW62188   0.277   3.603   5.630 -0.2841 -0.1736  0.0557
16845SOL    HW162189   0.287   3.699   5.656 -1.0834  0.4176 -1.7022
16845SOL    HW262190   0.355   3.551   5.664 -0.1925  0.9577  1.6313
16846SOL     OW62191   0.267   9.071   6.769 -0.0276 -0.0032  0.1924
16846SOL    HW162192   0.292   9.131   6.845  0.9223  3.0900 -2.4230
16846SOL    HW262193   0.171   9.043   6.778  0.4584 -0.8581  3.1988
16847SOL     OW62194   7.515   5.019   2.511 -0.3813  0.3586 -0.2410
16847SOL    HW162195   7.606   5.020   2.554 -0.4580 -2.0782  0.0578
16847SOL    HW262196   7.446   5.038   2.580 -0.3369 -1.3727  0.3147
16848SOL     OW62197   7.772   1.676   2.950  0.0726 -0.0937  0.3852
16848SOL    HW162198   7.764   1.770   2.982 -0.1074 -0.2170  0.7080
16848SOL    HW262199   7.827   1.623   3.015  0.3877 -0.1503  0.0751
16849SOL     OW62200   3.394   6.097   0.763 -0.1857  0.6720 -0.5224
16849SOL    HW162201   3.476   6.049   0.730  0.1885  1.2449 -0.4169
16849SOL    HW262202   3.355   6.046   0.839 -1.7850 -1.3715 -2.6358
16850SOL     OW62203   2.772   4.050   2.698 -0.3600  0.7339 -0.5106
16850SOL    HW162204   2.683   4.039   2.742 -0.4690  0.1649 -0.8674
16850SOL    HW262205   2.800   3.963   2.657  1.3191  0.3243  1.3846
16851SOL     OW62206   9.839   6.612   3.471 -0.3897 -0.0249 -0.5792
16851SOL    HW162207   9.832   6.519   3.438 -0.0288 -0.0468 -0.5955
16851SOL    HW262208   9.824   6.613   3.570  3.0236 -0.5793  0.0109
16852SOL     OW62209   9.706   7.808   4.645 -0.0240  0.5270 -0.0444
16852SOL    HW162210   9.687   7.822   4.548  1.0270 -1.3251 -0.5356
16852SOL    HW262211   9.627   7.764   4.688  0.5543 -1.1185 -0.6519
16853SOL     OW62212   9.382   1.589   0.161  0.1679  0.4557  0.6113
16853SOL    HW162213   9.320   1.605   0.238  0.1531  1.2826  0.4325
16853SOL    HW262214   9.453   1.658   0.160  0.2091  0.4101 -0.0797
16854SOL     OW62215   3.198   1.182   4.805  0.3333 -0.0015 -0.0614
16854SOL    HW162216   3.153   1.205   4.718  1.3579 -1.0515 -0.8848
16854SOL    HW262217   3.213   1.265   4.858 -1.5434  0.5001 -0.2707
16855SOL     OW62218   0.362   6.201   4.983 -0.2693  0.2905  0.2313
16855SOL    HW162219   0.362   6.203   4.883  0.4536  3.4658  0.2451
16855SOL    HW262220   0.439   6.145   5.015  0.2126  0.2380 -0.9825
16856SOL     OW62221   6.852   7.067   4.340 -0.3321  0.1396  0.0319
16856SOL    HW162222   6.922   6.995   4.345 -0.0322  0.1941 -2.7354
16856SOL    HW262223   6.782   7.050   4.410  0.5351 -1.9688  0.4366
16857SOL     OW62224   9.461   4.284   2.469 -0.1083 -0.2974  0.2518
16857SOL    HW162225   9.442   4.208   2.407  0.7433  1.3282 -2.0476
16857SOL    HW262226   9.414   4.366   2.437 -0.0215  0.4691  2.0230
16858SOL     OW62227   5.591   8.789   7.574  0.2564  0.3415 -0.3054
16858SOL    HW162228   5.666   8.854   7.561 -1.3588  2.3563  0.2082
16858SOL    HW262229   5.556   8.761   7.484  1.6882 -0.7355 -0.5526
16859SOL     OW62230   4.013   1.004   5.440  0.0235  0.0373  0.1715
16859SOL    HW162231   4.014   0.905   5.427 -1.8963  0.0187  0.0459
16859SOL    HW262232   3.944   1.028   5.508 -1.1470  1.4763 -1.4850
16860SOL     OW62233   7.131   9.234   3.265 -0.0114 -0.1320 -0.0893
16860SOL    HW162234   7.169   9.205   3.177 -2.1667 -1.8562 -0.4991
16860SOL    HW262235   7.058   9.300   3.248  0.6275  0.7457  0.5200
16861SOL     OW62236   9.481   0.911   7.391  0.3946 -0.0067  0.4305
16861SOL    HW162237   9.527   0.987   7.437  0.9068 -0.3693  0.5237
16861SOL    HW262238   9.393   0.942   7.355  0.6138  0.6335  0.4405
16862SOL     OW62239   3.767   3.409   6.396  0.0844  0.1723  0.2483
16862SOL    HW162240   3.801   3.487   6.342  0.4832  0.4006  0.8262
16862SOL    HW262241   3.674   3.428   6.426 -0.8843 -0.7901 -2.0099
16863SOL     OW62242   2.551   2.022   7.309  0.1393  0.0165  0.0641
16863SOL    HW162243   2.473   2.068   7.353 -0.5064 -0.2710 -0.7611
16863SOL    HW262244   2.522   1.931   7.278  0.8672 -0.1724 -0.0644
16864SOL     OW62245   0.828   1.139   6.646  0.3658  0.5199 -0.0435
16864SOL    HW162246   0.863   1.220   6.693  0.0575 -0.7528  2.4697
16864SOL    HW262247   0.792   1.074   6.714 -1.5642 -0.6974 -2.1553
16865SOL     OW62248   8.864   1.065   2.780  0.5327 -0.3437 -0.1976
16865SOL    HW162249   8.821   1.145   2.739 -0.5186  1.1691  3.6095
16865SOL    HW262250   8.964   1.074   2.777  0.4175  2.2206  2.1057
16866SOL     OW62251   0.820   5.591   1.320  0.2154  0.8822 -0.4499
16866SOL    HW162252   0.857   5.684   1.313  0.2673  1.0187  1.3257
16866SOL    HW262253   0.721   5.595   1.325  0.1192  0.7230 -1.9275
16867SOL     OW62254   2.027   6.666   3.244  0.1910 -0.2382  0.1437
16867SOL    HW162255   1.986   6.705   3.327  0.1737 -0.7539  0.3764
16867SOL    HW262256   2.032   6.737   3.174  0.3395  0.2417  0.6325
16868SOL     OW62257   3.431   6.681   5.075 -0.4084 -0.0498  0.3888
16868SOL    HW162258   3.504   6.699   5.010 -1.2539 -1.5973 -1.0312
16868SOL    HW262259   3.471   6.651   5.162  0.6690 -1.2324 -0.4872
16869SOL     OW62260   2.451   0.341   3.748 -0.4477  0.2249  0.5056
16869SOL    HW162261   2.389   0.382   3.814  0.6278  0.9544  1.0670
16869SOL    HW262262   2.535   0.395   3.742  0.6256 -1.3923  0.6189
16870SOL     OW62263   9.823   1.002   6.981  0.1432  0.5847 -0.6520
16870SOL    HW162264   9.777   1.022   7.067  0.8621  1.8129 -0.5490
16870SOL    HW262265   9.909   1.053   6.975  1.6929 -1.9307 -0.7012
16871SOL     OW62266   2.329   3.318   7.105  0.4232  0.3570  0.3436
16871SOL    HW162267   2.272   3.390   7.066  2.4153  1.3209 -0.9027
16871SOL    HW262268   2.317   3.234   7.052  1.0044  0.8850 -0.6515
16872SOL     OW62269   6.751   9.393   3.754  0.1629 -0.4772  0.2658
16872SOL    HW162270   6.818   9.390   3.827 -0.0929  0.0072  0.5259
16872SOL    HW262271   6.709   9.484   3.751 -0.9551 -0.9775  0.5433
16873SOL     OW62272   7.636   1.779   4.551 -0.2424  0.0523  0.2873
16873SOL    HW162273   7.554   1.782   4.494 -0.1744  1.1994  0.2411
16873SOL    HW262274   7.612   1.742   4.641 -0.2990 -2.0074 -0.5462
16874SOL     OW62275   0.058   3.150   4.805  0.2216  0.1793  0.3375
16874SOL    HW162276   0.083   3.075   4.867  1.0243  0.7047  0.6442
16874SOL    HW262277   0.140   3.186   4.761 -0.0665  1.4358  0.8223
16875SOL     OW62278   6.517   2.123   5.533 -0.1901  0.5345 -0.0267
16875SOL    HW162279   6.607   2.145   5.569 -0.2272 -0.5744  0.7368
16875SOL    HW262280   6.497   2.026   5.546 -1.8368  0.9295  0.5872
16876SOL     OW62281   7.085   3.529   0.215  0.2246 -0.2070 -0.2061
16876SOL    HW162282   7.175   3.535   0.173  0.5287 -2.0772  0.1438
16876SOL    HW262283   7.082   3.452   0.278 -1.3290  0.4153  0.5216
16877SOL     OW62284   6.346   9.845   1.522  0.1638 -0.6676 -1.2332
16877SOL    HW162285   6.325   9.759   1.570 -3.5399  1.3153  0.9177
16877SOL    HW262286   6.296   9.848   1.436  0.0257 -0.4977 -1.1464
16878SOL     OW62287   7.959   9.045   6.405  0.3651 -0.2641 -0.4274
16878SOL    HW162288   7.938   9.126   6.459  0.1035  0.4906 -1.6608
16878SOL    HW262289   8.058   9.037   6.394  0.4095 -0.3130 -0.0114
16879SOL     OW62290   1.772   8.551   0.666  0.3739 -0.0803  0.1391
16879SOL    HW162291   1.849   8.496   0.632 -0.2287 -0.2643 -0.9445
16879SOL    HW262292   1.688   8.521   0.622 -0.4773 -0.4774  1.9753
16880SOL     OW62293   0.614   6.680   5.566 -0.0098 -0.7516 -0.3018
16880SOL    HW162294   0.602   6.614   5.639 -0.6813 -1.0011 -0.6376
16880SOL    HW262295   0.605   6.634   5.477 -2.5803  0.1592 -0.5430
16881SOL     OW62296   9.285   3.471   2.635 -0.2151  0.1670  0.0580
16881SOL    HW162297   9.356   3.508   2.694 -1.8892  2.4596  0.7214
16881SOL    HW262298   9.239   3.546   2.588 -1.7333 -1.3235 -0.8793
16882SOL     OW62299   0.533   8.927   3.072  0.4306  0.6851 -0.3341
16882SOL    HW162300   0.439   8.926   3.038  0.3365  1.0551 -0.0823
16882SOL    HW262301   0.566   9.021   3.079  1.6525  0.4701 -2.7084
16883SOL     OW62302   1.112   1.108   3.801 -0.1837  0.2404 -1.0999
16883SOL    HW162303   1.025   1.158   3.809 -0.0202  0.5930 -1.5202
16883SOL    HW262304   1.186   1.173   3.782  0.2937  0.0354  0.0077
16884SOL     OW62305   0.945   8.669   4.084 -0.4567  0.6212  0.2216
16884SOL    HW162306   0.955   8.753   4.030 -1.6170  0.8764  0.3942
16884SOL    HW262307   0.939   8.590   4.022 -1.3410  0.8685 -0.0144
16885SOL     OW62308   8.543   6.598   0.470 -0.4008 -0.4554 -0.1076
16885SOL    HW162309   8.486   6.617   0.390 -0.3267 -1.2686 -0.3555
16885SOL    HW262310   8.620   6.539   0.443  0.7416  0.8965  0.1536
16886SOL     OW62311   5.076   1.181   5.581 -0.4361  0.2173  0.7842
16886SOL    HW162312   5.003   1.119   5.554  0.6579 -0.5067 -0.5557
16886SOL    HW262313   5.149   1.179   5.513  0.9663  0.7276  2.2341
16887SOL     OW62314   5.966   7.704   5.858  0.0292 -0.6278  0.4959
16887SOL    HW162315   5.966   7.714   5.759 -0.1873 -0.2569  0.5324
16887SOL    HW262316   5.890   7.756   5.897  0.3766 -0.4072  0.8885
16888SOL     OW62317   7.710   6.227   4.275  0.3793  0.2415 -0.1830
16888SOL    HW162318   7.676   6.253   4.365 -0.1298 -0.6219 -0.1229
16888SOL    HW262319   7.762   6.303   4.236  1.2531  0.3509  1.1627
16889SOL     OW62320   2.625   1.704   1.215  0.0276 -0.8921  0.0970
16889SOL    HW162321   2.706   1.762   1.216 -0.3134 -0.4146 -0.2227
16889SOL    HW262322   2.617   1.659   1.126 -0.7096 -0.0229 -0.2854
16890SOL     OW62323   2.128   6.929   4.519 -0.1009 -0.4615 -0.0627
16890SOL    HW162324   2.166   6.953   4.429 -0.1294  0.4451  0.1635
16890SOL    HW262325   2.203   6.905   4.581  0.0007  0.0327  0.0035
16891SOL     OW62326   1.041   3.602   1.366  0.2191  0.0412  0.1761
16891SOL    HW162327   1.042   3.521   1.425 -1.2789  0.2029  0.4418
16891SOL    HW262328   1.068   3.682   1.419  0.9385 -0.1462  0.1049
16892SOL     OW62329   5.072   8.206   4.901 -0.1086  0.2543  0.0989
16892SOL    HW162330   5.077   8.166   4.809 -1.0953 -0.2400  0.2450
16892SOL    HW262331   5.164   8.217   4.938  0.3593  1.4985 -1.3852
16893SOL     OW62332   4.177   3.951   4.011  0.9300 -0.0077 -0.7828
16893SOL    HW162333   4.237   3.941   4.091  2.7164  0.9745 -1.9605
16893SOL    HW262334   4.211   3.894   3.937  1.8551  2.3287 -2.2440
16894SOL     OW62335   7.771   7.553   6.625 -0.8572  0.0828 -0.0323
16894SOL    HW162336   7.820   7.604   6.696  0.0134  0.9428 -1.2183
16894SOL    HW262337   7.689   7.512   6.663 -2.6014  3.9145  0.5743
16895SOL     OW62338   8.485   8.970   6.887  0.1461  0.0947  0.0326
16895SOL    HW162339   8.584   8.970   6.900 -0.0988  1.4320  2.0121
16895SOL    HW262340   8.449   8.880   6.913  0.5868  0.3295  1.5271
16896SOL     OW62341   0.350   2.140   2.172 -0.0225 -0.0516 -0.3828
16896SOL    HW162342   0.364   2.043   2.154  1.1832  0.1626 -0.7062
16896SOL    HW262343   0.343   2.156   2.270  2.9794 -0.1080 -0.1191
16897SOL     OW62344   8.091   1.512   1.667  0.8017  0.3605  0.1051
16897SOL    HW162345   8.142   1.545   1.746  0.0963 -1.1900  1.2417
16897SOL    HW262346   8.145   1.443   1.619  0.3873 -0.2498  0.4934
16898SOL     OW62347   6.048   2.996   1.074 -0.5299  0.1916 -0.0062
16898SOL    HW162348   6.118   3.064   1.051 -0.5435  0.5597  1.0118
16898SOL    HW262349   6.091   2.920   1.123 -0.6897 -0.0096 -0.1846
16899SOL     OW62350   8.405   4.194   5.539  0.0696  0.0666 -0.5797
16899SOL    HW162351   8.338   4.168   5.608  1.0315 -0.2947  0.2354
16899SOL    HW262352   8.490   4.222   5.585  0.6212  0.0785 -1.6091
16900SOL     OW62353   3.013   5.152   6.525 -0.4555  0.8802 -0.3105
16900SOL    HW162354   2.986   5.106   6.441  0.9314  0.7247 -0.6825
16900SOL    HW262355   3.112   5.145   6.537 -0.5888  1.2557  1.1258
16901SOL     OW62356   6.820   7.693   5.138 -0.5381 -0.1929 -0.3528
16901SOL    HW162357   6.904   7.674   5.087  0.0045 -1.3360  0.9198
16901SOL    HW262358   6.752   7.623   5.118 -0.4997 -0.3611  0.1007
16902SOL     OW62359   0.471   1.806   2.960 -1.0886  0.3339  0.3770
16902SOL    HW162360   0.446   1.761   2.874  0.2811 -0.8021  0.5729
16902SOL    HW262361   0.419   1.765   3.035 -0.6952 -0.1271  0.3955
16903SOL     OW62362   3.330   3.215   4.924  1.2797  0.5369  0.2663
16903SOL    HW162363   3.293   3.155   4.853  2.1654  0.8132 -0.4512
16903SOL    HW262364   3.415   3.175   4.959  1.9119  1.3794 -0.2632
16904SOL     OW62365   6.231   9.167   4.493  0.7728  0.3292 -0.5463
16904SOL    HW162366   6.208   9.264   4.498  1.8964  0.6294 -1.0777
16904SOL    HW262367   6.323   9.152   4.530  0.0812 -0.7263  0.7837
16905SOL     OW62368   3.556   7.802   5.517  0.7358 -0.3176  0.0457
16905SOL    HW162369   3.653   7.813   5.497  1.2810 -1.5983  1.8545
16905SOL    HW262370   3.537   7.835   5.609 -0.3449 -1.0682  0.1020
16906SOL     OW62371   8.210   1.268   6.037 -0.3938  0.8265  0.4116
16906SOL    HW162372   8.263   1.349   6.012  1.0116  0.0863  0.8944
16906SOL    HW262373   8.184   1.218   5.955 -0.1444  1.0765  0.1788
16907SOL     OW62374   8.396   4.206   3.117 -0.0136  0.2401 -0.1583
16907SOL    HW162375   8.373   4.128   3.058 -1.2676  0.3092  0.2404
16907SOL    HW262376   8.386   4.180   3.213  1.5741  0.2744  0.0281
16908SOL     OW62377   9.004   7.200   2.973  0.2023  0.1549 -0.4646
16908SOL    HW162378   9.044   7.180   2.884  0.8302  1.3547 -0.4641
16908SOL    HW262379   9.022   7.295   2.997 -2.5060  0.6753 -0.3679
16909SOL     OW62380   4.130   0.626   4.585  0.6088  0.1621  0.5571
16909SOL    HW162381   4.204   0.559   4.591  0.1452 -0.4556 -0.4871
16909SOL    HW262382   4.141   0.681   4.501 -0.9453 -0.9571 -0.4086
16910SOL     OW62383   6.257   2.000   5.764 -0.0485  0.0457  0.2556
16910SOL    HW162384   6.276   2.015   5.861 -1.0664  0.8673  0.3355
16910SOL    HW262385   6.173   1.947   5.754  0.5874 -0.9004 -0.1654
16911SOL     OW62386   5.372   7.718   4.554 -0.3437 -0.5673  0.0984
16911SOL    HW162387   5.445   7.777   4.587 -1.5797  0.6361  0.7177
16911SOL    HW262388   5.360   7.641   4.616 -0.7864  0.1920  0.9602
16912SOL     OW62389   2.628   9.714   4.098  0.1546 -0.0488 -0.5221
16912SOL    HW162390   2.600   9.671   4.184  1.4666  1.6206  0.7633
16912SOL    HW262391   2.688   9.652   4.048 -0.0606 -0.7577  0.0841
16913SOL     OW62392   4.693   9.421   8.681  1.0717  0.1729  0.0958
16913SOL    HW162393   4.678   9.392   8.776 -1.1372  0.2905 -0.1992
16913SOL    HW262394   4.693   9.340   8.622 -0.3261  0.3326 -0.1364
16914SOL     OW62395   7.421   1.261   0.486 -0.6997 -0.5510  0.1234
16914SOL    HW162396   7.344   1.204   0.514 -0.1545 -1.2161  0.2759
16914SOL    HW262397   7.505   1.227   0.528 -0.0370 -0.9095 -1.4733
16915SOL     OW62398   9.699   1.707   6.075 -0.2387  0.4240  0.2283
16915SOL    HW162399   9.653   1.628   6.035 -0.1228  0.5843 -0.2233
16915SOL    HW262400   9.781   1.728   6.021 -0.3455  0.9351  0.2708
16916SOL     OW62401   9.266   7.941   4.258 -0.3535 -0.1809  0.4271
16916SOL    HW162402   9.235   7.928   4.352 -2.2258 -1.0348 -0.2792
16916SOL    HW262403   9.279   8.039   4.241  0.2321 -0.0393  1.6303
16917SOL     OW62404   4.747   5.373   1.596 -0.1481 -0.3064 -0.0213
16917SOL    HW162405   4.779   5.378   1.502  0.6802  0.1112  0.2784
16917SOL    HW262406   4.767   5.282   1.633  0.8413 -0.0070  0.2077
16918SOL     OW62407   6.765   2.809   1.267 -0.1998  0.6536 -0.6890
16918SOL    HW162408   6.842   2.782   1.209 -0.5922 -1.7248 -0.1202
16918SOL    HW262409   6.765   2.754   1.351 -2.2522  0.9578 -0.4752
16919SOL     OW62410   0.642   2.368   2.588  0.3427 -0.2174 -0.4000
16919SOL    HW162411   0.562   2.400   2.538  0.3289 -0.8788 -0.8176
16919SOL    HW262412   0.725   2.392   2.538  0.4048  0.3955 -0.0080
16920SOL     OW62413   2.378   4.838   4.206  0.1910 -0.1704 -0.0986
16920SOL    HW162414   2.301   4.777   4.189 -0.4820  0.4953  0.4693
16920SOL    HW262415   2.348   4.912   4.267  1.4500 -0.2764  0.6727
16921SOL     OW62416   5.422   8.687   7.346  0.0486 -0.0226  0.0699
16921SOL    HW162417   5.485   8.659   7.273 -0.8920 -0.2756 -0.6492
16921SOL    HW262418   5.348   8.620   7.352 -1.6447  1.7284 -0.9380
16922SOL     OW62419   6.286   3.371   2.944 -0.0210  0.3588 -0.8097
16922SOL    HW162420   6.366   3.311   2.943  0.6122  1.1918 -1.7913
16922SOL    HW262421   6.312   3.462   2.912 -1.0028  1.1277  0.5142
16923SOL     OW62422   2.355   1.731   2.167 -0.1119  0.5819 -0.1262
16923SOL    HW162423   2.314   1.665   2.105 -2.1744  0.3902  1.3799
16923SOL    HW262424   2.412   1.795   2.115 -1.6651  0.3444 -2.1791
16924SOL     OW62425   7.750   7.779   8.182 -0.6717 -0.3032  0.0780
16924SOL    HW162426   7.671   7.730   8.217 -1.0983 -0.7252 -1.4167
16924SOL    HW262427   7.834   7.731   8.207 -0.7710  0.9383  2.9380
16925SOL     OW62428   9.913   0.881   7.311 -0.5304  0.2817  0.0509
16925SOL    HW162429   9.863   0.820   7.250 -1.0094  0.7848 -0.0644
16925SOL    HW262430  10.004   0.897   7.274 -0.9283  0.8420 -0.7100
16926SOL     OW62431   9.264   1.877   6.547  0.0428  0.1065 -0.0706
16926SOL    HW162432   9.263   1.884   6.447 -0.4692  1.3058  0.0092
16926SOL    HW262433   9.208   1.798   6.575 -1.6060  1.0466 -0.6395
16927SOL     OW62434   2.173   4.557   2.694  0.6793  0.1238 -0.1176
16927SOL    HW162435   2.099   4.549   2.761  0.9438  1.2999  0.3254
16927SOL    HW262436   2.212   4.467   2.677 -1.0176 -0.5489 -0.5485
16928SOL     OW62437   4.120   7.067   1.417 -0.2127 -0.3657  0.5182
16928SOL    HW162438   4.167   7.154   1.433 -0.8599  0.1828 -0.4935
16928SOL    HW262439   4.071   7.071   1.329 -1.5046 -1.1990  1.1851
16929SOL     OW62440   0.975   9.197   2.632  0.6400 -0.6018  0.3736
16929SOL    HW162441   0.898   9.239   2.681  2.1003  1.0280  1.3375
16929SOL    HW262442   1.013   9.263   2.567 -0.4387 -2.3093 -2.0419
16930SOL     OW62443   1.272   3.481   8.016 -0.5294  0.1107  0.4102
16930SOL    HW162444   1.242   3.474   7.921  1.9008 -2.2928 -0.2409
16930SOL    HW262445   1.227   3.411   8.071 -2.0517  1.5976  1.1033
16931SOL     OW62446   4.062   9.650   7.962 -0.4455 -0.5921  0.3533
16931SOL    HW162447   4.117   9.658   8.045  0.5326  2.7595 -0.5665
16931SOL    HW262448   4.121   9.653   7.882 -1.7707  1.4957 -0.6001
16932SOL     OW62449   1.937   3.916   4.674  0.2614 -0.0689 -0.1210
16932SOL    HW162450   2.034   3.918   4.699  0.3553  0.2025 -0.4965
16932SOL    HW262451   1.914   3.828   4.633  0.9216  0.7137 -2.2557
16933SOL     OW62452   0.886   6.336   5.299  0.0895  0.2219 -0.1990
16933SOL    HW162453   0.974   6.362   5.257  0.2272 -0.4579 -0.3424
16933SOL    HW262454   0.893   6.243   5.335 -0.9630 -0.3271 -1.3581
16934SOL     OW62455   4.354   9.506   6.140 -0.2159  0.0274 -0.4523
16934SOL    HW162456   4.447   9.475   6.119  0.0485  0.0173  0.6927
16934SOL    HW262457   4.288   9.452   6.088  0.4657  0.9545 -2.3517
16935SOL     OW62458   1.762   9.779   1.847 -0.2479  1.3255 -0.3755
16935SOL    HW162459   1.670   9.757   1.877  0.2336 -0.3909 -0.1170
16935SOL    HW262460   1.775   9.878   1.847 -2.6505  1.6768 -2.0843
16936SOL     OW62461   1.815   5.807   3.757  0.4116 -0.2855  0.2188
16936SOL    HW162462   1.795   5.902   3.780  1.5878 -0.1264  0.6133
16936SOL    HW262463   1.748   5.774   3.690 -0.1159  0.7529  0.2282
16937SOL     OW62464   6.342   1.507   1.987 -0.5536 -0.3718  0.2220
16937SOL    HW162465   6.305   1.472   1.900  1.8713 -0.4478 -0.8169
16937SOL    HW262466   6.360   1.430   2.048 -0.6976 -0.4537  0.1639
16938SOL     OW62467   7.332   7.825   2.369  0.1366  0.3483  0.1775
16938SOL    HW162468   7.286   7.746   2.329  0.3093  0.5814 -0.4872
16938SOL    HW262469   7.267   7.874   2.428 -0.1558  0.0770  0.0849
16939SOL     OW62470   5.541   0.631   4.785  0.7168 -0.1018  1.0050
16939SOL    HW162471   5.511   0.570   4.858 -2.6847  0.2546 -0.0189
16939SOL    HW262472   5.542   0.581   4.698  0.8208  0.5082  0.6549
16940SOL     OW62473   1.587   2.507   0.716  0.0086  0.5115 -0.3026
16940SOL    HW162474   1.549   2.553   0.636 -0.1492  1.8176  0.5042
16940SOL    HW262475   1.597   2.573   0.791 -0.8860 -0.9155  1.1127
16941SOL     OW62476   9.292   1.132   4.916 -0.1622  0.1868 -0.3061
16941SOL    HW162477   9.315   1.039   4.947  0.3335  0.0408 -1.0957
16941SOL    HW262478   9.248   1.182   4.991  1.1838 -0.0936  0.6934
16942SOL     OW62479   0.701   4.877   6.011  0.0155 -0.1859  0.2780
16942SOL    HW162480   0.650   4.904   5.929  0.2995  2.5520  0.9255
16942SOL    HW262481   0.639   4.837   6.077 -0.4948 -0.9594 -0.6523
16943SOL     OW62482   3.826   6.329   0.614  0.6539  0.6937  0.1416
16943SOL    HW162483   3.799   6.277   0.534  2.8511 -0.7822  0.3056
16943SOL    HW262484   3.856   6.420   0.586  1.2641  0.2404 -0.7142
16944SOL     OW62485   9.456   0.656   1.943  0.3177  0.3633 -0.4713
16944SOL    HW162486   9.543   0.649   1.893 -0.1836  1.5499 -1.5542
16944SOL    HW262487   9.392   0.587   1.909 -0.4614  1.9873 -2.4393
16945SOL     OW62488   7.175   9.936   3.313 -0.7531 -0.8184 -0.3190
16945SOL    HW162489   7.143   9.979   3.397 -0.0426 -0.2628 -0.3243
16945SOL    HW262490   7.136   9.984   3.234  1.6375  1.1930 -0.3745
16946SOL     OW62491   7.214   4.831   9.900 -0.4239  0.1790  0.2348
16946SOL    HW162492   7.266   4.832   9.815 -0.7645 -0.4769  0.0132
16946SOL    HW262493   7.265   4.781   9.970 -0.8587 -0.6884 -0.0560
16947SOL     OW62494   7.351   9.004   6.819  0.3850  0.1104 -0.1290
16947SOL    HW162495   7.424   9.061   6.857  1.2734 -0.8785 -0.3303
16947SOL    HW262496   7.263   9.049   6.833  1.1029  1.6887 -0.5827
16948SOL     OW62497   3.321   4.675   4.674  0.0225 -0.7163 -0.4828
16948SOL    HW162498   3.384   4.639   4.605  1.6039  0.4199  0.3268
16948SOL    HW262499   3.227   4.669   4.640  0.7749 -0.1496 -2.7367
16949SOL     OW62500   2.544   3.427   3.489 -0.3731 -0.2992  0.1998
16949SOL    HW162501   2.572   3.484   3.566 -2.6562  0.8592  0.2347
16949SOL    HW262502   2.505   3.341   3.524 -0.8740 -0.0223  0.3309
16950SOL     OW62503   6.249   7.825   6.859 -0.3763  0.1066  0.3833
16950SOL    HW162504   6.324   7.816   6.925 -2.4079 -1.8074  2.5139
16950SOL    HW262505   6.178   7.885   6.897 -0.6801  0.5997 -0.9368
16951SOL     OW62506   4.355   9.412   2.445 -0.1142  0.8130 -0.8285
16951SOL    HW162507   4.286   9.478   2.474 -0.6113  0.6863 -1.7042
16951SOL    HW262508   4.345   9.328   2.500 -0.6961  0.7772 -0.9776
16952SOL     OW62509   9.325   8.157   3.154  0.3287 -0.2071  0.3596
16952SOL    HW162510   9.410   8.112   3.182  1.5782  0.7755 -1.7761
16952SOL    HW262511   9.345   8.247   3.117 -1.9040  1.0191  1.9966
16953SOL     OW62512   3.862   8.572   0.198  0.1977 -0.2213 -0.6488
16953SOL    HW162513   3.837   8.668   0.204 -0.9846 -0.5821  0.4619
16953SOL    HW262514   3.907   8.543   0.283  0.7331 -0.5990 -1.0558
16954SOL     OW62515   3.738   7.773   2.782  0.1320 -0.0810  0.5999
16954SOL    HW162516   3.760   7.720   2.864 -0.0813 -0.3920  0.4565
16954SOL    HW262517   3.704   7.711   2.710 -0.1243  0.2496  0.4355
16955SOL     OW62518   2.579   9.458   6.550  0.6254 -0.5168  0.5310
16955SOL    HW162519   2.511   9.386   6.563 -0.1766  0.1057 -0.0845
16955SOL    HW262520   2.572   9.524   6.625 -0.5138  0.3546 -0.3066
16956SOL     OW62521   6.915   5.858   2.139 -0.0901 -0.6100 -0.4823
16956SOL    HW162522   6.840   5.828   2.079 -2.4478  1.9185  1.1190
16956SOL    HW262523   6.920   5.798   2.219 -0.1671 -0.9627 -0.7378
16957SOL     OW62524   3.465   9.719   3.884  0.5384 -0.1609  0.0647
16957SOL    HW162525   3.541   9.671   3.842  1.5779  1.4491  0.0610
16957SOL    HW262526   3.491   9.749   3.976  0.3382  1.4128 -0.3744
16958SOL     OW62527   7.639   1.268   1.066 -0.0367  0.0706  0.1129
16958SOL    HW162528   7.704   1.324   1.014  2.6420 -2.5909  0.5111
16958SOL    HW262529   7.582   1.216   1.002 -0.8863  1.3531 -0.2058
16959SOL     OW62530   7.751   0.391   3.079 -0.4073 -0.4022 -0.1638
16959SOL    HW162531   7.692   0.313   3.101  0.1776 -1.0898 -0.9981
16959SOL    HW262532   7.846   0.368   3.098 -0.2904  0.2925  0.0808
16960SOL     OW62533   4.387   1.944   4.721 -0.3501  0.5914  0.2646
16960SOL    HW162534   4.330   1.882   4.667  1.9559 -1.6238  0.2388
16960SOL    HW262535   4.343   1.962   4.809 -0.8363 -1.5570  0.4871
16961SOL     OW62536   5.352   9.318   3.473 -0.4105  0.2635  0.1869
16961SOL    HW162537   5.317   9.301   3.565  0.9879 -0.4575  0.5983
16961SOL    HW262538   5.441   9.274   3.463 -1.0289 -0.5567 -1.8650
16962SOL     OW62539   2.047   7.423   2.539  0.1623 -0.7123 -0.2170
16962SOL    HW162540   2.026   7.443   2.443 -0.9382 -0.8265 -0.0054
16962SOL    HW262541   1.965   7.435   2.594  0.7682 -0.7602  0.6990
16963SOL     OW62542   1.986   1.053   1.596 -0.4230  0.4049 -0.3674
16963SOL    HW162543   1.969   0.961   1.559  0.6773  0.4695 -1.0550
16963SOL    HW262544   2.060   1.049   1.663 -2.9642  0.1452  2.5209
16964SOL     OW62545   0.445   5.378   1.644 -0.0758  0.0242  0.3909
16964SOL    HW162546   0.402   5.440   1.709  0.7563  1.3438 -0.3064
16964SOL    HW262547   0.415   5.284   1.663 -0.6243  0.5145  2.0264
16965SOL     OW62548   1.805   1.610   3.543 -0.0380  0.2455  0.3506
16965SOL    HW162549   1.805   1.611   3.443 -2.0191  0.2115  0.3177
16965SOL    HW262550   1.891   1.649   3.578  0.9255 -0.3484 -1.3523
16966SOL     OW62551   8.439   1.584   0.251 -0.3732  0.2747 -0.0176
16966SOL    HW162552   8.388   1.533   0.181  0.0595 -0.5237  0.2378
16966SOL    HW262553   8.536   1.558   0.247 -0.2617  0.5888  0.5576
16967SOL     OW62554   8.914   7.083   2.469 -0.3532 -0.0841  0.0396
16967SOL    HW162555   8.879   7.091   2.562 -1.3090  1.6644 -0.4465
16967SOL    HW262556   8.855   7.022   2.416  0.3854 -1.3480  0.6615
16968SOL     OW62557   5.064   9.522   6.456  0.1179 -0.4069  0.5822
16968SOL    HW162558   5.005   9.586   6.407  0.5064  0.4004  1.1512
16968SOL    HW262559   5.107   9.459   6.391  0.2891  0.3715 -0.0606
16969SOL     OW62560   3.913   4.516   5.443 -0.2566 -0.4051 -0.4229
16969SOL    HW162561   3.916   4.575   5.524 -0.3479 -2.4329  1.0894
16969SOL    HW262562   3.880   4.569   5.365 -2.2297  1.0651  1.3395
16970SOL     OW62563   1.210   4.194   2.082 -0.2708 -0.3467 -0.1250
16970SOL    HW162564   1.114   4.178   2.060 -0.7208  2.0444 -0.0162
16970SOL    HW262565   1.220   4.283   2.127  1.7933 -1.2605  1.3021
16971SOL     OW62566   6.269   9.088   4.183 -0.4449  0.1110 -0.0351
16971SOL    HW162567   6.276   9.163   4.248  3.3723 -1.3339  1.3639
16971SOL    HW262568   6.242   9.005   4.232  0.4969 -0.5420 -0.6085
16972SOL     OW62569   5.789   1.173   7.037 -0.3680 -0.0460  0.1095
16972SOL    HW162570   5.737   1.232   6.974  1.7866  1.3210 -0.4431
16972SOL    HW262571   5.759   1.191   7.131 -1.4668  0.1286 -0.2647
16973SOL     OW62572   5.583   7.140   4.433 -0.0273 -0.0614 -0.0792
16973SOL    HW162573   5.486   7.162   4.420  0.1599 -0.0339 -1.4529
16973SOL    HW262574   5.595   7.099   4.523 -1.2974  0.0594  0.1617
16974SOL     OW62575   2.182   3.504   4.265 -0.0901  0.3094 -0.1091
16974SOL    HW162576   2.257   3.536   4.207  0.6880 -1.5265 -0.1511
16974SOL    HW262577   2.217   3.436   4.330 -0.7952  2.7731  2.9896
16975SOL     OW62578   6.638   9.977   2.419 -0.0796  0.0995 -0.2094
16975SOL    HW162579   6.542  10.007   2.415 -0.0606  0.4909  1.9937
16975SOL    HW262580   6.649   9.910   2.492  1.1532 -0.6836 -1.0888
16976SOL     OW62581   2.548   6.500   5.691  0.1313 -0.3132  0.0619
16976SOL    HW162582   2.583   6.441   5.764  0.3277 -0.6543 -0.3041
16976SOL    HW262583   2.544   6.448   5.606 -3.4418 -0.9566  0.5632
16977SOL     OW62584   2.762   9.268   9.859 -0.2784  0.1756  0.2229
16977SOL    HW162585   2.743   9.365   9.875 -0.4054  0.5453 -2.1264
16977SOL    HW262586   2.860   9.255   9.846 -0.2326 -0.0739  0.7662
16978SOL     OW62587   9.066   9.033   5.382  0.0421 -0.1620  0.1626
16978SOL    HW162588   8.984   8.978   5.402  0.4263 -0.1219  1.9447
16978SOL    HW262589   9.039   9.125   5.355 -0.5049  0.0633  1.4369
16979SOL     OW62590   2.048   6.327   6.497 -0.5850 -0.0765 -0.1012
16979SOL    HW162591   1.949   6.338   6.506 -0.6275  0.4334 -1.1770
16979SOL    HW262592   2.076   6.245   6.546 -1.3750  0.3966  1.1879
16980SOL     OW62593   5.538   8.433   3.404 -0.2446 -0.7720  0.2111
16980SOL    HW162594   5.581   8.349   3.372  0.9196 -0.1058  0.0042
16980SOL    HW262595   5.572   8.510   3.350  1.2823  0.2814  2.6185
16981SOL     OW62596   7.639   9.949   4.120  0.1292  0.0187 -0.5696
16981SOL    HW162597   7.683   9.936   4.209 -1.5957  0.7313  0.4176
16981SOL    HW262598   7.613   9.860   4.083  0.1475 -0.2308  0.0094
16982SOL     OW62599   0.327   0.934   5.998  0.0576  0.3431  0.3739
16982SOL    HW162600   0.394   0.925   6.072  0.6124  1.0599 -0.0331
16982SOL    HW262601   0.339   0.859   5.933  0.6697  0.6350  0.1434
16983SOL     OW62602   2.010   1.724   3.671 -0.4997 -0.2850  0.3140
16983SOL    HW162603   1.967   1.711   3.760  1.4204  0.6089  1.4138
16983SOL    HW262604   2.028   1.821   3.656 -0.2083 -0.4937 -0.7491
16984SOL     OW62605   7.723   6.667   6.668 -0.6530  0.0070 -0.2899
16984SOL    HW162606   7.631   6.627   6.665 -0.4475 -0.3985 -1.8505
16984SOL    HW262607   7.788   6.599   6.703 -0.8116  0.0193  0.0281
16985SOL     OW62608   6.298   4.244   3.026 -0.1119  0.1638 -1.0366
16985SOL    HW162609   6.342   4.313   2.969  0.2717  0.2391 -0.6562
16985SOL    HW262610   6.323   4.260   3.122  2.7490 -2.5156 -1.2670
16986SOL     OW62611   8.112   6.083   7.305  1.2230 -0.2270 -0.1740
16986SOL    HW162612   8.016   6.061   7.322 -0.0386  2.9324 -2.6738
16986SOL    HW262613   8.155   6.112   7.390 -0.5007 -0.0612  0.6695
16987SOL     OW62614   3.542   5.969   3.357  0.2218  0.0708 -0.1438
16987SOL    HW162615   3.493   5.884   3.339  1.3495 -0.3149 -1.4927
16987SOL    HW262616   3.492   6.045   3.315 -0.0661 -0.1136 -0.1352
16988SOL     OW62617   1.729   5.019   4.749 -0.1176 -0.1398 -0.4696
16988SOL    HW162618   1.790   5.074   4.692 -0.2984 -0.8101 -1.3231
16988SOL    HW262619   1.782   4.948   4.796  0.2272  1.1521  1.1650
16989SOL     OW62620   5.023   0.714   2.571 -0.0338  1.0012 -0.7120
16989SOL    HW162621   5.049   0.773   2.495 -1.4460 -0.1451 -2.1192
16989SOL    HW262622   4.932   0.676   2.555 -0.3358  0.6653  1.5167
16990SOL     OW62623   3.179   0.394   0.511 -0.0139  0.2445 -0.1273
16990SOL    HW162624   3.106   0.411   0.445  0.3333 -0.0581 -0.5948
16990SOL    HW262625   3.194   0.476   0.566  0.8226  1.0716 -1.5491
16991SOL     OW62626   8.355   4.493   3.819  0.5712  0.4894 -0.2044
16991SOL    HW162627   8.395   4.403   3.800 -0.3796  0.4279 -2.0476
16991SOL    HW262628   8.358   4.511   3.917  3.0565 -0.4721 -0.0672
16992SOL     OW62629   0.123   8.766   5.505 -0.4298  0.2602 -0.4967
16992SOL    HW162630   0.098   8.847   5.557  2.6039  1.3730 -0.6476
16992SOL    HW262631   0.124   8.686   5.565  0.8566  1.1295  0.6547
16993SOL     OW62632   1.397   4.312   0.868 -0.3131  0.3384 -0.0193
16993SOL    HW162633   1.474   4.248   0.880 -0.0590  0.5644 -0.4282
16993SOL    HW262634   1.318   4.278   0.919 -1.6723 -2.8163 -3.9605
16994SOL     OW62635   7.780   0.973   3.004  0.1778 -0.0923 -0.6918
16994SOL    HW162636   7.836   0.936   3.078 -1.9478  0.2719  1.1653
16994SOL    HW262637   7.808   0.932   2.917  1.9887 -1.3619  0.4519
16995SOL     OW62638   4.587   0.621   1.168  0.1031 -0.3494  0.1840
16995SOL    HW162639   4.491   0.595   1.161  0.0654  0.3202 -2.3259
16995SOL    HW262640   4.635   0.594   1.085  1.5099  1.5738  0.3266
16996SOL     OW62641   4.886   1.841   6.214 -0.1458  0.0799 -0.7430
16996SOL    HW162642   4.788   1.857   6.226 -0.2361 -0.9088 -0.1155
16996SOL    HW262643   4.913   1.759   6.264  1.4867  1.7185  1.1973
16997SOL     OW62644   3.320   1.005   3.843 -0.2132  0.5104 -0.2843
16997SOL    HW162645   3.399   1.022   3.901  1.0320 -1.2489 -1.4217
16997SOL    HW262646   3.343   1.027   3.748 -1.0855 -0.0746 -0.6378
16998SOL     OW62647   8.899   8.641   2.927 -0.2212 -0.2414  0.1845
16998SOL    HW162648   8.917   8.549   2.891  0.0417 -0.1007 -0.0454
16998SOL    HW262649   8.889   8.637   3.026 -2.9471 -0.9494 -0.0856
16999SOL     OW62650   3.916   9.299   6.838  0.1719 -0.1929  0.5453
16999SOL    HW162651   3.969   9.262   6.762  0.0968 -1.0519  0.9037
16999SOL    HW262652   3.978   9.328   6.911  0.2646  1.0134 -0.0078
17000SOL     OW62653   2.915   6.728   2.593 -0.1996  0.1547  0.0741
17000SOL    HW162654   2.941   6.785   2.515 -2.9888 -1.7748 -2.4056
17000SOL    HW262655   2.894   6.786   2.671  0.5516  2.2977 -1.2675
17001SOL     OW62656   4.777   2.274   5.291 -0.4397 -0.2617  0.4746
17001SOL    HW162657   4.871   2.306   5.286 -0.2215 -1.1617 -2.0442
17001SOL    HW262658   4.715   2.344   5.256 -0.6132 -0.0490  1.2019
17002SOL     OW62659   1.541   0.807   2.035 -0.0098 -0.3339  0.5655
17002SOL    HW162660   1.442   0.801   2.045  0.0035  0.4714  1.2537
17002SOL    HW262661   1.567   0.901   2.014  0.7023 -0.2817  1.6194
17003SOL     OW62662   6.390   1.206   5.622  0.4979 -0.1761  0.1073
17003SOL    HW162663   6.323   1.175   5.689  1.0203 -1.1487  0.1784
17003SOL    HW262664   6.374   1.303   5.602  0.3100  0.1243  1.6111
17004SOL     OW62665   3.284   5.145   0.951 -0.8713  0.3063  0.1749
17004SOL    HW162666   3.216   5.072   0.950  0.0569 -0.5778  0.4024
17004SOL    HW262667   3.361   5.119   0.892  0.1432  0.4431  1.4196
17005SOL     OW62668   2.965   3.142   0.305  0.2079  0.7557 -0.5487
17005SOL    HW162669   2.890   3.085   0.273 -0.0719  1.0699 -0.4525
17005SOL    HW262670   3.039   3.142   0.237  1.3668 -1.8883  0.6245
17006SOL     OW62671   0.511   3.399   6.412 -0.1855 -0.2585  0.1417
17006SOL    HW162672   0.584   3.467   6.421  0.2873 -0.3959 -2.3598
17006SOL    HW262673   0.551   3.311   6.388 -1.1832 -0.2227 -1.7486
17007SOL     OW62674   2.762   6.135   5.466  0.2329 -0.0109  0.7634
17007SOL    HW162675   2.732   6.040   5.458  0.2390  0.0401  0.1701
17007SOL    HW262676   2.826   6.143   5.543  0.3580 -0.5180  0.7144
17008SOL     OW62677   2.177   7.721   4.103  0.3910 -0.2045 -0.0785
17008SOL    HW162678   2.209   7.714   4.198 -0.8666 -0.2476  0.3473
17008SOL    HW262679   2.102   7.657   4.088 -0.2626  0.7108 -0.7495
17009SOL     OW62680   7.460   6.080   2.726  0.3585 -0.4440  0.0096
17009SOL    HW162681   7.431   6.174   2.708  0.0901 -0.3149  1.0979
17009SOL    HW262682   7.495   6.040   2.641  0.1742  0.5240 -0.5393
17010SOL     OW62683   8.272   7.648   2.874  0.0437  0.6451 -1.1650
17010SOL    HW162684   8.307   7.565   2.916 -1.0064  0.1241 -1.2997
17010SOL    HW262685   8.245   7.713   2.946  0.1989  0.5911 -1.0574
17011SOL     OW62686   0.182   8.324   0.823  0.1365  0.0924  0.0169
17011SOL    HW162687   0.148   8.295   0.912  1.1514  0.2266  0.4503
17011SOL    HW262688   0.194   8.244   0.765 -1.3641  0.0831 -0.3093
17012SOL     OW62689   1.381   7.166   1.832  0.4030  0.1872 -0.8811
17012SOL    HW162690   1.309   7.199   1.894 -0.2948 -1.3944 -0.8122
17012SOL    HW262691   1.339   7.128   1.749  1.1952 -0.1418 -1.1400
17013SOL     OW62692   5.344   7.169   2.948  0.4983  0.2057  0.5012
17013SOL    HW162693   5.441   7.183   2.965  0.5114  2.1854 -1.0731
17013SOL    HW262694   5.290   7.218   3.017  0.6079 -0.3457  0.9804
17014SOL     OW62695   0.403   2.887   4.196  0.8252  0.5281  0.0493
17014SOL    HW162696   0.490   2.936   4.204  0.9445  0.2825  0.2919
17014SOL    HW262697   0.415   2.793   4.228  1.2219 -0.4020 -2.6664
17015SOL     OW62698   8.845   4.255   6.444 -0.0990  0.2932  0.1228
17015SOL    HW162699   8.913   4.191   6.411  1.1127  1.0731  1.0513
17015SOL    HW262700   8.765   4.205   6.478  1.1499 -0.7860  1.5556
17016SOL     OW62701   3.241   5.452   2.670 -0.6966 -0.4197 -0.0383
17016SOL    HW162702   3.327   5.484   2.711 -1.0179  0.3738  0.0229
17016SOL    HW262703   3.228   5.355   2.691  0.7525 -0.8549 -0.9925
17017SOL     OW62704   2.338   1.074   4.356  0.1582 -0.2106 -0.1725
17017SOL    HW162705   2.264   1.052   4.420  0.0764 -0.8615 -0.4877
17017SOL    HW262706   2.301   1.083   4.264  0.7218 -2.3123 -0.6335
17018SOL     OW62707   0.352   0.211   4.854 -0.8503 -0.0496 -0.1382
17018SOL    HW162708   0.379   0.114   4.859 -0.1502  0.1946  1.2145
17018SOL    HW262709   0.344   0.247   4.947 -2.5874  0.7992 -0.6115
17019SOL     OW62710   3.359   9.952   4.449  0.6033  0.0224 -0.1334
17019SOL    HW162711   3.325  10.030   4.397  1.6919  0.5472 -0.0737
17019SOL    HW262712   3.364   9.872   4.389 -0.4693 -0.0005 -0.2066
17020SOL     OW62713   8.216   5.356   1.572  0.0688 -0.1166 -0.1812
17020SOL    HW162714   8.120   5.365   1.600  0.6900  0.9485  1.6964
17020SOL    HW262715   8.220   5.327   1.476 -2.1252  0.0256 -0.3477
17021SOL     OW62716   0.296   8.091   2.748 -0.0902  0.0939 -0.2539
17021SOL    HW162717   0.312   8.027   2.823 -0.1022 -1.5713 -1.6356
17021SOL    HW262718   0.221   8.057   2.691  0.8728  0.5880 -1.8257
17022SOL     OW62719   8.629   1.695   1.068  0.8028  0.4161 -0.5680
17022SOL    HW162720   8.591   1.771   1.121  1.0578  0.5737 -0.6066
17022SOL    HW262721   8.560   1.660   1.005  0.3942  0.0158  0.0985
17023SOL     OW62722   7.514   0.921   3.091  0.0084  0.0657 -0.1722
17023SOL    HW162723   7.611   0.918   3.068  0.3491  1.5004  1.0079
17023SOL    HW262724   7.488   1.015   3.115 -1.2006 -0.6737  1.4943
17024SOL     OW62725   9.407   3.316   3.060 -0.1941 -0.5497 -0.0819
17024SOL    HW162726   9.476   3.265   3.110  1.0601  2.2907  1.1677
17024SOL    HW262727   9.451   3.377   2.994 -1.6561 -1.1725 -1.6756
17025SOL     OW62728   8.031   1.372   4.354 -0.0329 -0.1042  0.4174
17025SOL    HW162729   8.111   1.351   4.411  0.9867 -0.6852 -1.1961
17025SOL    HW262730   7.948   1.349   4.404  0.8369 -0.2389  1.8198
17026SOL     OW62731   0.988   9.584   1.298  0.0216  0.4383 -0.4998
17026SOL    HW162732   0.975   9.661   1.235 -0.3996 -0.9914 -2.2104
17026SOL    HW262733   0.903   9.565   1.345 -0.4842 -0.3433 -1.6965
17027SOL     OW62734   0.925   6.067   5.384 -0.1289 -0.1080  0.1319
17027SOL    HW162735   0.939   6.061   5.483  0.9618  1.2219  0.0791
17027SOL    HW262736   0.831   6.041   5.361  0.4509 -3.3973  1.1843
17028SOL     OW62737   5.010   3.138   5.458  0.5411  0.5210 -0.1890
17028SOL    HW162738   4.938   3.099   5.515  0.9927  0.1373  0.1202
17028SOL    HW262739   5.014   3.089   5.371 -2.0715  2.9385 -1.7463
17029SOL     OW62740   5.155   1.219   7.643 -0.1333 -0.4478  0.5420
17029SOL    HW162741   5.240   1.180   7.678 -0.3600 -0.3928  1.1423
17029SOL    HW262742   5.163   1.319   7.640  0.7794 -0.5567 -1.8319
17030SOL     OW62743   7.490   8.113   6.734  0.5416  0.0044  0.2711
17030SOL    HW162744   7.492   8.026   6.783 -0.0935 -0.4044 -0.4099
17030SOL    HW262745   7.395   8.135   6.710  0.8811 -0.0367 -1.1676
17031SOL     OW62746   2.467   1.698   0.186  0.6545 -0.3696 -0.0645
17031SOL    HW162747   2.460   1.684   0.087 -1.4362 -0.9355  0.1616
17031SOL    HW262748   2.531   1.773   0.203 -1.2835  1.7927 -1.9787
17032SOL     OW62749   1.403   8.277   6.283 -0.2260 -0.2253  0.9809
17032SOL    HW162750   1.444   8.308   6.197 -1.7199 -0.9322 -0.0162
17032SOL    HW262751   1.412   8.348   6.352  1.9718 -0.0745  0.5736
17033SOL     OW62752   1.154   8.794   7.029 -0.0811  0.1242  0.5517
17033SOL    HW162753   1.189   8.701   7.038  0.8691  0.5396  1.1864
17033SOL    HW262754   1.218   8.849   6.976 -0.3003  0.6105  0.7889
17034SOL     OW62755   0.565   0.356   4.148 -0.1231 -0.0018 -0.6858
17034SOL    HW162756   0.477   0.311   4.131  0.0198 -0.4115 -0.3602
17034SOL    HW262757   0.565   0.395   4.240 -0.1153  0.3655 -0.8384
17035SOL     OW62758   4.350   8.981   4.914  0.3691  0.4153 -0.5438
17035SOL    HW162759   4.361   8.940   4.824  1.7564  0.2160 -0.2900
17035SOL    HW262760   4.277   8.933   4.964 -0.4707  0.5889 -1.5769
17036SOL     OW62761   7.432   7.889   5.854  0.1105 -0.3975  0.4504
17036SOL    HW162762   7.399   7.972   5.899  0.5667 -0.0069  0.0648
17036SOL    HW262763   7.452   7.819   5.923 -0.9556 -0.4350  0.7289
17037SOL     OW62764   4.440   7.948   4.194  0.0001  0.0815 -0.0239
17037SOL    HW162765   4.486   7.874   4.243  1.1103 -0.4318 -1.7847
17037SOL    HW262766   4.400   7.912   4.110  0.5762  1.4942 -0.9115
17038SOL     OW62767   8.582   9.958   3.247 -0.2186 -0.7064  0.2544
17038SOL    HW162768   8.566   9.865   3.281  1.3604 -1.4283 -0.9221
17038SOL    HW262769   8.601   9.954   3.149 -1.8138  1.0487 -0.1600
17039SOL     OW62770   0.171   6.203   6.258 -0.1051 -0.2851  0.1096
17039SOL    HW162771   0.216   6.247   6.335 -0.4000  0.4996 -0.1528
17039SOL    HW262772   0.133   6.115   6.286 -1.1336  0.4818  1.1270
17040SOL     OW62773   7.698   6.955   0.654  0.0657 -0.1639  0.4406
17040SOL    HW162774   7.641   6.878   0.625 -1.3208  1.4796 -1.3228
17040SOL    HW262775   7.793   6.938   0.628 -0.4534 -0.6929 -1.1886
17041SOL     OW62776   9.701   3.989  10.023 -0.0742 -0.5654  0.6626
17041SOL    HW162777   9.780   4.033  10.066  0.9610 -1.1317 -0.6230
17041SOL    HW262778   9.621   4.048  10.031  1.0729  1.1545 -0.2178
17042SOL     OW62779   7.547   1.136   0.858 -0.1736  0.2680 -0.7468
17042SOL    HW162780   7.500   1.201   0.798  1.0074 -0.5032 -2.5548
17042SOL    HW262781   7.615   1.086   0.805 -0.4039 -1.7757  0.8323
17043SOL     OW62782   8.803   6.627   6.228  0.3080 -0.2221  0.5523
17043SOL    HW162783   8.888   6.591   6.187 -0.0760  0.4313 -0.8669
17043SOL    HW262784   8.782   6.577   6.311  2.5850  0.2036  1.4161
17044SOL     OW62785   0.654   6.311   4.694 -0.2034 -0.2664 -0.0515
17044SOL    HW162786   0.576   6.342   4.748 -1.6637 -2.0766 -1.0777
17044SOL    HW262787   0.663   6.212   4.701  1.1838 -0.2258 -1.0276
17045SOL     OW62788   7.424   4.111   3.255 -0.5376  0.0732  0.3030
17045SOL    HW162789   7.337   4.061   3.251 -0.5912  0.0849  1.3102
17045SOL    HW262790   7.425   4.171   3.334  0.0043  0.8164 -0.2562
17046SOL     OW62791   5.501   3.161   0.823 -0.4204 -0.1593 -0.0806
17046SOL    HW162792   5.575   3.097   0.802 -1.3244 -1.4039  0.4363
17046SOL    HW262793   5.539   3.241   0.870  0.4704 -1.3130  1.2346
17047SOL     OW62794   1.460   8.477   1.652 -0.0572 -0.1728  0.5743
17047SOL    HW162795   1.475   8.450   1.747 -1.2304 -1.1712  0.4870
17047SOL    HW262796   1.362   8.485   1.635  0.1606  0.3432 -0.4644
17048SOL     OW62797   0.826   7.523   3.936 -0.3551  0.3644  0.0031
17048SOL    HW162798   0.765   7.446   3.951  0.1721 -0.0631 -0.0174
17048SOL    HW262799   0.844   7.569   4.023 -0.6378  0.4407  0.0218
17049SOL     OW62800   0.173   9.635   2.156 -0.8919 -0.4222 -0.4204
17049SOL    HW162801   0.178   9.537   2.140 -0.0318 -0.7543  1.7455
17049SOL    HW262802   0.125   9.653   2.242  1.2926  0.9161  0.5684
17050SOL     OW62803   9.150   9.810   7.287  0.6750  0.6531  0.1366
17050SOL    HW162804   9.194   9.729   7.249 -0.4439  1.3059 -2.6906
17050SOL    HW262805   9.051   9.795   7.292  0.4932  1.7557 -0.1506
17051SOL     OW62806   3.121   8.118   6.745  0.5081 -0.5745 -0.6002
17051SOL    HW162807   3.024   8.137   6.728  0.1397 -1.2319  0.7337
17051SOL    HW262808   3.138   8.020   6.734  1.4407 -0.2132 -2.7684
17052SOL     OW62809   4.311   0.515   0.822  0.1337 -0.0831  0.0120
17052SOL    HW162810   4.293   0.583   0.893 -1.2934 -0.5221  0.0985
17052SOL    HW262811   4.275   0.548   0.735  0.3593 -0.2799 -0.1551
17053SOL     OW62812   0.975   0.821   2.006  0.5240 -0.5240 -0.0615
17053SOL    HW162813   0.900   0.756   1.993  1.6195 -1.7337 -0.4380
17053SOL    HW262814   0.995   0.867   1.919  0.7819 -0.8257 -0.1625
17054SOL     OW62815   9.728   8.358   0.838  0.0723  0.3477  0.0627
17054SOL    HW162816   9.756   8.283   0.898  0.5725 -0.0654 -0.6731
17054SOL    HW262817   9.790   8.436   0.850 -0.3500  0.5893  0.7064
17055SOL     OW62818   5.146   7.676   3.526 -0.1543  0.1783  0.5627
17055SOL    HW162819   5.103   7.606   3.584 -1.9835 -0.3436 -1.3636
17055SOL    HW262820   5.105   7.673   3.435  0.8173  2.7685  0.0092
17056SOL     OW62821   7.922   7.994   8.220  0.2935  0.2203  0.2431
17056SOL    HW162822   7.840   7.939   8.201 -0.5791  2.2198 -1.9426
17056SOL    HW262823   7.895   8.083   8.255  1.6934 -0.2881  2.8136
17057SOL     OW62824   0.042   4.458   4.361  0.3505  0.0821 -0.2625
17057SOL    HW162825  -0.025   4.430   4.292  1.7339 -0.4535 -1.4124
17057SOL    HW262826   0.114   4.513   4.317  0.0557  1.6422  1.1685
17058SOL     OW62827   4.304   1.348   5.915  0.7469  0.4388  0.1593
17058SOL    HW162828   4.385   1.347   5.856  0.8525  4.4658  0.0834
17058SOL    HW262829   4.223   1.327   5.861  1.4294 -1.0649 -0.3006
17059SOL     OW62830   9.817   6.830   8.032 -0.1022 -0.1340  0.0231
17059SOL    HW162831   9.773   6.919   8.020 -0.6547 -0.2739  0.9652
17059SOL    HW262832   9.767   6.761   7.979 -0.5444 -0.1366  0.4284
17060SOL     OW62833   4.875   0.531   7.221  0.0832 -0.1904  0.0871
17060SOL    HW162834   4.970   0.519   7.248  0.0986  1.7832  1.0160
17060SOL    HW262835   4.857   0.628   7.204 -2.1883 -0.3054  1.5326
17061SOL     OW62836   4.972   9.471   7.399  0.2268 -0.0145  0.1785
17061SOL    HW162837   5.012   9.449   7.310  1.4687 -1.3019  1.0375
17061SOL    HW262838   5.043   9.468   7.469 -0.9752 -0.2175  1.4079
17062SOL     OW62839   9.884   8.728   1.315 -0.0619 -0.5026  0.4469
17062SOL    HW162840   9.925   8.782   1.388  3.1148 -1.3694 -0.6365
17062SOL    HW262841   9.903   8.771   1.227  0.3303 -2.0190 -0.2272
17063SOL     OW62842   7.791   7.670   0.947  0.4811  0.4157 -0.1479
17063SOL    HW162843   7.756   7.576   0.945 -0.9514  0.9133  0.2623
17063SOL    HW262844   7.883   7.673   0.908  0.0185 -0.9436 -1.3898
17064SOL     OW62845   8.728   9.162   4.500 -0.0908 -0.5438  0.1829
17064SOL    HW162846   8.799   9.233   4.492 -0.2519 -0.3023  0.7986
17064SOL    HW262847   8.771   9.072   4.502  0.1257 -0.4601 -0.4913
17065SOL     OW62848   9.077   7.579   4.280  0.1142  0.5999 -0.4260
17065SOL    HW162849   9.058   7.617   4.189 -0.4220 -0.7945 -0.9110
17065SOL    HW262850   9.164   7.615   4.313 -0.0471  1.7060 -1.1727
17066SOL     OW62851   2.997   1.088   1.713 -0.7558  0.0297  0.3276
17066SOL    HW162852   2.987   1.184   1.687  0.5611  0.5628  1.7103
17066SOL    HW262853   2.959   1.073   1.804  3.0403  0.2703  2.0614
17067SOL     OW62854   9.763   6.597   2.994 -0.1086 -0.0319  0.0481
17067SOL    HW162855   9.679   6.629   3.036 -0.0197 -1.0034  1.0023
17067SOL    HW262856   9.808   6.531   3.055  1.3565  0.4947 -0.4274
17068SOL     OW62857   3.700   3.048   2.101 -0.5382  0.2647 -0.0641
17068SOL    HW162858   3.708   3.074   2.197 -1.7693  1.3021 -0.2443
17068SOL    HW262859   3.646   3.116   2.052 -0.5817 -0.6699 -1.3285
17069SOL     OW62860   3.693   5.140   2.205  0.0371 -0.2623 -0.6851
17069SOL    HW162861   3.642   5.212   2.252  0.1038 -1.0541  0.6172
17069SOL    HW262862   3.707   5.166   2.110 -2.6253  0.0641 -1.0134
17070SOL     OW62863   6.363   3.789   0.515 -0.2041  0.1754 -0.1562
17070SOL    HW162864   6.304   3.722   0.561  0.5571 -1.2760 -1.2421
17070SOL    HW262865   6.384   3.757   0.423  0.2356  1.8951 -0.6745
17071SOL     OW62866   6.146   3.150   1.492  0.8970  0.1396 -0.1251
17071SOL    HW162867   6.053   3.180   1.472  0.9573 -0.9526 -2.1376
17071SOL    HW262868   6.144   3.060   1.536  0.9489  0.8330  1.3332
17072SOL     OW62869   9.305   2.723   2.843 -0.5234  0.4735  0.3122
17072SOL    HW162870   9.321   2.796   2.909 -0.2816  0.8647 -0.1721
17072SOL    HW262871   9.249   2.651   2.884 -0.8261  0.9700  0.7648
17073SOL     OW62872   4.314   6.792   4.751  0.3118 -0.1509  1.0453
17073SOL    HW162873   4.378   6.718   4.770 -0.6410 -1.5186 -0.9659
17073SOL    HW262874   4.365   6.877   4.737  1.6135 -0.9975  0.5883
17074SOL     OW62875   8.561   3.302   0.749 -0.2148  0.4680  0.1914
17074SOL    HW162876   8.471   3.337   0.775 -0.7150  0.8836 -1.9965
17074SOL    HW262877   8.632   3.363   0.786 -0.8532  0.6884  1.0815
17075SOL     OW62878   3.616   6.672   3.238 -0.1497 -0.0221  0.1119
17075SOL    HW162879   3.666   6.754   3.212 -1.6450  0.8483 -0.0276
17075SOL    HW262880   3.558   6.691   3.317 -0.1919 -1.0445  0.3334
17076SOL     OW62881   4.670   4.772   0.213 -0.3268 -0.1020 -0.4196
17076SOL    HW162882   4.724   4.789   0.295  0.0854 -0.2937 -0.6481
17076SOL    HW262883   4.656   4.857   0.163 -0.5332  0.0045 -0.1790
17077SOL     OW62884   8.958   8.862   3.922  0.0819 -0.2334  0.1818
17077SOL    HW162885   8.995   8.789   3.865 -1.1376 -1.2436  0.6551
17077SOL    HW262886   8.859   8.850   3.931 -0.0789  1.2595  0.5816
17078SOL     OW62887   8.073   3.446   2.496 -0.4076  0.2888  0.0833
17078SOL    HW162888   8.149   3.495   2.539 -0.4638  0.4120  0.0422
17078SOL    HW262889   8.106   3.395   2.417 -0.4000  0.4865 -0.0421
17079SOL     OW62890   9.374   3.675   6.523 -0.1259 -0.3404  0.6641
17079SOL    HW162891   9.361   3.774   6.534  0.0176 -0.3081  0.5492
17079SOL    HW262892   9.411   3.637   6.608  1.3597 -0.0258  0.1654
17080SOL     OW62893   2.271   5.509   2.641 -0.3643 -0.2104  0.7272
17080SOL    HW162894   2.269   5.594   2.694  0.0427 -0.2847  0.8672
17080SOL    HW262895   2.321   5.525   2.555  0.0118 -0.3952  0.9104
17081SOL     OW62896   7.548   0.108   2.481  0.5843 -0.7459  0.9628
17081SOL    HW162897   7.557   0.197   2.527  1.5380 -0.0788 -0.4308
17081SOL    HW262898   7.611   0.043   2.522  3.3666  0.5796 -1.0051
17082SOL     OW62899   9.584   2.745   2.262 -0.4242  0.3219 -0.8069
17082SOL    HW162900   9.644   2.752   2.341 -1.4118 -0.3366  0.0201
17082SOL    HW262901   9.492   2.777   2.287 -0.8773 -0.4111 -1.5217
17083SOL     OW62902   3.952   6.059   2.754  0.0005 -0.3356 -0.4500
17083SOL    HW162903   4.042   6.072   2.714 -0.4647 -0.0084 -1.4038
17083SOL    HW262904   3.905   6.147   2.762 -0.0272 -0.4321  0.5481
17084SOL     OW62905   9.529   5.811   6.018 -0.4550  0.2840 -0.1781
17084SOL    HW162906   9.624   5.780   6.023 -1.0221 -1.7162 -1.2089
17084SOL    HW262907   9.503   5.855   6.104  0.9539 -0.4949  0.6523
17085SOL     OW62908   3.376   0.417   2.494  0.0371 -0.6720  0.6118
17085SOL    HW162909   3.291   0.456   2.528 -1.3660 -1.9454 -1.3314
17085SOL    HW262910   3.432   0.386   2.571 -1.0677  0.5126  1.9127
17086SOL     OW62911   0.708   9.514   2.960  0.2421  0.3759  0.0070
17086SOL    HW162912   0.761   9.440   3.001 -0.1265  0.2974  0.3422
17086SOL    HW262913   0.770   9.577   2.913  0.5983  0.0938  0.0981
17087SOL     OW62914   4.635   4.858   1.071  0.0378 -0.2315 -0.2019
17087SOL    HW162915   4.735   4.853   1.072  0.0336 -0.4154 -0.8728
17087SOL    HW262916   4.597   4.767   1.087 -0.0234 -0.1309  0.2291
17088SOL     OW62917   9.064   7.890   3.305 -0.1247  0.0358 -0.0824
17088SOL    HW162918   9.160   7.870   3.285 -0.7977 -1.1169 -2.3253
17088SOL    HW262919   9.009   7.807   3.291 -1.3155  0.3947  2.2472
17089SOL     OW62920   1.258   3.897   0.873  0.8561 -0.3291  0.0707
17089SOL    HW162921   1.222   3.863   0.786 -1.1755  0.0431  0.7387
17089SOL    HW262922   1.355   3.874   0.880  1.2447  0.3482 -2.6284
17090SOL     OW62923   0.992   5.054   0.937 -0.7588  0.0770  0.2819
17090SOL    HW162924   0.973   4.975   0.879 -2.9589  0.0033  1.0236
17090SOL    HW262925   0.947   5.135   0.899 -0.6789  0.4148  0.8972
17091SOL     OW62926   0.212   4.831   6.912  0.5571  0.5640  0.4773
17091SOL    HW162927   0.120   4.830   6.949  0.9254  1.4438  1.4699
17091SOL    HW262928   0.266   4.900   6.961  1.8323 -0.1925  0.1492
17092SOL     OW62929   6.364   2.062   6.037  0.3044  0.0672  0.3219
17092SOL    HW162930   6.321   2.152   6.025 -0.9042 -0.5426 -0.0754
17092SOL    HW262931   6.459   2.074   6.065 -0.1375  1.4708  1.3361
17093SOL     OW62932   3.488   4.001   0.834 -0.1306  0.1332 -0.0514
17093SOL    HW162933   3.487   3.916   0.780  0.0570  0.4603 -0.5764
17093SOL    HW262934   3.566   4.000   0.896  1.1691  0.8696 -1.6186
17094SOL     OW62935   4.691   5.035   6.880 -0.0006  0.1701 -0.1929
17094SOL    HW162936   4.720   4.966   6.946  0.1280  0.0932 -0.3280
17094SOL    HW262937   4.747   5.117   6.890  1.1677 -0.4729 -1.3564
17095SOL     OW62938   3.602   8.582   5.828  0.0168  0.1211  0.1129
17095SOL    HW162939   3.537   8.567   5.754  0.9045 -1.2636 -0.4035
17095SOL    HW262940   3.591   8.675   5.864  0.0707  1.0799 -2.2336
17096SOL     OW62941   8.589   4.460   0.897 -1.0033  0.0431 -0.5465
17096SOL    HW162942   8.658   4.479   0.827 -2.1681 -1.4276 -2.1088
17096SOL    HW262943   8.499   4.483   0.862 -1.5074  0.2016  0.8352
17097SOL     OW62944   2.626   1.449   5.370  0.3880  0.3187 -0.4095
17097SOL    HW162945   2.576   1.363   5.368  1.4590 -0.3407  0.2721
17097SOL    HW262946   2.635   1.485   5.277 -2.0614  0.8937 -0.4440
17098SOL     OW62947   4.294   9.437   7.449 -0.2773  0.4782  0.9342
17098SOL    HW162948   4.385   9.476   7.456  0.2482 -0.0070 -2.5676
17098SOL    HW262949   4.285   9.362   7.516  1.1564  1.8136  2.6671
17099SOL     OW62950   3.209   8.655   4.105  0.4335 -0.0471 -0.2648
17099SOL    HW162951   3.247   8.701   4.025 -0.6709 -0.2981 -0.9291
17099SOL    HW262952   3.167   8.569   4.078 -0.1053 -0.0484  0.5575
17100SOL     OW62953   3.992   1.739   5.414  0.2679  0.4504  0.0632
17100SOL    HW162954   4.004   1.755   5.512 -0.8542 -0.7707  0.4082
17100SOL    HW262955   3.902   1.773   5.385  0.2849  0.1044 -0.3924
17101SOL     OW62956   0.712   6.153   2.874 -0.5921 -0.2717 -0.1941
17101SOL    HW162957   0.771   6.221   2.917 -0.9871  0.4213 -0.7509
17101SOL    HW262958   0.739   6.140   2.779 -0.5597 -0.8488 -0.1068
17102SOL     OW62959   6.870   8.735   4.529 -0.5218 -0.3201 -0.1736
17102SOL    HW162960   6.866   8.660   4.595 -3.0241  0.1639  0.2776
17102SOL    HW262961   6.822   8.814   4.566  2.6527  1.7736 -0.3626
17103SOL     OW62962   3.838   9.511   5.385 -0.3604  0.6041  0.0493
17103SOL    HW162963   3.926   9.467   5.400 -0.7495 -0.4074 -0.5803
17103SOL    HW262964   3.853   9.604   5.353  0.4818  0.5574  0.2868
17104SOL     OW62965   6.106   1.839   0.497  0.0894 -0.2754 -0.4454
17104SOL    HW162966   6.164   1.758   0.483  0.1018 -0.2121 -0.7596
17104SOL    HW262967   6.162   1.921   0.486  0.3078 -0.2361  0.9030
17105SOL     OW62968   3.406   2.904   6.171  0.7618 -0.9739 -0.0496
17105SOL    HW162969   3.486   2.935   6.120  1.1416 -1.2770  0.3633
17105SOL    HW262970   3.381   2.812   6.141 -0.1059 -0.4551 -0.9674
17106SOL     OW62971   1.348   9.829   0.024  0.0643 -0.9204  0.1633
17106SOL    HW162972   1.337   9.735  -0.006  1.9077 -0.4495 -2.2071
17106SOL    HW262973   1.444   9.856   0.014 -0.4493  1.2246  0.7138
17107SOL     OW62974   2.638   8.280   5.396  0.4975  0.0071 -0.7403
17107SOL    HW162975   2.667   8.194   5.437  1.4269  0.0561 -1.2778
17107SOL    HW262976   2.698   8.354   5.426  1.1014  0.0688 -2.0594
17108SOL     OW62977   9.333   6.724   5.267  0.2236  0.4302 -0.3261
17108SOL    HW162978   9.392   6.682   5.337  0.5909  1.4350 -0.0201
17108SOL    HW262979   9.254   6.767   5.311  0.3116  0.8234 -0.5473
17109SOL     OW62980   8.308   3.879   6.716 -0.3167  0.0323 -0.2649
17109SOL    HW162981   8.208   3.883   6.707 -0.2770  0.0549 -0.7285
17109SOL    HW262982   8.341   3.967   6.751 -0.3456  0.4645 -1.2914
17110SOL     OW62983   6.769   9.387   4.625  0.2983  0.5793  0.1054
17110SOL    HW162984   6.773   9.386   4.525  1.7435  0.9142  0.1471
17110SOL    HW262985   6.819   9.308   4.661 -1.5908 -0.4569  0.5486
17111SOL     OW62986   8.846   9.798   7.880 -0.0323  0.3758  0.7683
17111SOL    HW162987   8.784   9.770   7.953 -0.7811  0.0115  0.0065
17111SOL    HW262988   8.795   9.811   7.795  0.6857  1.7213  0.5264
17112SOL     OW62989   9.706   3.704   7.450  0.1879 -0.1733  0.2775
17112SOL    HW162990   9.717   3.674   7.355  0.0277  1.7772 -0.3805
17112SOL    HW262991   9.626   3.660   7.490 -1.1430  0.7833 -1.2589
17113SOL     OW62992   9.828   8.891   1.759  0.0163  0.4427  0.2770
17113SOL    HW162993   9.779   8.816   1.715  0.4246  0.8637 -0.9227
17113SOL    HW262994   9.768   8.933   1.828 -0.3454 -0.7252  0.6880
17114SOL     OW62995   0.374   8.731   4.161 -0.1752  0.2655  0.3512
17114SOL    HW162996   0.314   8.801   4.124  1.9241  1.7212 -0.3599
17114SOL    HW262997   0.410   8.762   4.249  0.3998 -0.1286  0.2521
17115SOL     OW62998   3.347   7.901   4.017 -0.0825 -0.3836  0.2058
17115SOL    HW162999   3.396   7.824   4.059  1.2586  0.7210  0.7055
17115SOL    HW263000   3.354   7.981   4.077  2.3620  1.3819 -2.3394
17116SOL     OW63001   4.556   9.908   4.989  0.2530 -0.1939  0.1366
17116SOL    HW163002   4.599   9.829   4.946  1.7191  0.4116  0.4426
17116SOL    HW263003   4.625   9.961   5.038 -0.5926  1.6522 -0.6307
17117SOL     OW63004   1.406   3.002   0.318  0.0929 -0.3432 -0.7903
17117SOL    HW163005   1.401   2.912   0.275  1.5641 -0.5555 -0.5421
17117SOL    HW263006   1.468   2.998   0.396 -0.8976  0.5583  0.0614
17118SOL     OW63007   5.450   7.953   3.309  0.2657 -0.7031 -0.3353
17118SOL    HW163008   5.453   7.952   3.408  0.2865 -0.5077 -0.3325
17118SOL    HW263009   5.512   8.023   3.274  0.6702 -1.1505 -0.5071
17119SOL     OW63010   3.983   0.708   1.767  0.7894  0.1323  0.3313
17119SOL    HW163011   3.951   0.767   1.693  1.3011 -0.9666 -0.7653
17119SOL    HW263012   3.922   0.629   1.776  1.7457 -0.6682 -0.1194
17120SOL     OW63013   7.700   2.603   4.115 -0.3917 -0.2351 -0.1201
17120SOL    HW163014   7.752   2.680   4.079 -1.0398 -0.6643 -2.0466
17120SOL    HW263015   7.759   2.547   4.174 -0.0950  2.0311  1.7869
17121SOL     OW63016   5.808   9.418   3.833  0.0525  0.0794  0.2722
17121SOL    HW163017   5.808   9.459   3.742 -2.1155 -2.4587 -0.9511
17121SOL    HW263018   5.810   9.318   3.825  1.8844 -0.1941  3.0773
17122SOL     OW63019   7.942   8.523   3.430 -0.2056  0.7303  0.5399
17122SOL    HW163020   7.871   8.455   3.450  0.8851 -0.9542 -1.1447
17122SOL    HW263021   7.987   8.550   3.514 -0.3567 -0.9761  1.1942
17123SOL     OW63022   2.022   0.668   3.468 -0.2239  0.7426  0.1452
17123SOL    HW163023   2.003   0.749   3.523 -1.3820  0.9308 -0.5047
17123SOL    HW263024   1.966   0.671   3.385  0.9040  0.0576 -0.6400
17124SOL     OW63025   8.200   0.430   4.554 -0.1042  0.3039  0.3976
17124SOL    HW163026   8.138   0.458   4.627 -0.5555 -0.9974  0.5114
17124SOL    HW263027   8.288   0.478   4.566  0.4314 -1.1841  2.8081
17125SOL     OW63028   9.876   8.733   6.805  0.1038 -0.4147 -0.2351
17125SOL    HW163029   9.950   8.666   6.800 -0.8415 -1.4613 -0.3578
17125SOL    HW263030   9.801   8.696   6.859 -1.0781 -0.1020 -1.6279
17126SOL     OW63031   2.705   7.954   3.330 -0.2497  0.3072  0.1424
17126SOL    HW163032   2.779   8.017   3.350  1.8586 -1.8250 -0.7663
17126SOL    HW263033   2.684   7.956   3.232 -0.7675  0.2253  0.2472
17127SOL     OW63034   8.187   2.694   5.214  0.7435 -0.5297 -0.6292
17127SOL    HW163035   8.107   2.726   5.265  1.1824  0.0612 -0.3162
17127SOL    HW263036   8.209   2.759   5.141  1.4001 -0.3082 -0.2370
17128SOL     OW63037   7.226   5.491   0.836  0.9385 -0.0412 -0.0651
17128SOL    HW163038   7.301   5.556   0.845  1.1139 -0.2773  0.1721
17128SOL    HW263039   7.139   5.541   0.844  1.0702  0.1899 -0.0510
17129SOL     OW63040   2.454   3.963   2.545 -0.3078 -0.1714 -0.4829
17129SOL    HW163041   2.446   3.926   2.637  0.8303 -0.1432 -0.3620
17129SOL    HW263042   2.486   3.891   2.483 -3.8944 -1.0082 -1.4755
17130SOL     OW63043   0.032   7.640   1.983  0.1780 -0.0797 -0.4395
17130SOL    HW163044   0.112   7.582   1.968 -0.0644 -0.7503  0.7590
17130SOL    HW263045  -0.050   7.591   1.954  0.1363  0.3250 -0.9980
17131SOL     OW63046   9.734   6.841   0.322  0.6305 -0.4351  0.5508
17131SOL    HW163047   9.814   6.833   0.263  0.9471 -0.8396  1.0304
17131SOL    HW263048   9.671   6.766   0.304  0.6892 -0.5146  0.6743
17132SOL     OW63049   1.506   4.839   1.087 -0.3434  0.2447  0.4140
17132SOL    HW163050   1.565   4.767   1.125  0.5275  1.3617  1.2080
17132SOL    HW263051   1.415   4.802   1.069  0.6913 -1.6267 -1.1928
17133SOL     OW63052   4.661   6.707   2.543 -0.3476  0.0831  0.2385
17133SOL    HW163053   4.716   6.628   2.571 -1.9191 -0.5456  1.5978
17133SOL    HW263054   4.607   6.683   2.462 -0.3449 -0.0241  0.2690
17134SOL     OW63055   3.071   1.604   6.207  0.7134 -0.8265 -0.8344
17134SOL    HW163056   3.067   1.701   6.231 -0.4354 -0.9583 -0.4640
17134SOL    HW263057   3.038   1.591   6.114 -0.8589 -1.0695 -0.2556
17135SOL     OW63058   0.844   0.192   7.630  0.3531 -0.1779  0.3834
17135SOL    HW163059   0.915   0.251   7.593 -0.7647  0.3142 -1.0105
17135SOL    HW263060   0.763   0.246   7.652 -1.0660 -1.2892 -1.8981
17136SOL     OW63061   3.914   9.172   3.502  0.3422 -0.3575 -0.1817
17136SOL    HW163062   3.982   9.240   3.474  0.6440 -0.3194  0.6062
17136SOL    HW263063   3.838   9.171   3.437 -0.7193  2.2762  0.9378
17137SOL     OW63064   1.372   6.088   5.522  0.3893  0.2611 -0.2199
17137SOL    HW163065   1.331   6.156   5.460 -0.6972  0.3703  0.6038
17137SOL    HW263066   1.381   6.000   5.474 -1.1749  0.1335 -0.2908
17138SOL     OW63067   4.968   9.057   0.846  0.0677 -0.1420  0.4858
17138SOL    HW163068   5.029   9.094   0.917  0.9748 -0.9835  0.1676
17138SOL    HW263069   4.896   9.123   0.826  1.4393  1.2881  0.1714
17139SOL     OW63070   1.347   0.816   6.299  0.0930 -0.5416  0.3407
17139SOL    HW163071   1.378   0.815   6.204  2.4380 -0.4385  1.0596
17139SOL    HW263072   1.336   0.910   6.330 -1.4950 -0.5823 -0.0644
17140SOL     OW63073   4.698   1.592   6.096 -0.4882 -0.5160  0.1281
17140SOL    HW163074   4.692   1.666   6.163 -0.4510  0.9082 -1.4213
17140SOL    HW263075   4.704   1.630   6.004 -4.0658 -2.4514 -1.0205
17141SOL     OW63076   7.947   7.168   6.344 -0.4107  0.3259  0.2443
17141SOL    HW163077   7.944   7.204   6.251 -0.8319  1.0342  0.5227
17141SOL    HW263078   8.041   7.149   6.370 -0.3137 -0.0944 -0.4073
17142SOL     OW63079   6.852   4.432   0.510  0.1822  0.3779  0.3980
17142SOL    HW163080   6.925   4.457   0.574 -0.9434  3.2926  0.6234
17142SOL    HW263081   6.781   4.381   0.559  0.9178 -0.3783  0.6984
17143SOL     OW63082   3.073   3.583   7.868 -0.6373  0.2320 -0.0173
17143SOL    HW163083   2.993   3.567   7.925  0.0347  0.4453  1.0027
17143SOL    HW263084   3.115   3.495   7.845 -0.4391  0.1831  0.5135
17144SOL     OW63085   1.743   1.814   4.666  0.3825  0.2871 -0.8000
17144SOL    HW163086   1.643   1.807   4.666  0.4401 -1.0508 -3.1277
17144SOL    HW263087   1.781   1.752   4.735 -0.2974 -0.8994 -1.4909
17145SOL     OW63088   2.681   5.610   1.939 -0.0394 -0.3923  0.1374
17145SOL    HW163089   2.681   5.705   1.906  2.6210 -0.5617 -0.4199
17145SOL    HW263090   2.743   5.602   2.017  0.6773 -1.9067 -0.5742
17146SOL     OW63091   0.248   7.630   6.786 -0.1103 -0.0732  0.3932
17146SOL    HW163092   0.231   7.559   6.717  0.2746  0.1410  0.0733
17146SOL    HW263093   0.333   7.609   6.835 -0.2849 -0.1253  0.6736
17147SOL     OW63094   3.879   5.038   2.348 -0.2069  1.4006 -0.2348
17147SOL    HW163095   3.849   4.954   2.394  0.9732  1.7936  1.2834
17147SOL    HW263096   3.800   5.085   2.309 -1.0927  0.5219  0.4816
17148SOL     OW63097   9.164   1.045   6.577 -0.0586 -0.1287  0.3299
17148SOL    HW163098   9.211   1.129   6.550  0.9733 -1.5157 -2.2706
17148SOL    HW263099   9.066   1.056   6.563  0.0091  0.8217  0.5438
17149SOL     OW63100   3.890   7.028   2.104  0.3578  0.5880 -0.2035
17149SOL    HW163101   3.844   7.081   2.175 -1.7926 -1.8793  0.3203
17149SOL    HW263102   3.870   6.931   2.116 -0.9621  0.1526 -4.7888
17150SOL     OW63103   8.395   5.064   5.100 -0.2742 -0.0135 -0.0673
17150SOL    HW163104   8.485   5.035   5.068 -0.1785 -0.5660  0.6917
17150SOL    HW263105   8.401   5.159   5.133  0.1111 -0.1645  0.3033
17151SOL     OW63106   4.926   5.367   3.442  0.0909 -0.1011  0.7279
17151SOL    HW163107   4.949   5.398   3.534 -1.6364  2.6438  0.2848
17151SOL    HW263108   4.902   5.445   3.385 -3.5465 -2.1528 -0.7245
17152SOL     OW63109   6.958   2.125   6.191  0.2266  0.3472  0.7085
17152SOL    HW163110   6.862   2.131   6.216 -0.1816  0.9006 -0.9957
17152SOL    HW263111   7.009   2.196   6.239 -0.7811  2.2884 -1.0627
17153SOL     OW63112   0.199   9.131   0.470 -0.4926 -0.0108  0.0472
17153SOL    HW163113   0.259   9.197   0.426 -0.4122  1.2527  2.0158
17153SOL    HW263114   0.104   9.150   0.445 -0.4943  1.0400  0.8075
17154SOL     OW63115   8.114   8.476   6.910  0.1613  0.3144 -0.2254
17154SOL    HW163116   8.057   8.435   6.981  1.7504  1.3079  1.6639
17154SOL    HW263117   8.076   8.454   6.820 -3.4028  1.2411  0.9543
17155SOL     OW63118   5.053   0.186   7.430  0.5205 -0.4619 -0.5275
17155SOL    HW163119   5.062   0.269   7.374  1.8789 -0.7856 -0.7919
17155SOL    HW263120   5.142   0.143   7.441  0.0009 -1.2957  0.5404
17156SOL     OW63121   8.372   9.120   3.498  0.0092 -0.2082  0.3606
17156SOL    HW163122   8.295   9.162   3.450 -0.4955 -1.2353  0.2579
17156SOL    HW263123   8.457   9.161   3.467 -0.4728  0.6903  0.2144
17157SOL     OW63124   2.995   5.006   2.084  0.4991  0.3981 -0.4860
17157SOL    HW163125   2.968   4.946   2.159  1.0704  0.4331 -0.2538
17157SOL    HW263126   2.969   4.963   1.997 -0.8412  0.7009 -0.2526
17158SOL     OW63127   2.223   9.959   0.515 -0.2794  0.1958 -0.0284
17158SOL    HW163128   2.263   9.867   0.520 -0.7337 -0.1311 -1.8960
17158SOL    HW263129   2.175   9.980   0.600  1.4917 -0.5034  1.1873
17159SOL     OW63130   7.451   1.769   3.479 -0.0177  0.5647 -0.4456
17159SOL    HW163131   7.445   1.864   3.510  0.2335  0.7293 -0.8899
17159SOL    HW263132   7.492   1.766   3.387 -1.0531  0.1052 -0.8956
17160SOL     OW63133   2.227   3.661   0.802  0.1017 -0.5864 -0.0558
17160SOL    HW163134   2.261   3.716   0.878  0.3751 -0.4642 -0.2642
17160SOL    HW263135   2.283   3.679   0.721  0.0447 -0.9974 -0.1851
17161SOL     OW63136   6.825   7.882   2.283 -0.2813 -0.3747 -0.0163
17161SOL    HW163137   6.825   7.884   2.383  1.9240 -2.6623  0.0763
17161SOL    HW263138   6.912   7.919   2.249 -0.5724 -0.6141 -1.0379
17162SOL     OW63139   1.935   7.750   0.041  0.3657 -0.2272 -0.2713
17162SOL    HW163140   1.861   7.781  -0.018 -0.1431 -0.4625  0.2369
17162SOL    HW263141   1.899   7.685   0.108  0.8250  0.4453  0.6471
17163SOL     OW63142   3.236   1.699   3.739  0.3667 -0.9674  0.2837
17163SOL    HW163143   3.218   1.647   3.655  2.0932  0.0985 -0.7838
17163SOL    HW263144   3.322   1.668   3.780  1.3888  0.9727 -0.3397
17164SOL     OW63145   1.761   7.678   6.041  0.5889  0.6774  0.0180
17164SOL    HW163146   1.712   7.628   6.113  1.8947 -0.3947  0.1999
17164SOL    HW263147   1.845   7.717   6.080  1.1989  0.2606 -0.8593
17165SOL     OW63148   1.059   6.305   3.096 -0.0159 -0.6712  0.1818
17165SOL    HW163149   1.156   6.302   3.122  0.0235  0.7098  0.2233
17165SOL    HW263150   1.048   6.259   3.008  0.5382 -1.5587  0.5601
17166SOL     OW63151   0.452   5.259   6.590 -0.0054 -0.6447 -0.1107
17166SOL    HW163152   0.363   5.304   6.575 -1.1975 -2.8100  0.3200
17166SOL    HW263153   0.524   5.328   6.589 -1.2985  0.7911 -3.8032
17167SOL     OW63154   6.927   7.389   2.413  0.1703  0.3834  0.0335
17167SOL    HW163155   6.897   7.446   2.336 -2.6077  0.5756  1.2045
17167SOL    HW263156   6.937   7.295   2.382 -1.5904  0.3315 -0.4464
17168SOL     OW63157   3.122   0.921   0.823  0.3046  0.6483  0.0863
17168SOL    HW163158   3.089   0.863   0.898  0.3737 -1.2623 -1.3142
17168SOL    HW263159   3.218   0.943   0.839  0.0277  1.1505  1.0995
17169SOL     OW63160   3.924   1.112   3.049 -0.0912  0.2273  0.8106
17169SOL    HW163161   3.911   1.055   2.968 -1.9024  0.3648  0.9839
17169SOL    HW263162   3.921   1.208   3.024  2.2868  0.2749  0.6214
17170SOL     OW63163   6.574   0.882   2.684  0.4727  0.0959  0.1300
17170SOL    HW163164   6.652   0.887   2.746  0.1271 -1.3067  0.7008
17170SOL    HW263165   6.582   0.953   2.614  1.3544  1.0828  1.2147
17171SOL     OW63166   0.308   9.210   2.897 -0.0112  0.2814 -0.7471
17171SOL    HW163167   0.262   9.221   2.809 -3.4164 -0.2685  0.8775
17171SOL    HW263168   0.318   9.113   2.918  0.0926  0.4106 -0.1814
17172SOL     OW63169   8.055   6.206   6.305 -0.0967  0.1764 -0.1954
17172SOL    HW163170   8.061   6.299   6.269 -0.4863  0.0685 -0.5546
17172SOL    HW263171   8.146   6.172   6.328  0.0801  0.5205 -0.3866
17173SOL     OW63172   3.008   6.978   9.886  0.0330 -0.3831  0.2906
17173SOL    HW163173   3.104   7.003   9.872  0.1517 -0.9409  0.0877
17173SOL    HW263174   3.002   6.880   9.908 -0.4824 -0.3301  0.3927
17174SOL     OW63175   4.144   0.046   6.069 -0.0334 -0.1142  0.4998
17174SOL    HW163176   4.076   0.051   6.142  1.0093 -0.2938  1.4905
17174SOL    HW263177   4.218  -0.016   6.096  0.3515 -0.2018 -0.7179
17175SOL     OW63178   7.452   9.002   3.276 -0.6684 -0.0173  0.2284
17175SOL    HW163179   7.399   8.946   3.339  2.3151 -2.9183  0.3051
17175SOL    HW263180   7.429   8.977   3.182  0.9592 -1.7195  0.2651
17176SOL     OW63181   4.940   5.726   0.641 -0.3763  0.9810 -0.5117
17176SOL    HW163182   4.885   5.672   0.578  0.0668  0.7418 -0.6925
17176SOL    HW263183   5.022   5.760   0.595  0.5169 -0.1135  0.2110
17177SOL     OW63184   3.252   5.256   7.309  0.1139  0.4218  0.0683
17177SOL    HW163185   3.176   5.280   7.369  0.1274 -0.3651  0.4157
17177SOL    HW263186   3.255   5.156   7.298  1.0629  0.4497  0.0232
17178SOL     OW63187   1.631   1.061   4.999  0.1048 -0.0080  0.5036
17178SOL    HW163188   1.717   1.010   5.001  1.1193  1.6757  0.7706
17178SOL    HW263189   1.640   1.139   4.937 -1.1184  0.3652  0.7910
17179SOL     OW63190   6.800   1.337   1.570 -0.0068 -0.0131 -0.3181
17179SOL    HW163191   6.746   1.334   1.654  0.1153 -0.5277 -0.2563
17179SOL    HW263192   6.738   1.335   1.491 -0.0758 -0.7624 -0.2486
17180SOL     OW63193   4.544   9.068   6.749 -0.0610 -0.1795  0.0361
17180SOL    HW163194   4.601   9.054   6.668 -0.0896  0.9814 -0.1852
17180SOL    HW263195   4.601   9.094   6.826 -0.0481 -1.1684  0.3740
17181SOL     OW63196   0.508   7.643   1.245 -0.3569 -0.0021  0.1477
17181SOL    HW163197   0.509   7.646   1.145 -0.6790 -2.3018  0.0372
17181SOL    HW263198   0.416   7.621   1.277 -0.3661  1.2254  0.9802
17182SOL     OW63199   7.876   6.271   2.873  0.3406 -0.0732  0.1317
17182SOL    HW163200   7.830   6.265   2.961 -0.3108  0.2587 -0.1840
17182SOL    HW263201   7.864   6.362   2.835  1.2513  0.0134  0.0399
17183SOL     OW63202   6.621   5.370   2.688 -0.7321 -0.0292 -0.6954
17183SOL    HW163203   6.648   5.407   2.599 -0.7063 -1.2219 -1.2006
17183SOL    HW263204   6.614   5.270   2.681 -0.7105 -0.1316  0.6480
17184SOL     OW63205   1.152   8.015   2.411  0.2793 -0.3150 -0.2691
17184SOL    HW163206   1.209   8.083   2.456  0.6425 -0.3939 -0.6032
17184SOL    HW263207   1.196   7.985   2.326  0.0188 -0.8017 -0.2376
17185SOL     OW63208   9.218   4.551   4.212  0.2210 -0.6327  0.4492
17185SOL    HW163209   9.287   4.607   4.258  1.0250 -1.1183 -0.1659
17185SOL    HW263210   9.129   4.570   4.252  0.5393  0.7999  0.5139
17186SOL     OW63211   1.842   5.535   6.794  0.3609 -0.4956 -0.0757
17186SOL    HW163212   1.836   5.454   6.852 -0.8823 -0.5213 -0.2244
17186SOL    HW263213   1.826   5.509   6.699  0.3176 -0.1358 -0.1666
17187SOL     OW63214   8.810   3.444   3.610  0.4670 -0.2111 -0.3723
17187SOL    HW163215   8.838   3.382   3.536  1.2513  0.6790 -0.8300
17187SOL    HW263216   8.761   3.522   3.571  0.0367 -0.2262  0.1410
17188SOL     OW63217   8.296   2.109   1.010  0.4994 -0.3034 -0.2491
17188SOL    HW163218   8.311   2.181   0.942 -0.8575  0.6483  0.4286
17188SOL    HW263219   8.366   2.116   1.081  0.6161  0.0915 -0.3987
17189SOL     OW63220   1.874   2.130   3.802 -0.0564  0.2052  0.0343
17189SOL    HW163221   1.826   2.199   3.857 -0.7853 -0.8506  0.7456
17189SOL    HW263222   1.945   2.086   3.859 -0.8211 -0.9025  0.1500
17190SOL     OW63223   2.050   1.881   2.703  0.2359 -0.3519 -0.2677
17190SOL    HW163224   1.998   1.931   2.772  1.4091 -0.7143  0.9068
17190SOL    HW263225   2.050   1.932   2.617  1.0735  1.4848  0.7940
17191SOL     OW63226   6.275   0.663   3.130 -0.3896  0.2012  0.2170
17191SOL    HW163227   6.223   0.745   3.107 -0.7142 -0.0350  0.1085
17191SOL    HW263228   6.369   0.674   3.098 -0.3092  0.7179  0.6092
17192SOL     OW63229   5.848   7.699   4.496 -0.0668 -0.0791 -0.6238
17192SOL    HW163230   5.826   7.730   4.403  0.9702  1.3249 -0.4091
17192SOL    HW263231   5.837   7.599   4.500  1.1774 -0.3351 -2.6359
17193SOL     OW63232   1.549   3.960   2.087  0.2285 -0.0385 -0.4347
17193SOL    HW163233   1.557   4.029   2.015  0.6192  1.3828  0.9301
17193SOL    HW263234   1.453   3.948   2.112  0.4236  2.9383  2.0328
17194SOL     OW63235   1.123   9.096   7.237  0.1263  0.2550  0.2110
17194SOL    HW163236   1.145   9.124   7.330  3.0381 -0.7363 -0.1278
17194SOL    HW263237   1.100   8.999   7.235  0.3527  0.2060 -0.1415
17195SOL     OW63238   9.363   3.143   6.583  0.4407  0.2523  0.1288
17195SOL    HW163239   9.305   3.065   6.607 -0.9496  0.9311 -1.0174
17195SOL    HW263240   9.329   3.225   6.627 -0.0534  0.8330 -1.2965
17196SOL     OW63241   0.377   4.822   7.589 -0.5225  0.0356 -0.6856
17196SOL    HW163242   0.365   4.796   7.494  3.7424 -4.6334 -0.1669
17196SOL    HW263243   0.471   4.854   7.604 -0.6670 -0.7207  2.2175
17197SOL     OW63244   4.752   8.345   2.678  0.4987  0.2400  0.0391
17197SOL    HW163245   4.700   8.263   2.701  0.8477  0.3061  1.0701
17197SOL    HW263246   4.706   8.395   2.604  0.1858 -0.7762 -0.4509
17198SOL     OW63247   6.371   9.633   6.774  0.5119 -0.3351 -0.2122
17198SOL    HW163248   6.460   9.602   6.742  0.2821  0.2439 -1.4399
17198SOL    HW263249   6.338   9.572   6.845  1.8854 -0.5529  0.2519
17199SOL     OW63250   9.895   7.615   2.531  0.3704  0.2661  0.6711
17199SOL    HW163251   9.860   7.574   2.615 -0.0460  0.0744  0.4067
17199SOL    HW263252   9.929   7.544   2.470 -0.3722  0.2961  0.2021
17200SOL     OW63253   9.962   7.297   6.347  0.1173  0.5303  0.1093
17200SOL    HW163254  10.029   7.361   6.310  0.9945  0.6577  1.8847
17200SOL    HW263255   9.902   7.344   6.412  0.4691 -0.3280  1.0761
17201SOL     OW63256   7.765   5.486   6.973  0.6673 -0.7172 -0.2250
17201SOL    HW163257   7.715   5.399   6.979  0.2333 -0.4815 -0.4241
17201SOL    HW263258   7.862   5.469   6.987  0.4253 -1.0365  1.1045
17202SOL     OW63259   7.666   0.882   0.682  0.4965  0.8365 -0.1465
17202SOL    HW163260   7.752   0.834   0.697  0.7779  0.9814 -1.3016
17202SOL    HW263261   7.614   0.836   0.610 -0.0914  1.1518  0.0729
17203SOL     OW63262   6.019   0.280   3.414 -0.2326 -0.0474  0.5731
17203SOL    HW163263   5.940   0.299   3.473 -0.9340  0.3800 -0.4865
17203SOL    HW263264   6.073   0.363   3.402  1.0046 -0.5958  2.1803
17204SOL     OW63265   2.924   9.755   2.568 -0.2260 -0.2878  0.1378
17204SOL    HW163266   2.825   9.736   2.572 -0.1845 -0.6077 -0.2781
17204SOL    HW263267   2.970   9.677   2.525 -0.0410  0.7484 -1.5468
17205SOL     OW63268   9.104   1.128   1.072 -0.0095 -0.1348  0.3852
17205SOL    HW163269   9.039   1.084   1.010  1.9264  0.0623 -1.8653
17205SOL    HW263270   9.069   1.218   1.099 -0.5496  0.0995 -1.0292
17206SOL     OW63271   8.512   4.304   2.769  0.1453  0.1583  0.1064
17206SOL    HW163272   8.414   4.294   2.787  0.3606  0.1896  1.2953
17206SOL    HW263273   8.554   4.213   2.761  0.6607  0.0857  3.1398
17207SOL     OW63274   8.923   7.357   4.236 -0.0433  0.0766  0.7437
17207SOL    HW163275   8.984   7.434   4.253 -0.1940  0.7449 -1.5848
17207SOL    HW263276   8.963   7.273   4.272  0.9543  0.9537  1.6858
17208SOL     OW63277   2.464   9.663   2.801  0.1552 -0.3920 -0.0368
17208SOL    HW163278   2.444   9.601   2.725 -1.1664 -0.9175  0.7233
17208SOL    HW263279   2.468   9.611   2.886  0.5362  0.3575  0.4084
17209SOL     OW63280   6.110   8.550   7.177 -0.3812  0.6378 -0.0617
17209SOL    HW163281   6.159   8.560   7.090 -0.9907 -0.0091 -0.4864
17209SOL    HW263282   6.175   8.557   7.252  0.4897 -0.8992 -0.6453
17210SOL     OW63283   2.721   2.382   1.204 -0.0252  0.0737  0.2689
17210SOL    HW163284   2.807   2.429   1.224 -1.6581  3.3924 -0.1727
17210SOL    HW263285   2.691   2.406   1.112 -0.3285 -2.8508 -0.4277
17211SOL     OW63286   9.621   1.159   0.492  0.1565 -0.1654  0.4739
17211SOL    HW163287   9.713   1.191   0.469 -0.7627  1.9379 -0.4670
17211SOL    HW263288   9.619   1.127   0.586  1.6910  0.4306  0.7239
17212SOL     OW63289   9.487   4.944   2.788 -0.1422 -0.1550  0.2941
17212SOL    HW163290   9.505   4.920   2.883 -0.5837 -1.8659 -0.0337
17212SOL    HW263291   9.508   4.866   2.729  2.5762  1.7237 -1.3090
17213SOL     OW63292   2.626   2.079   1.371 -0.1080 -0.4579  0.3376
17213SOL    HW163293   2.707   2.021   1.382  0.4975  0.2660 -0.2661
17213SOL    HW263294   2.649   2.173   1.394 -0.3135  0.0654 -1.5140
17214SOL     OW63295   7.965   7.168   7.151 -0.3538 -0.7405 -0.1835
17214SOL    HW163296   8.061   7.143   7.156 -0.0882 -0.1821 -2.2122
17214SOL    HW263297   7.926   7.137   7.065 -1.0461  2.1572 -0.9865
17215SOL     OW63298   2.077   9.126   1.519 -0.3135  0.2538  0.2790
17215SOL    HW163299   2.095   9.192   1.446  1.5202  1.9859  2.2277
17215SOL    HW263300   2.164   9.098   1.560 -1.2136 -1.9618  0.7254
17216SOL     OW63301   4.447   8.423   2.618  0.6539 -0.8910  0.8689
17216SOL    HW163302   4.514   8.481   2.572 -1.7325  0.4027 -1.0888
17216SOL    HW263303   4.412   8.469   2.700 -0.0419 -0.2522  0.2174
17217SOL     OW63304   2.355   7.708   3.895  0.1869 -0.1241  0.0308
17217SOL    HW163305   2.303   7.663   3.968 -1.6009  2.6722  0.5491
17217SOL    HW263306   2.293   7.732   3.820  1.4009  0.0785 -0.9353
17218SOL     OW63307   9.670   8.008   7.265 -0.3713 -0.1846 -0.4772
17218SOL    HW163308   9.618   7.955   7.198  0.0692  1.9736 -2.6261
17218SOL    HW263309   9.608   8.047   7.333 -1.1381 -0.4918 -0.9982
17219SOL     OW63310   5.824   0.961   7.853  0.1822 -0.3374  0.0606
17219SOL    HW163311   5.758   0.886   7.844 -0.2039 -0.1778  1.4488
17219SOL    HW263312   5.777   1.048   7.844  0.4743 -0.2388 -0.5619
17220SOL     OW63313   2.685   3.800   2.170 -0.1622  0.0465 -0.3581
17220SOL    HW163314   2.671   3.897   2.191 -1.5142 -0.9242  3.6051
17220SOL    HW263315   2.766   3.767   2.218  0.5108 -0.7543 -1.9898
17221SOL     OW63316   4.663   2.056   0.288  0.0044 -0.5295  0.5672
17221SOL    HW163317   4.758   2.035   0.310 -0.2586 -2.0724  0.3065
17221SOL    HW263318   4.618   1.973   0.254 -0.8269  0.7160 -1.4680
17222SOL     OW63319   8.496   8.390   7.953  0.2769 -0.2737 -0.4640
17222SOL    HW163320   8.439   8.308   7.945 -1.3633  0.6371  1.4148
17222SOL    HW263321   8.556   8.381   8.033 -0.0341  0.4064 -0.1440
17223SOL     OW63322   4.763   4.025   5.448  0.2229  0.4310 -0.0468
17223SOL    HW163323   4.827   4.076   5.390 -1.1275  1.6065 -0.5647
17223SOL    HW263324   4.743   4.079   5.530 -1.1639  0.7374 -0.5643
17224SOL     OW63325   3.088   2.059   1.775  0.1563  0.4679  0.4300
17224SOL    HW163326   3.036   2.040   1.858 -0.1914  0.9373  0.3286
17224SOL    HW263327   3.080   1.982   1.712  0.1856  0.2309  0.7170
17225SOL     OW63328   2.484   7.740   4.495  0.5499 -0.3631 -0.1881
17225SOL    HW163329   2.504   7.642   4.496 -0.6284 -0.6103 -0.3153
17225SOL    HW263330   2.536   7.784   4.422 -0.5859 -1.2582 -1.5446
17226SOL     OW63331   2.752   7.491  10.075  0.4186 -0.0881 -0.3634
17226SOL    HW163332   2.738   7.571  10.133  0.3938 -1.6421  1.8718
17226SOL    HW263333   2.846   7.489  10.041  0.3806  0.9459 -0.5204
17227SOL     OW63334   1.842   0.890   5.057 -0.1595 -0.6091  0.0989
17227SOL    HW163335   1.802   0.827   5.123 -1.1759 -0.2034 -0.1199
17227SOL    HW263336   1.865   0.841   4.974  3.1997 -1.5926  1.5158
17228SOL     OW63337   9.786   5.622   1.344 -0.6513  0.0451 -0.9061
17228SOL    HW163338   9.762   5.549   1.407  0.0829  0.6075  0.0428
17228SOL    HW263339   9.858   5.591   1.282  0.1432  0.1721 -0.0589
17229SOL     OW63340   2.267   3.264   6.388  0.3663 -0.2938 -0.3139
17229SOL    HW163341   2.315   3.347   6.416  1.9674 -1.1293 -0.4916
17229SOL    HW263342   2.217   3.226   6.467 -0.9983  1.2332 -0.4285
17230SOL     OW63343   2.738   2.448   0.947  0.2220  0.1260 -0.2808
17230SOL    HW163344   2.832   2.479   0.956  0.6016 -0.8600 -0.8225
17230SOL    HW263345   2.696   2.490   0.866  0.5454 -0.3099 -0.6733
17231SOL     OW63346   3.486   2.985   3.569  0.5539 -0.2529  0.1175
17231SOL    HW163347   3.461   3.082   3.563  1.0487 -0.0311  1.5667
17231SOL    HW263348   3.582   2.975   3.545  0.1716 -0.5687 -1.3358
17232SOL     OW63349   2.045   1.107   5.082  0.8648 -0.2050 -0.1045
17232SOL    HW163350   1.967   1.046   5.093 -1.1138  2.1777 -0.3671
17232SOL    HW263351   2.073   1.108   4.986  0.3374 -0.0635 -0.2610
17233SOL     OW63352   7.373   8.086   2.621  0.5417 -0.4383  0.5845
17233SOL    HW163353   7.382   8.161   2.687  0.2865 -1.4529  1.7881
17233SOL    HW263354   7.279   8.051   2.624  0.5060 -0.4348 -0.3926
17234SOL     OW63355   7.361   4.149   0.985 -0.1901  0.1749 -0.1532
17234SOL    HW163356   7.325   4.072   0.932  0.6550  0.5544 -1.2897
17234SOL    HW263357   7.452   4.174   0.951 -0.7762  2.1892 -0.3177
17235SOL     OW63358   7.675   1.460   0.588 -0.1665  0.3405 -0.1941
17235SOL    HW163359   7.702   1.365   0.573  0.8980  0.8822 -1.9330
17235SOL    HW263360   7.579   1.471   0.563 -0.6166 -0.4992  1.0950
17236SOL     OW63361   0.653   6.783   6.056 -0.6141  0.3125  0.2821
17236SOL    HW163362   0.747   6.802   6.029 -0.3384  0.7445  1.5484
17236SOL    HW263363   0.591   6.809   5.981  0.3767 -1.5253 -1.2152
17237SOL     OW63364   1.862   1.341   1.453  0.0704 -0.0808 -0.0792
17237SOL    HW163365   1.896   1.375   1.365 -0.7623 -1.1740 -0.8442
17237SOL    HW263366   1.774   1.383   1.473  0.1621  0.0115  0.1324
17238SOL     OW63367   9.962   9.390   3.149  0.2332  0.4757  0.7013
17238SOL    HW163368   9.867   9.384   3.179 -0.3140  2.1739 -0.6460
17238SOL    HW263369  10.018   9.330   3.206 -1.6525 -0.6676  1.4189
17239SOL     OW63370   2.123   4.175   6.085  0.7357 -0.5893  0.2809
17239SOL    HW163371   2.051   4.167   6.015  0.9047 -2.0219  0.2682
17239SOL    HW263372   2.199   4.229   6.048  0.3265 -0.3683 -0.2465
17240SOL     OW63373   1.361   4.506   5.007  0.6898  0.0413  0.3749
17240SOL    HW163374   1.442   4.522   5.063  1.0957 -0.7631  0.0174
17240SOL    HW263375   1.387   4.462   4.921  0.0139  0.8652 -0.2589
17241SOL     OW63376   8.278   5.076   1.903  0.5246  0.2792  0.0585
17241SOL    HW163377   8.312   5.140   1.972  1.7134  0.5485 -0.7553
17241SOL    HW263378   8.178   5.076   1.902  0.5021  0.1959  1.8469
17242SOL     OW63379   3.723   7.913   0.084 -0.1187 -0.2382  0.1139
17242SOL    HW163380   3.777   7.873   0.010 -0.8779 -1.3654  0.1601
17242SOL    HW263381   3.784   7.936   0.160  0.2060 -2.2842  0.5049
17243SOL     OW63382   2.238   2.206   3.223 -0.2518  0.3090  0.1997
17243SOL    HW163383   2.283   2.133   3.172 -0.4998  2.1862 -2.8200
17243SOL    HW263384   2.302   2.247   3.288  0.8617 -0.4038 -0.4480
17244SOL     OW63385   9.044   4.037   6.370  0.0769  0.3476 -0.1419
17244SOL    HW163386   9.053   3.967   6.441 -1.2236  1.6684  1.3479
17244SOL    HW263387   8.990   4.001   6.294  1.9341 -1.2623 -0.7524
17245SOL     OW63388   1.897   3.657   2.910  0.5541 -0.2706  0.5008
17245SOL    HW163389   1.858   3.747   2.890  0.0173 -0.8102 -0.9510
17245SOL    HW263390   1.825   3.588   2.909  1.1810 -0.9272  0.2082
17246SOL     OW63391   9.194   0.446   1.935  0.1209  0.4628 -0.0979
17246SOL    HW163392   9.099   0.470   1.915 -0.3076 -0.7287  0.4940
17246SOL    HW263393   9.218   0.361   1.887  0.2340 -0.3792  1.4386
17247SOL     OW63394   0.887   5.838   2.853  0.4577 -0.0043 -0.2757
17247SOL    HW163395   0.907   5.741   2.867  0.6117  0.4281  2.9031
17247SOL    HW263396   0.813   5.866   2.914  0.2415  1.8341 -1.3447
17248SOL     OW63397   1.129   7.569   3.748 -0.3943 -0.2548  0.0662
17248SOL    HW163398   1.036   7.543   3.719  0.4431 -1.8531 -1.2640
17248SOL    HW263399   1.139   7.553   3.846 -1.7585  0.6330  0.3650
17249SOL     OW63400   5.181   7.880   5.835  0.2833  0.0817 -0.9040
17249SOL    HW163401   5.082   7.876   5.816 -0.2405 -0.4248  1.6882
17249SOL    HW263402   5.223   7.793   5.807 -0.4921 -0.7223  0.3657
17250SOL     OW63403   0.165   5.355   0.308 -0.1007 -0.4056 -0.2995
17250SOL    HW163404   0.224   5.415   0.254 -0.8273  0.1475 -0.4910
17250SOL    HW263405   0.192   5.260   0.293  0.9446 -0.1504 -0.1340
17251SOL     OW63406   3.065   4.152   2.561  0.2152 -0.1962  0.8116
17251SOL    HW163407   3.159   4.176   2.586  0.7168  0.0660 -1.2052
17251SOL    HW263408   3.002   4.208   2.614  1.2722  1.7454  0.1024
17252SOL     OW63409   0.920   4.024   2.775  0.0131  0.6424  0.0889
17252SOL    HW163410   0.883   3.955   2.837 -2.0594  1.1619 -0.5097
17252SOL    HW263411   0.925   4.112   2.823  1.6051  0.3153  0.5239
17253SOL     OW63412   9.353   7.010   3.598  0.4532  0.2098  0.1072
17253SOL    HW163413   9.409   6.928   3.581  0.4791  0.6364 -1.9843
17253SOL    HW263414   9.412   7.083   3.633  1.0982  0.4527 -1.4623
17254SOL     OW63415   7.349   5.599   2.183  0.1831  0.4150 -0.0783
17254SOL    HW163416   7.399   5.677   2.145  1.1880 -0.0279  0.3045
17254SOL    HW263417   7.396   5.566   2.265 -1.7383  1.0832  1.3068
17255SOL     OW63418   4.601   3.699   7.749  0.2376 -0.0824 -0.3111
17255SOL    HW163419   4.597   3.798   7.764  1.2003 -0.0514 -0.2237
17255SOL    HW263420   4.526   3.672   7.688 -0.2517  0.6421 -0.0462
17256SOL     OW63421   5.218   1.499   7.648 -0.3119 -0.1090 -0.0796
17256SOL    HW163422   5.165   1.574   7.687 -0.1373 -0.0947  0.1293
17256SOL    HW263423   5.295   1.536   7.596  1.0502 -0.1946  1.8518
17257SOL     OW63424   0.179   3.709   6.142  0.1957  0.3474 -0.6253
17257SOL    HW163425   0.102   3.713   6.206  0.3506  1.8510 -0.5124
17257SOL    HW263426   0.257   3.758   6.181  0.9992 -0.5838 -1.0423
17258SOL     OW63427   9.612   0.463   5.886 -0.7015 -0.0999  0.2520
17258SOL    HW163428   9.598   0.485   5.790 -3.5312 -1.9419  0.2090
17258SOL    HW263429   9.532   0.416   5.923  0.9709 -0.8941  3.0950
17259SOL     OW63430   3.513   1.345   2.917  0.1630  0.4834 -0.0229
17259SOL    HW163431   3.605   1.313   2.892  0.0557  1.0818 -1.2669
17259SOL    HW263432   3.487   1.307   3.005  0.6262 -1.6382 -0.7766
17260SOL     OW63433   9.100   0.070   0.575  0.3885 -0.2936 -0.5838
17260SOL    HW163434   9.165  -0.003   0.595  1.1059  0.6808  0.7073
17260SOL    HW263435   9.056   0.099   0.660 -0.3098  0.3768 -1.1732
17261SOL     OW63436   9.159   1.111   2.831  0.1394 -0.2747 -0.4097
17261SOL    HW163437   9.203   1.171   2.898  0.8684 -1.0392 -0.1986
17261SOL    HW263438   9.220   1.098   2.753  0.8156 -2.3145  0.4271
17262SOL     OW63439   7.901   5.637   5.128  0.3669  0.1037 -0.1797
17262SOL    HW163440   7.981   5.681   5.168  1.3166 -0.3382 -1.5868
17262SOL    HW263441   7.888   5.547   5.170  1.3859 -0.3747 -0.8728
17263SOL     OW63442   7.636   7.920   2.943 -0.8708  0.0062  0.1579
17263SOL    HW163443   7.563   7.856   2.923  2.1274 -2.6415 -2.8400
17263SOL    HW263444   7.711   7.872   2.988  0.6978  1.7990 -0.4808
17264SOL     OW63445   7.908   4.054   4.191  0.3391 -0.5363  0.2190
17264SOL    HW163446   7.844   4.123   4.157  1.1684 -0.5087 -1.3269
17264SOL    HW263447   8.001   4.090   4.188  0.6448 -1.2839  0.5825
17265SOL     OW63448   6.419   3.770   3.103 -0.1797  0.5819  0.2566
17265SOL    HW163449   6.360   3.841   3.064 -0.8325  0.0627  0.3058
17265SOL    HW263450   6.456   3.802   3.190  0.8374  1.5230 -0.5065
17266SOL     OW63451   3.306   4.698   3.640  0.5133 -0.4391 -0.2522
17266SOL    HW163452   3.338   4.610   3.674 -0.5094 -1.7329 -2.5779
17266SOL    HW263453   3.356   4.723   3.557  1.2865  1.5314  0.7708
17267SOL     OW63454   7.061   7.102   7.772  0.0118  0.1546  0.0200
17267SOL    HW163455   7.045   7.011   7.734  1.1046 -0.3750  0.7834
17267SOL    HW263456   7.159   7.121   7.772  0.1413 -0.2195  3.3031
17268SOL     OW63457   4.200   0.844   2.056 -0.1075  0.2058  0.1997
17268SOL    HW163458   4.194   0.903   2.136 -1.9728  0.4837 -0.1414
17268SOL    HW263459   4.256   0.764   2.078  1.2124  1.3560  1.1034
17269SOL     OW63460   4.542   0.419   1.697  0.1201 -0.0951  0.6275
17269SOL    HW163461   4.573   0.422   1.602  0.1086  1.6194  0.6679
17269SOL    HW263462   4.517   0.325   1.721  0.6878 -0.6419 -0.8744
17270SOL     OW63463   0.743   4.194   3.783 -0.5308  0.0948 -0.6150
17270SOL    HW163464   0.699   4.142   3.857 -0.3663 -0.9580 -1.2465
17270SOL    HW263465   0.688   4.275   3.763 -1.6368 -0.6501 -0.6788
17271SOL     OW63466   3.336   0.992   5.365  0.6243  0.4843 -0.1347
17271SOL    HW163467   3.431   0.970   5.389  0.7707  0.2190 -0.9401
17271SOL    HW263468   3.308   1.074   5.414  1.3673  0.7193 -0.0947
17272SOL     OW63469   4.951   9.591   0.954 -0.4383 -0.2675  0.3604
17272SOL    HW163470   5.006   9.670   0.926 -1.8495  0.4970 -0.3788
17272SOL    HW263471   4.858   9.622   0.977 -0.8920 -1.6635  0.4820
17273SOL     OW63472   5.108   3.528   2.504 -0.1715  0.3280  0.3637
17273SOL    HW163473   5.141   3.610   2.552 -0.4122 -0.8113  2.5325
17273SOL    HW263474   5.186   3.477   2.467  0.0621  0.8573  0.1219
17274SOL     OW63475   1.513   9.997   1.407  0.2117  0.1431 -0.1705
17274SOL    HW163476   1.511  10.071   1.340  2.7101  1.1039  0.7481
17274SOL    HW263477   1.430   9.942   1.399 -0.5103  1.5274 -2.5703
17275SOL     OW63478   2.843   4.515   0.724 -0.2412  0.0172  0.0317
17275SOL    HW163479   2.806   4.607   0.735  0.2146  0.2303 -0.2486
17275SOL    HW263480   2.910   4.497   0.796  0.0999  0.1132 -0.2640
17276SOL     OW63481   4.317   2.337   1.858 -0.7580 -0.2074  0.2723
17276SOL    HW163482   4.293   2.247   1.821 -2.2818  0.0179  0.6725
17276SOL    HW263483   4.254   2.360   1.932  0.2245  0.7788  0.8140
17277SOL     OW63484   2.018   8.622   3.516 -0.2581 -0.3517  0.3716
17277SOL    HW163485   2.016   8.604   3.418  1.9228 -0.1737  0.2575
17277SOL    HW263486   2.005   8.536   3.566 -3.4700 -0.1533 -0.0092
17278SOL     OW63487   4.407   8.270   0.370 -0.0099  0.1848 -0.4527
17278SOL    HW163488   4.334   8.333   0.342  1.0909 -0.0351 -4.1375
17278SOL    HW263489   4.496   8.313   0.356  0.6673 -1.0942 -0.2033
17279SOL     OW63490   2.254   8.529   3.126 -0.1098  0.2403 -0.1361
17279SOL    HW163491   2.179   8.592   3.142 -0.0836  0.0544  0.7392
17279SOL    HW263492   2.295   8.502   3.213 -0.3737 -1.2935 -0.4598
17280SOL     OW63493   4.500   0.290   4.046 -0.1925  0.0052 -0.3191
17280SOL    HW163494   4.480   0.272   4.143 -0.1393 -0.9904 -0.4893
17280SOL    HW263495   4.441   0.364   4.014 -1.2407 -0.6446  0.0881
17281SOL     OW63496   0.575   6.628  10.000 -0.3382  0.6884 -0.3723
17281SOL    HW163497   0.606   6.578   9.919  0.6339 -0.0440  0.4385
17281SOL    HW263498   0.555   6.563  10.073 -1.3967  1.3330 -0.0782
17282SOL     OW63499   5.591   5.849   0.107  0.5608 -0.3216  0.3033
17282SOL    HW163500   5.622   5.902   0.028  0.1449  1.2756  1.1919
17282SOL    HW263501   5.491   5.851   0.111  0.5761 -0.5793  0.7411
17283SOL     OW63502   6.566   9.639   2.367  0.3096  0.2430 -0.1449
17283SOL    HW163503   6.574   9.565   2.299 -1.4742 -1.5267  1.5023
17283SOL    HW263504   6.646   9.638   2.426 -0.0940 -0.9571  0.4043
17284SOL     OW63505   0.121   1.539   2.378  0.3112  0.0447 -0.0587
17284SOL    HW163506   0.156   1.524   2.285  0.9373 -3.3926  0.6503
17284SOL    HW263507   0.032   1.585   2.374  1.1980  1.6584 -2.2378
17285SOL     OW63508   7.665   2.880   1.859  0.4283 -0.3524 -0.0324
17285SOL    HW163509   7.620   2.820   1.926 -1.3029 -2.9470 -3.3482
17285SOL    HW263510   7.761   2.892   1.883  0.1513 -2.3019  2.1969
17286SOL     OW63511   9.062   6.896   3.945  0.3936  0.6382 -0.0254
17286SOL    HW163512   9.068   6.964   4.018  1.0512  1.0527 -0.4576
17286SOL    HW263513   9.075   6.804   3.983 -0.7411  0.7246  0.5993
17287SOL     OW63514   3.359   9.772   1.588 -0.9453 -1.4066  0.6409
17287SOL    HW163515   3.277   9.827   1.575  0.2968  0.8725  2.0369
17287SOL    HW263516   3.401   9.753   1.499  0.1149  2.3810  0.2405
17288SOL     OW63517   9.759   9.180   6.132  0.0181 -0.2610  0.2199
17288SOL    HW163518   9.762   9.278   6.112 -1.9527 -0.2178  0.1036
17288SOL    HW263519   9.847   9.152   6.170  1.9278  0.7670 -3.2739
17289SOL     OW63520   5.677   5.297   0.031 -0.5686  0.4981  0.2264
17289SOL    HW163521   5.697   5.390   0.001  2.4160  0.9695  3.3562
17289SOL    HW263522   5.758   5.240   0.021 -2.1876 -1.6432 -1.0998
17290SOL     OW63523   5.053   8.719   3.153 -0.4618  0.1359  0.4101
17290SOL    HW163524   5.087   8.782   3.223  1.4106  0.1055 -0.4622
17290SOL    HW263525   5.090   8.627   3.170  1.5406  0.5235 -1.6816
17291SOL     OW63526   9.370   1.143   2.141  0.0949  0.2018  0.0025
17291SOL    HW163527   9.430   1.086   2.083 -0.1315 -0.9076  0.8437
17291SOL    HW263528   9.358   1.232   2.098  0.9942 -0.1511 -1.0186
17292SOL     OW63529   5.282   1.941   0.657 -0.7153  0.1509  0.3686
17292SOL    HW163530   5.306   1.852   0.619  0.7515  0.4984  0.4514
17292SOL    HW263531   5.272   1.933   0.756  0.1087  0.2125  0.4617
17293SOL     OW63532   6.712   8.090   3.649  0.2079 -0.0266 -0.2276
17293SOL    HW163533   6.784   8.096   3.718  1.7476 -2.1636 -1.5731
17293SOL    HW263534   6.630   8.050   3.689  0.0353  1.6404  1.1124
17294SOL     OW63535   2.444   0.490   0.132 -0.3681  0.0143 -0.0026
17294SOL    HW163536   2.367   0.512   0.073 -0.8302 -1.6390 -0.0424
17294SOL    HW263537   2.430   0.531   0.222 -0.7007  0.7397 -0.3840
17295SOL     OW63538   0.652   8.014   2.949 -0.0025  0.1445 -0.1598
17295SOL    HW163539   0.614   8.097   2.989 -1.9579  0.3168 -2.2383
17295SOL    HW263540   0.608   7.934   2.989 -1.9148  0.3137 -1.8325
17296SOL     OW63541   1.781   7.539   1.862  0.1911 -0.0158  0.2917
17296SOL    HW163542   1.729   7.538   1.947  0.3559 -1.7510  0.3835
17296SOL    HW263543   1.866   7.589   1.876  0.3279 -0.4983  1.2169
17297SOL     OW63544   2.262   3.287   4.412 -0.4633  0.2939  0.7855
17297SOL    HW163545   2.167   3.271   4.441 -0.3495 -0.1755  0.9099
17297SOL    HW263546   2.308   3.343   4.481  0.1380 -1.7874  2.1231
17298SOL     OW63547   8.028   3.033   2.155 -0.5094 -0.5060  0.5876
17298SOL    HW163548   8.027   3.117   2.209 -2.4305  0.0995 -0.3519
17298SOL    HW263549   8.046   2.955   2.216 -0.5842  0.3705  1.7603
17299SOL     OW63550   4.554   8.447   4.258 -0.1023 -0.3230  0.7275
17299SOL    HW163551   4.584   8.404   4.173  1.4064  0.4040  0.8752
17299SOL    HW263552   4.499   8.528   4.238 -3.3818 -2.5422  0.4438
17300SOL     OW63553   5.970   1.795   7.057 -0.4263  0.2262  0.2600
17300SOL    HW163554   6.056   1.830   7.020 -0.3637 -1.8868 -1.7069
17300SOL    HW263555   5.894   1.850   7.022 -0.0567  0.6917  0.1844
17301SOL     OW63556   1.105   4.969   6.994  0.3579  0.0794 -0.1847
17301SOL    HW163557   1.173   5.011   7.054 -0.3601 -0.1608  0.8060
17301SOL    HW263558   1.064   5.039   6.936 -1.6098  0.9580  2.2106
17302SOL     OW63559   8.681   9.705   5.765 -0.0364 -0.3210 -0.2850
17302SOL    HW163560   8.587   9.741   5.767  0.2301  0.4103 -0.7779
17302SOL    HW263561   8.745   9.777   5.793  0.3931 -0.7802 -0.0828
17303SOL     OW63562   8.060   6.915   5.071  0.1548  0.1088 -0.3116
17303SOL    HW163563   7.968   6.926   5.032 -0.3508 -2.4444  0.0618
17303SOL    HW263564   8.104   7.004   5.078 -2.7396  1.5377  0.5541
17304SOL     OW63565   5.030   8.326   3.114  0.2583 -0.5614  0.1230
17304SOL    HW163566   5.025   8.255   3.044 -1.5484  0.7532 -1.1223
17304SOL    HW263567   5.097   8.395   3.088 -0.2653 -0.1805 -0.2325
17305SOL     OW63568   5.264   9.271   3.713 -0.3766 -0.1469  0.3594
17305SOL    HW163569   5.243   9.350   3.771  0.1717 -1.1963  2.0146
17305SOL    HW263570   5.242   9.187   3.762  1.1600 -1.0814 -0.5044
17306SOL     OW63571   7.194   2.124   4.351  0.5980  0.1091  0.4036
17306SOL    HW163572   7.107   2.148   4.394  0.7459 -0.9841  1.3347
17306SOL    HW263573   7.249   2.070   4.414  1.0995 -0.9620 -0.9054
17307SOL     OW63574   6.549   2.952   1.621  0.3478 -0.2703  0.8069
17307SOL    HW163575   6.490   2.873   1.635  0.8087 -1.0915 -1.7412
17307SOL    HW263576   6.642   2.930   1.651  0.2735 -0.3643  0.9704
17308SOL     OW63577   9.580   4.639   4.967  0.6301 -0.4582  0.2697
17308SOL    HW163578   9.541   4.574   5.033 -1.1426 -0.2394 -0.5399
17308SOL    HW263579   9.664   4.601   4.929  0.7663 -1.3292  1.4092
17309SOL     OW63580   7.974   9.369   4.006 -0.0206 -0.0146  0.0419
17309SOL    HW163581   8.032   9.370   4.087 -0.1794  3.0011  0.1700
17309SOL    HW263582   7.894   9.311   4.023  1.5687 -2.0739  0.8002
17310SOL     OW63583   5.256   1.425   1.363 -0.1428  0.3871 -0.1132
17310SOL    HW163584   5.315   1.384   1.293 -0.7386 -0.3941 -0.1710
17310SOL    HW263585   5.226   1.354   1.427 -0.8158  0.8238  0.0655
17311SOL     OW63586   8.898   5.433   3.746 -0.0617 -0.1434 -0.0052
17311SOL    HW163587   8.869   5.359   3.807  0.5828 -1.2995 -1.0855
17311SOL    HW263588   8.953   5.395   3.672  3.3389  1.8532  1.4076
17312SOL     OW63589   0.935   8.803   1.493  0.6843  0.1666  0.5968
17312SOL    HW163590   0.852   8.781   1.545  0.1300 -0.6065 -0.5886
17312SOL    HW263591   0.979   8.718   1.463  0.1300  0.6033 -1.5247
17313SOL     OW63592   8.728   8.954   8.005 -0.1719  0.1466 -0.3036
17313SOL    HW163593   8.711   8.891   7.929  0.4393 -0.7867  0.3255
17313SOL    HW263594   8.778   8.906   8.077 -0.3481  1.1564  0.4950
17314SOL     OW63595   0.334   3.891   3.701  0.1165  0.1176  0.7661
17314SOL    HW163596   0.266   3.832   3.745 -0.6177  0.8631  0.6272
17314SOL    HW263597   0.291   3.976   3.671  1.1834  0.7446  0.9862
17315SOL     OW63598   9.008   8.675   1.495 -0.4994 -0.0855 -0.5262
17315SOL    HW163599   8.928   8.655   1.438 -0.3097  1.9221 -1.5442
17315SOL    HW263600   9.030   8.595   1.550 -2.7389 -0.9351 -0.7980
17316SOL     OW63601   9.891   5.994   7.836 -0.0008  0.0396 -0.2216
17316SOL    HW163602   9.918   5.908   7.793  0.2682 -0.4320  0.8794
17316SOL    HW263603   9.962   6.062   7.823 -0.3550  0.2056 -1.3799
17317SOL     OW63604   4.263   8.792   7.011  0.3340 -0.6673  0.1191
17317SOL    HW163605   4.275   8.802   6.913 -1.6643  0.6614 -0.0342
17317SOL    HW263606   4.288   8.878   7.056  0.5049 -1.0151  0.6926
17318SOL     OW63607   7.929   8.785   6.212 -1.1353 -0.1387  0.2125
17318SOL    HW163608   7.984   8.851   6.160 -1.5009  1.3829  1.6858
17318SOL    HW263609   7.883   8.723   6.149 -1.5587  1.6424 -1.2997
17319SOL     OW63610   8.780   3.301   3.117  0.1006 -0.1599  0.1978
17319SOL    HW163611   8.680   3.290   3.119  0.2222 -1.7465 -1.9412
17319SOL    HW263612   8.822   3.219   3.079  2.2469  0.5004  1.0921
17320SOL     OW63613   6.898   0.158   6.769  0.1096  0.0136 -0.3121
17320SOL    HW163614   6.889   0.083   6.704  0.1431 -1.2083  1.0747
17320SOL    HW263615   6.848   0.137   6.852  0.1158  1.5430  0.0983
17321SOL     OW63616   7.654   2.137   6.328  0.1238 -0.2360 -0.1412
17321SOL    HW163617   7.644   2.091   6.416  0.6045 -0.8040 -0.3764
17321SOL    HW263618   7.737   2.105   6.283 -0.5124 -0.5106 -1.1416
17322SOL     OW63619   3.606   2.943   3.104 -0.8705 -0.5470  0.4769
17322SOL    HW163620   3.657   2.991   3.033 -1.3293 -0.9872 -0.1615
17322SOL    HW263621   3.513   2.978   3.108 -0.4172  0.5255  1.9092
17323SOL     OW63622   9.591   7.000   6.958  0.0865 -0.1654 -0.2293
17323SOL    HW163623   9.533   6.919   6.970 -0.4855  0.5917  2.6020
17323SOL    HW263624   9.538   7.074   6.917 -0.0569 -0.4620 -0.5793
17324SOL     OW63625   3.714   3.023   3.350  0.6209  0.4381  0.2547
17324SOL    HW163626   3.685   3.118   3.362  2.0932  0.8331  0.7672
17324SOL    HW263627   3.686   2.991   3.259  0.5439  1.5239 -0.1117
17325SOL     OW63628   9.067   8.408   3.958 -0.5992 -0.6312  0.5805
17325SOL    HW163629   9.100   8.343   3.889  0.6491  0.6093 -0.0337
17325SOL    HW263630   8.975   8.439   3.933 -0.7600 -1.3311  0.2925
17326SOL     OW63631   2.280   3.797   4.573 -0.2599 -0.0776 -0.5541
17326SOL    HW163632   2.370   3.781   4.614  0.1234  2.2234 -0.4447
17326SOL    HW263633   2.235   3.872   4.620 -1.4709 -0.0061 -1.8061
17327SOL     OW63634   2.196   5.880   2.462 -0.0151  0.7629 -0.0535
17327SOL    HW163635   2.174   5.951   2.396  0.0405  1.1746  0.3696
17327SOL    HW263636   2.112   5.843   2.501 -0.0517  0.4378 -0.4393
17328SOL     OW63637   7.576   3.043   4.843  0.3812  0.0670 -0.2579
17328SOL    HW163638   7.534   3.026   4.754  0.1515 -1.6357  0.1704
17328SOL    HW263639   7.665   2.998   4.847  0.4991  0.3417  0.2988
17329SOL     OW63640   1.108   2.252   0.309 -0.2126 -0.6473  0.3103
17329SOL    HW163641   1.139   2.173   0.256 -0.6056 -0.3333 -0.4007
17329SOL    HW263642   1.122   2.235   0.407  3.8797  0.1554 -0.0126
17330SOL     OW63643   9.604   4.860   2.138 -0.2689  0.5250  0.0037
17330SOL    HW163644   9.642   4.801   2.209 -0.3544  0.1713 -0.2406
17330SOL    HW263645   9.629   4.955   2.156  2.0040  0.1425 -0.9362
17331SOL     OW63646   8.863   4.906   1.235 -0.3761 -0.0165  0.6886
17331SOL    HW163647   8.817   4.902   1.324 -0.3625 -0.6854  0.6663
17331SOL    HW263648   8.953   4.861   1.242  0.3244  1.3530  0.7561
17332SOL     OW63649   8.593   7.277   1.537  0.2914  0.4273  0.0427
17332SOL    HW163650   8.542   7.204   1.582 -0.7422  0.0821 -1.6250
17332SOL    HW263651   8.655   7.320   1.603 -1.9381  0.6644  2.0645
17333SOL     OW63652   4.422   2.341   0.094 -0.5956  0.3076 -0.2739
17333SOL    HW163653   4.463   2.325   0.183 -0.4107  2.7613  0.1280
17333SOL    HW263654   4.373   2.259   0.064  3.7012 -2.3628 -0.3322
17334SOL     OW63655   9.957   2.573   6.940  0.0497 -0.0362  0.4967
17334SOL    HW163656   9.994   2.630   6.867 -1.6676 -0.0596 -0.4102
17334SOL    HW263657   9.954   2.478   6.910  1.7872 -0.4545  1.5730
17335SOL     OW63658   2.337   9.689   3.991  0.4529  0.3946  0.1773
17335SOL    HW163659   2.434   9.709   4.005  0.0569  1.3505  1.6496
17335SOL    HW263660   2.320   9.593   4.015  0.5048  1.0100  2.8525
17336SOL     OW63661   9.915   9.724   1.971  0.4287 -0.1453 -0.0463
17336SOL    HW163662   9.900   9.643   1.914  1.0524  0.7149 -1.4768
17336SOL    HW263663   9.974   9.699   2.048  2.1827 -0.6803 -1.5029
17337SOL     OW63664   1.838   3.649   3.374 -0.7121  0.1376  0.0642
17337SOL    HW163665   1.898   3.718   3.333  2.5773 -1.7672  1.4702
17337SOL    HW263666   1.778   3.612   3.304  1.2731  0.5756 -1.9474
17338SOL     OW63667   3.980   2.624   1.646 -0.1302 -0.4428  0.7324
17338SOL    HW163668   3.891   2.589   1.673 -0.0099 -1.4629 -0.1570
17338SOL    HW263669   3.972   2.673   1.559 -0.0181  0.4356  1.2070
17339SOL     OW63670   1.326   9.906   0.283 -0.2799  0.3001 -0.0352
17339SOL    HW163671   1.342   9.902   0.184 -2.4991  0.8730 -0.4460
17339SOL    HW263672   1.239   9.952   0.301 -1.9601 -3.4555  1.9909
17340SOL     OW63673   2.260   9.011   1.265  0.1240 -0.1433  0.8179
17340SOL    HW163674   2.231   9.093   1.315 -0.4809 -0.4940  1.0415
17340SOL    HW263675   2.296   8.944   1.329 -2.3164 -1.3166  1.0153
17341SOL     OW63676   5.321   5.841   0.131 -0.6432  0.5181 -0.4021
17341SOL    HW163677   5.283   5.873   0.044 -1.4359  0.5900 -0.0334
17341SOL    HW263678   5.298   5.745   0.145  1.0142 -0.0011 -1.1054
17342SOL     OW63679   3.860   9.610   3.516 -0.1544 -0.8372  0.1438
17342SOL    HW163680   3.885   9.584   3.609  0.5265  1.5847  0.6720
17342SOL    HW263681   3.942   9.639   3.466 -0.9154  0.7842 -0.2170
17343SOL     OW63682   2.973   7.229   5.312  0.0412 -0.1570 -0.3330
17343SOL    HW163683   2.874   7.239   5.310 -0.0692 -0.0242  2.5754
17343SOL    HW263684   2.998   7.136   5.284 -0.8371  0.0384 -1.7768
17344SOL     OW63685   9.041   6.325   7.015 -0.2048  0.3372 -0.3425
17344SOL    HW163686   8.943   6.310   7.006 -0.2940  1.4215 -1.3704
17344SOL    HW263687   9.058   6.393   7.086 -0.1303 -0.5803  0.5275
17345SOL     OW63688   2.634   3.547   2.713  0.1225 -0.4076 -0.3463
17345SOL    HW163689   2.669   3.513   2.801  0.0284 -0.2648 -0.2516
17345SOL    HW263690   2.616   3.471   2.652 -0.3693 -0.5509 -0.0315
17346SOL     OW63691   5.851   8.696   7.395  0.3261 -0.6801  0.5049
17346SOL    HW163692   5.835   8.793   7.409 -0.1766 -0.8907  1.4384
17346SOL    HW263693   5.946   8.681   7.367  0.0265  0.2052 -1.0703
17347SOL     OW63694   0.380   5.168   5.184  0.7123 -0.3906 -0.1741
17347SOL    HW163695   0.429   5.250   5.154  1.5579 -0.5179  0.8130
17347SOL    HW263696   0.413   5.141   5.275 -1.2797 -0.4202  0.5728
17348SOL     OW63697   9.191   7.317   6.018  0.1482 -0.2994  0.1171
17348SOL    HW163698   9.162   7.412   6.029  0.1355 -0.3530  0.5301
17348SOL    HW263699   9.122   7.256   6.057  0.9243 -0.4244  1.3161
17349SOL     OW63700   9.229   0.574   1.629  0.4602  0.1626 -0.5234
17349SOL    HW163701   9.236   0.670   1.657 -1.0709 -0.0925  0.8249
17349SOL    HW263702   9.303   0.522   1.670 -0.9817  0.0499  1.9760
17350SOL     OW63703   6.711   0.748   2.492  0.4407  0.6815 -0.0941
17350SOL    HW163704   6.659   0.701   2.421  0.2412 -0.0591  0.5389
17350SOL    HW263705   6.649   0.777   2.565  0.8422  0.2553  0.4161
17351SOL     OW63706   6.530   8.400   3.704 -0.1924  0.1682  0.2150
17351SOL    HW163707   6.477   8.466   3.758  3.2859  2.3789  1.0648
17351SOL    HW263708   6.552   8.321   3.761  1.4186  1.4073  1.3536
17352SOL     OW63709   7.075   1.989   1.956  0.2167 -0.1021 -0.2104
17352SOL    HW163710   7.020   2.004   1.874 -0.0421 -1.9471 -0.4064
17352SOL    HW263711   7.016   1.980   2.036  0.3663  0.0255 -0.0828
17353SOL     OW63712   2.907   6.794   1.667 -0.2199  0.3338  1.0481
17353SOL    HW163713   2.951   6.739   1.738  1.4372 -0.1367 -0.3171
17353SOL    HW263714   2.977   6.838   1.611 -1.4938 -0.0117 -0.8428
17354SOL     OW63715   5.758   0.527   3.341  0.8670 -0.2173  0.0049
17354SOL    HW163716   5.787   0.466   3.266  1.5820  0.3274 -0.1604
17354SOL    HW263717   5.792   0.491   3.428  0.4347 -0.5965  0.0195
17355SOL     OW63718   3.917   7.008   0.790 -0.1999 -0.0737  0.0201
17355SOL    HW163719   3.861   7.077   0.837 -1.9729 -1.2716 -0.2756
17355SOL    HW263720   3.884   6.996   0.697  0.8603 -0.4933 -0.3108
17356SOL     OW63721   6.281   1.764   6.008 -0.7663  0.2704  0.2243
17356SOL    HW163722   6.306   1.723   6.096 -0.6133 -2.1505 -0.9082
17356SOL    HW263723   6.299   1.862   6.011  1.2436 -0.1141  2.1888
17357SOL     OW63724   0.351   1.031   2.357 -0.4103 -0.1660 -0.0744
17357SOL    HW163725   0.298   1.084   2.423  0.2283 -1.2640  1.3572
17357SOL    HW263726   0.290   0.969   2.306 -1.0527  1.4243 -1.2724
17358SOL     OW63727   8.861   5.038   0.160  0.5097 -0.3500  0.1586
17358SOL    HW163728   8.957   5.027   0.134  0.2704  0.2343 -1.0118
17358SOL    HW263729   8.803   5.033   0.079 -0.1766  2.4168  0.4200
17359SOL     OW63730   6.217   0.771   0.651  0.0140 -0.3586 -0.0769
17359SOL    HW163731   6.240   0.674   0.640  0.3189 -0.6881  2.8823
17359SOL    HW263732   6.294   0.828   0.621  1.2670 -1.1711  1.5057
17360SOL     OW63733   1.560   3.642   6.280 -0.1610 -0.6362  0.4154
17360SOL    HW163734   1.461   3.627   6.280 -0.0172 -1.6246  0.9122
17360SOL    HW263735   1.580   3.732   6.241 -1.2933 -0.1667  0.8930
17361SOL     OW63736   2.065   9.133   5.839 -0.5105  0.6767  0.0619
17361SOL    HW163737   2.042   9.038   5.821 -0.7657  0.4507  1.5058
17361SOL    HW263738   2.164   9.145   5.836 -0.4263  0.1675  0.7843
17362SOL     OW63739   3.180   0.415   6.255 -0.3075  0.3194  0.6930
17362SOL    HW163740   3.215   0.346   6.319  0.7591  1.5709  1.4672
17362SOL    HW263741   3.122   0.479   6.303  1.9178  2.3176  0.8118
17363SOL     OW63742   3.474   0.630   6.526  0.2461 -0.1529  0.8851
17363SOL    HW163743   3.420   0.583   6.596 -0.3706  0.3589  0.7621
17363SOL    HW263744   3.469   0.578   6.441 -0.8657  0.3970  0.6052
17364SOL     OW63745   3.994   4.302   7.592  0.1817  0.0611 -0.1940
17364SOL    HW163746   3.905   4.322   7.633  0.4939 -0.4965  0.7772
17364SOL    HW263747   3.980   4.261   7.501 -0.6397 -2.2172  0.9098
17365SOL     OW63748   3.734   8.008   5.427  0.0186  0.3740  0.1267
17365SOL    HW163749   3.737   8.030   5.525  1.1117 -1.4869  0.5524
17365SOL    HW263750   3.659   8.058   5.384  1.1146  3.2225  1.3869
17366SOL     OW63751   6.908   2.994   3.828  0.1248 -0.1417  0.7143
17366SOL    HW163752   6.845   3.015   3.752  1.5791 -0.8096 -0.7081
17366SOL    HW263753   7.000   3.023   3.803  0.7264 -0.9364  1.9818
17367SOL     OW63754   8.660   1.631   4.864 -0.3092 -0.2118 -0.3138
17367SOL    HW163755   8.735   1.608   4.927  1.9266 -1.6695 -3.3969
17367SOL    HW263756   8.673   1.725   4.831  0.0592 -0.3858 -0.6735
17368SOL     OW63757   9.592   4.417   4.449 -0.3487  0.3426  0.5598
17368SOL    HW163758   9.633   4.496   4.494 -0.6978  1.0869 -0.4040
17368SOL    HW263759   9.649   4.336   4.465  0.6579  1.0331  0.5498
17369SOL     OW63760   8.254   0.499   5.716 -0.1838 -0.2988  0.2527
17369SOL    HW163761   8.288   0.517   5.623  2.2954 -0.3758  1.1055
17369SOL    HW263762   8.257   0.401   5.734 -1.2783 -0.3473  0.2093
17370SOL     OW63763   8.871   6.451   3.365  0.1358  0.1233  0.5323
17370SOL    HW163764   8.788   6.500   3.390 -1.0226 -2.8760  2.8155
17370SOL    HW263765   8.937   6.459   3.440  0.5097 -0.6007  0.2765
17371SOL     OW63766   8.849   4.356   0.255 -0.1938  0.5477 -0.3825
17371SOL    HW163767   8.769   4.301   0.280  0.6963 -0.2591  0.7797
17371SOL    HW263768   8.885   4.325   0.167 -1.8511  1.7081 -1.4994
17372SOL     OW63769   2.617   7.491   6.042 -0.5779  0.6278 -0.0141
17372SOL    HW163770   2.694   7.522   5.987  0.5850 -0.8318  0.7460
17372SOL    HW263771   2.614   7.543   6.127 -0.5861  0.8526 -0.1514
17373SOL     OW63772   5.542   2.517   4.637 -0.4476  0.1579  0.0341
17373SOL    HW163773   5.597   2.464   4.572 -0.1715 -0.0414  0.4243
17373SOL    HW263774   5.601   2.553   4.709 -0.6535  0.9069 -0.1655
17374SOL     OW63775   3.840   1.335   5.270  0.0759  0.0135  0.1437
17374SOL    HW163776   3.917   1.275   5.290 -0.6818 -1.0942 -0.2142
17374SOL    HW263777   3.805   1.374   5.356 -0.5638 -1.4772  0.5666
17375SOL     OW63778   6.626   4.612   2.295 -0.6747 -0.5838 -0.0851
17375SOL    HW163779   6.670   4.636   2.381  1.0885 -0.5846 -0.9629
17375SOL    HW263780   6.567   4.533   2.309 -0.6846 -0.3605  1.1975
17376SOL     OW63781   6.760   4.278   1.782 -0.3899 -0.0870  0.0358
17376SOL    HW163782   6.742   4.372   1.809 -0.4573 -0.1048  0.0531
17376SOL    HW263783   6.762   4.220   1.864  0.7595  0.0749  0.1418
17377SOL     OW63784   1.200   3.487   0.810 -0.0964  0.2939  0.1089
17377SOL    HW163785   1.293   3.460   0.785  0.0066  1.0689 -0.3518
17377SOL    HW263786   1.197   3.510   0.907 -0.2231 -1.5168  0.5526
17378SOL     OW63787   7.428   1.922   2.700  0.2382  0.7760 -0.2338
17378SOL    HW163788   7.335   1.942   2.670  0.5885 -0.1104 -1.9808
17378SOL    HW263789   7.470   1.855   2.638  0.9502 -1.2602  2.3208
17379SOL     OW63790   3.286   6.076   0.518  0.9963 -0.4079 -0.1133
17379SOL    HW163791   3.243   6.156   0.478  1.0378 -0.0532  0.5488
17379SOL    HW263792   3.304   6.092   0.615  1.4669 -1.0262 -0.0929
17380SOL     OW63793   2.534   5.774   7.672  0.1268  0.2200 -0.5504
17380SOL    HW163794   2.633   5.789   7.682  0.3219 -0.8672 -0.7821
17380SOL    HW263795   2.507   5.793   7.578  0.7510 -2.8248 -1.3960
17381SOL     OW63796   1.043   7.620   5.344 -0.1228 -0.0168  0.1208
17381SOL    HW163797   1.103   7.619   5.264  1.6358  1.5166  1.3600
17381SOL    HW263798   0.991   7.535   5.348  0.9040 -0.7646 -1.7949
17382SOL     OW63799   8.429   4.289   1.976 -0.2254 -0.3221  0.4870
17382SOL    HW163800   8.398   4.376   2.013 -1.5663 -0.7743  0.4782
17382SOL    HW263801   8.375   4.266   1.895 -0.0960 -1.3041  0.6680
17383SOL     OW63802   2.993   3.434   1.684 -0.9253  0.6947  0.7098
17383SOL    HW163803   3.039   3.451   1.771  0.2996  1.3389 -0.0445
17383SOL    HW263804   3.048   3.370   1.629 -1.7745  0.1576  0.4690
17384SOL     OW63805   9.330   8.836   7.122  0.2139  0.0274 -0.0450
17384SOL    HW163806   9.293   8.743   7.126  0.0308  0.1195  0.3483
17384SOL    HW263807   9.425   8.832   7.091  0.0749 -0.2562 -0.4489
17385SOL     OW63808   6.321   8.000   3.236  0.4329  0.1008 -0.2679
17385SOL    HW163809   6.295   7.961   3.148  0.9328  0.8065 -0.7257
17385SOL    HW263810   6.401   8.059   3.225  0.7539 -0.1331  0.7280
17386SOL     OW63811   1.330   9.459   6.334  0.5776  0.2832  0.0312
17386SOL    HW163812   1.344   9.379   6.393  0.4716  1.0665  1.1364
17386SOL    HW263813   1.273   9.433   6.256 -0.6354 -0.4052  1.1131
17387SOL     OW63814   9.915   6.124   1.509 -0.2672  0.0004 -0.9464
17387SOL    HW163815   9.855   6.161   1.580 -0.1437 -0.3650 -0.6498
17387SOL    HW263816   9.878   6.037   1.477 -0.0761 -0.0587 -1.0057
17388SOL     OW63817   3.913   7.115   4.968  0.2737  0.2393 -0.0256
17388SOL    HW163818   3.829   7.160   4.937  0.8234  0.1939 -1.6354
17388SOL    HW263819   3.906   7.017   4.951  0.2532  0.0966  0.7864
17389SOL     OW63820   0.035   1.811   0.234 -0.1918  0.0855  0.2264
17389SOL    HW163821   0.074   1.882   0.292 -2.4348  0.2775  1.5507
17389SOL    HW263822   0.108   1.766   0.183  1.5941  1.2529  1.6920
17390SOL     OW63823   8.987   0.378   6.122 -0.4697 -0.1587 -0.4432
17390SOL    HW163824   8.930   0.355   6.044 -2.1552  0.3946  0.6093
17390SOL    HW263825   9.035   0.296   6.154  0.2319 -0.3871 -2.0269
17391SOL     OW63826   5.474   8.410   3.687  0.2619  0.0151 -0.6175
17391SOL    HW163827   5.504   8.436   3.595 -1.0259  0.3089 -0.9608
17391SOL    HW263828   5.530   8.334   3.720  0.4976 -0.3270 -1.7887
17392SOL     OW63829   2.864   1.721   1.792  0.4851 -0.6152  0.2278
17392SOL    HW163830   2.795   1.649   1.804 -0.0814  0.1195  1.4038
17392SOL    HW263831   2.914   1.704   1.707  0.4194 -2.4617  0.5284
17393SOL     OW63832   1.009   6.324   4.284 -0.0226  0.1938  1.0617
17393SOL    HW163833   1.027   6.419   4.310  0.4844  1.0535 -2.2060
17393SOL    HW263834   0.917   6.315   4.247  0.3224 -0.3706  0.3215
17394SOL     OW63835   7.839   2.491   5.487 -1.0558 -0.1555 -0.4888
17394SOL    HW163836   7.824   2.545   5.571  3.4447  0.4287  0.0813
17394SOL    HW263837   7.848   2.395   5.511 -0.4684 -0.0764 -0.3918
17395SOL     OW63838   4.291   0.557   1.726 -0.0580  0.3233  0.0569
17395SOL    HW163839   4.382   0.515   1.723 -0.3669 -0.3978  0.7330
17395SOL    HW263840   4.301   0.654   1.751  0.4767  0.0635  0.9007
17396SOL     OW63841   6.092   1.426   5.560 -0.3581  0.3680  0.0343
17396SOL    HW163842   6.077   1.485   5.639  0.3541  2.0993 -1.0719
17396SOL    HW263843   6.187   1.434   5.530  0.3843 -3.1574  1.2485
17397SOL     OW63844   3.050   6.262   4.448 -0.2849 -0.0572  0.2498
17397SOL    HW163845   2.999   6.311   4.519 -2.5848  0.3955 -1.6535
17397SOL    HW263846   3.017   6.168   4.442 -0.5449  0.0850 -0.6441
17398SOL     OW63847   9.389   5.846   2.608 -0.4735 -0.0421  0.0887
17398SOL    HW163848   9.358   5.807   2.521 -1.0418  1.0790 -0.2310
17398SOL    HW263849   9.449   5.924   2.590 -0.5370  0.1542  0.6982
17399SOL     OW63850   2.097   2.077   3.978 -0.3452 -0.1084 -0.5019
17399SOL    HW163851   2.125   2.151   4.038 -1.3663 -0.7321  0.7795
17399SOL    HW263852   2.076   1.996   4.032  0.1378 -1.1459 -1.8262
17400SOL     OW63853   8.850   0.402   5.292  0.1982 -0.4625  0.0379
17400SOL    HW163854   8.848   0.435   5.198 -1.4665 -0.3657  0.0976
17400SOL    HW263855   8.851   0.480   5.354  0.8653 -0.5262  0.1057
17401SOL     OW63856   2.987   9.747   3.066  0.1111 -0.2467 -0.0631
17401SOL    HW163857   3.083   9.730   3.092  0.6804  2.1597 -0.4719
17401SOL    HW263858   2.982   9.771   2.969 -1.4094 -4.1034 -1.0314
17402SOL     OW63859   8.960   7.317   3.544 -0.2068 -0.2413  0.4566
17402SOL    HW163860   8.992   7.377   3.618  1.8746  0.4068 -0.9226
17402SOL    HW263861   9.035   7.257   3.516 -1.3761 -1.3946 -0.2644
17403SOL     OW63862   9.171   7.594   3.960  0.1315  0.7328 -0.0954
17403SOL    HW163863   9.087   7.641   3.987 -1.2250 -2.6662  1.8100
17403SOL    HW263864   9.250   7.650   3.988 -1.4010  1.1669  3.6560
17404SOL     OW63865   3.016   5.689   0.055 -0.5885  0.0891  0.1292
17404SOL    HW163866   3.104   5.673   0.099 -0.6136 -1.0943 -0.2404
17404SOL    HW263867   2.981   5.603   0.017 -0.6316  1.0186 -2.0519
17405SOL     OW63868   3.507   5.250   2.820  0.9087  0.0496 -0.0511
17405SOL    HW163869   3.485   5.345   2.843 -0.8734 -0.7212  1.5067
17405SOL    HW263870   3.544   5.204   2.900  0.4282 -0.9842 -0.4214
17406SOL     OW63871   3.332   4.959   5.168 -0.0533 -0.0928 -0.2699
17406SOL    HW163872   3.363   4.904   5.245 -1.1699 -0.0684  0.2114
17406SOL    HW263873   3.411   4.995   5.118  0.6731  0.0311  0.9580
17407SOL     OW63874   5.124   3.919   5.648 -0.1980 -0.1520 -0.1956
17407SOL    HW163875   5.206   3.875   5.612 -0.6386 -3.1071  2.2218
17407SOL    HW263876   5.047   3.901   5.586  0.3979  0.2988 -1.0732
17408SOL     OW63877   8.242   3.890   2.855 -0.1580 -0.1669 -0.2637
17408SOL    HW163878   8.168   3.823   2.853 -0.2378 -0.1178  0.8244
17408SOL    HW263879   8.329   3.844   2.873 -0.0348 -0.1299 -0.7633
17409SOL     OW63880   0.592   3.190   7.947  0.1553  0.1379 -0.8368
17409SOL    HW163881   0.632   3.269   7.993 -1.1163 -0.7826  2.0009
17409SOL    HW263882   0.493   3.197   7.950  0.0103 -1.9993  0.3127
17410SOL     OW63883   0.968   1.902   2.009  0.8036  0.5037  0.3656
17410SOL    HW163884   0.948   1.845   2.088  2.2966 -0.9382 -0.2444
17410SOL    HW263885   0.886   1.914   1.954  0.3194 -0.5670  0.8409
17411SOL     OW63886   0.515   8.699   1.309 -0.1910 -0.0581 -0.1605
17411SOL    HW163887   0.498   8.613   1.262 -0.1822  1.0213 -2.2123
17411SOL    HW263888   0.576   8.756   1.253 -1.9177  2.1412  0.1295
17412SOL     OW63889   7.440   4.048   1.960 -0.0581 -0.1297 -0.1274
17412SOL    HW163890   7.444   4.102   1.875  2.7864  1.3540  0.8691
17412SOL    HW263891   7.404   4.106   2.034  1.2510 -0.1648  0.5417
17413SOL     OW63892   9.981   1.423   5.082 -0.9066 -0.2067 -0.6507
17413SOL    HW163893   9.937   1.391   5.167 -3.0207  0.3401 -1.5076
17413SOL    HW263894   9.974   1.352   5.012  0.3234 -0.4272 -0.5650
17414SOL     OW63895   4.047   9.148   8.021 -0.1275 -0.9754 -0.0942
17414SOL    HW163896   4.094   9.079   8.076  2.1463 -0.0307 -0.8116
17414SOL    HW263897   4.009   9.105   7.940 -1.8840 -2.0303  1.2593
17415SOL     OW63898   9.500   1.345   0.058 -0.0715 -0.5391  0.3573
17415SOL    HW163899   9.455   1.426   0.097 -1.1896 -0.6271 -0.7357
17415SOL    HW263900   9.507   1.356  -0.041 -0.1802 -1.7664  0.2116
17416SOL     OW63901   3.073   3.380   6.489  0.3460  0.1008  0.2834
17416SOL    HW163902   3.072   3.282   6.510  0.7230  0.2449  0.9988
17416SOL    HW263903   3.004   3.400   6.420 -0.6274 -0.4628  1.0723
17417SOL     OW63904   1.286   6.270   2.357  0.2797  0.0388 -0.3339
17417SOL    HW163905   1.287   6.170   2.348  3.5666 -0.0934  0.6037
17417SOL    HW263906   1.194   6.304   2.342 -0.7630 -3.0696 -1.4445
17418SOL     OW63907   5.090   9.554   2.804 -0.1713 -0.3117 -0.5001
17418SOL    HW163908   5.018   9.503   2.850 -0.3296 -0.5701 -1.0226
17418SOL    HW263909   5.157   9.586   2.870 -1.1358  0.5230  0.0783
17419SOL     OW63910   2.740   8.991  10.010 -0.5756 -0.3651  0.1221
17419SOL    HW163911   2.778   9.044   9.934 -1.3523  0.3160  0.2060
17419SOL    HW263912   2.643   8.977   9.995 -0.5356 -1.0634  0.5138
17420SOL     OW63913   7.797   1.487   1.773  0.1392  0.1060  0.2043
17420SOL    HW163914   7.745   1.402   1.761 -1.7783  0.8905  2.7029
17420SOL    HW263915   7.753   1.561   1.721  1.0440 -0.0870 -0.8695
17421SOL     OW63916   1.057   4.739   7.733  0.0018 -0.0605 -0.3179
17421SOL    HW163917   1.006   4.800   7.793  0.0890  1.1953 -1.4882
17421SOL    HW263918   1.066   4.649   7.776 -1.6530  0.2255  0.6681
17422SOL     OW63919   7.248   9.414   5.003  0.6184  0.5241  0.4261
17422SOL    HW163920   7.229   9.331   5.055  0.1054  0.4721  0.1621
17422SOL    HW263921   7.252   9.492   5.065 -0.1311  0.4852  0.5365
17423SOL     OW63922   9.126   5.342   7.506  0.2207 -0.1414  0.1611
17423SOL    HW163923   9.072   5.272   7.459  0.0183 -0.6247  1.0976
17423SOL    HW263924   9.070   5.423   7.520  0.5151  0.2886 -1.1063
17424SOL     OW63925   2.245   9.610   4.434 -0.4033  0.2519 -0.2088
17424SOL    HW163926   2.272   9.556   4.514  1.4467 -0.9375 -1.5840
17424SOL    HW263927   2.151   9.589   4.409 -0.7411  0.0738  1.1876
17425SOL     OW63928   0.804   4.748   4.731  0.0449  0.2305  0.0614
17425SOL    HW163929   0.901   4.732   4.746 -0.1285 -1.8500 -0.8995
17425SOL    HW263930   0.754   4.737   4.817  0.6691  1.5671  0.6108
17426SOL     OW63931   0.086   6.469   5.287  0.2701 -0.2308  0.6445
17426SOL    HW163932   0.155   6.518   5.339  0.0491  0.8110 -0.0397
17426SOL    HW263933   0.005   6.453   5.344  1.1963 -1.7641  1.5554
17427SOL     OW63934   2.353   2.672   7.345  0.1659 -0.5287  0.6531
17427SOL    HW163935   2.418   2.734   7.302 -0.3812 -0.0179  0.5711
17427SOL    HW263936   2.403   2.607   7.403  0.7349 -0.0555  0.6938
17428SOL     OW63937   6.879   7.445   3.195 -0.9220  0.1993  0.4092
17428SOL    HW163938   6.894   7.531   3.243  0.0469  0.1220  0.2429
17428SOL    HW263939   6.780   7.429   3.187 -1.1311 -0.0596  2.8759
17429SOL     OW63940   0.047   6.913   5.846  0.1679 -0.0741 -0.1476
17429SOL    HW163941  -0.041   6.961   5.854  0.3412  0.2815 -0.3526
17429SOL    HW263942   0.118   6.968   5.889  0.1338 -0.8024  0.8593
17430SOL     OW63943   2.098   0.765   7.454  0.0069 -0.2827 -0.7657
17430SOL    HW163944   2.151   0.710   7.390 -1.1251 -1.3503 -0.8187
17430SOL    HW263945   2.076   0.710   7.535 -1.6944 -0.1370 -1.1052
17431SOL     OW63946   5.066   3.525   0.634 -0.1191  0.0558  0.0605
17431SOL    HW163947   5.157   3.544   0.596 -0.3028  1.3055  0.2028
17431SOL    HW263948   5.006   3.489   0.562 -0.0734  1.1123 -0.5160
17432SOL     OW63949   8.348   0.779   5.834  0.3010 -0.1544 -0.1148
17432SOL    HW163950   8.327   0.733   5.748 -3.0288 -3.0623  2.0952
17432SOL    HW263951   8.390   0.713   5.897  0.3628  1.2436  1.3200
17433SOL     OW63952   5.167   2.227   1.289  0.2830 -0.5192  0.0797
17433SOL    HW163953   5.098   2.300   1.284 -0.2507 -0.9425  0.9826
17433SOL    HW263954   5.255   2.266   1.317  0.3666 -0.0018 -0.8935
17434SOL     OW63955   8.494   9.731   0.704  0.4678  0.2073  0.1918
17434SOL    HW163956   8.476   9.788   0.785 -3.3646 -0.0921 -0.3908
17434SOL    HW263957   8.579   9.681   0.718  0.7016  1.3575  3.3757
17435SOL     OW63958   0.579   7.207   4.513  0.1508  0.8214  0.2848
17435SOL    HW163959   0.543   7.141   4.579 -0.0329  0.1914 -0.4299
17435SOL    HW263960   0.675   7.225   4.534  0.7457 -1.1306 -0.6134
17436SOL     OW63961   9.065   3.296   5.655  0.0597 -0.3912 -0.1470
17436SOL    HW163962   9.049   3.200   5.628 -1.5275 -1.1860  3.3714
17436SOL    HW263963   9.137   3.299   5.724 -0.4517  0.8800  0.3282
17437SOL     OW63964   9.986   9.118   6.221  0.1114  0.0260  0.4302
17437SOL    HW163965  10.052   9.193   6.232  1.7447 -1.0149 -1.7702
17437SOL    HW263966  10.035   9.031   6.222 -1.5029 -0.8869  0.7474
17438SOL     OW63967   2.820   4.689   3.947 -0.0731 -0.1899 -0.4299
17438SOL    HW163968   2.721   4.685   3.955 -0.0965 -1.6544 -1.2162
17438SOL    HW263969   2.860   4.705   4.037 -1.0311  0.8520 -0.1760
17439SOL     OW63970   6.408   0.466   5.113 -0.2171  0.2301 -0.3420
17439SOL    HW163971   6.333   0.446   5.049  0.5424 -1.8948 -0.6145
17439SOL    HW263972   6.495   0.438   5.072  0.2393 -1.5372  1.7483
17440SOL     OW63973   6.943   7.155   6.763 -0.4285 -0.1162  0.0846
17440SOL    HW163974   7.018   7.105   6.719 -1.5388 -0.6049 -1.2917
17440SOL    HW263975   6.873   7.091   6.792 -0.9023  0.4605  0.2147
17441SOL     OW63976   2.184   7.389   2.104  0.2382  0.2562 -0.1597
17441SOL    HW163977   2.169   7.340   2.019  2.0719  1.1196 -1.0169
17441SOL    HW263978   2.246   7.336   2.163 -3.5014 -1.8457  2.0385
17442SOL     OW63979   3.092   9.224   3.744 -0.8703  0.4046  0.2918
17442SOL    HW163980   3.155   9.148   3.761  1.6692  1.8365 -2.2397
17442SOL    HW263981   3.039   9.205   3.662 -1.0624  0.8579  0.3116
17443SOL     OW63982   5.103   0.338   3.623  0.5872  0.7024  0.0074
17443SOL    HW163983   5.199   0.354   3.598 -0.2630  1.6899 -2.7799
17443SOL    HW263984   5.049   0.420   3.602 -0.8008  0.3335  2.0375
17444SOL     OW63985   3.954   5.346   4.967 -0.3581  0.1662 -0.1884
17444SOL    HW163986   3.934   5.316   4.874 -0.4053 -1.4371  0.3341
17444SOL    HW263987   3.870   5.378   5.011 -0.6101 -0.5386 -0.1620
17445SOL     OW63988   9.067   4.485   3.437 -0.3549 -0.0479  0.4796
17445SOL    HW163989   9.001   4.525   3.373  0.2369 -1.8201 -1.2902
17445SOL    HW263990   9.153   4.536   3.431 -0.3131 -0.1826 -0.1145
17446SOL     OW63991   5.998   7.435   5.472 -0.2306  0.3087  0.2840
17446SOL    HW163992   6.053   7.364   5.517  0.8863  1.4383  0.7277
17446SOL    HW263993   6.007   7.425   5.373 -1.0509 -0.9099  0.3147
17447SOL     OW63994   3.090   6.725   1.897 -0.6183  0.0238 -0.2178
17447SOL    HW163995   3.134   6.646   1.940 -0.8593 -0.7432 -1.3716
17447SOL    HW263996   3.056   6.787   1.968 -1.6423 -1.5821  0.7238
17448SOL     OW63997   5.654   9.400   6.588  0.5709 -0.0504  0.2648
17448SOL    HW163998   5.617   9.359   6.505 -0.9745  0.7452  0.5352
17448SOL    HW263999   5.679   9.328   6.653  0.1612 -0.6231 -0.2068
17449SOL     OW64000   2.661   8.479   5.863  0.4313 -0.0290  0.3678
17449SOL    HW164001   2.712   8.404   5.821  0.4686 -0.4775  1.1870
17449SOL    HW264002   2.636   8.547   5.794  1.9255  0.0767 -0.0693
17450SOL     OW64003   2.655   9.294   2.290  0.1215  0.8792  0.1058
17450SOL    HW164004   2.620   9.312   2.382  0.6409  0.2054  0.4488
17450SOL    HW264005   2.624   9.203   2.260  0.7706  0.6822  0.0227
17451SOL     OW64006   3.821   7.792   1.162 -0.0270  0.0478  0.0031
17451SOL    HW164007   3.734   7.837   1.180 -0.7358 -1.4775  0.4908
17451SOL    HW264008   3.842   7.797   1.064 -0.5018  0.7053 -0.0655
17452SOL     OW64009   6.722   3.482   1.679 -0.0888 -0.1089 -0.1605
17452SOL    HW164010   6.667   3.418   1.627  0.5778  2.1680 -3.8588
17452SOL    HW264011   6.663   3.555   1.715 -0.1752 -0.2394 -0.0398
17453SOL     OW64012   4.740   7.025   3.157  0.2177  0.2372 -0.8215
17453SOL    HW164013   4.649   6.983   3.147  0.5201 -0.7133  0.2415
17453SOL    HW264014   4.810   6.954   3.149  0.8735  0.9652 -1.6242
17454SOL     OW64015   3.260   5.217   2.427  0.1790 -0.1585  0.4684
17454SOL    HW164016   3.238   5.201   2.331 -2.0387  1.0537  0.7407
17454SOL    HW264017   3.190   5.175   2.485 -0.5835  2.2989  1.4214
17455SOL     OW64018   2.941   1.157   6.781  0.2764  0.3109  0.5015
17455SOL    HW164019   2.959   1.111   6.694  2.7636 -0.6265  1.4809
17455SOL    HW264020   2.995   1.241   6.786  0.4771  0.1305  1.3517
17456SOL     OW64021   5.705   0.250   7.054  0.1233  0.7718  0.4655
17456SOL    HW164022   5.751   0.166   7.083 -0.5716  0.5561  0.9452
17456SOL    HW264023   5.672   0.300   7.135  0.9012  1.7171  0.2100
17457SOL     OW64024   7.676   6.504   1.713  0.0726 -0.3682 -0.0254
17457SOL    HW164025   7.635   6.595   1.706 -1.0987 -0.6635  2.6707
17457SOL    HW264026   7.648   6.461   1.798  3.3755 -1.9112  0.3679
17458SOL     OW64027   2.720   9.043   4.570 -0.1846  0.1214  0.3849
17458SOL    HW164028   2.659   9.025   4.493  1.2440 -0.2357 -0.6925
17458SOL    HW264029   2.667   9.058   4.653 -1.7074 -0.4431 -0.4835
17459SOL     OW64030   4.156   0.011   4.818 -0.2169 -0.2597  0.7202
17459SOL    HW164031   4.068  -0.018   4.781  0.0928 -0.2041 -0.0725
17459SOL    HW264032   4.210   0.055   4.746 -0.5616  2.0537  1.8183
17460SOL     OW64033   0.056   8.112   5.890 -0.0122 -0.1200 -0.1344
17460SOL    HW164034   0.061   8.140   5.794 -1.1355  1.1592  0.1799
17460SOL    HW264035   0.079   8.014   5.896 -0.3812 -0.3346 -1.7589
17461SOL     OW64036   3.375   7.595   9.893 -0.3451  0.0602  1.2853
17461SOL    HW164037   3.403   7.644   9.810 -1.5754 -0.6166  0.4542
17461SOL    HW264038   3.282   7.559   9.881 -0.7639  0.4488  3.1868
17462SOL     OW64039   3.527   0.329   6.429 -0.2446 -0.1982  0.2099
17462SOL    HW164040   3.542   0.343   6.332 -1.1178  0.0524  0.1062
17462SOL    HW264041   3.468   0.249   6.443  3.2581 -2.8202  0.7168
17463SOL     OW64042   4.546   7.300   0.184  0.5542  0.4431 -0.0981
17463SOL    HW164043   4.473   7.304   0.115  0.2718 -1.9144  0.0247
17463SOL    HW264044   4.575   7.393   0.207 -1.9390  1.3860 -0.6317
17464SOL     OW64045   3.596   2.277   3.941  0.3272  0.0648 -0.3635
17464SOL    HW164046   3.567   2.208   4.007  1.3536 -0.8157 -0.8049
17464SOL    HW264047   3.635   2.232   3.861  1.4767  1.1686 -0.4457
17465SOL     OW64048   7.588   8.255   5.278  0.3676 -0.2020  0.6160
17465SOL    HW164049   7.585   8.260   5.178 -0.1455 -0.7428  0.5987
17465SOL    HW264050   7.520   8.189   5.310 -0.6784  1.2351  1.4235
17466SOL     OW64051   5.797   0.036   4.590 -0.1134 -0.1239 -0.3109
17466SOL    HW164052   5.741  -0.011   4.659 -0.8142  0.0317 -0.7742
17466SOL    HW264053   5.883   0.065   4.632  1.1967 -3.5140 -0.4766
17467SOL     OW64054   0.875   6.512   6.088  0.7556  0.1258 -0.2906
17467SOL    HW164055   0.799   6.570   6.118  1.4403  1.3171 -0.8273
17467SOL    HW264056   0.938   6.567   6.034  0.4946 -1.5561 -2.3337
17468SOL     OW64057   4.567   8.948   4.301  0.4468  0.5432 -1.0878
17468SOL    HW164058   4.533   8.855   4.283 -0.7192  0.4594  1.3455
17468SOL    HW264059   4.506   8.994   4.366  2.2295  2.2340 -0.5645
17469SOL     OW64060   3.881   1.839   0.684 -0.0629  0.4142  0.0807
17469SOL    HW164061   3.817   1.915   0.675 -0.4901  0.3027  1.8277
17469SOL    HW264062   3.952   1.864   0.750 -0.7551 -1.0429  1.4024
17470SOL     OW64063   9.246   6.048   1.238 -0.1855  0.0556 -0.3569
17470SOL    HW164064   9.190   6.107   1.179 -0.8060 -0.0228  0.1590
17470SOL    HW264065   9.328   6.098   1.267 -1.5468  1.2610  1.4721
17471SOL     OW64066   9.268   4.669   2.979 -0.1489  0.1514 -0.2245
17471SOL    HW164067   9.262   4.606   3.056 -0.3743 -0.7319 -0.9519
17471SOL    HW264068   9.313   4.623   2.902  0.2815  1.0944 -0.5498
17472SOL     OW64069   0.861   0.965   7.093  0.3523 -0.4738 -0.9230
17472SOL    HW164070   0.957   0.935   7.089  0.3224 -0.3979 -2.8561
17472SOL    HW264071   0.824   0.969   7.000 -1.3277  0.1647 -0.2412
17473SOL     OW64072   3.363   5.850   7.452 -0.4054 -0.6715  0.4460
17473SOL    HW164073   3.461   5.838   7.461 -0.3297  1.1568  2.3354
17473SOL    HW264074   3.337   5.846   7.356  1.3845 -2.0145  0.0046
17474SOL     OW64075   5.992   2.231   4.391  0.0459  0.1830  0.4814
17474SOL    HW164076   6.028   2.317   4.354 -0.1822  0.4734  0.9253
17474SOL    HW264077   6.068   2.176   4.427  0.2236  0.0670 -0.0662
17475SOL     OW64078   1.343   5.739   0.935  0.2390 -0.3690 -0.3798
17475SOL    HW164079   1.328   5.701   0.844 -1.3587  0.8521 -0.6522
17475SOL    HW264080   1.418   5.690   0.980 -1.3480 -3.4109 -0.9300
17476SOL     OW64081   7.824   0.006   7.336 -0.0571  0.2289  0.0970
17476SOL    HW164082   7.824  -0.091   7.362  1.3954  0.2010  0.0757
17476SOL    HW264083   7.832   0.063   7.418  0.1180  0.2923  0.0371
17477SOL     OW64084   5.877   9.178   7.601  0.1335 -0.3743 -0.0313
17477SOL    HW164085   5.953   9.195   7.539  0.0003  1.1051  0.1974
17477SOL    HW264086   5.806   9.247   7.586 -0.3836 -0.6798  0.9778
17478SOL     OW64087   0.078   1.030   3.862 -0.0608  0.1437  0.4746
17478SOL    HW164088   0.164   1.025   3.914 -0.6140 -0.8478  1.3069
17478SOL    HW264089   0.020   1.101   3.901 -0.6745 -0.9245  1.5296
17479SOL     OW64090   4.681   9.370   6.724 -0.3852  0.0564  0.1876
17479SOL    HW164091   4.624   9.452   6.720  0.8404  1.0611  2.2771
17479SOL    HW264092   4.647   9.310   6.796 -0.7477 -0.8748 -0.7502
17480SOL     OW64093   0.190   5.677   0.807  0.0588 -0.1474  0.0061
17480SOL    HW164094   0.288   5.695   0.804  0.3517 -1.4130  1.3631
17480SOL    HW264095   0.169   5.600   0.747 -0.4293  1.4035 -1.8581
17481SOL     OW64096   2.352   4.249   2.681 -0.0329  0.3710 -0.0811
17481SOL    HW164097   2.350   4.305   2.599 -0.3530  0.9915  0.3437
17481SOL    HW264098   2.395   4.302   2.755  0.0253 -0.0910  0.2129
17482SOL     OW64099   0.485   3.248   4.041  0.1043 -0.2690  0.7088
17482SOL    HW164100   0.498   3.162   4.091  0.7149 -0.7177 -0.2092
17482SOL    HW264101   0.409   3.239   3.977  1.2362 -0.6999 -0.6077
17483SOL     OW64102   4.441   9.050   5.260 -0.2638 -0.2477  0.2394
17483SOL    HW164103   4.382   9.130   5.260  1.6725  1.2846 -2.5588
17483SOL    HW264104   4.397   8.975   5.211 -0.7078  0.2165 -0.0662
17484SOL     OW64105   9.222   5.747   0.368  0.5839 -0.3582  0.0760
17484SOL    HW164106   9.237   5.648   0.359 -0.8596 -0.6118  0.2313
17484SOL    HW264107   9.185   5.783   0.283  1.0886  0.0386  0.0283
17485SOL     OW64108   3.517   3.489   2.390  0.0575  0.0975  0.3132
17485SOL    HW164109   3.441   3.527   2.441 -0.5472 -0.6186 -0.0406
17485SOL    HW264110   3.514   3.389   2.395  0.1428  0.0294 -0.8983
17486SOL     OW64111   8.971   8.806   6.644 -0.4908  0.0523  0.0715
17486SOL    HW164112   9.047   8.762   6.597 -2.1068 -0.6662 -1.9556
17486SOL    HW264113   9.004   8.848   6.728  2.1341 -0.2556 -0.7452
17487SOL     OW64114   6.550   0.556   1.813  0.1768  0.0199 -0.2093
17487SOL    HW164115   6.501   0.615   1.876 -0.0593 -2.4504  1.9659
17487SOL    HW264116   6.605   0.490   1.864  2.0748 -0.3231 -2.5938
17488SOL     OW64117   8.162   4.442   1.714  0.3160 -0.6247  0.0406
17488SOL    HW164118   8.192   4.458   1.620 -0.7529 -2.3188 -0.6179
17488SOL    HW264119   8.196   4.353   1.745 -0.9980 -0.9732  0.5320
17489SOL     OW64120   2.913   6.365   1.242 -0.2705 -0.1353  0.1200
17489SOL    HW164121   3.004   6.404   1.257 -1.1292  1.3191  1.7619
17489SOL    HW264122   2.915   6.306   1.161  1.7524  1.0844 -0.7703
17490SOL     OW64123   3.712   3.621   2.553 -0.1769  0.2584 -0.5699
17490SOL    HW164124   3.806   3.590   2.537 -0.0323  0.9570 -1.0503
17490SOL    HW264125   3.649   3.564   2.500  0.0178  0.1648 -0.7017
17491SOL     OW64126   2.522   4.444   6.003 -0.0635 -0.4262 -0.0726
17491SOL    HW164127   2.526   4.495   6.089  0.8862  1.2050 -1.0503
17491SOL    HW264128   2.615   4.418   5.975 -0.3147 -0.5296 -0.8342
17492SOL     OW64129   0.944   2.195   2.921  0.2286 -0.3563  0.2968
17492SOL    HW164130   0.879   2.197   2.845  1.5457  0.3026 -0.8179
17492SOL    HW264131   1.000   2.278   2.920  1.4636 -1.1656  0.9377
17493SOL     OW64132   4.019   9.673   3.120  0.6429 -0.3687  0.2610
17493SOL    HW164133   3.973   9.584   3.113 -0.7136  0.3218  0.3598
17493SOL    HW264134   3.958   9.745   3.087  1.5504  0.5980  0.6678
17494SOL     OW64135   3.844   7.536   5.680 -0.2117 -0.0956 -0.1963
17494SOL    HW164136   3.789   7.588   5.746 -0.3987  0.5074 -0.8217
17494SOL    HW264137   3.904   7.473   5.729 -0.0092  0.6855  0.5822
17495SOL     OW64138   4.750   8.946   3.832  0.5879 -0.3422  0.4317
17495SOL    HW164139   4.709   9.037   3.833  1.8953  0.3007 -1.0077
17495SOL    HW264140   4.678   8.877   3.831 -0.4143  0.6673  1.8782
17496SOL     OW64141   7.125   7.640   5.636  0.0642  0.4109 -0.3769
17496SOL    HW164142   7.211   7.664   5.591  2.7249  1.5876  4.9620
17496SOL    HW264143   7.123   7.541   5.652 -0.4291  0.1325 -2.0834
17497SOL     OW64144   5.677   2.348   5.310 -0.4553 -0.3738  0.1010
17497SOL    HW164145   5.771   2.341   5.345 -0.5074  0.4219  0.4123
17497SOL    HW264146   5.629   2.421   5.358 -1.3921 -1.0933  0.2802
17498SOL     OW64147   6.227   0.421   1.753 -0.0294 -0.0355  0.8562
17498SOL    HW164148   6.279   0.463   1.679 -0.3868  0.1351  0.7006
17498SOL    HW264149   6.130   0.421   1.729 -0.1130 -0.2337  1.2017
17499SOL     OW64150   0.499   1.078   1.151  0.3806  0.1196 -0.2074
17499SOL    HW164151   0.469   1.040   1.064  1.3654 -1.6264  0.2010
17499SOL    HW264152   0.419   1.096   1.209 -0.2303  0.7274 -1.2328
17500SOL     OW64153   7.269   0.863   6.969  0.3740 -0.0139  0.4056
17500SOL    HW164154   7.328   0.846   7.048 -1.4301 -0.7535  1.6347
17500SOL    HW264155   7.207   0.786   6.956  0.0163  0.5141 -1.1823
17501SOL     OW64156   8.212   6.137   7.046 -0.2756 -0.2398 -0.4152
17501SOL    HW164157   8.147   6.199   7.003 -2.9462 -2.3377  0.3672
17501SOL    HW264158   8.190   6.129   7.143 -0.3260 -2.7034 -0.5851
17502SOL     OW64159   2.264   3.380   5.194 -0.4869  0.1286 -0.6389
17502SOL    HW164160   2.210   3.374   5.110 -1.2477  0.8906 -0.2185
17502SOL    HW264161   2.208   3.351   5.272  1.0453 -3.1708 -0.7040
17503SOL     OW64162   8.692   2.745   2.731 -0.6425 -0.0461  0.3792
17503SOL    HW164163   8.734   2.684   2.664  0.7242  2.5256 -1.1776
17503SOL    HW264164   8.730   2.726   2.822 -0.3286 -1.5723 -0.0544
17504SOL     OW64165   9.743   0.122   0.178 -0.2338 -0.3403  0.1891
17504SOL    HW164166   9.656   0.087   0.213  0.1504 -2.9024 -1.2977
17504SOL    HW264167   9.818   0.065   0.211  0.4600 -0.7028 -1.9535
17505SOL     OW64168   9.244   0.890   1.975 -0.1275  0.4734 -0.3523
17505SOL    HW164169   9.258   0.891   1.876 -0.4277  0.6531 -0.3958
17505SOL    HW264170   9.305   0.823   2.018  0.7418  1.1466 -0.5451
17506SOL     OW64171   3.325   1.518   6.196  0.2203 -0.3282 -0.1846
17506SOL    HW164172   3.226   1.528   6.192  0.1154 -0.4755  1.4427
17506SOL    HW264173   3.361   1.570   6.274  1.3474 -0.7397 -0.4141
17507SOL     OW64174   3.138   5.430   0.710  0.4777 -0.5863  0.1001
17507SOL    HW164175   3.158   5.419   0.807 -1.5864  1.9525  0.8650
17507SOL    HW264176   3.049   5.387   0.689 -1.7509  3.5494  0.5725
17508SOL     OW64177   7.139   9.508   5.983 -0.6426 -0.1363 -0.5823
17508SOL    HW164178   7.237   9.521   5.971 -0.8346  0.8029 -1.1846
17508SOL    HW264179   7.121   9.413   6.009  0.6202  0.2280  1.8542
17509SOL     OW64180   4.800   8.538   7.830  0.2936 -0.0718 -0.8303
17509SOL    HW164181   4.784   8.586   7.916 -1.9512 -1.7700 -0.2309
17509SOL    HW264182   4.876   8.475   7.840 -0.9322 -1.3976  0.4411
17510SOL     OW64183   6.112   1.112   6.509  0.0773 -0.1563 -0.1647
17510SOL    HW164184   6.053   1.185   6.475  0.5584  0.5594  0.5203
17510SOL    HW264185   6.116   1.115   6.608  1.6437  0.1184 -0.2121
17511SOL     OW64186   1.217   2.010   1.284  0.2137  0.1502  0.1121
17511SOL    HW164187   1.261   1.946   1.347 -1.4909 -0.5600  0.6250
17511SOL    HW264188   1.272   2.093   1.277  2.0038 -1.0085  0.1232
17512SOL     OW64189   7.741   3.040   6.098 -0.3464 -0.4217  0.2148
17512SOL    HW164190   7.793   3.023   6.014  1.7108 -0.2758  1.4083
17512SOL    HW264191   7.662   3.098   6.077 -1.4370 -2.6237 -2.0535
17513SOL     OW64192   2.136   2.126   0.396 -0.7580 -0.2951  0.1461
17513SOL    HW164193   2.037   2.125   0.410 -1.0681  1.1762 -1.7616
17513SOL    HW264194   2.161   2.050   0.335 -0.8412 -0.1107 -0.1200
17514SOL     OW64195   7.917   5.635   6.098  0.2521 -0.1716 -0.1279
17514SOL    HW164196   7.895   5.694   6.021  1.4113 -0.0019 -0.3335
17514SOL    HW264197   7.985   5.680   6.157  1.0708 -1.2475 -0.2297
17515SOL     OW64198   3.095   2.703   5.509  0.1214 -0.1459  0.3750
17515SOL    HW164199   3.082   2.685   5.411 -0.2166  1.3937  0.1353
17515SOL    HW264200   3.029   2.649   5.561 -0.5177 -0.0368 -0.3101
17516SOL     OW64201   9.742   2.814   3.297  0.1761  0.1607 -0.2001
17516SOL    HW164202   9.715   2.772   3.383 -0.2169 -1.4768 -1.1021
17516SOL    HW264203   9.672   2.796   3.227  0.5482  1.3590 -0.9060
17517SOL     OW64204   3.231   3.110   0.675 -0.2862 -0.6289 -0.3279
17517SOL    HW164205   3.244   3.196   0.626 -1.0993 -0.0806  0.3970
17517SOL    HW264206   3.203   3.039   0.611  1.7454 -0.7093 -1.1604
17518SOL     OW64207   2.163   9.629   0.930  0.0354 -0.3598 -0.0347
17518SOL    HW164208   2.223   9.684   0.873 -1.5455  1.0116 -0.4249
17518SOL    HW264209   2.140   9.544   0.883 -0.1369  0.1339 -0.8489
17519SOL     OW64210   7.586   2.491   6.927 -0.0551  0.2770 -0.1198
17519SOL    HW164211   7.674   2.453   6.956 -0.7592 -1.4977 -0.2655
17519SOL    HW264212   7.514   2.425   6.946 -1.5225  2.1474  1.0104
17520SOL     OW64213   3.148   2.333   4.839  0.0961 -0.2556  0.3626
17520SOL    HW164214   3.135   2.275   4.759 -1.0537  0.6326 -0.1063
17520SOL    HW264215   3.242   2.367   4.841  0.5799 -1.5621  0.2705
17521SOL     OW64216   3.190   8.713   6.651  0.3305  0.0203  0.3365
17521SOL    HW164217   3.250   8.792   6.644  1.8152 -0.8009  2.9798
17521SOL    HW264218   3.210   8.649   6.577 -0.8054  2.0135 -1.7492
17522SOL     OW64219   7.381   8.604   8.540  0.3965 -0.6691  0.1658
17522SOL    HW164220   7.473   8.615   8.503  0.9658  0.6432  1.8939
17522SOL    HW264221   7.337   8.694   8.548  0.0123 -0.9834  1.8919
17523SOL     OW64222   2.612   5.287   6.120 -0.1802 -0.2887 -0.0145
17523SOL    HW164223   2.615   5.384   6.144 -1.2658 -0.6541  1.6737
17523SOL    HW264224   2.684   5.238   6.168 -0.9180 -0.6455  0.7469
17524SOL     OW64225   9.090   5.872   0.152  0.0162  0.0820 -0.0837
17524SOL    HW164226   9.110   5.965   0.121  0.9188 -0.1124 -0.1024
17524SOL    HW264227   9.004   5.871   0.204  1.8628  1.5863  3.0864
17525SOL     OW64228   5.027   2.498   1.345 -0.2222 -0.8418  0.2812
17525SOL    HW164229   4.942   2.453   1.318 -0.1672  0.0346 -1.4788
17525SOL    HW264230   5.016   2.597   1.335  0.2459 -0.5644  2.3357
17526SOL     OW64231   3.371   2.506   7.072 -0.5039 -0.1449  0.2662
17526SOL    HW164232   3.281   2.505   7.115 -0.9011 -0.1034 -0.5430
17526SOL    HW264233   3.362   2.478   6.976  0.3151  0.0377  0.1335
17527SOL     OW64234   3.810   1.748   0.240 -0.1259  0.4326  0.0374
17527SOL    HW164235   3.781   1.698   0.159  1.5214 -0.4969  0.0003
17527SOL    HW264236   3.831   1.843   0.216  1.7305 -0.1934 -0.9343
17528SOL     OW64237   9.717   7.602   5.618 -0.1825 -0.6431 -0.2369
17528SOL    HW164238   9.769   7.529   5.662  0.6602  0.3743  0.4987
17528SOL    HW264239   9.691   7.671   5.687  1.9462  1.4310 -1.4387
17529SOL     OW64240   1.960   7.177   3.671  0.2530  0.0046  0.2618
17529SOL    HW164241   1.874   7.127   3.666  0.5511 -0.5608  0.7721
17529SOL    HW264242   2.029   7.121   3.718  0.5783  0.8914  0.8543
17530SOL     OW64243   7.379   9.846   7.015  0.0913  0.2846  0.2215
17530SOL    HW164244   7.316   9.836   7.092  0.6706 -0.8155  0.5702
17530SOL    HW264245   7.473   9.845   7.048  0.3065  3.6560 -0.1202
17531SOL     OW64246   6.689   1.656   2.240 -0.4766 -0.0499  0.4345
17531SOL    HW164247   6.716   1.751   2.251  2.1576 -0.3869 -2.4442
17531SOL    HW264248   6.679   1.613   2.330 -1.3842  2.8095  1.7426
17532SOL     OW64249   1.744   9.522   0.394  0.8771  0.5587 -0.2591
17532SOL    HW164250   1.651   9.554   0.415  1.5232  1.1467  1.7760
17532SOL    HW264251   1.742   9.424   0.376  0.2817  0.0262  2.6040
17533SOL     OW64252   2.014   9.206   5.010  0.4603  0.1904  0.7142
17533SOL    HW164253   1.944   9.221   4.940  0.7838 -0.9394  0.1288
17533SOL    HW264254   2.007   9.277   5.081 -0.5580  0.7185  0.0924
17534SOL     OW64255   0.925   8.425   1.610  0.1376  0.1534  0.4170
17534SOL    HW164256   0.940   8.361   1.685  1.7548  1.0589  0.9004
17534SOL    HW264257   0.867   8.383   1.541 -0.2607 -1.1828  1.5424
17535SOL     OW64258   0.595   5.450   6.899 -0.0049  0.0666 -0.1879
17535SOL    HW164259   0.620   5.476   6.992 -0.9066 -0.5801  0.2443
17535SOL    HW264260   0.587   5.350   6.893  0.2278  0.0943 -0.9966
17536SOL     OW64261   7.799   3.943   0.127  0.6526  0.5355  0.2330
17536SOL    HW164262   7.727   4.013   0.131  1.1398  1.0631 -0.0447
17536SOL    HW264263   7.787   3.878   0.202  0.1173  0.8456  0.4194
17537SOL     OW64264   2.655   2.961   6.820  0.5596  0.3167  0.2865
17537SOL    HW164265   2.699   3.038   6.866  1.0147  0.0631  0.2873
17537SOL    HW264266   2.600   2.994   6.743  0.5734  0.6589  0.4241
17538SOL     OW64267   9.111   0.210   5.024  0.9245  0.1972  0.0228
17538SOL    HW164268   9.021   0.179   4.993  0.1952  1.1421  1.1697
17538SOL    HW264269   9.143   0.283   4.965  0.6667  0.2722 -0.0241
17539SOL     OW64270   3.550   6.988   2.922 -0.2286  0.6774  0.6169
17539SOL    HW164271   3.518   6.961   3.013  0.1215 -0.6665  0.3533
17539SOL    HW264272   3.472   7.021   2.868 -0.6664  0.2318  0.9691
17540SOL     OW64273   7.208   5.105   9.964 -0.4948 -0.4121 -0.7118
17540SOL    HW164274   7.188   5.007   9.970 -3.2794  0.2429  2.6774
17540SOL    HW264275   7.283   5.128  10.026 -0.4246 -0.2511 -0.8520
17541SOL     OW64276   3.019   1.326   1.053 -0.3491 -0.2852 -0.1485
17541SOL    HW164277   2.976   1.410   1.019  1.8909  0.4415 -1.3211
17541SOL    HW264278   3.025   1.259   0.979  0.1118 -0.5403  0.1159
17542SOL     OW64279   1.855   3.117   5.408 -0.0408  0.1198 -0.3096
17542SOL    HW164280   1.811   3.042   5.360 -1.2002  0.3922  0.3067
17542SOL    HW264281   1.814   3.128   5.499  1.8733 -0.1629  0.6337
17543SOL     OW64282   4.648   8.213   4.058 -0.0090 -0.0989 -0.2633
17543SOL    HW164283   4.669   8.126   4.012 -1.0799 -0.8784  0.6934
17543SOL    HW264284   4.729   8.271   4.057  0.3288 -0.5742 -2.0924
17544SOL     OW64285   2.244   6.398   2.650  0.2847  0.1765 -0.4583
17544SOL    HW164286   2.149   6.425   2.630  0.2799 -0.4557 -1.3233
17544SOL    HW264287   2.300   6.412   2.568  0.4131 -1.8059 -0.7258
17545SOL     OW64288   3.097   5.132   4.247  0.8124  0.1519 -0.0786
17545SOL    HW164289   3.117   5.230   4.234  1.2151  0.0926  0.0887
17545SOL    HW264290   3.027   5.121   4.317  0.4689  0.3421 -0.3881
17546SOL     OW64291   5.275   1.950   1.226 -0.2307  0.0416 -0.0748
17546SOL    HW164292   5.223   2.034   1.241 -0.1559 -0.2816  2.1784
17546SOL    HW264293   5.331   1.959   1.144 -0.6835  1.9572 -0.1895
17547SOL     OW64294   8.381   9.482   4.151  0.4922 -0.1149 -0.8614
17547SOL    HW164295   8.347   9.500   4.058 -3.0873 -0.9781  0.1913
17547SOL    HW264296   8.344   9.551   4.213 -0.0191 -1.6038  0.5017
17548SOL     OW64297   1.768   7.961   4.437 -0.1682 -0.1334  0.5782
17548SOL    HW164298   1.702   7.894   4.403  0.1811 -1.3314  2.2020
17548SOL    HW264299   1.727   8.011   4.514  0.3496  0.0433  0.7382
17549SOL     OW64300   8.905   7.990   7.049 -0.0336  0.2999  0.1695
17549SOL    HW164301   8.978   8.044   7.008 -0.8776  0.6417 -0.9207
17549SOL    HW264302   8.818   8.038   7.040 -0.3921 -0.0747  1.5070
17550SOL     OW64303   1.047   8.507   4.869 -0.1362 -0.3230 -0.0043
17550SOL    HW164304   1.049   8.561   4.953  0.2841  0.1797 -0.3446
17550SOL    HW264305   1.020   8.565   4.792  1.6573 -0.2655 -0.6143
17551SOL     OW64306   7.800   9.865   2.939 -0.8236 -0.1612 -0.0195
17551SOL    HW164307   7.840   9.934   2.999 -0.6526 -0.4179  0.1609
17551SOL    HW264308   7.702   9.884   2.927 -1.3263 -1.3205  2.0417
17552SOL     OW64309   2.654   1.743   2.545 -0.1155 -0.1186 -0.2092
17552SOL    HW164310   2.730   1.704   2.493 -1.4673  0.4097 -2.6628
17552SOL    HW264311   2.567   1.721   2.499 -1.3904 -0.0484  2.1073
17553SOL     OW64312   6.841   5.337   0.124  0.9281  0.6319 -0.0394
17553SOL    HW164313   6.762   5.296   0.169  1.2887  0.9614  0.9020
17553SOL    HW264314   6.864   5.284   0.042  1.2814 -0.9342  1.0559
17554SOL     OW64315   0.785   3.643   1.667 -0.3342  0.1258 -0.7827
17554SOL    HW164316   0.710   3.643   1.601 -0.4080 -0.3744 -0.7033
17554SOL    HW264317   0.842   3.724   1.653 -0.8383  0.4598 -0.9008
17555SOL     OW64318   2.548   7.659   3.037 -0.1285 -0.1654  0.5431
17555SOL    HW164319   2.610   7.587   3.070 -1.3981 -1.3749  0.3544
17555SOL    HW264320   2.495   7.624   2.960  0.7555  1.6972 -0.9409
17556SOL     OW64321   0.875   4.411   0.599  0.4137  0.5372 -0.4017
17556SOL    HW164322   0.885   4.381   0.504  1.4855 -0.1905 -0.0633
17556SOL    HW264323   0.959   4.391   0.650 -1.1504 -1.6986  1.4088
17557SOL     OW64324   9.621   8.156   6.971 -1.0439 -0.2251 -0.5793
17557SOL    HW164325   9.546   8.200   6.921 -1.5871  0.6029  0.9380
17557SOL    HW264326   9.623   8.190   7.064  1.9134  0.5422 -0.8968
17558SOL     OW64327   6.307   0.083   1.634  0.3335  0.0921 -0.3779
17558SOL    HW164328   6.326  -0.008   1.597 -0.4707  0.0110 -0.6108
17558SOL    HW264329   6.387   0.117   1.683  0.4088 -1.0119  0.2666
17559SOL     OW64330   2.571   2.851   7.770 -0.5653  0.2869  0.3096
17559SOL    HW164331   2.594   2.837   7.867 -0.7401 -0.7806  0.2028
17559SOL    HW264332   2.476   2.883   7.764 -1.6242 -2.7100  0.3396
17560SOL     OW64333   7.132   8.795   4.436  0.1153  0.0801  0.5970
17560SOL    HW164334   7.166   8.889   4.441  0.0978  0.0981  0.3869
17560SOL    HW264335   7.035   8.793   4.461 -0.4737  0.4514 -1.6033
17561SOL     OW64336   9.033   4.436   2.399 -0.1597 -0.3523  0.7339
17561SOL    HW164337   9.103   4.504   2.418 -0.0271 -0.9346  2.4112
17561SOL    HW264338   8.944   4.482   2.389  0.4217  0.3720 -1.2949
17562SOL     OW64339   0.258   4.654   4.819 -0.3136 -0.6775  0.1662
17562SOL    HW164340   0.252   4.557   4.843  0.0584 -0.7944 -0.2252
17562SOL    HW264341   0.218   4.709   4.893  1.9508 -0.9619  1.6258
17563SOL     OW64342   1.399   9.182   4.149 -0.0378  0.0354 -0.6613
17563SOL    HW164343   1.328   9.143   4.091 -0.1877 -0.2600 -0.2823
17563SOL    HW264344   1.451   9.250   4.098 -1.4269  1.1856 -0.5503
17564SOL     OW64345   8.552   5.162   2.826  0.4019  0.2360  0.5211
17564SOL    HW164346   8.613   5.084   2.808  0.3001 -0.2225  2.0909
17564SOL    HW264347   8.533   5.168   2.924 -1.0415  1.1673  0.2040
17565SOL     OW64348   4.964   0.700   4.614 -0.6043 -0.1827 -0.0209
17565SOL    HW164349   4.901   0.622   4.609  0.5277 -1.0497 -0.9570
17565SOL    HW264350   5.048   0.673   4.660 -0.3403  0.5935 -0.0328
17566SOL     OW64351   2.012   7.635   3.819  0.0400 -0.0891  0.5503
17566SOL    HW164352   2.084   7.656   3.753  0.9363 -0.5486  1.3694
17566SOL    HW264353   1.966   7.720   3.845  1.3708  0.4447  1.2440
17567SOL     OW64354   9.162   6.447   3.442 -0.1491 -0.7607  0.0705
17567SOL    HW164355   9.186   6.530   3.492  0.7966 -1.1485  0.2714
17567SOL    HW264356   9.224   6.373   3.467 -0.6345 -1.3832 -0.5207
17568SOL     OW64357   6.040   9.951   4.139  0.5118 -0.0992  0.5757
17568SOL    HW164358   6.103  10.027   4.151 -0.3395  0.7279 -0.1209
17568SOL    HW264359   5.964   9.961   4.203  0.8484 -0.8572  1.1066
17569SOL     OW64360   5.219   8.682   4.036  0.6188  0.8770 -0.2676
17569SOL    HW164361   5.289   8.695   4.107  1.6727 -0.5690 -1.0036
17569SOL    HW264362   5.264   8.659   3.949 -0.7094  1.4938 -1.1381
17570SOL     OW64363   8.090   4.636   1.324 -0.1474 -0.1250  0.3791
17570SOL    HW164364   8.176   4.594   1.295 -0.1232 -0.0210  0.3020
17570SOL    HW264365   8.038   4.665   1.244  0.1525  0.6338  0.4553
17571SOL     OW64366   5.763   7.573   5.292 -0.5540 -0.0874  0.3683
17571SOL    HW164367   5.663   7.568   5.300 -0.5579  0.1262  0.4791
17571SOL    HW264368   5.790   7.558   5.197 -0.6092 -1.2893  0.5404
17572SOL     OW64369   3.677   6.146   4.037 -0.1100  0.0047  0.1682
17572SOL    HW164370   3.745   6.114   3.971 -1.4601 -0.8222 -0.8506
17572SOL    HW264371   3.654   6.072   4.100 -0.8005 -0.0402 -0.1277
17573SOL     OW64372   6.527   8.611   6.646  0.2096 -0.2173  0.0879
17573SOL    HW164373   6.505   8.693   6.699 -1.7910  0.0182 -1.0554
17573SOL    HW264374   6.553   8.538   6.708  0.0283  0.6904  1.2582
17574SOL     OW64375   4.619   3.515   7.053 -0.4596  0.2669  0.2127
17574SOL    HW164376   4.533   3.512   7.105 -0.7158  1.4875 -0.1105
17574SOL    HW264377   4.608   3.465   6.967 -1.3234  1.6249 -0.4920
17575SOL     OW64378   9.893   1.647   6.273  0.1987  0.3951 -0.0375
17575SOL    HW164379   9.976   1.616   6.227 -0.0187  1.8173 -1.3948
17575SOL    HW264380   9.829   1.684   6.206 -1.9547 -1.5840  0.8636
17576SOL     OW64381   5.765   9.556   6.924 -0.1365  0.4582 -0.1792
17576SOL    HW164382   5.779   9.597   7.014  1.9060 -0.3657 -0.0991
17576SOL    HW264383   5.833   9.592   6.860 -0.0925 -0.6902 -0.7954
17577SOL     OW64384   2.374   1.336   4.135  0.0705  0.0052  0.1205
17577SOL    HW164385   2.280   1.307   4.123  0.3338 -1.2051  1.0012
17577SOL    HW264386   2.397   1.404   4.064 -1.5509  0.5733  0.1283
17578SOL     OW64387   2.092   4.494   6.176  0.2591  0.4198  0.2157
17578SOL    HW164388   2.124   4.400   6.172 -0.1747  0.3335 -3.1869
17578SOL    HW264389   2.168   4.556   6.158  0.7072  0.8068  3.2169
17579SOL     OW64390   9.780   0.626   1.140  0.0689 -0.0656 -0.1572
17579SOL    HW164391   9.761   0.724   1.140 -1.1494 -0.2934  0.2885
17579SOL    HW264392   9.694   0.575   1.148  0.6550 -1.1796 -0.7678
17580SOL     OW64393   9.675   7.368   8.144 -0.0510  0.0541  0.0611
17580SOL    HW164394   9.748   7.422   8.185 -0.9463  1.8812 -0.6759
17580SOL    HW264395   9.591   7.379   8.197  0.6107 -3.4236  1.9026
17581SOL     OW64396   9.157   6.978   2.380 -0.6585 -0.2754  0.3838
17581SOL    HW164397   9.212   7.061   2.388  1.6233 -1.7194  0.2694
17581SOL    HW264398   9.060   7.001   2.382 -0.0545  2.3713  0.3714
17582SOL     OW64399   5.497   0.897   6.197 -0.3054 -0.4467 -0.2751
17582SOL    HW164400   5.506   0.856   6.288  4.1292  1.0055  0.0462
17582SOL    HW264401   5.505   0.826   6.127  1.8050 -0.8958  0.3889
17583SOL     OW64402   3.807   1.189   3.487 -0.0399  0.6404  0.2187
17583SOL    HW164403   3.839   1.112   3.433  0.9650  1.8921 -0.9879
17583SOL    HW264404   3.879   1.257   3.495 -0.9217  1.4706  1.2739
17584SOL     OW64405   4.779   9.975   8.171  0.0158  0.4955 -0.1588
17584SOL    HW164406   4.823  10.048   8.119 -0.8198  0.9663 -0.2156
17584SOL    HW264407   4.837   9.894   8.172 -0.2710  0.2405 -2.4289
17585SOL     OW64408   4.960   6.554   0.660 -0.0511 -0.7359 -0.2116
17585SOL    HW164409   4.984   6.638   0.612  0.1964 -0.8443 -0.2750
17585SOL    HW264410   5.040   6.519   0.709 -0.2949 -0.6396  0.2605
17586SOL     OW64411   6.498   9.436   2.587 -0.3808  0.5337 -0.2152
17586SOL    HW164412   6.508   9.437   2.488  0.0164  1.8401 -0.1800
17586SOL    HW264413   6.404   9.462   2.612 -0.6737 -0.4728 -0.2638
17587SOL     OW64414   5.805   7.800   4.248  0.3256 -0.3360 -0.7502
17587SOL    HW164415   5.773   7.873   4.188 -0.3402 -0.8090 -0.9897
17587SOL    HW264416   5.868   7.741   4.198  1.9745  0.8648 -0.1384
17588SOL     OW64417   0.282   3.498   7.569 -0.3100  0.9980 -0.2528
17588SOL    HW164418   0.328   3.417   7.533 -0.7954  1.2728 -1.5267
17588SOL    HW264419   0.194   3.510   7.522 -0.8648  1.4987  0.8756
17589SOL     OW64420   4.111   3.473   3.750 -0.0149 -0.2876 -0.3426
17589SOL    HW164421   4.155   3.383   3.739  1.8319  0.5530 -0.0889
17589SOL    HW264422   4.175   3.535   3.795 -1.5455  0.9603  0.1329
17590SOL     OW64423   1.100   2.501   0.727  0.0616  0.1413 -0.4108
17590SOL    HW164424   1.041   2.582   0.732  1.8493  1.5905 -2.0760
17590SOL    HW264425   1.047   2.420   0.751 -1.7527  1.7954  1.3657
17591SOL     OW64426   1.381   8.990   7.327  0.2001 -0.2191  0.2371
17591SOL    HW164427   1.284   8.978   7.310  0.0392  0.4181  0.6555
17591SOL    HW264428   1.434   8.929   7.269 -0.4480 -0.4720 -0.0846
17592SOL     OW64429   1.814   0.997   0.108 -0.3012  0.0046 -0.2410
17592SOL    HW164430   1.745   1.068   0.104 -0.0294  0.2034 -1.5123
17592SOL    HW264431   1.799   0.940   0.190 -1.4136  0.5875 -0.0364
17593SOL     OW64432   9.505   7.841   7.092  0.1372 -0.3053 -0.0477
17593SOL    HW164433   9.474   7.746   7.103 -1.2249 -0.0464 -1.5425
17593SOL    HW264434   9.523   7.860   6.996  0.0172  1.0789  0.1899
17594SOL     OW64435   2.014   7.955   4.118 -0.1529 -0.0617  0.2810
17594SOL    HW164436   2.095   7.897   4.111 -0.3812 -0.3464  0.0072
17594SOL    HW264437   1.990   7.968   4.215 -0.6420 -1.1682  0.3124
17595SOL     OW64438   7.751   3.903   1.113  0.1019 -0.8571  0.7639
17595SOL    HW164439   7.683   3.931   1.181  1.5563  2.0938  1.0607
17595SOL    HW264440   7.706   3.890   1.025 -0.8844  0.8728  0.9876
17596SOL     OW64441   0.225   9.506   5.012  1.0052 -0.3503 -0.3930
17596SOL    HW164442   0.164   9.492   4.935 -0.4560  0.3757  0.6035
17596SOL    HW264443   0.255   9.417   5.047  2.1612 -0.6774 -2.1324
17597SOL     OW64444   2.073   3.512   2.508 -0.1259  0.5451  0.2524
17597SOL    HW164445   2.025   3.491   2.422 -0.7014  1.0595  0.4471
17597SOL    HW264446   2.020   3.476   2.585  1.5202 -1.9744  0.2801
17598SOL     OW64447   2.118   9.052   4.684  0.0448 -0.4972 -0.3572
17598SOL    HW164448   2.076   9.142   4.669 -0.3514 -0.7297 -0.6928
17598SOL    HW264449   2.190   9.059   4.752  0.2689  0.1490 -0.6540
17599SOL     OW64450   4.370   6.440   2.129 -0.1275  0.7805 -0.0973
17599SOL    HW164451   4.276   6.436   2.095 -0.3590  0.3109  0.5641
17599SOL    HW264452   4.434   6.418   2.056 -0.6899 -1.6326  0.1019
17600SOL     OW64453   8.532   0.841   4.886  0.1886 -0.1853 -0.1259
17600SOL    HW164454   8.612   0.846   4.946  1.3812  1.0893 -1.7744
17600SOL    HW264455   8.452   0.875   4.934  1.2799  1.5528  0.5297
17601SOL     OW64456   8.502   9.663   6.748  0.2395  0.0046 -0.4119
17601SOL    HW164457   8.545   9.678   6.837 -1.1047  0.9494  0.0920
17601SOL    HW264458   8.535   9.731   6.683  0.4861 -0.0827 -0.3795
17602SOL     OW64459   0.777   0.202   0.013 -0.3464  0.0648 -0.1517
17602SOL    HW164460   0.755   0.104   0.007 -0.5798  0.2194 -2.3742
17602SOL    HW264461   0.702   0.255  -0.027  1.8419  0.8639 -3.3606
17603SOL     OW64462   4.300   3.915   1.272 -0.1534  0.3436  0.1491
17603SOL    HW164463   4.352   3.915   1.187  0.0729  0.8190  0.2852
17603SOL    HW264464   4.259   3.825   1.287  0.1745  0.1333 -0.2343
17604SOL     OW64465   8.039   0.458   1.984  0.4667  0.0281 -0.2771
17604SOL    HW164466   8.014   0.397   1.909 -0.6541  0.9167 -0.6471
17604SOL    HW264467   8.029   0.553   1.954  0.1525  0.3875  0.9516
17605SOL     OW64468   8.051   5.373   0.231 -0.7759 -0.3732  0.2175
17605SOL    HW164469   8.023   5.290   0.182  0.1426 -0.5033 -0.1033
17605SOL    HW264470   8.103   5.347   0.312  0.3345 -0.0962 -0.3994
17606SOL     OW64471   8.709   2.789   6.735 -0.4301 -0.0799 -0.3357
17606SOL    HW164472   8.644   2.758   6.805 -0.4918  0.2375 -0.2537
17606SOL    HW264473   8.797   2.744   6.748 -0.6808 -0.6336 -0.5441
17607SOL     OW64474   4.822   6.057   9.907 -0.1698  0.1864  0.0459
17607SOL    HW164475   4.816   5.962   9.937 -1.0645 -1.1259 -3.9616
17607SOL    HW264476   4.917   6.081   9.890  0.0701  0.0509  1.1817
17608SOL     OW64477   4.011   2.416   5.014 -0.2925 -0.4634  0.1411
17608SOL    HW164478   4.058   2.328   5.002  2.2773  0.7108  1.1734
17608SOL    HW264479   4.078   2.490   5.009 -2.3489  1.4146 -0.1647
17609SOL     OW64480   5.798   7.983   7.297  0.3521  0.7519  0.2395
17609SOL    HW164481   5.857   8.057   7.329  1.0657  0.1085  0.4266
17609SOL    HW264482   5.853   7.902   7.279 -0.3958  0.3322 -0.1810
17610SOL     OW64483   7.772   5.388   1.911  0.0751  0.4829  0.1743
17610SOL    HW164484   7.793   5.466   1.969 -0.3552 -1.3153  2.8553
17610SOL    HW264485   7.747   5.310   1.968  1.2322 -1.8545 -2.3802
17611SOL     OW64486   7.815   1.320   6.419 -0.4135  0.1525 -0.1427
17611SOL    HW164487   7.795   1.415   6.443 -0.2172  0.2543 -0.3719
17611SOL    HW264488   7.735   1.280   6.375  0.0164  0.6923 -1.4491
17612SOL     OW64489   1.085   4.138   4.775  0.1141  0.5051  0.7491
17612SOL    HW164490   1.105   4.148   4.872 -1.7372  2.0585  1.0172
17612SOL    HW264491   0.988   4.156   4.759  0.6722  1.7252 -1.5786
17613SOL     OW64492   7.091   7.768   7.425 -0.0178 -0.4004 -0.4161
17613SOL    HW164493   6.992   7.761   7.413  0.1228 -1.2268 -1.1314
17613SOL    HW264494   7.112   7.853   7.474 -1.2179 -1.1622  1.4990
17614SOL     OW64495   5.214   6.757   1.303 -0.1029 -0.1998  0.5999
17614SOL    HW164496   5.115   6.764   1.311 -0.5590 -1.0739 -3.0903
17614SOL    HW264497   5.240   6.661   1.291  0.9817  0.1738 -0.1370
17615SOL     OW64498   2.861   0.119   2.161  0.1403  0.3494 -0.4197
17615SOL    HW164499   2.882   0.185   2.233 -0.6443 -1.8427  1.8618
17615SOL    HW264500   2.801   0.048   2.197 -0.5247 -0.6218 -3.3389
17616SOL     OW64501   2.539   7.224   4.376 -0.4011  0.0914  0.1499
17616SOL    HW164502   2.513   7.244   4.281 -3.3653  0.8708  1.0544
17616SOL    HW264503   2.564   7.308   4.423 -1.3250  0.0611  0.7135
17617SOL     OW64504   5.183   9.335   4.423  0.2067  0.7865  0.0021
17617SOL    HW164505   5.121   9.259   4.439  0.3194  0.7863  0.4372
17617SOL    HW264506   5.257   9.307   4.363  0.3211  0.5156  0.2703
17618SOL     OW64507   9.095   8.417   2.166 -0.6112 -0.1897  0.5222
17618SOL    HW164508   9.053   8.463   2.245 -0.0037  1.8714 -0.3219
17618SOL    HW264509   9.117   8.485   2.097  0.3537 -1.7951 -0.7580
17619SOL     OW64510   7.430   6.643   1.505 -0.0664  0.1683 -0.7052
17619SOL    HW164511   7.332   6.625   1.505 -0.0864  0.2770 -0.7811
17619SOL    HW264512   7.480   6.556   1.494 -0.1120 -0.0675  0.8512
17620SOL     OW64513   9.946   3.456   3.253  0.3094  0.3098  0.3549
17620SOL    HW164514   9.963   3.427   3.159  0.4322  1.3630  0.0484
17620SOL    HW264515   9.885   3.390   3.297  1.0628 -0.7220 -0.1437
17621SOL     OW64516   9.846   3.368   0.441 -0.3362 -0.2801  0.1706
17621SOL    HW164517   9.930   3.394   0.394  0.6829 -1.9266  1.0443
17621SOL    HW264518   9.809   3.447   0.489 -0.9997  1.2528 -2.7427
17622SOL     OW64519   2.680   3.867   0.633 -0.0351  0.7528  0.3568
17622SOL    HW164520   2.642   3.781   0.597  1.4030  0.6086 -0.8758
17622SOL    HW264521   2.614   3.908   0.696 -1.5845 -0.2501 -0.5533
17623SOL     OW64522   1.004   0.107   3.716 -0.3493  0.1212  0.5896
17623SOL    HW164523   0.908   0.128   3.735 -0.3322  0.0522  0.7563
17623SOL    HW264524   1.012   0.072   3.623 -0.1999  2.0385 -0.1447
17624SOL     OW64525   0.639   5.047   6.452 -0.1964 -0.5928 -0.8371
17624SOL    HW164526   0.579   4.968   6.443  1.3307 -1.5223 -3.6222
17624SOL    HW264527   0.592   5.120   6.501 -2.6780 -2.1721 -0.8180
17625SOL     OW64528   7.645   2.730   2.661 -0.1302 -0.1580  0.6818
17625SOL    HW164529   7.723   2.718   2.600 -0.8798  0.0068 -0.3356
17625SOL    HW264530   7.626   2.645   2.710 -0.4100 -0.7440 -0.4137
17626SOL     OW64531   4.130   7.080   4.060 -0.3130  0.2904  0.3258
17626SOL    HW164532   4.177   7.064   4.147 -0.2041  0.4441  0.2965
17626SOL    HW264533   4.159   7.013   3.993 -2.1936 -1.3385  1.0939
17627SOL     OW64534   4.781   4.471   6.262  0.0389 -0.8087 -0.1585
17627SOL    HW164535   4.862   4.519   6.293  0.6749 -0.4625 -2.2887
17627SOL    HW264536   4.708   4.482   6.330  1.1394  0.5188  0.8422
17628SOL     OW64537   3.852   3.030   5.922 -0.2779 -0.0925 -0.2856
17628SOL    HW164538   3.863   3.090   6.002 -0.4750 -2.3247  1.4761
17628SOL    HW264539   3.935   2.977   5.909 -0.9781 -1.1718 -0.3566
17629SOL     OW64540   0.914   3.571   5.541 -0.2100  0.5906 -1.1093
17629SOL    HW164541   0.840   3.631   5.511  1.3180  3.2379  0.2733
17629SOL    HW264542   0.959   3.532   5.460 -1.5613  0.8386 -2.0080
17630SOL     OW64543   2.765   6.484   7.382  0.3403  0.1568  0.9975
17630SOL    HW164544   2.853   6.441   7.360  0.5264  0.6676  0.7469
17630SOL    HW264545   2.744   6.555   7.315 -1.4185 -1.5772 -0.3312
17631SOL     OW64546   9.442   6.760   7.053 -0.2749  0.1572 -0.1835
17631SOL    HW164547   9.354   6.807   7.048 -0.1871  0.2669 -0.6932
17631SOL    HW264548   9.427   6.666   7.083 -0.4133  0.6025  1.1978
17632SOL     OW64549   5.388   8.614   7.879  0.4080 -0.1744  0.3420
17632SOL    HW164550   5.424   8.634   7.970  0.3796 -0.7842  0.4928
17632SOL    HW264551   5.449   8.549   7.833  0.2209 -0.1627  0.0751
17633SOL     OW64552   2.665   3.123   7.332  0.1658 -0.1057 -0.7644
17633SOL    HW164553   2.712   3.073   7.260  1.3756 -0.2559  0.0949
17633SOL    HW264554   2.658   3.065   7.413 -1.1188  0.0809 -0.7437
17634SOL     OW64555   6.969   6.902   7.600  0.9667 -0.1185  0.0809
17634SOL    HW164556   7.057   6.856   7.596  0.8944 -0.1820 -1.1393
17634SOL    HW264557   6.949   6.944   7.511 -0.5703 -0.7314  0.1178
17635SOL     OW64558   7.963   9.369   1.814  0.3316 -0.2321 -0.3090
17635SOL    HW164559   8.061   9.374   1.796  0.4353 -0.4736  0.1734
17635SOL    HW264560   7.936   9.448   1.869  0.1682  0.0762 -0.8301
17636SOL     OW64561   7.616   3.866   4.382 -0.0686  0.0118  0.3501
17636SOL    HW164562   7.669   3.875   4.298 -0.5619  1.2431  0.1578
17636SOL    HW264563   7.538   3.929   4.379  0.2109  0.4607  1.9645
17637SOL     OW64564   0.811   8.158   1.027  0.0336  0.1880  0.1303
17637SOL    HW164565   0.762   8.209   1.098  0.2756  1.2654 -0.4686
17637SOL    HW264566   0.905   8.141   1.057  0.2352  0.9405 -0.0795
17638SOL     OW64567   7.340   6.368   7.763  0.0765  0.1680 -0.1323
17638SOL    HW164568   7.393   6.448   7.791  2.2457 -1.8344  1.7172
17638SOL    HW264569   7.259   6.360   7.823  0.3672  0.4438  0.3028
17639SOL     OW64570   2.611   0.604   3.333 -0.0929 -0.1876 -0.4610
17639SOL    HW164571   2.663   0.520   3.312  0.8480  0.3521 -0.3364
17639SOL    HW264572   2.587   0.650   3.247 -1.9517 -1.3785 -0.5895
17640SOL     OW64573   9.013   8.510   1.114  0.4562 -0.6681 -0.2163
17640SOL    HW164574   9.054   8.440   1.057 -0.7243 -0.8838 -0.8289
17640SOL    HW264575   9.080   8.581   1.135  1.7946 -2.1931  0.7917
17641SOL     OW64576   9.116   9.538   6.706  0.2029  0.0625 -0.2192
17641SOL    HW164577   9.093   9.534   6.609  2.3814 -1.4667 -0.6993
17641SOL    HW264578   9.198   9.595   6.719 -0.5557  0.9404  0.8276
17642SOL     OW64579   3.222   1.197   4.269 -0.5669  0.0587 -1.4458
17642SOL    HW164580   3.297   1.261   4.249 -1.3421  1.7496  0.8643
17642SOL    HW264581   3.170   1.180   4.185  0.1542  1.8208 -2.2834
17643SOL     OW64582   6.649   2.249   6.869  0.0533  0.0350 -0.2949
17643SOL    HW164583   6.656   2.169   6.928 -0.3373 -0.4349 -0.8700
17643SOL    HW264584   6.585   2.315   6.908 -0.1152 -0.2205 -0.1443
17644SOL     OW64585   1.286   8.099   7.317 -0.4659  0.3245 -0.1260
17644SOL    HW164586   1.300   8.197   7.327 -1.5899  0.4958 -0.1815
17644SOL    HW264587   1.368   8.058   7.276  0.2928  1.1171  0.5763
17645SOL     OW64588   8.107   9.205   3.799  0.5477  0.2824 -0.0805
17645SOL    HW164589   8.043   9.256   3.857 -1.5661 -1.6009 -0.6757
17645SOL    HW264590   8.113   9.248   3.710  1.1180  1.2202  0.4109
17646SOL     OW64591   5.535   5.602   1.338 -0.1412 -0.4778  0.0823
17646SOL    HW164592   5.612   5.639   1.391  0.5218 -1.4550 -0.1659
17646SOL    HW264593   5.450   5.642   1.370  0.7243  2.7949 -1.5775
17647SOL     OW64594   3.188   8.638   5.975  0.1645  0.4756 -0.5459
17647SOL    HW164595   3.119   8.685   5.919  0.4251  2.0279  0.3883
17647SOL    HW264596   3.274   8.690   5.971  0.4252  0.1335  0.6155
17648SOL     OW64597   0.678   8.889   4.239  0.0130  0.6689  0.4866
17648SOL    HW164598   0.623   8.885   4.323  1.7676 -0.1038  1.6130
17648SOL    HW264599   0.673   8.800   4.192  0.4454  0.5368  0.6898
17649SOL     OW64600   0.622   7.249   7.196  0.0379  0.0039  0.2593
17649SOL    HW164601   0.671   7.336   7.195  0.5504 -0.2913 -0.2332
17649SOL    HW264602   0.524   7.267   7.207  0.0632  0.6873 -0.5101
17650SOL     OW64603   2.801   9.561   3.928  0.2457  0.6807 -0.3863
17650SOL    HW164604   2.776   9.477   3.879  1.2354 -0.4398  0.9978
17650SOL    HW264605   2.899   9.575   3.923  0.4103  0.3554  1.5619
17651SOL     OW64606   4.266   9.040   6.864  0.4612 -0.1296 -0.0265
17651SOL    HW164607   4.221   9.039   6.775  0.8203  2.4566 -0.2547
17651SOL    HW264608   4.365   9.036   6.852  0.4788 -0.7317  0.3006
17652SOL     OW64609   6.436   9.821   1.090  0.2860 -0.2593  0.1519
17652SOL    HW164610   6.417   9.760   1.167  1.6100 -0.5246  0.2791
17652SOL    HW264611   6.535   9.833   1.081  0.1657 -0.6736 -1.8498
17653SOL     OW64612   2.465   3.808   5.447  0.3117 -0.6717 -0.2058
17653SOL    HW164613   2.436   3.874   5.378 -0.0114  0.4121  0.9457
17653SOL    HW264614   2.548   3.761   5.416  0.3806  0.0783 -1.1707
17654SOL     OW64615   0.318   4.571   4.322  0.3549 -0.1937 -0.1903
17654SOL    HW164616   0.315   4.584   4.223  1.0239 -2.6392 -0.5838
17654SOL    HW264617   0.401   4.521   4.346  1.3728  2.4184  1.8910
17655SOL     OW64618   7.444   3.943   2.875 -0.4907  0.3702  0.5341
17655SOL    HW164619   7.366   3.923   2.934 -1.3222  0.4739 -0.5322
17655SOL    HW264620   7.506   3.864   2.875 -1.2988 -0.2759  0.2706
17656SOL     OW64621   4.465   1.327   7.394 -0.0206  0.2292 -0.0828
17656SOL    HW164622   4.495   1.264   7.465 -0.8112 -0.0888 -0.0252
17656SOL    HW264623   4.531   1.328   7.320  0.3507 -0.1281  0.2436
17657SOL     OW64624   3.542   2.839   1.690 -0.2052  0.3473 -0.5757
17657SOL    HW164625   3.480   2.776   1.643 -0.2394 -0.5289  0.6201
17657SOL    HW264626   3.619   2.862   1.630 -0.4591 -0.4362 -1.2049
17658SOL     OW64627   8.481   5.110   0.818  0.2968  0.6676 -0.4011
17658SOL    HW164628   8.558   5.112   0.881  0.1492 -0.7592 -0.1432
17658SOL    HW264629   8.414   5.180   0.844  0.3253  0.2131  0.9147
17659SOL     OW64630   8.750   7.500   8.103 -0.1930  0.3097  0.0734
17659SOL    HW164631   8.839   7.460   8.081 -0.6037 -0.9077  0.5790
17659SOL    HW264632   8.698   7.515   8.019  0.5784  1.2702 -0.2470
17660SOL     OW64633   8.865   4.210   2.767  0.1190  0.2687  0.0535
17660SOL    HW164634   8.924   4.134   2.794 -1.3673 -0.8055  0.3421
17660SOL    HW264635   8.817   4.246   2.848  0.7068  1.4401 -0.1011
17661SOL     OW64636   7.459   1.425   0.861 -0.6072  0.2992 -0.8432
17661SOL    HW164637   7.546   1.472   0.878 -0.1958 -0.3619 -1.1376
17661SOL    HW264638   7.429   1.443   0.767 -0.6903  0.3522 -0.8076
17662SOL     OW64639   9.721   0.567   4.032  0.5662  0.0174 -0.3025
17662SOL    HW164640   9.801   0.603   4.079  0.4229 -1.8195  1.4227
17662SOL    HW264641   9.640   0.619   4.058  0.5633 -0.7044  1.1894
17663SOL     OW64642   2.569   1.713   7.138 -0.1602  0.0290 -0.1712
17663SOL    HW164643   2.570   1.613   7.134  3.7684 -0.1027  1.2905
17663SOL    HW264644   2.583   1.750   7.047 -0.1091 -0.7931 -0.5051
17664SOL     OW64645   2.651   8.678   8.067  0.3823 -0.0517 -0.2169
17664SOL    HW164646   2.635   8.693   8.165  1.1136 -1.6449  0.1692
17664SOL    HW264647   2.747   8.658   8.052  0.2864  0.2694 -1.2820
17665SOL     OW64648   3.036   3.695   6.099 -0.3819  0.3034  0.8868
17665SOL    HW164649   2.985   3.765   6.151 -0.1511  0.3736  1.0170
17665SOL    HW264650   3.099   3.648   6.161  1.8636  2.2239  0.1158
17666SOL     OW64651   4.250   4.183   3.668 -0.0594 -0.1110 -0.1723
17666SOL    HW164652   4.346   4.207   3.684 -0.2852  0.3322  0.5524
17666SOL    HW264653   4.194   4.265   3.671 -0.3134 -0.2091 -1.8325
17667SOL     OW64654   6.663   1.425   2.822  0.4728 -0.1162 -0.4002
17667SOL    HW164655   6.605   1.413   2.741  1.0734 -3.7198 -0.3759
17667SOL    HW264656   6.758   1.406   2.797  1.1554  2.1350  0.4011
17668SOL     OW64657   9.734   7.184   3.167 -0.1429  0.4854 -0.2406
17668SOL    HW164658   9.676   7.157   3.243  0.1410  0.2694 -0.0989
17668SOL    HW264659   9.828   7.198   3.199 -0.1100  0.8110 -0.4701
17669SOL     OW64660   1.281   7.299   0.725  0.1290  0.1047 -0.4047
17669SOL    HW164661   1.374   7.333   0.732 -0.4377  1.5168  0.3425
17669SOL    HW264662   1.259   7.283   0.628  0.6512  1.1586 -0.7029
17670SOL     OW64663   7.337   9.078   3.844 -0.2672  0.3122  0.3874
17670SOL    HW164664   7.275   9.099   3.768  0.1245  1.7830  0.4573
17670SOL    HW264665   7.417   9.137   3.838 -0.3595  0.6401  2.1039
17671SOL     OW64666   6.417   0.921   0.532 -0.3207  0.1985 -0.3405
17671SOL    HW164667   6.500   0.900   0.583  0.9344 -1.0634 -2.7840
17671SOL    HW264668   6.426   1.010   0.488 -1.4349  1.3232  1.6672
17672SOL     OW64669   5.038   1.341   5.020  0.1759 -0.7006  0.3489
17672SOL    HW164670   5.072   1.256   4.981  1.3155 -0.2655  0.3802
17672SOL    HW264671   4.944   1.356   4.990  0.6039 -1.0103 -1.1901
17673SOL     OW64672   8.411   4.773   2.881  0.5047  0.1927  0.9916
17673SOL    HW164673   8.438   4.706   2.813  0.7495 -0.0344  1.3111
17673SOL    HW264674   8.312   4.782   2.882  0.5415  0.8220  0.0155
17674SOL     OW64675   5.329   7.273   4.306  0.4855  0.4611  0.6974
17674SOL    HW164676   5.379   7.336   4.247 -1.1659  1.1523 -0.0203
17674SOL    HW264677   5.244   7.317   4.337 -0.6424 -1.3519  0.2949
17675SOL     OW64678   7.580   5.733   1.451 -0.1534 -0.0245 -0.2713
17675SOL    HW164679   7.520   5.689   1.385  0.3559 -1.0072 -0.0807
17675SOL    HW264680   7.617   5.817   1.411  0.9045 -1.1004 -1.6116
17676SOL     OW64681   0.696   4.625   3.280  0.0621 -0.2077  0.1140
17676SOL    HW164682   0.767   4.694   3.267  1.1981 -1.4496 -0.4111
17676SOL    HW264683   0.697   4.561   3.203  0.9473 -2.4824  1.9509
17677SOL     OW64684   0.771   7.285   6.019 -0.0845 -0.0224 -0.2383
17677SOL    HW164685   0.860   7.323   6.043  0.2980 -0.2435 -1.2723
17677SOL    HW264686   0.699   7.339   6.062  0.5390  0.1273  0.6495
17678SOL     OW64687   6.553   4.950   1.238 -0.0437  0.0732  0.8450
17678SOL    HW164688   6.496   5.030   1.256  2.0168  1.8313 -0.2166
17678SOL    HW264689   6.616   4.970   1.163  1.3487 -2.1376  1.3766
17679SOL     OW64690   0.402   3.921   2.223  0.2665 -0.0996 -0.4288
17679SOL    HW164691   0.309   3.932   2.188  0.9207  1.4740 -1.7168
17679SOL    HW264692   0.422   3.992   2.290  0.3963 -0.7019  0.1797
17680SOL     OW64693   2.304   3.185   9.745 -0.2662  0.3749  0.4210
17680SOL    HW164694   2.316   3.272   9.696  1.0154  0.1854  0.3765
17680SOL    HW264695   2.275   3.114   9.681 -0.1510  0.4964  0.2348
17681SOL     OW64696   1.917   4.983   3.246 -0.4020 -0.5483  0.2213
17681SOL    HW164697   2.016   4.988   3.260 -0.2858 -0.4750 -0.5805
17681SOL    HW264698   1.873   4.953   3.330  0.3129 -0.6633  0.5598
17682SOL     OW64699   2.652   3.303   7.840  0.1001 -0.1808  0.5126
17682SOL    HW164700   2.611   3.388   7.873 -0.7248 -0.7287  0.9036
17682SOL    HW264701   2.628   3.289   7.744  1.8877  1.0321 -0.1536
17683SOL     OW64702   3.899   6.343   9.814  0.4000  0.2507  0.0953
17683SOL    HW164703   3.935   6.256   9.849 -0.3724 -0.0361  0.1970
17683SOL    HW264704   3.902   6.342   9.714 -0.9663 -0.4948  0.0486
17684SOL     OW64705   0.736   2.852   5.410 -0.6157 -0.4135 -0.0753
17684SOL    HW164706   0.759   2.756   5.422  1.4678  0.1154  0.3955
17684SOL    HW264707   0.775   2.886   5.325 -0.0214  0.3949  0.5057
17685SOL     OW64708   9.285   2.421   6.178 -0.5562  0.0264  0.3896
17685SOL    HW164709   9.271   2.508   6.226 -1.4858  0.4612 -0.6596
17685SOL    HW264710   9.200   2.393   6.134  0.2893 -0.3677 -1.0145
17686SOL     OW64711   3.734   0.312   7.837 -0.1666  0.2275 -0.2247
17686SOL    HW164712   3.744   0.407   7.868 -0.7544  0.4999 -0.8364
17686SOL    HW264713   3.807   0.256   7.875 -0.6171  0.6457  1.2799
17687SOL     OW64714   0.536   9.225   7.355 -0.1546 -0.1555  0.8725
17687SOL    HW164715   0.583   9.261   7.436  0.2863  2.6686 -0.5750
17687SOL    HW264716   0.447   9.271   7.345 -2.2800 -3.7524  2.2487
17688SOL     OW64717   8.321   7.906   3.360  0.2155  0.5433 -0.2391
17688SOL    HW164718   8.245   7.966   3.381 -1.3719 -0.8888 -1.6630
17688SOL    HW264719   8.384   7.901   3.438 -0.4763  2.7252  0.4693
17689SOL     OW64720   7.890   1.618   1.429  0.0101  0.6990  0.1426
17689SOL    HW164721   7.960   1.587   1.493 -0.1635  1.4919  0.7216
17689SOL    HW264722   7.907   1.579   1.339  2.0558  2.0798 -0.0948
17690SOL     OW64723   7.528   2.919   3.019 -0.2233 -0.0629 -0.1985
17690SOL    HW164724   7.503   2.947   3.112 -1.4107 -0.1704 -0.4802
17690SOL    HW264725   7.549   2.822   3.019 -2.5784 -0.6025 -0.4868
17691SOL     OW64726   4.213   5.626   4.383 -0.2284  0.8575 -0.2245
17691SOL    HW164727   4.207   5.559   4.308  1.4997  1.2997 -0.7945
17691SOL    HW264728   4.247   5.713   4.347  0.0811  1.2420  0.9808
17692SOL     OW64729   4.972   4.153   7.344  0.0954  0.5986 -0.0651
17692SOL    HW164730   5.019   4.187   7.262 -1.4135 -0.2324 -1.3114
17692SOL    HW264731   4.899   4.217   7.368  0.6573  0.9386  0.7667
17693SOL     OW64732   2.177   4.948   6.049  0.6467  0.4093 -0.7008
17693SOL    HW164733   2.099   4.902   6.006  0.8465 -0.6200  0.0321
17693SOL    HW264734   2.173   5.046   6.029 -1.2315  0.4697 -0.0465
17694SOL     OW64735   8.125   8.797   5.367  0.3511  0.1815 -0.5412
17694SOL    HW164736   8.090   8.865   5.302 -0.6094  0.6899  0.4889
17694SOL    HW264737   8.160   8.843   5.448  1.3764 -0.4625 -0.6104
17695SOL     OW64738   7.104   3.477   3.146  0.2629  0.3677 -0.1999
17695SOL    HW164739   7.160   3.474   3.229  0.9072  1.9999 -0.5748
17695SOL    HW264740   7.014   3.515   3.168 -0.5868 -1.8258  0.3060
17696SOL     OW64741   7.738   8.282   1.106 -0.0946  0.0106 -0.6952
17696SOL    HW164742   7.686   8.348   1.160  0.2825 -0.0333 -0.2779
17696SOL    HW264743   7.734   8.307   1.009  2.0731  2.0372 -0.3029
17697SOL     OW64744   4.593   0.772   7.120 -0.2362 -0.2307 -0.0919
17697SOL    HW164745   4.684   0.782   7.080 -1.8493  2.0273 -3.4298
17697SOL    HW264746   4.549   0.862   7.123 -2.7985 -1.4719  0.3991
17698SOL     OW64747   2.234   9.083   6.279 -0.1546  0.2559  0.4517
17698SOL    HW164748   2.165   9.131   6.225  0.1410  0.1154 -0.0477
17698SOL    HW264749   2.294   9.149   6.324 -1.2682  0.4152  1.7613
17699SOL     OW64750   0.127   3.079   8.097  0.4364  0.4047 -0.1257
17699SOL    HW164751   0.094   3.040   8.182 -2.5404 -0.7271 -1.7424
17699SOL    HW264752   0.173   3.008   8.043 -0.9355  0.1870 -1.0442
17700SOL     OW64753   3.792   6.628   4.140  0.9908 -0.1458  0.4507
17700SOL    HW164754   3.803   6.538   4.099 -1.3228 -0.4071  0.3280
17700SOL    HW264755   3.880   6.660   4.175  2.0661 -1.9231 -0.5664
17701SOL     OW64756   2.068   0.684   5.142  0.2966  1.6376  0.5101
17701SOL    HW164757   2.123   0.764   5.118 -0.9050  2.0338 -1.0535
17701SOL    HW264758   2.062   0.622   5.064 -0.8542  1.2552  0.8801
17702SOL     OW64759   7.359   8.323   2.817  0.1020  0.0175  0.4051
17702SOL    HW164760   7.446   8.353   2.778  0.2917 -0.1664  0.6803
17702SOL    HW264761   7.377   8.252   2.886 -0.2885 -0.2343  0.2437
17703SOL     OW64762   8.142   6.225   3.857 -0.4502 -0.0308 -0.1602
17703SOL    HW164763   8.189   6.137   3.854  0.9246  0.6924 -0.1215
17703SOL    HW264764   8.086   6.230   3.940  0.3603 -0.4084  0.4136
17704SOL     OW64765   5.516   7.733   1.819 -0.1565 -0.1140  0.2199
17704SOL    HW164766   5.426   7.715   1.778  0.4366  0.3702 -1.3446
17704SOL    HW264767   5.572   7.650   1.813  0.6618  0.5332 -1.9617
17705SOL     OW64768   1.547   0.899   5.652  0.0576 -0.4961 -0.3831
17705SOL    HW164769   1.464   0.952   5.633  1.6941  2.2972  0.0227
17705SOL    HW264770   1.624   0.938   5.604  1.8405 -0.8856  2.0360
17706SOL     OW64771   5.082   6.031   1.901 -0.3066 -0.6339 -0.0333
17706SOL    HW164772   5.119   5.966   1.836  0.9283  0.7780 -0.7800
17706SOL    HW264773   5.050   6.113   1.853  0.2530  0.2627  1.0875
17707SOL     OW64774   4.398   0.001   6.947 -0.7547 -0.3008 -0.4453
17707SOL    HW164775   4.458   0.046   6.882 -2.2448  1.0064 -0.9614
17707SOL    HW264776   4.341   0.069   6.993 -1.1233 -1.4046  0.7745
17708SOL     OW64777   3.857   8.431   2.473  0.0837  0.1979 -0.4850
17708SOL    HW164778   3.845   8.531   2.471  2.4019  0.5912  1.7908
17708SOL    HW264779   3.932   8.406   2.412  1.2567  0.2122  0.8955
17709SOL     OW64780   0.636   7.179   4.900 -0.4009  0.1586  0.3201
17709SOL    HW164781   0.557   7.162   4.841 -0.5472 -0.9576  0.8436
17709SOL    HW264782   0.720   7.154   4.851 -0.5035 -0.4828  0.4672
17710SOL     OW64783   9.173   6.103   6.953  0.1009  0.1599  0.5319
17710SOL    HW164784   9.120   6.172   7.002  0.6455 -0.2586  1.7250
17710SOL    HW264785   9.163   6.015   6.999  0.2903 -0.3226 -0.3517
17711SOL     OW64786   3.956   7.306   5.883  0.4604  0.1001 -0.1334
17711SOL    HW164787   4.036   7.361   5.907  0.0445  0.5888  0.1374
17711SOL    HW264788   3.973   7.259   5.796 -0.2785  2.9355 -1.8885
17712SOL     OW64789   0.707   4.046   6.595  0.4927 -0.0142  0.4980
17712SOL    HW164790   0.734   4.139   6.573  0.8130 -0.0136  0.8838
17712SOL    HW264791   0.787   3.995   6.627  0.3373 -0.4456  0.2035
17713SOL     OW64792   3.501   7.206   5.419 -0.4699  0.4001 -0.2143
17713SOL    HW164793   3.557   7.285   5.395  0.7566 -0.1937  0.6225
17713SOL    HW264794   3.540   7.160   5.499 -1.8752 -0.3257  0.0863
17714SOL     OW64795   2.081   5.776   5.006  0.0218 -0.3777  0.3717
17714SOL    HW164796   2.023   5.817   4.936  2.3279  1.7847 -0.3254
17714SOL    HW264797   2.150   5.718   4.962  1.7465  1.3266  0.7964
17715SOL     OW64798   0.437   5.802   0.748 -0.0061 -0.8126  0.4437
17715SOL    HW164799   0.526   5.804   0.795 -1.7478  0.4609  3.8961
17715SOL    HW264800   0.424   5.888   0.698  0.6922 -1.0174 -0.1033
17716SOL     OW64801   4.547   9.017   6.003 -0.2156 -0.2821 -0.2679
17716SOL    HW164802   4.448   9.032   6.010 -0.3025 -0.4921 -0.9519
17716SOL    HW264803   4.575   9.026   5.907  0.2202 -1.4353 -0.2586
17717SOL     OW64804   3.994   4.129   2.188 -0.2344  0.2119  0.0416
17717SOL    HW164805   3.942   4.174   2.261  1.2626  2.5086 -0.2353
17717SOL    HW264806   4.068   4.076   2.228 -0.7383 -0.3274  0.2741
17718SOL     OW64807   5.958   4.639   0.646  0.6261  0.1923  0.6278
17718SOL    HW164808   5.920   4.676   0.730  0.6754  1.8195 -0.0529
17718SOL    HW264809   5.900   4.565   0.612 -2.0877  2.7396 -0.4802
17719SOL     OW64810   8.613   1.851   0.778  0.1020 -0.8504 -0.3281
17719SOL    HW164811   8.656   1.894   0.857  0.1852  1.7499 -1.7227
17719SOL    HW264812   8.530   1.803   0.806 -0.1415  0.4818  1.2551
17720SOL     OW64813   2.945   6.244   1.877 -0.1952  0.5373 -0.1033
17720SOL    HW164814   2.936   6.337   1.843  0.1251  1.1487  1.4583
17720SOL    HW264815   2.857   6.197   1.868 -0.2591  0.8530 -1.2435
17721SOL     OW64816   8.239   8.237   8.076  0.7242 -0.0208  1.2648
17721SOL    HW164817   8.199   8.325   8.102  1.1864  0.3421  0.7582
17721SOL    HW264818   8.166   8.175   8.047  0.5706  0.8365 -0.2364
17722SOL     OW64819   8.959   7.386   7.754 -0.3845 -0.0537 -0.3604
17722SOL    HW164820   8.928   7.332   7.832 -1.6672  0.4128 -0.5293
17722SOL    HW264821   8.991   7.326   7.681 -0.2706 -0.5261  0.0832
17723SOL     OW64822   6.804   1.689   1.546  0.4575 -0.1889  0.7443
17723SOL    HW164823   6.865   1.616   1.514 -0.6484  0.2227 -2.5206
17723SOL    HW264824   6.721   1.648   1.585  0.5615 -0.7063  0.4329
17724SOL     OW64825   2.484   8.019   2.889  0.3458 -0.4173 -0.6292
17724SOL    HW164826   2.540   7.990   2.812  0.9207  0.5816 -0.6025
17724SOL    HW264827   2.490   8.119   2.899 -1.7460 -0.2557 -0.8554
17725SOL     OW64828   0.067   3.984   6.602 -0.5447  0.0183 -0.0789
17725SOL    HW164829   0.161   3.950   6.601 -0.9103 -1.0715  0.6185
17725SOL    HW264830   0.065   4.078   6.634  0.2596 -0.1309  0.4058
17726SOL     OW64831   6.893   1.679   6.583  0.0453 -0.3833 -0.1800
17726SOL    HW164832   6.850   1.751   6.638  0.7891 -0.1481  0.0880
17726SOL    HW264833   6.945   1.720   6.509 -0.6700 -0.6901 -0.8673
17727SOL     OW64834   4.725   9.401   8.318  0.2777 -0.2800  0.3165
17727SOL    HW164835   4.771   9.464   8.380  1.1019 -1.0953  0.5592
17727SOL    HW264836   4.690   9.450   8.239  0.1718  0.6026  0.9099
17728SOL     OW64837   8.096   9.226   5.016  0.3413 -0.4236 -0.5254
17728SOL    HW164838   8.102   9.326   5.009  2.2122 -0.4906 -0.0271
17728SOL    HW264839   8.011   9.195   4.973  0.6865  1.2045 -2.4462
17729SOL     OW64840   1.998   1.253   4.436  0.0964  0.3443  0.0323
17729SOL    HW164841   2.091   1.282   4.455  0.1209  0.4468 -0.2446
17729SOL    HW264842   1.999   1.174   4.375 -0.0649  2.1466 -2.3774
17730SOL     OW64843   4.173   3.383   2.384  0.3066 -0.6545 -0.4954
17730SOL    HW164844   4.145   3.308   2.445  0.7945 -0.0087  0.5388
17730SOL    HW264845   4.107   3.457   2.389  0.5580 -0.4315 -0.4249
17731SOL     OW64846   7.334   6.780   4.551 -0.4367 -0.0247 -0.1424
17731SOL    HW164847   7.385   6.821   4.627  1.2940 -0.5392 -1.0056
17731SOL    HW264848   7.348   6.681   4.551 -0.6568 -0.0561 -0.9711
17732SOL     OW64849   6.695   0.364   5.385 -0.2099 -0.2686  0.3486
17732SOL    HW164850   6.777   0.313   5.412  0.5563 -0.6308 -2.5507
17732SOL    HW264851   6.723   0.453   5.348 -1.2664  0.3255  0.9563
17733SOL     OW64852   5.587   0.678   2.580  0.0747 -0.3394 -0.3084
17733SOL    HW164853   5.592   0.769   2.539 -0.0744 -0.6467 -1.0176
17733SOL    HW264854   5.491   0.648   2.584  0.2908 -1.4693 -2.3522
17734SOL     OW64855   8.635   7.671   0.975 -0.3506  0.3932 -0.4184
17734SOL    HW164856   8.646   7.621   0.889  0.9154  2.4570 -1.5218
17734SOL    HW264857   8.678   7.762   0.966  0.4073  0.4023  2.6148
17735SOL     OW64858   1.334   5.454   3.137  0.0324 -0.4499  0.1546
17735SOL    HW164859   1.269   5.530   3.136  0.4250 -0.1151  0.1493
17735SOL    HW264860   1.323   5.400   3.054  1.4772  1.0689 -1.0669
17736SOL     OW64861   9.673   3.757   4.895 -0.3239 -0.7412 -0.0552
17736SOL    HW164862   9.666   3.844   4.944  1.9605 -0.5692 -0.0004
17736SOL    HW264863   9.640   3.769   4.801  0.7752  0.3928 -0.3011
17737SOL     OW64864   4.338   1.841   1.929 -0.2240 -0.1136  0.3191
17737SOL    HW164865   4.410   1.859   1.861  0.1835 -2.9073 -0.0654
17737SOL    HW264866   4.379   1.798   2.010 -1.1221  0.5391  1.1198
17738SOL     OW64867   9.563   5.826   7.063  0.0054 -0.6070  0.0326
17738SOL    HW164868   9.649   5.838   7.113 -0.3503 -1.4209  0.8550
17738SOL    HW264869   9.580   5.772   6.980  0.2900 -0.7603  0.1897
17739SOL     OW64870   0.573   6.980   5.362 -0.9851  0.6062  0.1478
17739SOL    HW164871   0.565   7.017   5.269 -1.9341  2.2941  0.8842
17739SOL    HW264872   0.483   6.980   5.405 -0.7201 -1.1249  0.7233
17740SOL     OW64873   8.670   2.342   3.942  0.4965 -0.1447 -0.0645
17740SOL    HW164874   8.630   2.353   4.033  1.2156  1.3172  0.0836
17740SOL    HW264875   8.629   2.407   3.879  1.2149  0.0012 -0.3858
17741SOL     OW64876   9.565   2.200   4.230 -0.1224  0.3047  0.3339
17741SOL    HW164877   9.623   2.206   4.149  0.2292  1.2823  0.6606
17741SOL    HW264878   9.471   2.179   4.201 -0.4733  2.8672 -0.5194
17742SOL     OW64879   9.915   7.230   3.815  0.3258 -0.2396 -0.0787
17742SOL    HW164880   9.985   7.181   3.866  0.1447  0.8910  1.3025
17742SOL    HW264881   9.835   7.171   3.802 -0.0239 -0.2404  1.8490
17743SOL     OW64882   8.350   1.876   4.978 -0.1011  0.3474 -0.0028
17743SOL    HW164883   8.395   1.794   5.014 -0.8957  0.4201  1.1701
17743SOL    HW264884   8.403   1.957   5.002 -0.4482  0.3640  0.7261
17744SOL     OW64885   6.783   0.538   7.260  0.4062  0.0484  0.2671
17744SOL    HW164886   6.722   0.606   7.301 -0.5613  0.1529 -1.3026
17744SOL    HW264887   6.874   0.578   7.250  0.4236  0.3243  1.4891
17745SOL     OW64888   6.216   5.837   1.504  0.2814 -0.1078 -0.3067
17745SOL    HW164889   6.150   5.909   1.526  0.9741  0.9861 -1.6793
17745SOL    HW264890   6.284   5.831   1.577 -2.2227 -2.3777  1.9299
17746SOL     OW64891   0.911   2.815   3.028 -0.1699  0.0711 -0.3097
17746SOL    HW164892   0.992   2.863   2.994 -1.3009  0.4825 -2.4547
17746SOL    HW264893   0.934   2.718   3.042  0.9082  0.3417 -0.1522
17747SOL     OW64894   4.077   1.819   1.464  0.0733  0.0605 -0.1071
17747SOL    HW164895   4.157   1.879   1.464 -1.4613  2.1971 -1.4516
17747SOL    HW264896   4.057   1.790   1.370 -0.4754 -0.7967  0.2690
17748SOL     OW64897   0.490   8.263   6.315 -0.0458  0.0179  0.3095
17748SOL    HW164898   0.469   8.197   6.242  1.5494 -0.5143  0.3029
17748SOL    HW264899   0.525   8.214   6.394 -0.8304  0.6904  1.0768
17749SOL     OW64900   0.276   7.611   4.214 -0.2762 -1.1523  0.0853
17749SOL    HW164901   0.256   7.696   4.262  1.7357 -0.7739  0.3327
17749SOL    HW264902   0.315   7.632   4.124  0.5286 -1.7916  0.2742
17750SOL     OW64903   8.160   0.204   5.672  0.2883 -0.5126 -0.3438
17750SOL    HW164904   8.258   0.189   5.685  0.7556  2.3246 -0.1375
17750SOL    HW264905   8.130   0.163   5.586  1.6214 -1.5298 -0.3275
17751SOL     OW64906   7.104   0.130   7.056  0.2674 -0.4563  0.4612
17751SOL    HW164907   7.155   0.082   6.985  2.4304 -0.7110  2.1444
17751SOL    HW264908   7.007   0.130   7.033  1.1000  1.0932 -3.4527
17752SOL     OW64909   1.160   9.240   0.753 -0.1096  0.0007  0.1108
17752SOL    HW164910   1.061   9.228   0.743 -0.0358  0.3378 -1.2405
17752SOL    HW264911   1.183   9.257   0.849 -1.1180 -2.1700  0.7673
17753SOL     OW64912   3.367   1.893   5.631 -0.2391 -0.0936 -0.1073
17753SOL    HW164913   3.435   1.832   5.590  0.2392 -0.2774  0.9234
17753SOL    HW264914   3.279   1.847   5.635 -0.3312 -0.0088 -1.0761
17754SOL     OW64915   3.681   4.725   3.822  0.3387 -0.6274  0.1688
17754SOL    HW164916   3.599   4.725   3.879 -0.6258 -2.4549 -1.1732
17754SOL    HW264917   3.726   4.635   3.827  1.0033 -0.3663 -0.8434
17755SOL     OW64918   2.514   9.135   7.329  0.2513 -0.0323 -0.1423
17755SOL    HW164919   2.561   9.083   7.400  0.2915  0.9696  0.5861
17755SOL    HW264920   2.564   9.221   7.312  0.4522 -0.4218 -1.6540
17756SOL     OW64921   7.033   7.739   8.191  0.2190  0.2789  0.1489
17756SOL    HW164922   7.047   7.660   8.131 -0.2725  2.2815 -2.6833
17756SOL    HW264923   7.119   7.763   8.235  0.6086 -1.1374  0.1879
17757SOL     OW64924   6.222   8.099   5.990  0.2915  0.3587 -0.4696
17757SOL    HW164925   6.265   8.058   5.910  0.0328  0.1613 -0.5069
17757SOL    HW264926   6.163   8.033   6.034  0.8129  0.3134  0.1725
17758SOL     OW64927   2.253   9.270   7.332 -0.6090  0.4276  0.5653
17758SOL    HW164928   2.344   9.229   7.323 -0.2978  1.5680 -1.9555
17758SOL    HW264929   2.184   9.197   7.340  0.4267 -0.4495  1.7804
17759SOL     OW64930   6.304   1.860   1.614  0.1101 -0.7322 -0.1831
17759SOL    HW164931   6.225   1.918   1.636  0.3960 -0.8028  1.0786
17759SOL    HW264932   6.278   1.764   1.622  0.2063 -0.7569 -0.1631
17760SOL     OW64933   9.510   4.283   2.723  0.4685 -0.1929 -0.6564
17760SOL    HW164934   9.565   4.203   2.750 -2.7262 -2.2582  0.0741
17760SOL    HW264935   9.482   4.272   2.628 -0.2932 -0.1411 -0.4373
17761SOL     OW64936   1.091   6.150   7.122 -0.1648 -0.1492 -0.0040
17761SOL    HW164937   1.171   6.094   7.144  0.1526 -0.1016 -1.0184
17761SOL    HW264938   1.118   6.246   7.117 -0.2000 -0.1809 -0.7891
17762SOL     OW64939   9.212   3.034   3.964 -0.0278 -0.1429  0.5317
17762SOL    HW164940   9.263   3.080   4.036  0.9521 -0.7995  0.2735
17762SOL    HW264941   9.250   3.059   3.875 -1.4062  0.8828  0.2116
17763SOL     OW64942   8.449   2.744   4.200 -0.0093 -0.2535 -0.1284
17763SOL    HW164943   8.444   2.644   4.196 -2.3883 -0.1073 -2.4221
17763SOL    HW264944   8.468   2.781   4.109  1.1686  1.3795  0.7529
17764SOL     OW64945   9.439   7.034   7.247 -0.6976  0.6332 -0.0174
17764SOL    HW164946   9.431   7.050   7.345 -0.7856 -1.3722  0.3280
17764SOL    HW264947   9.520   6.978   7.229 -1.6503 -0.4833 -0.8877
17765SOL     OW64948   3.709   8.242   4.648  0.5419  1.1589  0.4614
17765SOL    HW164949   3.797   8.285   4.624  1.3591 -1.5772 -1.6669
17765SOL    HW264950   3.638   8.276   4.587  1.0761 -0.0349 -0.8532
17766SOL     OW64951   6.730   1.482   3.866 -0.2789 -0.4037 -0.0054
17766SOL    HW164952   6.700   1.482   3.961  0.6490 -0.4968  0.2948
17766SOL    HW264953   6.707   1.395   3.822  0.3093 -0.7986  0.4648
17767SOL     OW64954   5.782   7.666   6.751  0.1220 -0.4917  0.3635
17767SOL    HW164955   5.691   7.624   6.757 -0.9365  1.4606 -1.4212
17767SOL    HW264956   5.845   7.616   6.810 -1.8205 -2.6129  0.7377
17768SOL     OW64957   8.704   1.900   1.960 -0.0576  0.4366  0.0995
17768SOL    HW164958   8.766   1.830   1.924  1.7480  1.3120  1.4850
17768SOL    HW264959   8.756   1.972   2.005 -2.0229  1.7104  0.3958
17769SOL     OW64960   6.238   1.470   1.347  0.0236 -0.2900  0.3972
17769SOL    HW164961   6.240   1.370   1.336 -1.2696 -0.1960 -0.8824
17769SOL    HW264962   6.269   1.513   1.262 -0.4010  0.4004  0.5891
17770SOL     OW64963   6.601   9.385   1.815 -0.3773  0.2604  0.1435
17770SOL    HW164964   6.637   9.463   1.867  0.5949  0.3447 -0.6359
17770SOL    HW264965   6.655   9.374   1.732 -0.2201 -1.5473  0.4828
17771SOL     OW64966   2.855   6.800   0.956  0.6373 -0.4310  0.4540
17771SOL    HW164967   2.806   6.879   0.919 -1.4580 -1.3855  1.0944
17771SOL    HW264968   2.910   6.758   0.884 -0.6023 -0.1619 -0.6682
17772SOL     OW64969   2.815   3.077   6.302 -0.1072 -0.4817  0.4811
17772SOL    HW164970   2.791   3.034   6.215 -2.1515  1.3580  0.0853
17772SOL    HW264971   2.858   3.166   6.285 -1.0460  0.1500  1.3465
17773SOL     OW64972   9.381   1.285   1.749 -0.0194  0.3385  0.1362
17773SOL    HW164973   9.460   1.225   1.740 -0.1622  0.1802 -0.0618
17773SOL    HW264974   9.344   1.306   1.659 -0.6994 -0.2523  0.2682
17774SOL     OW64975   8.397   6.173   2.712  0.6771 -0.0090  0.6017
17774SOL    HW164976   8.419   6.144   2.619 -0.4239 -0.7087  0.5507
17774SOL    HW264977   8.298   6.175   2.724  0.7701  1.6618  1.2688
17775SOL     OW64978   0.797   4.188   6.916 -0.2354  0.1708  0.2174
17775SOL    HW164979   0.795   4.152   7.009  0.8921  1.7090  0.8660
17775SOL    HW264980   0.810   4.113   6.851 -2.2601 -1.0523  1.1968
17776SOL     OW64981   9.140   1.501   1.504  0.9047 -0.3250 -0.4739
17776SOL    HW164982   9.104   1.574   1.447  0.4717 -0.5382 -0.4743
17776SOL    HW264983   9.161   1.536   1.595  1.1398 -0.0948 -0.6174
17777SOL     OW64984   2.570   6.575   3.023 -0.6677  0.1217  0.1769
17777SOL    HW164985   2.602   6.663   3.057  1.2654 -0.5087  0.0374
17777SOL    HW264986   2.624   6.548   2.943 -2.9600  0.0150 -1.3927
17778SOL     OW64987   8.654   5.138   1.593  0.3203 -0.5095 -0.2938
17778SOL    HW164988   8.576   5.085   1.624  0.8241 -1.4965 -0.7167
17778SOL    HW264989   8.709   5.166   1.672  0.2320 -0.8827 -0.1033
17779SOL     OW64990   0.813   6.296   2.061  0.4164  0.1335 -0.3996
17779SOL    HW164991   0.726   6.308   2.013  0.3666 -1.2064 -0.6583
17779SOL    HW264992   0.798   6.246   2.146  0.8354  0.5826 -0.0538
17780SOL     OW64993   6.544   0.261   3.607  0.2193  0.1230 -0.0540
17780SOL    HW164994   6.492   0.185   3.568 -1.1459  0.6184  0.7686
17780SOL    HW264995   6.627   0.226   3.650 -1.7501 -1.2739  2.7455
17781SOL     OW64996   3.013   7.313   0.175 -0.0590  0.4390 -0.1539
17781SOL    HW164997   3.008   7.393   0.116 -3.0822  0.6885  0.3608
17781SOL    HW264998   3.009   7.342   0.271  0.4711 -0.2400  0.0794
17782SOL     OW64999   2.646   9.641   7.424  0.0341  0.0065  0.0017
17782SOL    HW165000   2.563   9.691   7.399  0.4108  0.7907  0.2912
17782SOL    HW265001   2.671   9.663   7.518  0.5615 -0.2413 -0.0765
17783SOL     OW65002   9.747   3.637   5.625  0.1912 -0.0781  0.6015
17783SOL    HW165003   9.833   3.586   5.617 -1.6848 -3.1818 -0.9453
17783SOL    HW265004   9.670   3.573   5.629 -2.2023  2.6311  0.1893
17784SOL     OW65005   8.984   4.611   3.202  0.4824 -0.5400  0.1643
17784SOL    HW165006   8.925   4.563   3.136  0.6384 -0.2563 -0.1796
17784SOL    HW265007   9.073   4.566   3.205  0.9725  0.3446 -0.9167
17785SOL     OW65008   7.217   6.339   5.069  0.1118 -0.4833  0.7350
17785SOL    HW165009   7.164   6.422   5.086 -0.9725 -1.0985  0.4090
17785SOL    HW265010   7.280   6.324   5.145 -0.5388 -0.0027  1.3805
17786SOL     OW65011   8.105   7.374   5.868  0.4735  0.5667 -0.6448
17786SOL    HW165012   8.042   7.437   5.821 -2.2508 -1.8504 -0.3525
17786SOL    HW265013   8.068   7.352   5.958  1.4359 -1.4114 -0.7279
17787SOL     OW65014   8.187   0.484   7.757  0.0307  0.1417  0.3064
17787SOL    HW165015   8.178   0.385   7.766 -1.5563  0.0592 -1.7612
17787SOL    HW265016   8.283   0.507   7.739  0.4037 -0.9946  0.7421
17788SOL     OW65017   0.923   3.971   7.388  1.2265  0.2988 -0.0878
17788SOL    HW165018   0.966   4.056   7.419 -0.4309  0.9103  0.5831
17788SOL    HW265019   0.956   3.895   7.444  2.0595  0.6183 -0.1317
17789SOL     OW65020   9.349   7.726   4.917 -0.0453  0.5637  0.1111
17789SOL    HW165021   9.423   7.697   4.856 -0.3575  1.6796 -0.8048
17789SOL    HW265022   9.383   7.725   5.011  0.7040 -0.3212 -0.1543
17790SOL     OW65023   9.963   2.483   0.440  0.2186  0.2588  0.0438
17790SOL    HW165024  10.022   2.543   0.386  1.1182  1.3949  2.2264
17790SOL    HW265025  10.007   2.462   0.527 -1.8083 -0.3756  0.9576
17791SOL     OW65026   7.789   4.238   3.854  0.3259  0.1749  0.5182
17791SOL    HW165027   7.741   4.171   3.797 -2.3831  2.7248 -0.3559
17791SOL    HW265028   7.887   4.224   3.848 -0.0704 -1.7555 -2.0841
17792SOL     OW65029   0.957   5.388   2.464 -0.3863 -0.7053 -0.4189
17792SOL    HW165030   0.972   5.292   2.441 -0.1237 -0.8916  0.5233
17792SOL    HW265031   1.041   5.440   2.448 -0.0521 -0.9276  0.5883
17793SOL     OW65032   4.093   8.833   4.926 -0.5339  0.6403  0.7023
17793SOL    HW165033   4.066   8.755   4.871 -2.2987  0.4026  1.8560
17793SOL    HW265034   4.022   8.903   4.922 -0.1705  1.0846  1.7768
17794SOL     OW65035   0.720   6.566   3.706 -0.7049  0.2118  0.6141
17794SOL    HW165036   0.768   6.501   3.765 -1.6948 -0.7484  0.3786
17794SOL    HW265037   0.716   6.655   3.751  0.8974  0.2033  0.8294
17795SOL     OW65038   7.097   2.303   4.139  0.3912  0.0097 -0.8271
17795SOL    HW165039   7.157   2.249   4.198  1.2302  0.4472 -1.2634
17795SOL    HW265040   7.004   2.268   4.145  0.8897 -1.3799 -0.9562
17796SOL     OW65041   8.255   5.205   1.335  0.2591 -0.1664 -0.5623
17796SOL    HW165042   8.275   5.256   1.251 -0.1141 -1.4038 -1.4164
17796SOL    HW265043   8.301   5.116   1.332  0.7471  0.0208  0.8272
17797SOL     OW65044   0.497   1.538   0.149 -0.6028  0.1159  0.0235
17797SOL    HW165045   0.528   1.503   0.238  0.7080  1.5084  0.1342
17797SOL    HW265046   0.571   1.533   0.083 -1.0297  0.7747 -0.5121
17798SOL     OW65047   6.492   2.468   5.314 -0.1345  0.3351 -0.7307
17798SOL    HW165048   6.522   2.403   5.244  1.5137 -0.7935  1.0026
17798SOL    HW265049   6.482   2.559   5.273 -1.7286 -0.8141 -3.0074
17799SOL     OW65050   0.724   6.834   4.913 -0.1092  0.1990 -0.2881
17799SOL    HW165051   0.737   6.884   4.999 -1.3027  0.7036 -0.3938
17799SOL    HW265052   0.679   6.747   4.932  0.0399  0.1097 -0.3461
17800SOL     OW65053   3.755   8.924   5.371 -0.1925  0.3963  0.3229
17800SOL    HW165054   3.701   8.932   5.288  0.4605  0.0456 -0.1415
17800SOL    HW265055   3.814   9.005   5.381  1.9389 -0.9049 -1.1614
17801SOL     OW65056   8.109   5.143   0.987 -0.2341  0.3090 -0.6954
17801SOL    HW165057   8.190   5.203   0.990  2.5527 -3.3562  2.4056
17801SOL    HW265058   8.048   5.166   1.062  0.9584 -0.7809  0.6478
17802SOL     OW65059   9.456   2.437   3.865  0.0159  0.3403 -0.1937
17802SOL    HW165060   9.481   2.462   3.958 -0.9889  0.2362  0.1155
17802SOL    HW265061   9.358   2.414   3.862 -0.0991  0.9350 -1.3858
17803SOL     OW65062   0.440   7.865   0.433  0.2638 -0.0318 -0.2415
17803SOL    HW165063   0.444   7.953   0.481 -2.0627 -0.0885  0.0799
17803SOL    HW265064   0.471   7.878   0.339 -1.1341  1.3662 -0.5229
17804SOL     OW65065   0.919   4.556   2.993 -0.3583 -0.4227  0.6221
17804SOL    HW165066   0.986   4.517   3.056 -0.0833 -0.7953  0.0976
17804SOL    HW265067   0.954   4.641   2.954 -0.4342 -0.3128  0.7895
17805SOL     OW65068   2.542   9.271   2.547  0.0590 -0.3256 -0.1486
17805SOL    HW165069   2.571   9.248   2.640 -0.4570 -2.1200 -0.4048
17805SOL    HW265070   2.479   9.201   2.514 -0.2371  0.6179 -1.6378
17806SOL     OW65071   9.338   7.004   7.978 -0.1181  0.0270  0.5022
17806SOL    HW165072   9.423   7.053   7.998  1.0961 -1.7690 -0.1059
17806SOL    HW265073   9.285   6.993   8.062  1.2767 -0.6881  1.3150
17807SOL     OW65074   3.599   2.951   7.130  0.0114  0.6155 -0.0845
17807SOL    HW165075   3.506   2.915   7.131 -0.1642  1.0214 -1.0343
17807SOL    HW265076   3.629   2.971   7.224 -1.6040  2.4162  0.0761
17808SOL     OW65077   9.428   6.784   7.564 -0.2932 -0.3004 -0.3132
17808SOL    HW165078   9.509   6.727   7.550  0.0871  0.2313 -0.2960
17808SOL    HW265079   9.453   6.880   7.551 -1.5468 -0.3047 -3.0958
17809SOL     OW65080   0.206   6.881   4.134 -0.2053 -0.2305 -0.4707
17809SOL    HW165081   0.245   6.801   4.089  2.0900  0.8413 -0.4083
17809SOL    HW265082   0.211   6.870   4.234 -2.2286 -1.1027 -0.4268
17810SOL     OW65083   3.630   6.248   5.326  0.6992 -0.1980 -0.3318
17810SOL    HW165084   3.580   6.202   5.253 -1.1180 -0.8066  1.2533
17810SOL    HW265085   3.709   6.192   5.353  1.9652  0.4876 -2.4368
17811SOL     OW65086   0.350   4.971   4.992  0.5138  0.7178 -0.7042
17811SOL    HW165087   0.300   4.888   5.017  2.0958 -0.5169 -1.5387
17811SOL    HW265088   0.347   5.035   5.069 -0.2504 -0.3303  0.1764
17812SOL     OW65089   4.513   1.079   4.889  0.5366 -0.2966  0.2208
17812SOL    HW165090   4.427   1.068   4.939  0.7912 -0.1355  0.6990
17812SOL    HW265091   4.508   1.028   4.803 -0.0982 -0.1569  0.1677
17813SOL     OW65092   2.220   6.819   0.335 -0.3171  0.4103  0.1359
17813SOL    HW165093   2.269   6.855   0.415 -0.8244  0.3471  0.4760
17813SOL    HW265094   2.137   6.772   0.365 -1.7472  2.4038 -0.5792
17814SOL     OW65095   6.211   9.745   8.004 -0.1482  0.2718 -0.3740
17814SOL    HW165096   6.154   9.684   8.059 -0.1429  1.7792  1.3448
17814SOL    HW265097   6.307   9.717   8.013 -0.0185  1.2139  1.3455
17815SOL     OW65098   4.157   9.070   0.614 -0.0830 -0.5883 -0.3049
17815SOL    HW165099   4.163   8.976   0.647 -1.1718 -0.5021  0.1545
17815SOL    HW265100   4.241   9.094   0.565  0.4140 -1.6182  0.0431
17816SOL     OW65101   0.746   3.544   4.704 -0.2417 -0.2265  0.0220
17816SOL    HW165102   0.770   3.474   4.637  1.5831 -1.0614  1.5277
17816SOL    HW265103   0.728   3.631   4.656  0.7599 -0.8746 -1.5663
17817SOL     OW65104   0.587   3.201   3.268 -0.3351  0.1141  0.0171
17817SOL    HW165105   0.667   3.194   3.209  1.4630 -0.8521  2.4850
17817SOL    HW265106   0.505   3.215   3.212  1.4164  0.1971 -2.6044
17818SOL     OW65107   5.819   1.427   1.646 -0.0471  0.6822  0.1246
17818SOL    HW165108   5.915   1.445   1.626  0.3860 -1.3121  0.3387
17818SOL    HW265109   5.812   1.347   1.706 -1.8345  0.9056  0.2351
17819SOL     OW65110   5.000   7.539   2.004 -0.6251  0.1108  0.1574
17819SOL    HW165111   5.097   7.515   2.008 -0.7018 -0.2218  0.0907
17819SOL    HW265112   4.947   7.458   1.976 -1.2357 -0.5010  2.9558
17820SOL     OW65113   7.053   2.724   5.856 -0.1727 -0.3075 -0.1619
17820SOL    HW165114   7.089   2.802   5.907  1.4654 -0.5514 -0.9020
17820SOL    HW265115   7.126   2.684   5.801 -1.5993 -0.8547 -1.6854
17821SOL     OW65116   2.692   0.196   1.648 -0.0382 -0.2943  0.5455
17821SOL    HW165117   2.716   0.198   1.746  2.0728  0.0500  0.0451
17821SOL    HW265118   2.771   0.165   1.595 -0.1901  2.3408 -1.3347
17822SOL     OW65119   9.371   6.531   6.585  0.3655 -0.7106  0.3944
17822SOL    HW165120   9.317   6.610   6.555 -2.1199 -1.7008  2.0351
17822SOL    HW265121   9.456   6.563   6.627  0.1107  1.0026 -0.3485
17823SOL     OW65122   2.213   7.846   5.706 -0.5908  0.2359  0.1943
17823SOL    HW165123   2.241   7.814   5.797 -0.0854 -0.5682 -0.2370
17823SOL    HW265124   2.271   7.922   5.678  0.2294 -0.4844 -0.0796
17824SOL     OW65125   4.475   1.848   0.261 -0.8920 -0.3783 -0.3514
17824SOL    HW165126   4.428   1.860   0.348 -1.1023  3.0576 -0.8378
17824SOL    HW265127   4.478   1.751   0.237 -3.6905 -1.0975  1.8980
17825SOL     OW65128   4.619   2.068   6.533  0.1594  0.0166  0.1126
17825SOL    HW165129   4.671   2.053   6.449  0.4149 -0.4732  0.3595
17825SOL    HW265130   4.528   2.028   6.523  0.3968 -0.5711  0.2902
17826SOL     OW65131   5.481   2.139   0.627  0.0870 -0.4248 -0.1957
17826SOL    HW165132   5.414   2.070   0.598 -0.7952  0.1395  0.4983
17826SOL    HW265133   5.439   2.230   0.623  1.1736  0.0590 -0.8722
17827SOL     OW65134   0.259   6.734   7.052 -0.7091 -0.1797  0.3231
17827SOL    HW165135   0.352   6.736   7.015 -0.5827 -0.5152  0.6099
17827SOL    HW265136   0.253   6.662   7.122 -0.9733  0.3518  0.8568
17828SOL     OW65137   0.784   5.167   9.948  0.5124 -0.2917 -0.6057
17828SOL    HW165138   0.733   5.161  10.034  1.0644 -0.9645 -0.3195
17828SOL    HW265139   0.826   5.257   9.940  0.9753 -0.4377  0.1302
17829SOL     OW65140   0.170   2.729   2.739  0.5294 -0.3329  0.2588
17829SOL    HW165141   0.270   2.731   2.745  0.6960 -0.6120 -1.9329
17829SOL    HW265142   0.138   2.634   2.742  0.5775 -0.4524 -1.9111
17830SOL     OW65143   1.811   2.582   0.920  0.0462  0.1361  0.2114
17830SOL    HW165144   1.849   2.673   0.938 -1.8858  1.4211 -1.9269
17830SOL    HW265145   1.816   2.563   0.822 -2.0033 -0.9561  0.2979
17831SOL     OW65146   6.840   2.948   3.284  0.5855 -0.4818 -0.2407
17831SOL    HW165147   6.839   2.853   3.255 -2.0334 -0.2570 -1.0098
17831SOL    HW265148   6.889   2.956   3.371  1.2460 -2.4283 -0.4092
17832SOL     OW65149   0.692   9.490   4.245 -0.0749 -0.0098 -0.5182
17832SOL    HW165150   0.646   9.516   4.329  0.9097 -1.7706  0.6002
17832SOL    HW265151   0.631   9.504   4.167 -1.5642  0.0940  0.6555
17833SOL     OW65152   7.596   4.509   2.930 -0.1275 -0.2197  0.0273
17833SOL    HW165153   7.690   4.475   2.927 -0.0038  0.0447  0.9383
17833SOL    HW265154   7.566   4.532   2.837  0.3621 -1.2359 -0.3833
17834SOL     OW65155   4.616   8.368   6.458 -0.3415  0.4272  0.0183
17834SOL    HW165156   4.520   8.394   6.461 -0.3678  0.4089 -0.5412
17834SOL    HW265157   4.670   8.431   6.513 -0.3102  2.0986 -1.8738
17835SOL     OW65158   1.158   1.010   1.513 -0.1063 -0.3995  0.4308
17835SOL    HW165159   1.109   1.073   1.453  3.0720  1.1900 -0.6188
17835SOL    HW265160   1.136   0.916   1.488 -0.2392  0.2621 -2.0144
17836SOL     OW65161   5.099   8.450   7.836  0.4542  0.6930 -0.0040
17836SOL    HW165162   5.181   8.434   7.891  0.5656  2.3762  0.3251
17836SOL    HW265163   5.125   8.457   7.740  0.5569  0.1888 -0.0167
17837SOL     OW65164   2.181   3.822   1.433  0.6932  0.1930  0.5375
17837SOL    HW165165   2.256   3.832   1.368  0.6472  1.8398  0.7249
17837SOL    HW265166   2.218   3.798   1.523  0.9562  0.5104  0.5139
17838SOL     OW65167   7.444   2.893   2.738  0.0443  0.6242 -0.0766
17838SOL    HW165168   7.518   2.836   2.704 -0.0797  0.5697 -0.2584
17838SOL    HW265169   7.475   2.946   2.816 -0.6459 -1.8822  1.9705
17839SOL     OW65170   6.536   9.634   6.328 -0.1038  0.2971 -0.6456
17839SOL    HW165171   6.544   9.676   6.238  1.6046  0.5787 -0.3773
17839SOL    HW265172   6.450   9.662   6.370 -0.2924  1.2461 -1.6357
17840SOL     OW65173   0.954   6.365   6.813  0.2476 -0.2613 -0.0202
17840SOL    HW165174   0.904   6.412   6.885  0.5324  0.7683 -0.4813
17840SOL    HW265175   1.053   6.380   6.826  0.2623  0.8085 -1.1923
17841SOL     OW65176   7.054   5.858   0.065 -0.7864 -0.0794  0.2817
17841SOL    HW165177   7.023   5.942   0.021  1.4893  0.5791 -0.1229
17841SOL    HW265178   6.985   5.786   0.052 -2.0388  1.2776 -0.7141
17842SOL     OW65179   9.797   5.778   6.086 -0.0574 -0.0008  1.2580
17842SOL    HW165180   9.824   5.873   6.078 -2.1665  0.5272 -0.2136
17842SOL    HW265181   9.816   5.744   6.178  2.7074  1.1732  1.1491
17843SOL     OW65182   5.546   7.154   4.100 -0.1827 -0.2900  0.6443
17843SOL    HW165183   5.640   7.143   4.133 -0.1638  2.3066  1.5987
17843SOL    HW265184   5.505   7.234   4.145 -2.4855 -0.7576 -0.5817
17844SOL     OW65185   9.844   6.080   0.554 -0.3595  0.2525 -0.0962
17844SOL    HW165186   9.867   6.021   0.632  2.5716  0.6052 -0.6325
17844SOL    HW265187   9.868   6.174   0.575 -0.9289  0.5742 -0.8779
17845SOL     OW65188   1.852   6.858   9.893 -0.1160 -0.2941 -0.3157
17845SOL    HW165189   1.814   6.779   9.942  0.3864 -0.2183  0.2021
17845SOL    HW265190   1.933   6.829   9.841 -0.0765 -0.1695 -0.3239
17846SOL     OW65191   0.402   5.026   2.323 -0.4887 -0.1925  0.1646
17846SOL    HW165192   0.397   4.969   2.240  0.2866  0.7483 -0.5324
17846SOL    HW265193   0.316   5.076   2.334 -0.0633  0.7901 -0.8820
17847SOL     OW65194   4.868   7.812   0.717 -0.3107  0.9285  0.0067
17847SOL    HW165195   4.851   7.819   0.619  0.7236  1.3215 -0.1498
17847SOL    HW265196   4.848   7.719   0.748  1.4054  0.2114 -0.9760
17848SOL     OW65197   4.334   1.629   1.624 -0.6189  0.6527  0.3131
17848SOL    HW165198   4.284   1.610   1.540 -3.1951  1.9521  1.4924
17848SOL    HW265199   4.409   1.564   1.633 -1.4631 -0.7287 -2.0155
17849SOL     OW65200   3.265   6.865   5.338  0.6299  0.3830 -0.4067
17849SOL    HW165201   3.239   6.921   5.417 -2.6108 -1.1189 -0.3173
17849SOL    HW265202   3.285   6.924   5.261  0.9998  1.7762  0.7321
17850SOL     OW65203   9.981   4.322   1.522  0.0782 -0.6309  0.3610
17850SOL    HW165204   9.937   4.409   1.501 -1.9782 -1.6072  0.4696
17850SOL    HW265205   9.999   4.272   1.438 -0.8833 -1.1038  0.4325
17851SOL     OW65206   9.853   0.319   4.782 -0.0486 -0.4246  0.0054
17851SOL    HW165207   9.882   0.244   4.842 -0.6696 -0.7794 -0.1287
17851SOL    HW265208   9.928   0.345   4.721  0.5120 -0.2208  0.7739
17852SOL     OW65209   1.027   6.473   5.621 -0.2720  0.1764 -0.0499
17852SOL    HW165210   1.001   6.420   5.702 -3.8665  0.8645 -0.6566
17852SOL    HW265211   1.075   6.556   5.649  0.4847 -0.6721  1.2272
17853SOL     OW65212   0.821   5.927   7.690 -0.7738  0.2200 -0.1093
17853SOL    HW165213   0.894   5.991   7.710  0.0645 -0.8769  0.4166
17853SOL    HW265214   0.786   5.943   7.597 -1.6931  2.4716  0.6022
17854SOL     OW65215   1.469   8.121   0.468  0.0515  0.1544  0.0391
17854SOL    HW165216   1.412   8.157   0.542  0.5405  0.5712  0.2106
17854SOL    HW265217   1.561   8.105   0.502  0.3928  0.7684 -0.5907
17855SOL     OW65218   6.776   3.600   2.383  0.1099 -0.7798 -0.5208
17855SOL    HW165219   6.685   3.583   2.345 -0.5640 -2.1500  1.6560
17855SOL    HW265220   6.804   3.524   2.441  1.6810  0.6484  0.6681
17856SOL     OW65221   1.438   7.010   7.349 -0.3179 -0.4254  0.0888
17856SOL    HW165222   1.352   7.043   7.311  0.5329  0.3827 -1.2059
17856SOL    HW265223   1.468   6.928   7.299 -0.8350 -1.3013  1.2031
17857SOL     OW65224   1.627   6.133   2.054  0.3291 -0.5817 -0.1246
17857SOL    HW165225   1.557   6.131   1.983 -0.2049 -1.0876  0.4158
17857SOL    HW265226   1.624   6.220   2.102 -0.2423 -0.7926  0.2165
17858SOL     OW65227   2.940   6.378   3.542 -0.0406 -0.0727 -0.0503
17858SOL    HW165228   2.855   6.430   3.534 -0.1105 -0.2041 -0.1581
17858SOL    HW265229   2.927   6.301   3.604  0.0052 -0.0805 -0.0502
17859SOL     OW65230   9.197   6.427   0.916 -0.2652  0.2919 -0.0805
17859SOL    HW165231   9.272   6.436   0.851 -1.0448  0.3993 -0.9752
17859SOL    HW265232   9.130   6.501   0.901 -0.5462  0.2134  0.7182
17860SOL     OW65233   5.785   4.313   1.377  0.2930 -0.3532  0.4589
17860SOL    HW165234   5.773   4.365   1.461  2.0071 -0.7545  0.9665
17860SOL    HW265235   5.730   4.354   1.304  1.3119  1.9398  0.9529
17861SOL     OW65236   2.630   2.424   6.757 -0.1827  0.1548 -0.0056
17861SOL    HW165237   2.676   2.512   6.768 -0.8336  0.7957 -2.0284
17861SOL    HW265238   2.544   2.424   6.808 -0.4644  0.9190 -0.4732
17862SOL     OW65239   1.512   7.102   6.578 -0.0399  0.8041  0.0616
17862SOL    HW165240   1.504   7.159   6.660  1.1482  0.9481  0.0819
17862SOL    HW265241   1.421   7.087   6.540 -0.6947 -0.0381  1.9201
17863SOL     OW65242   8.223   7.947   3.831 -0.2471  0.2821  0.6067
17863SOL    HW165243   8.214   7.938   3.732 -1.7875 -1.9259  0.9160
17863SOL    HW265244   8.274   8.030   3.852 -0.4924  1.1448 -2.0105
17864SOL     OW65245   8.065   5.976   2.533  0.5154  0.0638 -0.6789
17864SOL    HW165246   8.148   5.956   2.483  1.3912  1.5874  0.1165
17864SOL    HW265247   8.023   6.059   2.495  1.3302  1.3832  1.2322
17865SOL     OW65248   9.846   0.026   7.901  0.1336  0.0157 -0.3254
17865SOL    HW165249   9.833  -0.023   7.815  0.8645  1.5463 -1.3286
17865SOL    HW265250   9.772   0.092   7.913  1.3734  1.5548 -1.0252
17866SOL     OW65251   5.599   0.167   3.469  0.5112 -0.1453 -0.3223
17866SOL    HW165252   5.667   0.111   3.517  0.0676  0.2340  0.7686
17866SOL    HW265253   5.543   0.109   3.411  1.9930 -0.4156 -1.5193
17867SOL     OW65254   1.329   5.473   2.732  0.1540  0.4437  0.2517
17867SOL    HW165255   1.363   5.404   2.795  0.2012 -2.9557 -3.3268
17867SOL    HW265256   1.235   5.497   2.756 -0.3088 -1.8225  0.8279
17868SOL     OW65257   2.479   4.952   1.247 -0.3305  0.1089  0.4888
17868SOL    HW165258   2.542   4.887   1.205 -0.4938  1.2129 -1.5275
17868SOL    HW265259   2.519   4.985   1.333  1.3344 -0.0679 -0.1885
17869SOL     OW65260   2.827   1.169   2.489  0.5769 -0.6270 -0.5845
17869SOL    HW165261   2.741   1.218   2.479  0.7345  0.0154  1.1270
17869SOL    HW265262   2.810   1.079   2.530  0.5322 -1.1545 -1.7573
17870SOL     OW65263   5.258   2.992   4.851 -0.0762 -0.2258 -0.4906
17870SOL    HW165264   5.298   3.069   4.901 -1.6214 -0.3157  0.9291
17870SOL    HW265265   5.173   3.020   4.807  0.4795 -0.5613 -1.8043
17871SOL     OW65266   3.357   5.345   3.908  0.0283 -0.3912 -0.3876
17871SOL    HW165267   3.351   5.442   3.885 -1.6585 -0.4641 -0.3567
17871SOL    HW265268   3.299   5.293   3.845 -0.7180 -1.1377  0.8899
17872SOL     OW65269   5.234   8.274   6.563  0.2063 -0.0433 -0.4285
17872SOL    HW165270   5.300   8.338   6.524 -1.7697  0.6751 -2.6574
17872SOL    HW265271   5.151   8.322   6.590  0.1687 -1.0949  1.4459
17873SOL     OW65272   3.246   5.477   3.538 -0.0534 -0.3682 -0.7796
17873SOL    HW165273   3.211   5.568   3.557  0.9451 -0.4784  1.9232
17873SOL    HW265274   3.171   5.411   3.537 -0.4674  0.0889  0.1037
17874SOL     OW65275   4.235   9.873   6.665 -0.1821 -0.5380  0.6726
17874SOL    HW165276   4.322   9.906   6.628 -0.0934 -1.8516 -0.3248
17874SOL    HW265277   4.208   9.930   6.743 -0.0403  1.8912 -0.9949
17875SOL     OW65278   9.492   9.392   1.890  0.1360  0.5280  0.6407
17875SOL    HW165279   9.504   9.425   1.984  0.6015 -2.3679  1.6833
17875SOL    HW265280   9.567   9.329   1.868 -0.9639 -0.2494 -1.0027
17876SOL     OW65281   5.697   2.238   0.983 -0.3205 -0.1998 -0.3246
17876SOL    HW165282   5.608   2.283   0.969  0.7264  1.6079 -1.3517
17876SOL    HW265283   5.767   2.286   0.930  1.0458 -2.4312 -0.5995
17877SOL     OW65284   9.113   6.091   4.670 -0.5422  0.4569 -0.0080
17877SOL    HW165285   9.201   6.131   4.648 -0.6549 -0.6296 -2.6206
17877SOL    HW265286   9.119   5.991   4.663 -1.4802  0.2461  1.7700
17878SOL     OW65287   2.480   7.523   1.779  0.7206 -0.1492  0.5462
17878SOL    HW165288   2.427   7.546   1.698  1.5110 -0.0790  0.0401
17878SOL    HW265289   2.574   7.500   1.752  0.7762 -0.8916  1.3664
17879SOL     OW65290   6.594   1.094   3.434 -0.2540 -0.2443 -0.3437
17879SOL    HW165291   6.688   1.128   3.432 -0.0667 -0.5276  1.9508
17879SOL    HW265292   6.533   1.165   3.401  0.5768  0.7017  0.1113
17880SOL     OW65293   9.231   4.170   2.873  0.0336 -0.0012 -0.3933
17880SOL    HW165294   9.205   4.210   2.962  2.2756  1.3387 -0.3090
17880SOL    HW265295   9.248   4.243   2.807 -0.2843 -0.9610 -1.5570
17881SOL     OW65296   9.304   1.117   7.004 -0.0652 -0.0103  0.2136
17881SOL    HW165297   9.259   1.199   6.967  1.1838 -0.1334 -1.6672
17881SOL    HW265298   9.323   1.054   6.929  2.4460 -0.3294  1.0904
17882SOL     OW65299   4.035   8.459   6.583 -0.2105 -0.2554  0.5446
17882SOL    HW165300   4.088   8.442   6.500  2.0409 -0.0456  1.8878
17882SOL    HW265301   4.094   8.448   6.663 -2.1538  0.2543  2.0897
17883SOL     OW65302   4.198   7.315   5.643 -0.6761 -0.1643 -0.6500
17883SOL    HW165303   4.125   7.323   5.575 -0.5775  0.1193 -0.7220
17883SOL    HW265304   4.286   7.335   5.600 -0.6007 -0.0970 -0.4634
17884SOL     OW65305   6.721   9.187   5.775 -0.3563  0.1207  0.0413
17884SOL    HW165306   6.656   9.144   5.839  0.2106 -1.2484 -0.2769
17884SOL    HW265307   6.755   9.272   5.814 -1.4718  0.2666  0.7204
17885SOL     OW65308   5.298   8.196   5.063 -0.2330 -0.4145 -0.3518
17885SOL    HW165309   5.313   8.294   5.077  1.0328 -0.3797 -1.8000
17885SOL    HW265310   5.386   8.151   5.049 -0.9278 -1.5399 -1.1245
17886SOL     OW65311   2.251   1.111   7.118  0.1164  0.0796  0.7274
17886SOL    HW165312   2.186   1.168   7.067 -0.6704 -2.1183 -0.8138
17886SOL    HW265313   2.335   1.101   7.065  0.5863  0.5095  1.3891
17887SOL     OW65314   0.447   7.115   1.113 -0.0623 -0.4130  0.0056
17887SOL    HW165315   0.400   7.045   1.060 -0.0077  0.1151 -0.7510
17887SOL    HW265316   0.514   7.161   1.055  1.1401 -0.9159  0.9715
17888SOL     OW65317   8.500   8.739   4.164 -0.5032  0.2068  0.4734
17888SOL    HW165318   8.433   8.784   4.105 -1.1347 -1.2807  0.0344
17888SOL    HW265319   8.550   8.670   4.111 -0.6086 -0.6672  1.4848
17889SOL     OW65320   3.697   0.515   4.749 -0.1933 -0.0611  0.2214
17889SOL    HW165321   3.621   0.502   4.685  0.5882 -2.2122 -0.3257
17889SOL    HW265322   3.665   0.499   4.843 -0.4343 -0.9245 -0.0027
17890SOL     OW65323   4.103   1.613   3.345 -0.4362 -0.1119 -0.4861
17890SOL    HW165324   4.095   1.706   3.310 -1.4830  0.1795  0.4786
17890SOL    HW265325   4.032   1.556   3.304  1.4822 -1.0120 -2.6482
17891SOL     OW65326   1.489   8.766   2.861 -0.6230  0.1411 -0.2745
17891SOL    HW165327   1.575   8.719   2.840 -0.1785  0.4592  0.8029
17891SOL    HW265328   1.499   8.864   2.844 -0.7460  0.1930 -0.0456
17892SOL     OW65329   2.890   6.700   3.901 -0.1025  0.1350  0.6873
17892SOL    HW165330   2.925   6.690   3.994  2.1239  0.6346 -0.0702
17892SOL    HW265331   2.892   6.611   3.855 -0.1630  0.0936  0.7643
17893SOL     OW65332   0.368   2.577   5.305  0.0109 -0.0203  0.6790
17893SOL    HW165333   0.410   2.587   5.396 -0.1847  1.0039  0.6668
17893SOL    HW265334   0.273   2.547   5.315 -0.5706  1.8447  0.9040
17894SOL     OW65335   0.017   1.804   7.472 -0.0067  0.0303 -0.3202
17894SOL    HW165336   0.114   1.781   7.465 -0.0584 -0.4461  0.4243
17894SOL    HW265337  -0.025   1.749   7.545 -0.6447  0.8694 -0.0530
17895SOL     OW65338   2.169   4.129   4.342  0.4987 -0.5436  0.0126
17895SOL    HW165339   2.248   4.189   4.345 -0.5448  0.8140  1.3146
17895SOL    HW265340   2.196   4.037   4.370  1.2205  0.4245  2.7204
17896SOL     OW65341   3.274   7.982   2.649 -0.2642 -0.0582  0.2445
17896SOL    HW165342   3.344   8.024   2.707  0.0607 -1.3151  0.7833
17896SOL    HW265343   3.190   8.036   2.655 -0.2224 -0.1270  1.8547
17897SOL     OW65344   0.376   2.169   6.131 -0.2261  0.5757  0.6816
17897SOL    HW165345   0.362   2.249   6.189  1.8178  0.7052  1.0433
17897SOL    HW265346   0.471   2.140   6.137 -0.7400 -1.3602 -0.1433
17898SOL     OW65347   7.513   0.317   4.743 -0.2479 -0.2142  0.0410
17898SOL    HW165348   7.546   0.271   4.825  0.2501  0.5677  0.2804
17898SOL    HW265349   7.456   0.254   4.690  0.4065 -1.0928  0.3786
17899SOL     OW65350   3.718   1.615   5.782  0.7534 -0.1504  0.5061
17899SOL    HW165351   3.687   1.659   5.866 -0.7418 -0.7978  0.3214
17899SOL    HW265352   3.642   1.561   5.743  1.6660 -0.5006 -0.8191
17900SOL     OW65353   7.932   4.998   3.749 -0.1733  0.3155  0.6104
17900SOL    HW165354   7.976   5.069   3.693 -0.5572  1.2260  1.4732
17900SOL    HW265355   7.843   4.975   3.710  0.4901 -0.6033 -0.3938
17901SOL     OW65356   2.101   6.580   5.862  0.1151  0.5425  0.2087
17901SOL    HW165357   2.103   6.486   5.896 -1.0142 -0.9785 -3.6398
17901SOL    HW265358   2.010   6.619   5.877 -0.9994 -0.8261 -2.6914
17902SOL     OW65359   1.866   7.210   2.724 -0.3635  0.0667 -0.3226
17902SOL    HW165360   1.777   7.203   2.768 -0.2473  0.1379 -0.0746
17902SOL    HW265361   1.866   7.157   2.639 -0.9908  0.9614 -0.8860
17903SOL     OW65362   2.934   4.613   5.616  0.3235  0.2975  0.0476
17903SOL    HW165363   2.942   4.515   5.631  0.2902  0.5696  2.0322
17903SOL    HW265364   2.839   4.641   5.630  0.1463  0.4780 -1.4431
17904SOL     OW65365   8.860   9.318   1.638 -0.1427  0.6845 -0.5607
17904SOL    HW165366   8.787   9.260   1.602 -0.9832  1.6747 -0.4761
17904SOL    HW265367   8.934   9.260   1.674 -0.8562 -0.3210 -0.6928
17905SOL     OW65368   7.024   5.344   0.607  0.2316 -0.0050 -0.4168
17905SOL    HW165369   7.113   5.305   0.632 -0.5700 -1.5787  0.0221
17905SOL    HW265370   6.960   5.332   0.682 -0.4924  0.7281 -0.9039
17906SOL     OW65371   2.626   8.711   0.411 -0.6107 -0.1725 -0.0065
17906SOL    HW165372   2.708   8.662   0.442 -0.0505  1.8086  1.7373
17906SOL    HW265373   2.573   8.742   0.490 -2.0880  0.1761 -1.1113
17907SOL     OW65374   5.522   8.387   4.184 -0.2998  0.1027  0.0599
17907SOL    HW165375   5.474   8.424   4.264  1.8199  1.9204  0.5681
17907SOL    HW265376   5.614   8.358   4.211 -0.6871 -2.2615 -1.0958
17908SOL     OW65377   2.821   2.099   0.207 -0.5299  0.3199 -0.0636
17908SOL    HW165378   2.901   2.118   0.263 -1.3689  0.7215  1.0247
17908SOL    HW265379   2.749   2.165   0.229 -0.9619  0.3268 -1.4463
17909SOL     OW65380   6.737   5.590   7.370 -0.0583 -0.0590 -0.2535
17909SOL    HW165381   6.791   5.518   7.327  0.6110  0.0217  0.4421
17909SOL    HW265382   6.795   5.643   7.432 -0.7091  0.6409 -0.2377
17910SOL     OW65383   8.355   3.452   0.820  0.2002 -0.4983 -0.2427
17910SOL    HW165384   8.400   3.535   0.787  1.2947 -1.6656 -1.7872
17910SOL    HW265385   8.326   3.464   0.915  1.6997  1.1137  0.0238
17911SOL     OW65386   8.926   2.226   1.331 -0.2997 -0.8215 -0.5193
17911SOL    HW165387   8.939   2.325   1.320  1.4893 -1.0333 -0.5806
17911SOL    HW265388   8.926   2.203   1.428 -2.7328 -0.5401 -0.4271
17912SOL     OW65389   0.627   7.719   7.789 -0.3652  0.5343  0.1559
17912SOL    HW165390   0.692   7.707   7.863  0.9975  2.0544 -0.7575
17912SOL    HW265391   0.550   7.656   7.801  0.9061 -0.7639  1.6380
17913SOL     OW65392   8.679   5.294   5.284  0.0574 -0.1793 -0.3589
17913SOL    HW165393   8.711   5.233   5.356 -0.7123  0.7036  0.7555
17913SOL    HW265394   8.720   5.268   5.196  0.4405 -1.7017  0.2697
17914SOL     OW65395   3.729   7.000   0.508  0.3305 -0.0395  0.3344
17914SOL    HW165396   3.652   7.037   0.559 -0.0094  2.1802 -1.7096
17914SOL    HW265397   3.789   7.074   0.479  1.8152 -1.4816 -0.3812
17915SOL     OW65398   2.709   0.580   7.573  0.5752 -0.3162 -0.0906
17915SOL    HW165399   2.796   0.537   7.598  0.9039 -0.1680 -0.9602
17915SOL    HW265400   2.655   0.516   7.518 -1.7847 -2.0837  4.0861
17916SOL     OW65401   2.098   2.096   7.704  0.0631  0.1170  0.3000
17916SOL    HW165402   2.017   2.116   7.648  0.4340 -0.7363 -0.5659
17916SOL    HW265403   2.079   2.118   7.799 -2.1085 -2.4739  0.5224
17917SOL     OW65404   8.820   0.073   2.112 -0.1381 -0.2940  0.1253
17917SOL    HW165405   8.796   0.027   2.027  2.8194 -1.9864  0.1437
17917SOL    HW265406   8.807   0.011   2.189  2.3079 -0.5913  0.3215
17918SOL     OW65407   8.362   9.223   2.401 -0.3970 -0.4342 -0.0412
17918SOL    HW165408   8.315   9.217   2.489 -1.5419 -0.4812 -0.6570
17918SOL    HW265409   8.408   9.312   2.394  0.0807 -0.6121  0.7886
17919SOL     OW65410   8.768   4.452   3.749 -0.1292 -0.6637 -0.0057
17919SOL    HW165411   8.786   4.543   3.786  0.4402 -1.1747  0.9730
17919SOL    HW265412   8.683   4.454   3.696  0.9702  0.9455 -1.7896
17920SOL     OW65413   2.038   0.547   4.431  0.1141  0.4107 -0.1263
17920SOL    HW165414   1.970   0.487   4.475  0.9472 -0.4024  0.0724
17920SOL    HW265415   2.129   0.507   4.441  0.7136  1.8226  0.1750
17921SOL     OW65416   0.419   6.820   2.627  0.1248 -0.5385 -0.3265
17921SOL    HW165417   0.413   6.902   2.684 -0.3539  0.2113 -1.4512
17921SOL    HW265418   0.510   6.815   2.584  0.3066 -0.8341  0.0871
17922SOL     OW65419   3.825   4.079   1.991 -0.1647  0.3693  0.2814
17922SOL    HW165420   3.782   3.993   2.020 -0.9237  0.2469 -1.1463
17922SOL    HW265421   3.895   4.105   2.057 -0.9355 -0.5793  1.5094
17923SOL     OW65422   1.500   8.566   0.995  0.4364  0.4426  0.2034
17923SOL    HW165423   1.550   8.481   0.977  0.6475  0.7595 -0.7530
17923SOL    HW265424   1.522   8.598   1.088 -1.4373 -1.7401  1.4445
17924SOL     OW65425   9.177   0.851   1.292 -0.4313  0.2065 -0.7298
17924SOL    HW165426   9.216   0.763   1.263 -0.8032 -0.6057  1.1333
17924SOL    HW265427   9.236   0.925   1.261 -0.1983 -0.6816 -2.4734
17925SOL     OW65428   8.984   1.083   3.513 -0.1140  0.0592 -0.2205
17925SOL    HW165429   9.052   1.020   3.550  0.5212  0.4477 -0.7117
17925SOL    HW265430   8.993   1.088   3.413 -0.3305  0.7229 -0.2134
17926SOL     OW65431   5.512   2.512   2.148 -0.4729 -0.3526  0.6348
17926SOL    HW165432   5.583   2.492   2.216 -0.1608 -1.9315 -0.1418
17926SOL    HW265433   5.459   2.592   2.178  2.1520  1.3784  0.8080
17927SOL     OW65434   4.772   9.009   2.246  0.5775  0.5528  0.8481
17927SOL    HW165435   4.865   9.045   2.237  0.5733  1.1836  3.0452
17927SOL    HW265436   4.717   9.072   2.301 -1.1781  0.2066 -0.4714
17928SOL     OW65437   4.709   1.402   7.180  0.4115  0.2905 -0.4385
17928SOL    HW165438   4.760   1.465   7.238  0.6340  2.2178 -2.6338
17928SOL    HW265439   4.754   1.313   7.179  0.3751  0.2077  2.3284
17929SOL     OW65440   2.935   4.906   1.837 -0.0608  0.2862 -0.5167
17929SOL    HW165441   2.885   4.867   1.761  0.2835 -0.7184 -0.2304
17929SOL    HW265442   3.028   4.930   1.808  1.2629 -3.4087  0.4744
17930SOL     OW65443   3.670   3.324   5.641 -0.0839  0.4346  0.2098
17930SOL    HW165444   3.629   3.361   5.558 -0.4445 -0.2965  0.0533
17930SOL    HW265445   3.716   3.237   5.620 -1.5013 -0.5449  1.0532
17931SOL     OW65446   1.293   3.893   0.253  0.2715  0.3233  0.3576
17931SOL    HW165447   1.329   3.945   0.175  2.3773  0.4354  1.3877
17931SOL    HW265448   1.302   3.795   0.235  3.5245  0.3468  1.6929
17932SOL     OW65449   7.814   1.707   2.430  0.0235  0.3662 -0.0949
17932SOL    HW165450   7.838   1.620   2.473  0.6678  0.5340 -0.1206
17932SOL    HW265451   7.715   1.719   2.435 -0.0160 -0.1089  0.4003
17933SOL     OW65452   7.395   6.229   4.231  0.2469 -0.3096 -0.1684
17933SOL    HW165453   7.318   6.277   4.191 -0.8068 -1.2641  0.6964
17933SOL    HW265454   7.475   6.240   4.172 -0.6208  0.4247 -1.2232
17934SOL     OW65455   1.100   4.392   7.966  0.3226  0.3291 -0.0780
17934SOL    HW165456   1.181   4.367   7.914  0.5111  1.1973 -0.2082
17934SOL    HW265457   1.060   4.310   8.007  0.0801 -0.3832 -1.7157
17935SOL     OW65458   2.361   1.882   1.243 -0.1122  0.0939  0.2848
17935SOL    HW165459   2.405   1.849   1.327 -1.8523 -0.9215  0.8457
17935SOL    HW265460   2.415   1.957   1.204  1.5561 -0.4642  1.4492
17936SOL     OW65461   2.761   6.878   1.449 -0.1935 -0.0894 -0.7349
17936SOL    HW165462   2.802   6.814   1.514 -0.5901  0.2280 -0.1695
17936SOL    HW265463   2.824   6.893   1.374  1.9898  2.6262  1.5498
17937SOL     OW65464   9.679   1.809   1.241 -0.2566  0.0596  0.2410
17937SOL    HW165465   9.672   1.908   1.257 -1.1214 -0.0654  0.6739
17937SOL    HW265466   9.608   1.762   1.293 -1.0390 -0.6435 -1.4040
17938SOL     OW65467   4.531   7.048   1.099 -0.4819  0.0887 -0.3572
17938SOL    HW165468   4.492   7.134   1.130 -2.1399 -0.6318 -0.3564
17938SOL    HW265469   4.470   6.973   1.125  0.9822 -1.1014 -0.2602
17939SOL     OW65470   7.156   8.301   1.709  0.1164 -0.1823  0.0024
17939SOL    HW165471   7.238   8.249   1.688  0.5404 -0.2355  1.6771
17939SOL    HW265472   7.182   8.391   1.746 -0.5659 -0.1328  0.3790
17940SOL     OW65473   4.465   0.963   0.050  0.3799 -0.6968  0.6643
17940SOL    HW165474   4.497   0.936  -0.040 -1.5890 -0.0693 -0.2551
17940SOL    HW265475   4.535   0.942   0.118  2.5130  0.2403 -1.1945
17941SOL     OW65476   4.893   1.628   0.215 -0.4332  0.4011 -0.3203
17941SOL    HW165477   4.971   1.661   0.267 -1.8411  3.6346 -0.1263
17941SOL    HW265478   4.826   1.587   0.278  0.1949 -0.5082 -0.2420
17942SOL     OW65479   4.919   8.220   1.710 -0.3060  0.5966  0.0369
17942SOL    HW165480   4.934   8.156   1.785 -0.1048 -1.7040 -1.8994
17942SOL    HW265481   4.866   8.299   1.743 -3.5287 -2.1788  1.7363
17943SOL     OW65482   6.550   1.824   1.239  0.0221 -0.0688  0.3300
17943SOL    HW165483   6.490   1.887   1.290  0.1313  0.2756  0.0264
17943SOL    HW265484   6.633   1.871   1.212  0.6428 -0.6795  1.1520
17944SOL     OW65485   9.475   6.471   1.712 -0.0785  0.2255  0.1302
17944SOL    HW165486   9.522   6.434   1.632  0.8528 -1.6013  1.4634
17944SOL    HW265487   9.387   6.425   1.723 -0.8837  1.5651 -0.7149
17945SOL     OW65488   9.426   6.088   7.185  0.0778 -0.5589 -0.3368
17945SOL    HW165489   9.470   6.059   7.270  1.6378 -1.7520 -1.5029
17945SOL    HW265490   9.362   6.018   7.155 -2.7283  1.1939  1.3705
17946SOL     OW65491   6.800   1.187   6.159  0.2285  0.1101  0.2284
17946SOL    HW165492   6.721   1.244   6.139  0.4074  0.4167  0.3898
17946SOL    HW265493   6.828   1.138   6.076 -1.4339 -1.6520  0.6851
17947SOL     OW65494   6.360   0.894   7.063  0.7510  0.1136 -0.1570
17947SOL    HW165495   6.271   0.937   7.084  0.8904 -0.1615  1.0564
17947SOL    HW265496   6.352   0.841   6.979 -0.8792 -1.7607  1.1386
17948SOL     OW65497   0.378   0.363   7.646  0.1909 -0.4033 -0.4431
17948SOL    HW165498   0.384   0.276   7.694 -1.3926 -1.0383 -1.3606
17948SOL    HW265499   0.283   0.379   7.619  0.5876  1.2949 -0.8608
17949SOL     OW65500   4.719   2.339   5.893 -0.3166 -0.3564  0.1775
17949SOL    HW165501   4.652   2.411   5.876 -0.4751 -0.3400  0.8206
17949SOL    HW265502   4.765   2.314   5.808 -0.6885  0.0817 -0.1529
17950SOL     OW65503   1.273   9.825   3.380  0.1299  0.0467  0.0238
17950SOL    HW165504   1.307   9.857   3.291 -1.3140 -0.4807 -0.7506
17950SOL    HW265505   1.332   9.751   3.413 -0.4494 -1.1376 -1.4942
17951SOL     OW65506   1.269   7.392   3.406  0.2126  0.5449 -0.0657
17951SOL    HW165507   1.351   7.415   3.459 -0.1392  1.4785  0.0807
17951SOL    HW265508   1.272   7.296   3.380  1.1787  0.4848  0.2585
17952SOL     OW65509   0.632   7.940   2.262  0.0220 -0.1121 -0.8775
17952SOL    HW165510   0.724   7.976   2.278 -0.2590 -0.4706  1.6425
17952SOL    HW265511   0.564   8.002   2.302 -0.6781 -1.3084 -0.1993
17953SOL     OW65512   3.570   1.083   1.470 -0.2566 -0.7156 -0.1661
17953SOL    HW165513   3.640   1.082   1.399  1.0406 -0.2989  1.0961
17953SOL    HW265514   3.481   1.060   1.429  0.4959 -0.6454 -1.8778
17954SOL     OW65515   0.295   8.538   4.002  0.1237  0.1100 -0.4043
17954SOL    HW165516   0.359   8.595   4.054 -1.3144  0.1478  1.3334
17954SOL    HW265517   0.329   8.444   3.998  0.0382  0.0205  0.9416
17955SOL     OW65518   7.595   9.692   4.045 -0.5859 -0.5201 -0.2186
17955SOL    HW165519   7.633   9.618   4.101  1.7959  0.6751 -0.1982
17955SOL    HW265520   7.500   9.708   4.071 -0.3940 -1.9379  1.4462
17956SOL     OW65521   4.562   0.183   4.714 -0.6675 -0.0441 -0.0775
17956SOL    HW165522   4.615   0.234   4.645 -0.3487 -0.6193 -0.2590
17956SOL    HW265523   4.531   0.096   4.675 -1.3375  0.0678  0.1868
17957SOL     OW65524   4.964   9.310   6.168  0.4087  0.0141 -0.3063
17957SOL    HW165525   4.918   9.339   6.084  0.9420 -1.6820 -1.2241
17957SOL    HW265526   4.946   9.213   6.183  0.4991  0.2613  1.4370
17958SOL     OW65527   6.928   1.566   3.102  0.2893  0.1406 -0.1553
17958SOL    HW165528   7.025   1.588   3.098  0.3619  0.1033  1.1976
17958SOL    HW265529   6.914   1.470   3.077  0.4402  0.5366 -1.7750
17959SOL     OW65530   9.344   2.747   5.314  0.4240 -0.2268 -0.0349
17959SOL    HW165531   9.273   2.734   5.244 -0.4012  2.2811  0.2623
17959SOL    HW265532   9.310   2.715   5.402 -0.4013  0.9830  0.1126
17960SOL     OW65533   3.309   5.689   1.181  0.1525  0.0807 -0.4744
17960SOL    HW165534   3.213   5.672   1.203  0.6050 -0.2150  1.3928
17960SOL    HW265535   3.357   5.602   1.177 -0.1101  0.0009 -3.8996
17961SOL     OW65536   2.876   9.260   7.195  0.3804  0.1186  0.2807
17961SOL    HW165537   2.830   9.182   7.151 -0.7757  1.4866 -0.9678
17961SOL    HW265538   2.975   9.252   7.180  0.0776  0.1160 -1.8917
17962SOL     OW65539   6.367   4.699   1.187  0.7163  0.5064  0.7333
17962SOL    HW165540   6.301   4.705   1.262  0.8969 -4.0974  1.4180
17962SOL    HW265541   6.456   4.672   1.223  1.2144 -0.1526 -0.9515
17963SOL     OW65542   9.285   8.693   2.654  0.8855 -0.0366 -0.3161
17963SOL    HW165543   9.331   8.777   2.682 -0.3816  0.9307 -1.0427
17963SOL    HW265544   9.192   8.693   2.690  0.3878 -0.4091 -1.5586
17964SOL     OW65545   7.101   5.498   1.132 -0.8584 -0.2867 -0.3440
17964SOL    HW165546   7.067   5.585   1.168 -1.0958  0.0908 -1.4795
17964SOL    HW265547   7.138   5.511   1.041 -1.3923 -1.4794 -0.7491
17965SOL     OW65548   3.914   4.493   2.991  0.2762 -0.0768 -0.3133
17965SOL    HW165549   3.867   4.550   3.057  0.2425 -1.4290  0.8648
17965SOL    HW265550   3.868   4.498   2.903 -0.0337  1.2815 -0.0760
17966SOL     OW65551   8.239   2.622   0.174  0.0616  0.0518  0.6421
17966SOL    HW165552   8.238   2.711   0.220 -2.0082  0.7486 -0.6952
17966SOL    HW265553   8.273   2.633   0.081  2.4117 -1.0460  1.3250
17967SOL     OW65554   2.911   2.031   2.021 -0.4837 -0.1991  0.0575
17967SOL    HW165555   2.956   2.081   2.096  0.7748 -0.4664 -0.4970
17967SOL    HW265556   2.894   1.937   2.050 -2.5587  0.4471  0.9884
17968SOL     OW65557   4.930   3.842   1.307 -0.2070 -0.2195  0.2368
17968SOL    HW165558   4.970   3.933   1.302 -2.0163  0.6343  0.9674
17968SOL    HW265559   4.887   3.829   1.397 -1.7370 -1.0345 -0.5902
17969SOL     OW65560   0.078   8.112   1.424 -0.2007  0.6602  0.1670
17969SOL    HW165561   0.025   8.192   1.396 -1.0112  0.1088  0.1039
17969SOL    HW265562   0.116   8.128   1.515 -1.4714  0.5924  0.7202
17970SOL     OW65563   0.590   3.762   0.213  0.4622  0.5540 -0.1207
17970SOL    HW165564   0.637   3.683   0.253  1.7477  1.3229 -0.0561
17970SOL    HW265565   0.650   3.805   0.146  0.2786  2.2272  0.7757
17971SOL     OW65566   7.980   8.426   4.816 -0.2531 -0.4455 -0.1726
17971SOL    HW165567   7.997   8.398   4.910 -0.7110  1.9415  0.6681
17971SOL    HW265568   8.055   8.485   4.784 -0.1882 -1.0923 -1.2339
17972SOL     OW65569   5.951   9.167   2.858 -0.3843 -0.2330 -0.2454
17972SOL    HW165570   5.882   9.123   2.801 -1.7779  0.7195  0.6689
17972SOL    HW265571   5.954   9.265   2.836 -0.5449  0.0406  0.8853
17973SOL     OW65572   4.332   2.709   5.629  0.2110  0.2863  0.6805
17973SOL    HW165573   4.322   2.630   5.569  2.3026  0.5231  0.0108
17973SOL    HW265574   4.246   2.761   5.629 -0.6278 -1.0668 -0.1547
17974SOL     OW65575   4.212   2.887   1.117  0.0223  0.6441 -0.1294
17974SOL    HW165576   4.175   2.801   1.082 -0.2398 -0.1585  2.0095
17974SOL    HW265577   4.311   2.889   1.104  0.1019 -0.2330  0.3181
17975SOL     OW65578   4.008   8.181   4.924  0.3698 -0.2990  0.5602
17975SOL    HW165579   3.925   8.132   4.950  0.3184  0.0128  0.9915
17975SOL    HW265580   3.988   8.279   4.916  0.9205 -0.0925  1.6480
17976SOL     OW65581   2.463   4.043   0.374 -0.2150 -0.1736  0.2438
17976SOL    HW165582   2.491   4.138   0.357 -1.9969 -0.0986 -2.7421
17976SOL    HW265583   2.536   3.981   0.348  0.4608  0.3152  0.9549
17977SOL     OW65584   0.734   9.062   1.530 -0.6772  0.0764 -0.0864
17977SOL    HW165585   0.647   9.015   1.538 -0.5764 -0.1256 -0.1727
17977SOL    HW265586   0.790   9.016   1.461  0.0011 -0.5616  0.8774
17978SOL     OW65587   6.872   3.319   2.274 -0.0231 -0.1459  0.2686
17978SOL    HW165588   6.885   3.306   2.373 -1.8526 -0.5907  0.4712
17978SOL    HW265589   6.799   3.259   2.242  0.4479  0.1136 -1.3402
17979SOL     OW65590   2.571   3.957   5.690 -0.0344 -0.1351 -0.0738
17979SOL    HW165591   2.658   4.005   5.676 -1.0678  0.9696 -3.0898
17979SOL    HW265592   2.538   3.922   5.603 -2.0313 -1.6069  1.2351
17980SOL     OW65593   7.182   4.352   2.376 -0.5277  0.3036  0.0947
17980SOL    HW165594   7.165   4.268   2.427  3.9826 -0.4051  0.6620
17980SOL    HW265595   7.134   4.428   2.420 -1.9354 -1.3970  1.5514
17981SOL     OW65596   7.960   7.232   6.099  0.1369  0.0471  0.6765
17981SOL    HW165597   7.886   7.296   6.119  0.3324  0.1410  1.1183
17981SOL    HW265598   7.923   7.154   6.048 -0.0223  0.6997 -0.2162
17982SOL     OW65599   4.171   8.729   3.380  0.7042  0.1082 -0.3485
17982SOL    HW165600   4.270   8.742   3.375  0.6416  1.3469  1.3942
17982SOL    HW265601   4.142   8.727   3.476 -1.6475  5.1096 -0.8249
17983SOL     OW65602   9.576   7.130   3.379  0.3754  0.3882  0.3301
17983SOL    HW165603   9.513   7.208   3.386  1.2572  1.0259  1.3868
17983SOL    HW265604   9.599   7.099   3.472  1.8849  0.3775 -0.0471
17984SOL     OW65605   4.839   2.856   1.106 -0.0285  0.3265 -0.1146
17984SOL    HW165606   4.910   2.927   1.106  1.1915 -0.8875  0.0724
17984SOL    HW265607   4.823   2.825   1.013 -1.6236  1.8646 -0.3905
17985SOL     OW65608   0.966   6.888   6.802  0.1195  0.2121 -0.4303
17985SOL    HW165609   0.901   6.813   6.815  0.5800 -0.1541 -0.1956
17985SOL    HW265610   0.937   6.945   6.726 -0.8894  0.4949  0.1626
17986SOL     OW65611   2.264   3.904   7.465 -0.0860 -0.1518  0.0106
17986SOL    HW165612   2.216   3.988   7.487 -0.8934 -0.4930 -0.4458
17986SOL    HW265613   2.199   3.835   7.435  0.8488 -0.1118 -2.1903
17987SOL     OW65614   9.297   6.215   3.776  0.4879  0.1376 -0.5534
17987SOL    HW165615   9.397   6.222   3.786  0.4214  0.9612 -0.3661
17987SOL    HW265616   9.253   6.263   3.852 -0.0619 -2.1184  0.5723
17988SOL     OW65617   6.322   9.489   4.639 -0.1600  0.5583  0.5335
17988SOL    HW165618   6.240   9.511   4.587  0.8234 -0.6710 -1.5796
17988SOL    HW265619   6.397   9.549   4.612 -0.0783  1.0181  1.7347
17989SOL     OW65620   8.343   6.833   7.023  0.1005 -0.2043  0.5670
17989SOL    HW165621   8.368   6.736   7.021 -1.0555 -0.4990 -0.0819
17989SOL    HW265622   8.337   6.868   6.930 -1.1674  0.0385  0.7261
17990SOL     OW65623   7.015   1.798   2.804  0.0022 -0.5674  0.4429
17990SOL    HW165624   6.997   1.736   2.881  0.3921 -1.2085  0.0265
17990SOL    HW265625   7.060   1.881   2.838 -1.0455 -0.2455  1.0838
17991SOL     OW65626   1.249   3.786   5.373 -0.3763  0.2990  0.0610
17991SOL    HW165627   1.212   3.765   5.283 -0.7678 -1.0510  0.5230
17991SOL    HW265628   1.253   3.885   5.386 -1.2589  0.4806 -1.0399
17992SOL     OW65629   4.913   9.187   7.966  0.3392  0.1638  0.0786
17992SOL    HW165630   4.950   9.095   7.964 -0.1879 -0.0524  0.0817
17992SOL    HW265631   4.818   9.185   7.933 -0.6130  0.2703  2.6613
17993SOL     OW65632   3.334   6.146   3.258  0.5558 -0.2581  0.1771
17993SOL    HW165633   3.238   6.149   3.287  0.3561 -0.7466 -0.4109
17993SOL    HW265634   3.338   6.154   3.158  1.2169  1.3366  0.3129
17994SOL     OW65635   1.173   3.345   3.678 -0.6078  1.1109 -0.4385
17994SOL    HW165636   1.175   3.246   3.670 -2.0715  1.0892 -0.7221
17994SOL    HW265637   1.212   3.373   3.766  3.0780  0.5283 -1.8118
17995SOL     OW65638   5.300   8.923   7.186 -0.1856 -0.3909  0.2655
17995SOL    HW165639   5.359   8.861   7.238 -2.3772 -2.0253  0.8674
17995SOL    HW265640   5.223   8.952   7.243 -0.0439  1.6695 -0.5297
17996SOL     OW65641   1.355   9.822   2.525  0.1228  0.5720  0.2575
17996SOL    HW165642   1.331   9.868   2.610 -2.3234  0.5069 -0.3549
17996SOL    HW265643   1.328   9.726   2.530  3.0315 -0.2684  0.6369
17997SOL     OW65644   2.425   2.900   6.944  0.1465 -0.3359  0.2061
17997SOL    HW165645   2.459   2.864   7.031  0.3283  1.2935  0.8275
17997SOL    HW265646   2.502   2.934   6.890  0.0634 -1.6105 -0.7269
17998SOL     OW65647   5.389   1.069   0.791  0.3376 -0.0868 -0.0040
17998SOL    HW165648   5.463   1.014   0.753 -0.1410 -1.6023  1.2171
17998SOL    HW265649   5.395   1.069   0.891 -1.6205 -0.6709  0.1309
17999SOL     OW65650   5.325   6.580   0.710  0.2971 -0.1789  0.1642
17999SOL    HW165651   5.405   6.615   0.663  0.4160 -0.0742  0.4470
17999SOL    HW265652   5.272   6.656   0.748 -1.9239  0.0791 -3.1551
18000SOL     OW65653   1.269   9.834   6.793  0.2846 -0.0018 -0.1864
18000SOL    HW165654   1.174   9.805   6.787  0.3641 -0.2294 -0.3488
18000SOL    HW265655   1.284   9.881   6.880 -0.3350  1.3593 -0.7921
18001SOL     OW65656   6.717   7.057   6.141 -0.1885  0.1692 -0.1718
18001SOL    HW165657   6.624   7.091   6.141  0.2591  1.5411 -2.6274
18001SOL    HW265658   6.779   7.129   6.110  1.8415 -0.3789  2.4416
18002SOL     OW65659   8.714   8.510   5.396 -0.0938  0.5516  0.1538
18002SOL    HW165660   8.784   8.569   5.357 -1.6683  1.9907 -0.5125
18002SOL    HW265661   8.718   8.420   5.351  2.5673 -0.0441  1.4576
18003SOL     OW65662   4.776   5.637   7.339 -0.6754  0.0433  0.2305
18003SOL    HW165663   4.816   5.637   7.247 -0.1140  0.4997  0.4679
18003SOL    HW265664   4.688   5.589   7.337 -1.0912  0.8295 -0.7267
18004SOL     OW65665   1.900   6.007   1.973  0.4435  0.1447  1.4974
18004SOL    HW165666   1.910   5.916   1.933  0.6772  1.1238 -0.7986
18004SOL    HW265667   1.808   6.041   1.955  1.4971  1.8425 -1.0365
18005SOL     OW65668   6.519   9.154   4.065  0.3998  0.0143  0.4428
18005SOL    HW165669   6.436   9.126   4.112  0.4969 -0.8121  0.1268
18005SOL    HW265670   6.496   9.218   3.992 -0.0505 -0.7889 -0.1322
18006SOL     OW65671   8.913   4.046   4.262  0.0947 -0.5052 -0.5359
18006SOL    HW165672   9.010   4.024   4.269  0.6066  1.8345  0.1139
18006SOL    HW265673   8.867   4.020   4.347  1.2086  3.2337  1.3159
18007SOL     OW65674   8.399   6.140   0.217 -0.3320  0.0776 -0.1814
18007SOL    HW165675   8.312   6.100   0.188 -0.9055  1.8891 -1.0392
18007SOL    HW265676   8.385   6.234   0.246  1.1695  0.0241  0.7750
18008SOL     OW65677   2.558   4.713   3.999  0.2683  0.2449  0.2885
18008SOL    HW165678   2.484   4.685   3.937  0.8352  1.6500 -1.0503
18008SOL    HW265679   2.520   4.771   4.071 -0.1036  0.1666  0.1570
18009SOL     OW65680   4.421   5.154   4.316 -0.0674 -0.4503 -0.8615
18009SOL    HW165681   4.471   5.239   4.299  0.8373 -1.4110 -3.1455
18009SOL    HW265682   4.327   5.175   4.342  0.7659  1.2934  0.9130
18010SOL     OW65683   7.647   2.370   2.653  0.3609  0.6971 -0.1116
18010SOL    HW165684   7.691   2.281   2.654 -0.3202  0.3643  0.9454
18010SOL    HW265685   7.668   2.419   2.737 -2.1349  0.0904  0.9133
18011SOL     OW65686   9.631   6.620   4.238 -0.2594  0.3696 -0.0559
18011SOL    HW165687   9.670   6.531   4.261  0.3808  0.5377 -0.4872
18011SOL    HW265688   9.555   6.640   4.301  1.1927  0.6450  1.6578
18012SOL     OW65689   7.450   2.491   4.115  0.4179 -0.4500 -0.2193
18012SOL    HW165690   7.528   2.546   4.144 -0.8004  0.5964  1.1602
18012SOL    HW265691   7.403   2.455   4.196  0.6336 -2.7425 -1.0819
18013SOL     OW65692   8.374   4.376   0.511 -0.4078  0.7289  0.4225
18013SOL    HW165693   8.453   4.436   0.512 -0.0416  0.2994 -1.2805
18013SOL    HW265694   8.311   4.404   0.439 -1.3039  0.4310  1.0776
18014SOL     OW65695   1.976   6.073   3.554  0.0395  0.0028  0.3557
18014SOL    HW165696   2.055   6.016   3.576 -0.6382 -0.3282  2.0313
18014SOL    HW265697   1.972   6.088   3.455  1.7992 -0.5368  0.1840
18015SOL     OW65698   3.352   0.874   0.566  0.1117 -0.3287  0.0555
18015SOL    HW165699   3.435   0.834   0.528  0.9958 -0.2991  1.9345
18015SOL    HW265700   3.279   0.871   0.497  1.7630 -0.0141 -1.7192
18016SOL     OW65701   4.261   9.691   3.639  0.1865  0.1381 -0.0158
18016SOL    HW165702   4.294   9.766   3.696 -1.4608  0.2708  0.7746
18016SOL    HW265703   4.281   9.711   3.543 -0.6687  1.8182  0.1408
18017SOL     OW65704   1.960   1.338   2.757  0.3660 -0.0831 -0.0832
18017SOL    HW165705   1.989   1.434   2.755  0.7071 -0.1794  0.0484
18017SOL    HW265706   2.031   1.282   2.713  0.0270 -0.2386 -0.4314
18018SOL     OW65707   3.687   4.706   3.459 -0.1766  0.2408  0.3945
18018SOL    HW165708   3.693   4.618   3.507 -0.1432  0.1645  0.2501
18018SOL    HW265709   3.595   4.742   3.468  0.4271  1.3578  2.5011
18019SOL     OW65710   4.613   4.419   1.166  0.0098 -0.0079 -0.0122
18019SOL    HW165711   4.550   4.483   1.122 -1.4437 -1.4369 -0.0415
18019SOL    HW265712   4.679   4.387   1.098  0.0922  0.6405 -0.2458
18020SOL     OW65713   8.158   0.434   1.152 -0.3428  0.2028 -0.0951
18020SOL    HW165714   8.176   0.395   1.243  1.9299 -1.7526 -1.3360
18020SOL    HW265715   8.060   0.441   1.138 -0.7451 -1.1314  1.8512
18021SOL     OW65716   6.261   9.703   5.309 -0.1496 -0.2888 -0.4249
18021SOL    HW165717   6.214   9.739   5.228 -0.7682 -1.6628 -0.7097
18021SOL    HW265718   6.193   9.682   5.380  0.1726 -1.0151 -0.3287
18022SOL     OW65719   3.457   0.485   7.279  0.4421  0.1207 -0.0608
18022SOL    HW165720   3.517   0.506   7.357  1.1857  1.8420 -1.0547
18022SOL    HW265721   3.481   0.544   7.202 -0.4841 -1.3435 -1.5121
18023SOL     OW65722   8.033   7.658   4.779 -0.0843 -0.2038  0.3356
18023SOL    HW165723   8.001   7.725   4.712  1.3458 -0.0534 -0.2160
18023SOL    HW265724   7.997   7.568   4.755 -0.3765  0.0234 -0.0881
18024SOL     OW65725   3.219   8.051   7.211  0.4398  0.3315 -0.3051
18024SOL    HW165726   3.232   8.150   7.211 -0.3369  0.4376  0.1499
18024SOL    HW265727   3.167   8.024   7.130  1.0340  0.2431 -0.6581
18025SOL     OW65728   2.193   4.409   0.536  0.0281 -0.2495  0.5452
18025SOL    HW165729   2.131   4.412   0.614 -0.1658  0.2068  0.3742
18025SOL    HW265730   2.287   4.397   0.569  0.0880  1.2250  0.9256
18026SOL     OW65731   2.296   7.816   9.862  0.5234 -0.0798 -0.3322
18026SOL    HW165732   2.368   7.847   9.923  0.8274 -0.3373 -0.5570
18026SOL    HW265733   2.311   7.720   9.838 -0.9466 -0.6766  1.1128
18027SOL     OW65734   4.803   9.266   4.864  0.2208  0.3514 -0.0357
18027SOL    HW165735   4.747   9.186   4.842  2.2037 -1.1168  0.1674
18027SOL    HW265736   4.789   9.290   4.960  1.8255 -1.5699  0.7079
18028SOL     OW65737   8.361   1.303   0.586  0.0218 -0.3279 -0.4767
18028SOL    HW165738   8.427   1.252   0.530  0.5085 -1.2772  0.9497
18028SOL    HW265739   8.273   1.257   0.583  0.5964 -1.5820  1.2391
18029SOL     OW65740   2.156   2.600   0.646  0.4930  0.5352 -0.0757
18029SOL    HW165741   2.195   2.536   0.581  3.5041  2.9896 -0.7777
18029SOL    HW265742   2.220   2.616   0.721 -2.5747 -1.6006  3.1394
18030SOL     OW65743   8.025   7.265   5.381 -0.1230  0.9537  0.1979
18030SOL    HW165744   7.957   7.201   5.416  0.6140  0.5578  0.9092
18030SOL    HW265745   8.058   7.323   5.456  1.2992  0.2532  0.1237
18031SOL     OW65746   1.391   1.030   0.314  0.3346 -0.1168 -0.1292
18031SOL    HW165747   1.393   1.072   0.405 -0.5941 -1.3306  0.4636
18031SOL    HW265748   1.425   0.935   0.320 -1.7567 -0.9221 -0.6516
18032SOL     OW65749   8.480   7.915   5.649 -0.2514  0.7871 -0.2878
18032SOL    HW165750   8.479   7.992   5.713  1.3762  0.9784 -0.4934
18032SOL    HW265751   8.574   7.892   5.625 -0.8414  1.3713 -3.4106
18033SOL     OW65752   7.898   8.504   3.126  0.1589 -0.4843 -0.1626
18033SOL    HW165753   7.944   8.516   3.214  1.5942  2.1553 -1.2132
18033SOL    HW265754   7.907   8.409   3.096  1.1780 -0.9977  1.7069
18034SOL     OW65755   3.999   6.635   1.998  0.2350 -0.6144 -0.3576
18034SOL    HW165756   4.069   6.702   1.972  0.2080  0.0649  1.2393
18034SOL    HW265757   3.968   6.655   2.091  0.1774 -2.8113  0.1101
18035SOL     OW65758   7.461   9.143   4.817 -0.8539  0.3115  0.0735
18035SOL    HW165759   7.422   9.053   4.796  0.2963 -0.3019  0.5042
18035SOL    HW265760   7.547   9.131   4.866 -1.1108  1.6650  0.8791
18036SOL     OW65761   3.312   1.413   0.736  0.2235 -0.0460  0.1731
18036SOL    HW165762   3.407   1.399   0.707  0.5528 -0.2869  1.3687
18036SOL    HW265763   3.299   1.378   0.829 -1.0614 -0.1077 -0.0133
18037SOL     OW65764   5.705   4.237   2.521 -0.5260  0.6178  0.1334
18037SOL    HW165765   5.697   4.138   2.531 -2.1957  0.5480 -1.6436
18037SOL    HW265766   5.790   4.258   2.471  0.1658  0.1411  1.0896
18038SOL     OW65767   7.555   6.264   7.185 -0.5711  0.2290 -0.0771
18038SOL    HW165768   7.550   6.164   7.183 -1.3056  0.2447  0.5422
18038SOL    HW265769   7.650   6.292   7.200 -0.3636 -0.3745 -0.2273
18039SOL     OW65770   7.547   6.570   8.176  0.4359  0.0713 -0.0899
18039SOL    HW165771   7.566   6.667   8.166  0.7332  0.0869  0.6076
18039SOL    HW265772   7.618   6.527   8.232 -0.0573 -0.4136  0.1725
18040SOL     OW65773   3.868   8.203   1.674 -0.7794 -0.2493  0.2566
18040SOL    HW165774   3.794   8.265   1.701 -0.5460 -0.0435  0.4251
18040SOL    HW265775   3.932   8.194   1.750  0.1245  0.6927 -0.3852
18041SOL     OW65776   4.454   3.027   5.556 -0.1115 -0.0166 -0.5669
18041SOL    HW165777   4.496   2.943   5.522 -1.7026 -0.7700 -0.6930
18041SOL    HW265778   4.513   3.105   5.534  1.4371 -1.1115 -0.3205
18042SOL     OW65779   2.339   6.309   0.295 -0.1930 -0.0359  0.1002
18042SOL    HW165780   2.422   6.363   0.311  0.4527 -1.2504  0.8854
18042SOL    HW265781   2.313   6.316   0.199 -0.9801  2.8797  0.4770
18043SOL     OW65782   1.915   8.331   0.503  0.3296  0.0386 -0.5425
18043SOL    HW165783   2.003   8.367   0.471  0.8863 -3.4136 -3.1797
18043SOL    HW265784   1.854   8.321   0.425 -0.9203 -1.6070  0.6332
18044SOL     OW65785   9.359   4.302   6.925  0.0759  0.4884  0.4765
18044SOL    HW165786   9.349   4.216   6.975 -2.2003  1.3889  1.6830
18044SOL    HW265787   9.398   4.371   6.986  0.3217  0.7440  0.0291
18045SOL     OW65788   0.976   7.800   3.812 -0.2664 -0.1383  0.5388
18045SOL    HW165789   0.988   7.773   3.907  0.1218 -1.9558 -0.0132
18045SOL    HW265790   1.039   7.748   3.754 -1.6117 -0.2202 -0.8885
18046SOL     OW65791   4.987   8.365   0.974  0.0320 -0.1749  0.0299
18046SOL    HW165792   5.034   8.352   1.062  2.2325  3.2839 -0.5556
18046SOL    HW265793   4.900   8.411   0.989  0.8847  1.3602  0.3232
18047SOL     OW65794   8.124   8.104   5.045  0.5446 -0.0427  0.4190
18047SOL    HW165795   8.091   8.041   5.114  1.6497 -0.2828  0.7459
18047SOL    HW265796   8.073   8.190   5.051  1.3544  0.3376  2.2706
18048SOL     OW65797   2.432   0.829   3.175  0.6133 -0.0836  0.0990
18048SOL    HW165798   2.466   0.758   3.113 -2.1310 -0.4477 -1.0664
18048SOL    HW265799   2.351   0.794   3.222  0.0542  1.8047  0.5459
18049SOL     OW65800   3.342   0.170   3.516  0.3723  0.1129 -0.4149
18049SOL    HW165801   3.258   0.198   3.563 -0.0009 -0.7819 -0.5399
18049SOL    HW265802   3.336   0.074   3.491  1.8419 -0.2244  0.4578
18050SOL     OW65803   4.287   7.115   5.786  0.0466 -0.2855 -0.3533
18050SOL    HW165804   4.262   7.199   5.739  1.5574  0.7496  0.6491
18050SOL    HW265805   4.304   7.135   5.883 -0.6291 -1.9317  0.1199
18051SOL     OW65806   4.368   7.964   2.267  0.0734  0.0762 -0.2433
18051SOL    HW165807   4.365   8.057   2.231  1.6659 -0.5167 -2.0009
18051SOL    HW265808   4.421   7.964   2.353  0.5284  0.7035 -0.5153
18052SOL     OW65809   3.409   1.186   5.132 -0.3179 -0.1230 -0.2738
18052SOL    HW165810   3.350   1.110   5.157  0.6187 -0.0977  2.1275
18052SOL    HW265811   3.353   1.268   5.116 -1.1140 -0.6762 -0.3498
18053SOL     OW65812   3.178   2.595   9.821 -0.0635  0.0005 -0.1596
18053SOL    HW165813   3.146   2.608   9.727  2.9282 -1.1503 -1.3859
18053SOL    HW265814   3.189   2.684   9.865  0.4566  0.6684 -1.5933
18054SOL     OW65815   6.370   8.327   6.096  0.2521  0.1172  0.2781
18054SOL    HW165816   6.465   8.296   6.087  0.9179  2.0004  0.7526
18054SOL    HW265817   6.311   8.270   6.038  1.9623  0.2913 -1.6870
18055SOL     OW65818   3.765   1.544   4.314 -0.2527  0.1410 -0.3033
18055SOL    HW165819   3.673   1.539   4.354 -0.6587  2.0824 -0.9445
18055SOL    HW265820   3.833   1.517   4.382 -1.2033 -0.1347  0.5473
18056SOL     OW65821   9.659   4.169   1.114 -0.3442  0.0843 -0.2606
18056SOL    HW165822   9.692   4.243   1.173 -1.4098  1.2135 -1.0747
18056SOL    HW265823   9.564   4.147   1.137 -0.1048 -0.9039 -0.1628
18057SOL     OW65824   6.736   7.118   6.500 -0.4750  0.7686 -0.0734
18057SOL    HW165825   6.689   7.030   6.511  0.9200  0.0177 -0.0553
18057SOL    HW265826   6.680   7.178   6.443 -1.6243  0.0160  0.2395
18058SOL     OW65827   4.280   4.063   7.476  0.2190  0.5027 -0.4567
18058SOL    HW165828   4.238   4.001   7.410  0.5260 -1.5890  1.2584
18058SOL    HW265829   4.362   4.104   7.436 -0.8004  0.9627 -2.1211
18059SOL     OW65830   6.932   4.103   0.885 -0.9612  0.3516 -0.6181
18059SOL    HW165831   6.981   4.129   0.968 -0.4827 -2.3602 -0.0081
18059SOL    HW265832   6.839   4.074   0.909 -1.2149  0.6752 -1.1891
18060SOL     OW65833   3.044   6.038   4.170  0.2053  0.7301 -0.4718
18060SOL    HW165834   2.999   6.127   4.176  1.1035  1.2493 -1.4311
18060SOL    HW265835   3.110   6.038   4.095  0.5809 -0.5814 -0.1590
18061SOL     OW65836   6.249   7.660   5.818  0.2540 -0.2746 -0.8007
18061SOL    HW165837   6.292   7.652   5.908  1.5295  0.7573 -1.2962
18061SOL    HW265838   6.156   7.694   5.828  0.6446  0.5449  0.0783
18062SOL     OW65839   7.742   5.653   3.823  0.1223  0.6749 -0.5056
18062SOL    HW165840   7.669   5.694   3.769  0.5902  3.9116  1.2200
18062SOL    HW265841   7.703   5.608   3.904 -0.1123  0.5692 -0.6762
18063SOL     OW65842   7.762   8.130   0.804 -0.3945 -0.1972 -0.6284
18063SOL    HW165843   7.755   8.062   0.878  1.6371 -1.5715 -1.6434
18063SOL    HW265844   7.674   8.138   0.758 -0.6467 -2.2551 -0.5637
18064SOL     OW65845   3.242   6.976   5.071  0.2816  0.3854  0.0845
18064SOL    HW165846   3.284   6.918   5.001  0.1433 -0.2571  0.5246
18064SOL    HW265847   3.143   6.966   5.068  0.2549  0.6273  0.1403
18065SOL     OW65848   8.790   8.063   7.610  0.0740 -0.3878 -0.0430
18065SOL    HW165849   8.777   8.068   7.709 -1.3344  0.2693 -0.2438
18065SOL    HW265850   8.727   7.996   7.572  0.1704 -0.1823 -0.5673
18066SOL     OW65851   1.485   7.201   5.994  0.8877  0.0485 -0.2810
18066SOL    HW165852   1.499   7.289   5.949 -1.8518  0.3078 -0.6793
18066SOL    HW265853   1.542   7.196   6.076  3.1362  1.0446 -1.7347
18067SOL     OW65854   8.756   9.683   4.279  0.1855 -0.2650 -0.1489
18067SOL    HW165855   8.703   9.765   4.300  2.6494  1.1063  0.9576
18067SOL    HW265856   8.735   9.612   4.347 -0.2617  0.2379  0.2489
18068SOL     OW65857   3.808   4.369   6.746 -0.9116  0.0106  0.0225
18068SOL    HW165858   3.841   4.462   6.732 -1.0477  0.0972  0.2896
18068SOL    HW265859   3.755   4.341   6.666 -2.7397  0.9587  0.8774
18069SOL     OW65860   2.742   4.712   0.171 -0.1248  0.1886 -0.4339
18069SOL    HW165861   2.768   4.636   0.230  1.4186  1.6372  0.8119
18069SOL    HW265862   2.752   4.684   0.075 -1.2580 -1.7124 -0.0289
18070SOL     OW65863   2.343   5.798   7.915 -0.4441 -0.2003 -0.4283
18070SOL    HW165864   2.424   5.813   7.858  1.7237 -0.5700  2.4535
18070SOL    HW265865   2.333   5.700   7.934 -1.8518 -0.2045 -1.1313
18071SOL     OW65866   8.812   8.162   6.491 -0.2084  0.0282  0.5118
18071SOL    HW165867   8.713   8.173   6.479 -0.0629 -0.7769 -1.5210
18071SOL    HW265868   8.833   8.067   6.511  0.1511  0.2528  1.2365
18072SOL     OW65869   3.847   0.939   3.947 -0.1939  0.4527 -0.1760
18072SOL    HW165870   3.898   0.896   4.021  1.3975  0.3963 -1.3049
18072SOL    HW265871   3.786   0.872   3.905  1.2033 -0.3461 -0.9674
18073SOL     OW65872   9.057   5.354   5.393 -0.2675  0.1807  0.2522
18073SOL    HW165873   9.088   5.439   5.435  2.0839 -0.3549 -0.3292
18073SOL    HW265874   8.966   5.368   5.354  0.1489  2.4657  0.0113
18074SOL     OW65875   4.366   5.594   0.638  0.6136 -0.3353  0.2562
18074SOL    HW165876   4.309   5.620   0.716 -0.4199 -0.1094 -0.5626
18074SOL    HW265877   4.317   5.529   0.580  2.2063 -2.1703  0.9260
18075SOL     OW65878   9.897   3.072   4.116 -0.0877  0.1123  0.5949
18075SOL    HW165879   9.910   3.072   4.215  0.5269 -0.3068  0.5101
18075SOL    HW265880   9.969   3.020   4.072 -1.1971 -0.9867  0.0340
18076SOL     OW65881   1.306   0.136   2.570  0.5960 -0.1699  0.0841
18076SOL    HW165882   1.210   0.135   2.543  0.2376  2.1825  1.1462
18076SOL    HW265883   1.320   0.073   2.646 -0.3951  0.4631  0.8024
18077SOL     OW65884   4.278   2.179   0.448  0.7160 -0.2951 -0.3313
18077SOL    HW165885   4.372   2.200   0.422  0.9845 -0.1284  0.7709
18077SOL    HW265886   4.228   2.264   0.465  0.5519 -0.4109 -0.2301
18078SOL     OW65887   3.276   3.807   1.502 -0.0488 -0.0457 -0.0574
18078SOL    HW165888   3.254   3.714   1.531 -1.6291  0.6351  0.9923
18078SOL    HW265889   3.364   3.834   1.541  2.0922 -2.2821 -3.1185
18079SOL     OW65890   3.738   0.906   7.111  0.1190  0.1430  0.0150
18079SOL    HW165891   3.688   0.989   7.087 -0.5236 -0.3893 -0.4734
18079SOL    HW265892   3.821   0.900   7.055 -0.1970  0.0909 -0.4492
18080SOL     OW65893   9.708   4.484   0.023  0.0760 -0.1754 -0.3635
18080SOL    HW165894   9.711   4.443   0.114  0.4289  0.6583  0.0095
18080SOL    HW265895   9.799   4.477  -0.020  0.4591  1.2861  0.1891
18081SOL     OW65896   3.425   8.675   2.037 -0.0467  0.1386 -0.0871
18081SOL    HW165897   3.432   8.762   1.988 -2.3529 -0.0481 -0.8159
18081SOL    HW265898   3.408   8.693   2.134 -2.3944  0.5651 -0.5303
18082SOL     OW65899   6.417   3.603   2.853  0.3874  0.2929  0.0681
18082SOL    HW165900   6.365   3.682   2.819  0.5683  0.8517  1.0745
18082SOL    HW265901   6.459   3.626   2.940 -0.3979 -1.2671  0.8719
18083SOL     OW65902   8.623   1.868   7.166 -0.0851  0.1789  1.0222
18083SOL    HW165903   8.704   1.926   7.158  0.2650 -0.6309 -2.0896
18083SOL    HW265904   8.542   1.918   7.136 -0.1233 -0.2103  0.4551
18084SOL     OW65905   1.085   3.063   3.829  0.5351 -0.1844 -0.2166
18084SOL    HW165906   1.081   3.093   3.734 -2.0110 -1.4781 -0.5508
18084SOL    HW265907   1.075   2.964   3.834 -1.5469  0.0746  1.5106
18085SOL     OW65908   2.571   6.441   0.301 -0.3726 -0.1569  0.0128
18085SOL    HW165909   2.552   6.539   0.296  1.3313  0.0659 -3.7644
18085SOL    HW265910   2.634   6.423   0.377  1.8645  2.1913 -1.1976
18086SOL     OW65911   7.750   2.320   1.064  0.0611 -0.2138  0.1519
18086SOL    HW165912   7.850   2.330   1.067  0.1372 -1.3199  1.9757
18086SOL    HW265913   7.724   2.270   0.982  1.1574 -1.4641  0.5547
18087SOL     OW65914   4.053   0.319   2.792  0.4806 -0.2995 -0.3020
18087SOL    HW165915   4.073   0.415   2.772  0.6888 -0.1324  0.6801
18087SOL    HW265916   4.127   0.262   2.756  1.1770  0.0515  0.5663
18088SOL     OW65917   0.499   2.148   2.677  0.4930  0.0961 -0.5411
18088SOL    HW165918   0.503   2.146   2.777 -0.0828  0.9195 -0.4870
18088SOL    HW265919   0.562   2.218   2.642 -0.1050  0.5785 -0.6796
18089SOL     OW65920   4.297   1.472   4.445 -0.7127  0.3841 -0.0923
18089SOL    HW165921   4.358   1.551   4.453 -2.2454  1.6641 -0.7448
18089SOL    HW265922   4.244   1.463   4.529 -0.8757  0.3260 -0.2028
18090SOL     OW65923   9.189   4.644   2.422 -0.5117  0.0924  0.3684
18090SOL    HW165924   9.170   4.699   2.340  2.6417 -0.0133 -0.5130
18090SOL    HW265925   9.200   4.704   2.501  0.3038  0.5374 -0.0750
18091SOL     OW65926   8.033   6.416   5.428  0.3648 -0.3356 -0.3105
18091SOL    HW165927   8.092   6.482   5.474  0.8532 -0.6693 -0.4481
18091SOL    HW265928   7.941   6.454   5.418  0.7988  0.5700 -0.9469
18092SOL     OW65929   2.810   4.647   1.969  0.5554  0.1148 -0.6308
18092SOL    HW165930   2.787   4.712   2.042 -0.2049  1.6545 -2.2027
18092SOL    HW265931   2.907   4.653   1.948  0.5857  0.3702 -0.4165
18093SOL     OW65932   0.411   7.429   4.514 -0.4331 -0.1648  0.4527
18093SOL    HW165933   0.361   7.473   4.439  1.5582  0.6396 -0.4460
18093SOL    HW265934   0.471   7.358   4.476  0.3313  0.0026  1.3343
18094SOL     OW65935   3.273   8.895   2.835 -0.7563 -0.1200  0.1971
18094SOL    HW165936   3.363   8.890   2.793 -0.6653 -2.1972  0.5789
18094SOL    HW265937   3.225   8.976   2.802  1.3273  1.1336  0.1603
18095SOL     OW65938   7.850   7.753   3.577 -0.3526  0.2403  0.5984
18095SOL    HW165939   7.946   7.739   3.553 -0.0213  2.9839  0.1073
18095SOL    HW265940   7.792   7.706   3.511  0.6557 -0.4963  0.2280
18096SOL     OW65941   7.838   1.122   4.790  0.6826  0.3378  0.2102
18096SOL    HW165942   7.820   1.057   4.864  1.8897 -1.1994 -0.8035
18096SOL    HW265943   7.773   1.198   4.795 -0.8015 -0.9784  1.3820
18097SOL     OW65944   2.204   9.458   4.995  0.1268 -0.4401 -0.3267
18097SOL    HW165945   2.153   9.539   4.968 -1.0070 -0.2575  2.1940
18097SOL    HW265946   2.150   9.376   4.976  0.8456 -0.5692 -1.9136
18098SOL     OW65947   9.658   3.665   6.412  0.3841 -0.3679 -0.2582
18098SOL    HW165948   9.576   3.705   6.454 -0.5931 -0.0774 -2.3635
18098SOL    HW265949   9.691   3.589   6.469 -1.5195 -0.6764  0.4827
18099SOL     OW65950   7.282   2.748   1.208  0.9902  0.7315 -0.4915
18099SOL    HW165951   7.225   2.821   1.246 -1.0421 -1.2064  0.2989
18099SOL    HW265952   7.351   2.721   1.276  0.9174  1.0254 -0.2975
18100SOL     OW65953   6.708   7.494   7.346  0.4284 -0.7398  0.3628
18100SOL    HW165954   6.609   7.487   7.356  0.1741 -0.7330 -1.9736
18100SOL    HW265955   6.735   7.459   7.257  2.4041  0.4457  0.4705
18101SOL     OW65956   7.237   6.974   3.396 -0.8394  0.3660  0.4144
18101SOL    HW165957   7.243   6.916   3.316 -4.8183 -3.3755  2.6211
18101SOL    HW265958   7.162   7.039   3.385 -0.3494  0.9488  0.4678
18102SOL     OW65959   5.635   7.892   6.819  0.3046 -0.3514  0.0945
18102SOL    HW165960   5.709   7.828   6.798  0.9984  0.8299 -1.2419
18102SOL    HW265961   5.601   7.932   6.733 -0.7124  0.4004  0.8349
18103SOL     OW65962   0.806   6.268   3.176  0.6035  0.1948 -0.3400
18103SOL    HW165963   0.796   6.333   3.251 -1.0107  1.0799 -1.3102
18103SOL    HW265964   0.867   6.306   3.107 -1.7350  1.4726 -1.7440
18104SOL     OW65965   1.792   3.692   2.588 -0.3780  0.0175 -0.1055
18104SOL    HW165966   1.818   3.634   2.665 -0.7292 -1.6042 -1.1882
18104SOL    HW265967   1.822   3.786   2.605  0.4379 -0.5337  1.5453
18105SOL     OW65968   1.576   2.880   4.034  0.5390 -0.5463  0.2902
18105SOL    HW165969   1.641   2.955   4.039 -0.6124  0.5170 -0.5200
18105SOL    HW265970   1.626   2.793   4.033  2.0919  0.3048 -3.1381
18106SOL     OW65971   7.460   4.083   2.638  0.3149 -0.5009  0.2120
18106SOL    HW165972   7.479   4.031   2.555  0.6917 -0.1117  0.0568
18106SOL    HW265973   7.427   4.020   2.710 -1.6499 -0.6078 -0.7439
18107SOL     OW65974   0.467   3.291   7.466  0.3247  0.0588 -0.1726
18107SOL    HW165975   0.526   3.354   7.516  0.7162  1.5089 -2.3528
18107SOL    HW265976   0.521   3.240   7.399 -0.9272  2.0644 -2.8312
18108SOL     OW65977   0.119   6.606   2.241  0.0234 -0.1142 -0.6676
18108SOL    HW165978   0.124   6.557   2.328 -2.1009  0.4515 -0.1870
18108SOL    HW265979   0.059   6.686   2.251  1.0728  0.9034 -2.2228
18109SOL     OW65980   4.921   2.048   1.104 -0.2151  0.3927 -0.1492
18109SOL    HW165981   4.906   2.127   1.162 -0.7577 -0.7544  1.2897
18109SOL    HW265982   4.834   2.019   1.064 -0.4805 -1.0925  1.4581
18110SOL     OW65983   1.367   4.542   3.835  0.3888 -0.1394  0.3724
18110SOL    HW165984   1.401   4.599   3.909  0.2526 -0.5791  0.7752
18110SOL    HW265985   1.441   4.526   3.769  0.0514  1.6260 -0.4470
18111SOL     OW65986   3.662   3.117   7.763 -0.4900 -0.1311 -0.4198
18111SOL    HW165987   3.648   3.202   7.712 -0.6556 -0.6769 -1.3061
18111SOL    HW265988   3.760   3.097   7.768 -0.4754 -0.1098 -0.6025
18112SOL     OW65989   5.006   8.872   3.561  0.1841 -0.6656  0.4432
18112SOL    HW165990   4.943   8.795   3.552 -1.1197  0.0843  2.6041
18112SOL    HW265991   5.081   8.846   3.622  0.3799 -0.6273  0.2143
18113SOL     OW65992   1.852   2.929   1.501 -0.1205 -0.1028 -0.5193
18113SOL    HW165993   1.890   2.952   1.591 -0.3975 -1.0073 -0.1603
18113SOL    HW265994   1.888   2.992   1.432  0.8995 -0.0327  0.0577
18114SOL     OW65995   2.168   5.735   5.665  0.0791  0.2431  0.3873
18114SOL    HW165996   2.223   5.711   5.584  1.1634 -1.4605  1.6029
18114SOL    HW265997   2.212   5.811   5.713  0.1052  0.4286  0.0761
18115SOL     OW65998   8.974   3.755   5.646  0.2029  0.3677 -0.5238
18115SOL    HW165999   9.038   3.714   5.711  0.1070 -0.2400 -0.8131
18115SOL    HW266000   8.978   3.855   5.654  1.4993  0.3439 -0.8491
18116SOL     OW66001   4.360   0.571   2.114 -0.1437 -0.1583 -0.1042
18116SOL    HW166002   4.340   0.546   2.209 -1.1862  1.8313  0.2243
18116SOL    HW266003   4.289   0.536   2.054 -0.3329 -0.0241  0.0434
18117SOL     OW66004   4.798   8.123   0.744 -0.3147 -0.1925 -0.1480
18117SOL    HW166005   4.854   8.132   0.826  1.4698 -0.9151 -1.2612
18117SOL    HW266006   4.720   8.063   0.763  0.8090 -1.4120  0.6715
18118SOL     OW66007   4.953   8.818   7.703  0.7353  0.1491  0.2376
18118SOL    HW166008   4.881   8.768   7.654  1.0800 -0.6170  0.5114
18118SOL    HW266009   5.042   8.781   7.678  0.9918  0.6424  0.4281
18119SOL     OW66010   3.517   4.559   7.426  0.1615  0.7518 -0.1404
18119SOL    HW166011   3.599   4.503   7.413  0.1467  0.8596 -0.7006
18119SOL    HW266012   3.439   4.499   7.444  0.6012  0.7074  1.6965
18120SOL     OW66013   1.976   0.202   6.586 -0.0822 -0.1136  0.3339
18120SOL    HW166014   1.890   0.223   6.632 -0.6163 -1.5408  0.0406
18120SOL    HW266015   2.033   0.145   6.645  0.9017  1.2999  0.7452
18121SOL     OW66016   7.425   9.082   7.751 -0.1905 -0.4842 -0.7954
18121SOL    HW166017   7.473   9.049   7.832 -0.1707  1.0695 -0.1589
18121SOL    HW266018   7.386   9.004   7.701  0.8825 -1.5477  0.0086
18122SOL     OW66019   3.243   9.815   4.680 -0.5801 -0.5638  0.3127
18122SOL    HW166020   3.159   9.866   4.696  1.0696  2.1909  0.5529
18122SOL    HW266021   3.275   9.831   4.587  0.8792  0.2950  0.9393
18123SOL     OW66022   0.532   9.935   1.399 -0.0926 -0.3660 -0.2045
18123SOL    HW166023   0.604   9.983   1.349 -0.1092 -2.8224 -2.7190
18123SOL    HW266024   0.569   9.848   1.434 -1.5427 -1.1581 -0.6161
18124SOL     OW66025   7.728   2.698   0.083 -0.0348 -0.6664  0.1351
18124SOL    HW166026   7.694   2.675  -0.008  1.2614 -1.3118 -0.1952
18124SOL    HW266027   7.749   2.796   0.087  0.5597 -0.7621 -0.4886
18125SOL     OW66028   3.610   9.433   2.498  0.3107  0.3417 -0.0175
18125SOL    HW166029   3.530   9.422   2.440  0.8000  2.8473 -1.2185
18125SOL    HW266030   3.689   9.389   2.454  0.1406  0.0570 -0.0407
18126SOL     OW66031   5.851   0.890   6.724 -0.2342  0.5428  0.1959
18126SOL    HW166032   5.877   0.929   6.636 -0.9041  0.1141 -0.2027
18126SOL    HW266033   5.793   0.810   6.709  1.3604 -0.7719  1.0017
18127SOL     OW66034   8.936   3.664   4.690 -0.0146 -0.7168 -0.4886
18127SOL    HW166035   8.849   3.708   4.715  0.7530 -0.3543  1.6439
18127SOL    HW266036   8.917   3.576   4.646 -1.4673 -0.6468 -0.0416
18128SOL     OW66037   9.014   4.590   2.853  0.3472 -0.0640 -0.1284
18128SOL    HW166038   9.052   4.510   2.806  4.0558  2.1075 -1.0853
18128SOL    HW266039   9.087   4.636   2.904 -1.5493  3.0109 -0.0618
18129SOL     OW66040   8.458   5.450   3.957  0.0281 -0.2587  0.5511
18129SOL    HW166041   8.512   5.376   3.998 -0.3931 -0.7090  0.2926
18129SOL    HW266042   8.382   5.411   3.906  0.7004  0.2947 -0.8772
18130SOL     OW66043   9.959   8.864   3.365 -0.4968  0.3603  0.1165
18130SOL    HW166044  10.042   8.869   3.420  0.4518 -1.1950 -1.1386
18130SOL    HW266045   9.960   8.936   3.296  0.2899 -0.2874 -0.5488
18131SOL     OW66046   3.072   0.380   3.702  0.4452  0.2162 -0.1482
18131SOL    HW166047   3.064   0.477   3.722 -0.0845 -0.0147  0.7868
18131SOL    HW266048   3.140   0.339   3.763  0.9549  0.0691 -0.8022
18132SOL     OW66049   1.801   0.410   3.364 -0.3666  0.3060  0.1659
18132SOL    HW166050   1.863   0.333   3.377  0.6712  1.3585  1.5593
18132SOL    HW266051   1.853   0.493   3.348 -1.3797  1.2874  1.7885
18133SOL     OW66052   1.198   2.000   0.210 -0.1453 -0.3713  0.1476
18133SOL    HW166053   1.213   1.982   0.307 -1.5149 -1.9991  0.0749
18133SOL    HW266054   1.157   1.920   0.167 -0.3265  0.6350 -1.6038
18134SOL     OW66055   7.786   4.463   5.800 -0.1860  0.0205  0.0361
18134SOL    HW166056   7.842   4.542   5.825  0.6694 -0.6347  0.1920
18134SOL    HW266057   7.839   4.379   5.813 -1.5627 -0.6810  1.2739
18135SOL     OW66058   5.742   7.347   5.514  0.4053 -0.3927 -0.1287
18135SOL    HW166059   5.834   7.361   5.550  0.4996  0.1501 -0.5821
18135SOL    HW266060   5.732   7.393   5.426 -0.6998  0.6214  0.5081
18136SOL     OW66061   7.280   2.660   4.459  0.4327  0.2390  0.3755
18136SOL    HW166062   7.283   2.571   4.503 -0.9389  1.8381  3.9363
18136SOL    HW266063   7.185   2.692   4.455  0.7707  1.0638 -1.9272
18137SOL     OW66064   8.533   2.368   1.899 -0.5655  0.0507  0.0004
18137SOL    HW166065   8.589   2.398   1.822  1.0120 -0.0896  1.0722
18137SOL    HW266066   8.546   2.270   1.912 -1.4922 -0.0827 -0.0869
18138SOL     OW66067   0.897   8.336   2.100  0.2532  0.1972 -0.0837
18138SOL    HW166068   0.991   8.372   2.106 -0.0249  0.7279  1.3559
18138SOL    HW266069   0.832   8.411   2.111 -0.3632 -0.1468 -1.2408
18139SOL     OW66070   8.092   4.108   2.670 -0.2851 -0.2777 -0.0594
18139SOL    HW166071   8.146   4.031   2.706 -0.6992 -0.5390  0.0071
18139SOL    HW266072   8.029   4.073   2.600  0.1547  0.1435 -0.6641
18140SOL     OW66073   7.768   6.425   7.263  0.3967 -0.4575 -0.2167
18140SOL    HW166074   7.739   6.391   7.352  2.0400 -1.6359 -0.1123
18140SOL    HW266075   7.789   6.523   7.270 -0.4067 -0.3236  0.4464
18141SOL     OW66076   2.887   7.395   4.191  0.4370  0.2776 -0.4256
18141SOL    HW166077   2.846   7.474   4.236  2.2541 -0.0613  1.9732
18141SOL    HW266078   2.952   7.425   4.121 -0.8234  0.8531 -1.3530
18142SOL     OW66079   7.489   8.126   7.397 -0.8293 -0.6513 -0.2971
18142SOL    HW166080   7.444   8.050   7.443 -0.2805  1.7096  4.5025
18142SOL    HW266081   7.584   8.133   7.430 -0.7473  1.8095 -0.9518
18143SOL     OW66082   7.576   1.227   6.324 -0.5281 -0.2606  0.4700
18143SOL    HW166083   7.548   1.144   6.372 -2.2139  1.0086  1.7285
18143SOL    HW266084   7.511   1.301   6.343  0.1337  0.9615 -1.8071
18144SOL     OW66085   8.636   3.120   3.318  0.5732 -0.0929  0.1002
18144SOL    HW166086   8.647   3.055   3.243  0.4628 -0.8784  0.7599
18144SOL    HW266087   8.595   3.205   3.284 -0.6694 -0.9231 -0.4977
18145SOL     OW66088   1.690   7.219   4.421  0.1057  0.0050  0.6733
18145SOL    HW166089   1.786   7.214   4.447  0.3645  0.5859 -0.1396
18145SOL    HW266090   1.636   7.158   4.479  0.9384 -0.1917  1.2464
18146SOL     OW66091   0.540   6.584   2.029 -0.4479  0.3931  0.2460
18146SOL    HW166092   0.450   6.541   2.032 -1.0859  1.7758  2.0689
18146SOL    HW266093   0.585   6.573   2.118  0.7562  0.6156 -0.3249
18147SOL     OW66094   1.750   8.780   5.858  0.0557 -0.9434 -0.1276
18147SOL    HW166095   1.783   8.838   5.784  1.0884 -0.9148  0.3448
18147SOL    HW266096   1.651   8.769   5.850 -0.2103  1.1764  0.0051
18148SOL     OW66097   2.948   3.454   5.761 -0.8634  0.0489  0.0803
18148SOL    HW166098   2.885   3.385   5.796  0.6062 -0.9988  0.7380
18148SOL    HW266099   3.032   3.454   5.817 -0.0051  0.9335 -1.1773
18149SOL     OW66100   7.174   9.429   7.084  0.0942 -0.7092  0.5285
18149SOL    HW166101   7.239   9.459   7.154  0.2680  0.3351 -0.0785
18149SOL    HW266102   7.139   9.339   7.108  0.5165 -0.5596  1.7150
18150SOL     OW66103   7.595   5.677   7.473  0.4807 -0.2100 -0.0883
18150SOL    HW166104   7.662   5.694   7.400  0.1006  0.0822 -0.3687
18150SOL    HW266105   7.512   5.729   7.455  0.0389 -0.8640  0.0704
18151SOL     OW66106   9.473   6.720   3.502 -0.1074 -0.0237  0.0270
18151SOL    HW166107   9.514   6.629   3.502 -0.4495 -0.1980 -1.5598
18151SOL    HW266108   9.466   6.753   3.408  0.2105  1.7334  0.6039
18152SOL     OW66109   6.970   7.510   6.397  0.0167  0.9681  0.2449
18152SOL    HW166110   6.936   7.582   6.458 -0.1333  0.0479  1.2600
18152SOL    HW266111   7.054   7.542   6.352 -0.1403  1.8373  0.5597
18153SOL     OW66112   7.187   8.893   7.814  0.2148  0.2153 -0.3634
18153SOL    HW166113   7.167   8.812   7.759  0.7304 -1.5662  2.0326
18153SOL    HW266114   7.151   8.881   7.906  2.2696  1.7598  0.6798
18154SOL     OW66115   2.841   9.741   6.703  0.8094 -0.3663  0.7297
18154SOL    HW166116   2.849   9.686   6.620 -0.0617 -1.2324  1.2094
18154SOL    HW266117   2.932   9.759   6.739  1.1288 -1.1129  0.3209
18155SOL     OW66118   4.556   4.038   2.570 -0.6180 -0.4864  0.5429
18155SOL    HW166119   4.464   4.074   2.555 -0.0358  1.3627  1.2226
18155SOL    HW266120   4.576   3.967   2.502 -1.4329  1.2185 -1.5366
18156SOL     OW66121   6.832   9.240   3.538  0.3693 -0.1188 -0.3761
18156SOL    HW166122   6.871   9.285   3.457 -0.2733  0.2820 -0.4656
18156SOL    HW266123   6.817   9.307   3.610 -1.8708  0.0634 -0.9984
18157SOL     OW66124   7.849   5.514   2.174  0.4646 -0.5959  0.9550
18157SOL    HW166125   7.938   5.508   2.220  0.6026 -1.2823  0.6039
18157SOL    HW266126   7.787   5.447   2.213 -0.0969  0.3102  1.6247
18158SOL     OW66127   4.516   4.649   2.144 -0.4830  0.0770  0.1690
18158SOL    HW166128   4.582   4.664   2.217 -0.1529  0.7300 -0.2689
18158SOL    HW266129   4.563   4.619   2.061 -0.7983 -0.0519  0.0327
18159SOL     OW66130   5.282   7.338   2.530 -0.2821 -0.4429  0.0591
18159SOL    HW166131   5.312   7.347   2.435  1.3009  2.6736  0.7691
18159SOL    HW266132   5.227   7.418   2.555 -0.0811 -0.8873  1.9722
18160SOL     OW66133   4.281   9.043   3.815  0.6941 -0.7491 -0.5421
18160SOL    HW166134   4.211   9.016   3.749  0.5010 -0.1386 -0.5903
18160SOL    HW266135   4.237   9.082   3.896  1.0229  1.5161 -1.4072
18161SOL     OW66136   8.641   7.166   7.272 -0.4784 -0.1989  0.1411
18161SOL    HW166137   8.710   7.193   7.339  0.6848 -2.2173 -0.1925
18161SOL    HW266138   8.554   7.148   7.320  0.1819 -1.0589  1.0493
18162SOL     OW66139   6.712   0.519   6.762 -0.1508  0.6411 -0.5008
18162SOL    HW166140   6.623   0.480   6.741 -0.6144  1.5358 -0.2160
18162SOL    HW266141   6.700   0.606   6.812  0.8904 -0.4552  1.7552
18163SOL     OW66142   8.621   6.093   7.447 -0.7121  0.1753  0.1250
18163SOL    HW166143   8.678   6.110   7.527  0.9210 -1.1095 -0.7341
18163SOL    HW266144   8.645   6.158   7.375 -0.6778 -0.0369 -0.0568
18164SOL     OW66145   9.600   4.670   5.295  0.5225  0.0250  0.6908
18164SOL    HW166146   9.581   4.577   5.327  2.8081 -0.7166  0.0314
18164SOL    HW266147   9.685   4.703   5.338  0.7240  1.0870 -0.4922
18165SOL     OW66148   6.279   9.677   6.498  0.3716  0.0895 -0.5859
18165SOL    HW166149   6.228   9.760   6.475  0.8526  0.4493 -0.3571
18165SOL    HW266150   6.306   9.680   6.594  0.0526 -0.5189 -0.4725
18166SOL     OW66151   8.344   5.649   1.041  0.0586  0.3866  0.6719
18166SOL    HW166152   8.254   5.604   1.042  0.3980 -0.2768  1.4633
18166SOL    HW266153   8.350   5.709   0.961 -0.5818 -0.5939 -0.1202
18167SOL     OW66154   3.216   2.527   3.462 -0.0432  0.0628 -0.2970
18167SOL    HW166155   3.205   2.468   3.383  2.0182 -0.1445 -0.4492
18167SOL    HW266156   3.261   2.613   3.435  0.6927 -0.0125  0.6298
18168SOL     OW66157   2.819   3.207   5.873 -0.1242  0.6941 -0.3824
18168SOL    HW166158   2.885   3.133   5.889  0.1166  1.1587  0.8356
18168SOL    HW266159   2.751   3.207   5.946 -0.4237  1.3545 -0.6563
18169SOL     OW66160   5.197   7.576   4.936  0.9860 -0.2615 -0.1534
18169SOL    HW166161   5.119   7.574   4.998  1.1827 -2.6600  0.0724
18169SOL    HW266162   5.228   7.670   4.925 -1.0660  0.5714  0.8271
18170SOL     OW66163   7.818   6.895   8.397  0.3160  0.1209  0.1861
18170SOL    HW166164   7.726   6.923   8.424  0.0052 -1.5934  0.9622
18170SOL    HW266165   7.885   6.940   8.456  0.0590  2.3288 -1.1788
18171SOL     OW66166   7.602   7.165   6.742 -0.6559 -0.3719 -0.1132
18171SOL    HW166167   7.588   7.257   6.779 -1.2916 -0.2682 -0.6204
18171SOL    HW266168   7.612   7.170   6.643 -0.3197 -0.8155 -0.1060
18172SOL     OW66169   3.338   0.533   1.357  0.4355  0.6686  0.3064
18172SOL    HW166170   3.382   0.616   1.321  1.9120 -0.4406 -0.4865
18172SOL    HW266171   3.398   0.491   1.425 -0.4750  0.4305  0.9694
18173SOL     OW66172   4.547   8.510   0.558 -0.1426  0.2677 -0.0859
18173SOL    HW166173   4.604   8.512   0.477  1.4067  1.8959  1.0068
18173SOL    HW266174   4.545   8.418   0.596  1.2767  0.0740 -0.4865
18174SOL     OW66175   7.964   5.738   7.468  0.1202 -0.0151 -0.4484
18174SOL    HW166176   7.926   5.745   7.560  1.2939  2.1370 -0.1058
18174SOL    HW266177   7.934   5.816   7.413  0.4315 -0.6331 -1.5151
18175SOL     OW66178   7.570   7.442   4.279  0.1133 -0.6123 -0.2374
18175SOL    HW166179   7.519   7.513   4.328 -0.9868 -1.8733  0.4696
18175SOL    HW266180   7.655   7.422   4.329  1.4513  1.6082 -1.5095
18176SOL     OW66181   4.828   8.746   6.875 -0.5396  0.1331  0.8561
18176SOL    HW166182   4.867   8.829   6.915 -0.2445  0.2865  0.2542
18176SOL    HW266183   4.873   8.727   6.788 -1.2357 -0.1600  0.5640
18177SOL     OW66184   9.030   3.848   5.972  0.8094 -0.7093 -0.3726
18177SOL    HW166185   8.999   3.936   5.936  1.3627 -0.2200  0.3397
18177SOL    HW266186   9.103   3.863   6.039 -0.7497 -1.5203  1.5696
18178SOL     OW66187   5.976   4.280   2.441 -0.3362  0.0178  0.4687
18178SOL    HW166188   6.013   4.364   2.479  0.2055 -0.4048  0.8818
18178SOL    HW266189   6.043   4.206   2.450  0.2139  0.1356 -2.2294
18179SOL     OW66190   7.911   0.699   5.100  0.4602  0.5403 -0.4300
18179SOL    HW166191   7.855   0.637   5.045 -1.6859  2.5206 -0.5737
18179SOL    HW266192   7.917   0.788   5.055  0.3885  1.5639  1.4956
18180SOL     OW66193   6.478   8.805   5.018 -0.5169  0.4263  0.1384
18180SOL    HW166194   6.447   8.773   4.929  1.4056  1.0283 -0.7864
18180SOL    HW266195   6.476   8.904   5.021  0.8816  0.4639  0.2031
18181SOL     OW66196   3.602   4.008   2.973 -0.0611  0.4617  0.6533
18181SOL    HW166197   3.699   4.021   2.994  0.1442  0.7366 -0.4306
18181SOL    HW266198   3.556   3.965   3.051  0.5137  2.1709  1.9604
18182SOL     OW66199   5.531   9.917   6.684  0.1123  1.0596  0.0849
18182SOL    HW166200   5.620   9.912   6.730 -0.5715 -0.5514  1.3009
18182SOL    HW266201   5.463   9.948   6.750 -0.3795  1.4302 -0.6055
18183SOL     OW66202   0.131   8.699   2.058 -0.6910 -0.4584 -0.2104
18183SOL    HW166203   0.035   8.685   2.036 -0.7077  0.1595 -0.5409
18183SOL    HW266204   0.180   8.728   1.976 -0.2810 -0.4985  0.0213
18184SOL     OW66205   5.500   8.583   5.889 -0.2907 -0.6012 -0.6399
18184SOL    HW166206   5.566   8.569   5.963  1.2085 -0.3812 -1.8978
18184SOL    HW266207   5.540   8.550   5.803 -1.4521  0.4379 -1.5872
18185SOL     OW66208   9.111   3.908   5.269 -0.1075 -0.2925 -0.0685
18185SOL    HW166209   9.023   3.890   5.225 -0.1436 -0.4999  0.0892
18185SOL    HW266210   9.105   3.993   5.322  0.4601  0.9392 -1.9100
18186SOL     OW66211   3.490   3.376   3.683  0.3489  0.1239 -0.1642
18186SOL    HW166212   3.511   3.312   3.609 -0.5528  0.6764 -0.9140
18186SOL    HW266213   3.396   3.408   3.673  0.2815  0.3620  1.1178
18187SOL     OW66214   7.732   6.883   1.746  0.2032  0.3898  0.3665
18187SOL    HW166215   7.782   6.845   1.823  0.2518 -0.5461 -0.1070
18187SOL    HW266216   7.647   6.830   1.732  0.4915  0.1548 -0.5828
18188SOL     OW66217   2.757   0.454   2.763  0.3044  0.1323 -0.2648
18188SOL    HW166218   2.712   0.409   2.686 -0.7869  0.5394  0.1187
18188SOL    HW266219   2.730   0.408   2.848  0.6518  0.3563 -0.0313
18189SOL     OW66220   9.949   2.835   3.569  0.3866 -0.3645 -0.2901
18189SOL    HW166221  10.041   2.856   3.604 -0.0172  0.2287  0.4370
18189SOL    HW266222   9.923   2.905   3.502  0.9909 -1.2667 -1.4864
18190SOL     OW66223   2.532   6.937   0.172  0.0130  0.1462 -0.4248
18190SOL    HW166224   2.448   6.896   0.137 -0.5660  1.3629 -0.4712
18190SOL    HW266225   2.528   6.941   0.272 -0.0261  0.2852 -0.4316
18191SOL     OW66226   0.298   0.243   4.139  0.0392 -0.5382 -0.4239
18191SOL    HW166227   0.254   0.310   4.079  0.3318  0.4771  0.4824
18191SOL    HW266228   0.231   0.176   4.170 -0.9333  1.0749  1.0498
18192SOL     OW66229   3.002   1.106   7.053 -0.4952  0.1524 -0.3069
18192SOL    HW166230   3.046   1.019   7.075  1.2045  0.9407 -0.5201
18192SOL    HW266231   3.013   1.126   6.956  0.4356  1.3267  0.0327
18193SOL     OW66232   2.971   3.019   6.809 -0.0679 -0.5598 -0.4138
18193SOL    HW166233   2.968   3.055   6.715  0.7406  0.1847 -0.1694
18193SOL    HW266234   3.011   2.928   6.809  0.9093 -0.1411 -0.6865
18194SOL     OW66235   0.011   4.171   3.632 -0.0288  0.1630  0.9240
18194SOL    HW166236  -0.023   4.165   3.538  2.5600  0.1957 -0.0740
18194SOL    HW266237  -0.012   4.088   3.681  0.2530 -0.6897 -0.3543
18195SOL     OW66238   4.743   2.098   6.297  0.8668 -0.5325  0.8326
18195SOL    HW166239   4.841   2.116   6.305  0.5719  2.1234 -0.9165
18195SOL    HW266240   4.719   2.089   6.200 -0.6204 -1.3563  1.2593
18196SOL     OW66241   1.781   4.941   3.856  0.2118 -0.0367 -0.0226
18196SOL    HW166242   1.814   5.022   3.905  1.2058 -0.8311  0.6366
18196SOL    HW266243   1.845   4.919   3.783 -0.7933  0.5965 -1.1115
18197SOL     OW66244   0.432   9.181   0.737  0.4242 -0.2658  0.0715
18197SOL    HW166245   0.443   9.102   0.676  3.2433 -0.8474  1.2490
18197SOL    HW266246   0.349   9.170   0.791 -0.6750 -1.0581 -1.7434
18198SOL     OW66247   8.559   3.132   3.874  0.0401  0.4714  0.5975
18198SOL    HW166248   8.496   3.194   3.922 -0.7329  1.7262 -1.9284
18198SOL    HW266249   8.653   3.166   3.885 -0.1631  0.9539  0.9010
18199SOL     OW66250   3.471   1.499   5.725  0.2166  0.2725 -0.3154
18199SOL    HW166251   3.430   1.453   5.647 -0.2181 -1.0426  0.6687
18199SOL    HW266252   3.400   1.525   5.790  0.5459  1.5995 -0.4830
18200SOL     OW66253   4.595   2.644   6.734  0.0992 -0.1426  0.6814
18200SOL    HW166254   4.557   2.615   6.646 -0.4156  0.2637  0.7652
18200SOL    HW266255   4.650   2.726   6.721  0.7113 -0.5561  0.6099
18201SOL     OW66256   6.299   0.257   4.710 -0.4483  0.4276  0.0769
18201SOL    HW166257   6.295   0.242   4.809  1.9558  0.2935  0.1739
18201SOL    HW266258   6.225   0.319   4.683 -1.8269 -0.4366  1.7736
18202SOL     OW66259   4.898   4.275   1.043 -0.1099 -0.3095 -0.0936
18202SOL    HW166260   4.823   4.212   1.023 -0.2634 -1.0290  2.5196
18202SOL    HW266261   4.978   4.222   1.074  0.2114  0.6792  0.7860
18203SOL     OW66262   8.235   8.046   2.717 -0.1248  0.3720  0.2582
18203SOL    HW166263   8.193   7.957   2.698  0.8082 -0.1608  0.6999
18203SOL    HW266264   8.218   8.071   2.812 -1.8764  1.4759 -0.3277
18204SOL     OW66265   4.672   6.931   3.719  0.0662  0.0390  0.5910
18204SOL    HW166266   4.761   6.933   3.673  0.3809  0.2067  1.1966
18204SOL    HW266267   4.652   7.022   3.756  0.0482 -0.2253  1.2266
18205SOL     OW66268   9.959   2.074   2.727  0.4771  0.5295 -0.0717
18205SOL    HW166269  10.022   2.110   2.658  0.0591  1.2263 -0.0938
18205SOL    HW266270  10.011   2.036   2.803  0.9552 -0.9221 -1.1123
18206SOL     OW66271   0.468   4.915   9.928 -0.1577  0.1323 -0.2740
18206SOL    HW166272   0.547   4.911   9.989 -0.9665 -0.8284  0.7157
18206SOL    HW266273   0.432   4.823   9.913 -2.5585  0.7883  1.2260
18207SOL     OW66274   6.102   1.195   7.041 -0.1392 -0.4006 -0.1618
18207SOL    HW166275   6.143   1.195   7.132  0.3113 -1.1394 -0.3631
18207SOL    HW266276   6.022   1.135   7.040  0.1465 -0.7790 -0.3815
18208SOL     OW66277   4.258   0.446   3.459  0.2330  0.5198  0.0975
18208SOL    HW166278   4.321   0.421   3.386  1.5587 -1.9655  2.0245
18208SOL    HW266279   4.290   0.531   3.502  2.1018 -0.4975  0.7905
18209SOL     OW66280   7.420   0.867   1.556  0.2481 -0.3149  0.0222
18209SOL    HW166281   7.409   0.933   1.482  0.1482 -2.1900 -1.6865
18209SOL    HW266282   7.384   0.906   1.641 -1.1369  1.2710 -1.2446
18210SOL     OW66283   6.190   6.136   1.149  0.5223 -0.2971  0.0386
18210SOL    HW166284   6.259   6.115   1.219 -1.8438 -2.4896  1.8272
18210SOL    HW266285   6.201   6.074   1.072  2.0901  1.0299 -0.8457
18211SOL     OW66286   0.293   1.709   7.396  0.4182  0.1325 -0.2289
18211SOL    HW166287   0.392   1.723   7.385  0.4041  0.7742  0.4796
18211SOL    HW266288   0.276   1.656   7.479  0.1475  0.2556 -0.2068
18212SOL     OW66289   3.566   8.464   2.737 -0.0735 -0.4818  0.1086
18212SOL    HW166290   3.551   8.396   2.665  1.9775 -1.1045  0.2478
18212SOL    HW266291   3.505   8.445   2.814 -1.8622 -0.1648 -1.1983
18213SOL     OW66292   8.526   8.363   5.034  0.5758 -0.2369  0.2466
18213SOL    HW166293   8.471   8.330   4.957  0.1105  1.5963 -0.2310
18213SOL    HW266294   8.546   8.460   5.021  2.8976 -0.5885  1.0447
18214SOL     OW66295   8.976   6.077   3.951  0.3665 -0.4500 -0.2016
18214SOL    HW166296   8.937   6.128   4.028  0.9461 -0.5835  0.1829
18214SOL    HW266297   8.962   6.129   3.867 -0.5028 -0.4271 -0.0521
18215SOL     OW66298   8.344   6.781   5.464  0.4735  0.2803 -0.0733
18215SOL    HW166299   8.432   6.764   5.508  0.5403 -1.0125 -0.6941
18215SOL    HW266300   8.286   6.700   5.472 -0.0932  0.5836 -0.9993
18216SOL     OW66301   2.553   4.413   0.076  0.2959  0.3840  0.6178
18216SOL    HW166302   2.486   4.482   0.050 -0.0127  0.1597  0.8222
18216SOL    HW266303   2.633   4.421   0.017 -0.2937  0.0482 -0.2281
18217SOL     OW66304   0.871   0.483   5.520  0.1266  0.1172  0.2445
18217SOL    HW166305   0.823   0.420   5.458  2.3209 -1.4569  0.0595
18217SOL    HW266306   0.826   0.483   5.609  0.2587 -1.9569  0.3309
18218SOL     OW66307   3.384   1.535   1.331 -0.3119 -0.9710 -0.0064
18218SOL    HW166308   3.432   1.471   1.392  3.4316  2.3690  0.7254
18218SOL    HW266309   3.399   1.629   1.362 -0.9703  0.6545 -4.2439
18219SOL     OW66310   7.496   3.693   0.276  0.2558 -0.0302 -0.2041
18219SOL    HW166311   7.456   3.652   0.193  0.4935 -0.2298 -0.2216
18219SOL    HW266312   7.423   3.716   0.340 -0.0814  1.7659 -1.1970
18220SOL     OW66313   8.560   9.277   3.377  0.3762 -0.1668  0.3261
18220SOL    HW166314   8.634   9.342   3.393  1.2446 -0.7456 -1.1876
18220SOL    HW266315   8.474   9.326   3.364  0.8896  0.6374 -0.0409
18221SOL     OW66316   6.601   7.687   6.444 -0.2138 -0.1924  0.5054
18221SOL    HW166317   6.554   7.598   6.441  0.3463 -0.4793  0.2519
18221SOL    HW266318   6.687   7.677   6.493  0.3949 -0.0448 -0.5169
18222SOL     OW66319   9.905   6.660   3.840  0.1299 -0.3453 -0.5590
18222SOL    HW166320   9.826   6.709   3.804 -1.2938 -2.0691  0.1888
18222SOL    HW266321   9.926   6.693   3.932  0.8535  0.7339 -1.0974
18223SOL     OW66322   0.005   3.180   6.643 -0.0240 -0.3295 -0.0784
18223SOL    HW166323   0.102   3.161   6.634  0.1452  0.2031  0.5681
18223SOL    HW266324  -0.011   3.234   6.726 -0.4937  2.0202 -1.6369
18224SOL     OW66325   4.178   1.547   1.394  0.3854 -0.1329  0.4350
18224SOL    HW166326   4.182   1.537   1.295  1.2190  1.5967  0.2686
18224SOL    HW266327   4.083   1.557   1.424  0.2043  0.3770 -0.3104
18225SOL     OW66328   8.996   1.710   1.378 -0.1748  0.1706 -0.6679
18225SOL    HW166329   8.982   1.806   1.354  0.5301  0.6944  0.9243
18225SOL    HW266330   8.916   1.656   1.351 -1.5350  1.5903  0.3988
18226SOL     OW66331   1.806   6.082   3.766  0.0545  0.8929  0.2118
18226SOL    HW166332   1.838   6.145   3.837  0.4213  0.6646  0.2527
18226SOL    HW266333   1.868   6.087   3.687  0.1910  0.4531  0.2878
18227SOL     OW66334   1.382   5.982   2.215  0.2158  0.2454  0.8762
18227SOL    HW166335   1.331   6.012   2.134 -0.1394 -0.7060  0.7398
18227SOL    HW266336   1.472   6.026   2.217  0.1893  0.3398  0.0127
18228SOL     OW66337   9.778   0.437   7.303  0.3613  0.2660 -0.4076
18228SOL    HW166338   9.770   0.528   7.344 -2.8377 -0.6704  1.1652
18228SOL    HW266339   9.720   0.432   7.222  0.8453 -0.2797 -0.7288
18229SOL     OW66340   9.864   7.261   5.333  0.4548 -0.0849 -0.1401
18229SOL    HW166341   9.842   7.236   5.239  0.4657  1.6186 -0.6024
18229SOL    HW266342   9.801   7.214   5.395  0.3822 -1.1334 -0.9872
18230SOL     OW66343   2.467   0.648   4.400  0.0569  0.3910 -0.6022
18230SOL    HW166344   2.512   0.728   4.439  0.7056 -0.4582  0.4330
18230SOL    HW266345   2.479   0.648   4.300 -2.1115  2.8826 -0.9303
18231SOL     OW66346   4.580   5.666   0.407 -0.6940  0.3235 -0.3876
18231SOL    HW166347   4.495   5.623   0.436 -1.0846  1.3102 -0.0458
18231SOL    HW266348   4.561   5.753   0.361  0.1272  0.6380 -0.1605
18232SOL     OW66349   1.303   2.776   1.842  0.3499  0.2347  0.1868
18232SOL    HW166350   1.276   2.727   1.925  1.7274 -3.4601 -1.4119
18232SOL    HW266351   1.223   2.822   1.803 -1.4682 -2.1713  0.9068
18233SOL     OW66352   0.676   3.442   2.310 -0.4816 -0.0243 -0.1103
18233SOL    HW166353   0.631   3.483   2.230 -3.3671 -0.2620  1.3361
18233SOL    HW266354   0.656   3.497   2.391  1.9228 -0.1243  0.5858
18234SOL     OW66355   2.904   2.437   0.218  0.2002  0.2145 -0.5209
18234SOL    HW166356   2.977   2.369   0.221  0.8229  0.8965 -0.0723
18234SOL    HW266357   2.830   2.404   0.159  0.3955 -0.9462 -0.1391
18235SOL     OW66358   6.089   1.266   2.506  0.0983 -0.0376  0.0158
18235SOL    HW166359   6.101   1.167   2.495 -0.3104 -0.3532  2.2245
18235SOL    HW266360   6.013   1.297   2.450 -0.1916 -1.0872 -0.1809
18236SOL     OW66361   8.829   8.428   6.559  0.4426  0.0269 -0.1403
18236SOL    HW166362   8.887   8.445   6.639  0.0515  0.4519  0.0544
18236SOL    HW266363   8.826   8.330   6.541  1.6178  0.0339 -0.4449
18237SOL     OW66364   5.316   7.783   7.240 -0.6768  0.0873  0.0699
18237SOL    HW166365   5.247   7.729   7.191 -0.3080 -0.0803 -0.2597
18237SOL    HW266366   5.368   7.838   7.175  0.9910 -1.4449  0.0829
18238SOL     OW66367   8.690   2.414   3.498  0.1435  0.3626  0.6550
18238SOL    HW166368   8.704   2.480   3.572 -0.0014  1.1078  0.0184
18238SOL    HW266369   8.767   2.351   3.495 -0.4263 -0.4400  2.2310
18239SOL     OW66370   0.494   4.525   7.389 -0.4436  0.2156 -0.6405
18239SOL    HW166371   0.435   4.555   7.314 -1.0785 -0.1009 -0.2648
18239SOL    HW266372   0.587   4.512   7.354 -0.1902  2.3822 -0.8809
18240SOL     OW66373   4.864   1.683   7.053 -0.1092 -0.1156 -0.4451
18240SOL    HW166374   4.849   1.686   7.151  0.7190  1.4954 -0.3534
18240SOL    HW266375   4.846   1.773   7.013  2.2105 -0.0156 -1.3586
18241SOL     OW66376   7.942   8.073   5.581 -0.3817 -0.2946 -0.0849
18241SOL    HW166377   7.907   8.127   5.505 -0.7040  0.2681  0.4539
18241SOL    HW266378   7.904   7.981   5.577 -0.0378 -0.4081 -0.8604
18242SOL     OW66379   2.819   6.177   6.127  0.8129  0.5565 -0.4892
18242SOL    HW166380   2.729   6.218   6.121 -0.7752 -2.7532 -0.4862
18242SOL    HW266381   2.855   6.188   6.219  0.5293  2.0996 -0.5588
18243SOL     OW66382   8.964   3.697   7.129 -0.5996  0.2888 -0.5144
18243SOL    HW166383   8.923   3.628   7.189 -1.2981  0.3668 -0.9036
18243SOL    HW266384   8.944   3.788   7.166  0.9961  0.2782  0.4413
18244SOL     OW66385   2.028   6.593   0.943 -0.8765  0.0143 -0.1445
18244SOL    HW166386   2.021   6.536   1.025 -0.1254  2.5040  1.7159
18244SOL    HW266387   2.117   6.639   0.943 -1.5892  1.3959 -1.4606
18245SOL     OW66388   6.763   7.803   2.543 -0.4612 -0.6152  0.9571
18245SOL    HW166389   6.750   7.864   2.620  2.9385  0.6033  0.6417
18245SOL    HW266390   6.842   7.744   2.560  1.0982  0.4930 -2.0317
18246SOL     OW66391   2.817   1.350   1.458 -0.3765 -0.0677  0.3846
18246SOL    HW166392   2.851   1.386   1.544 -1.2881 -0.8285  1.0750
18246SOL    HW266393   2.821   1.250   1.459 -1.4815 -0.1236  0.0029
18247SOL     OW66394   3.320   2.285   2.759  0.1318 -0.1471 -0.0248
18247SOL    HW166395   3.397   2.230   2.726  0.6333 -0.2092  1.2520
18247SOL    HW266396   3.248   2.286   2.689  0.1358 -2.3688 -0.0831
18248SOL     OW66397   3.244   5.440   7.089 -0.0113  0.3589 -0.3207
18248SOL    HW166398   3.288   5.385   7.018 -1.5236 -0.2157 -0.8444
18248SOL    HW266399   3.241   5.389   7.175  1.6581  0.9835  0.1226
18249SOL     OW66400   3.413   9.665   3.366  0.3236 -0.3166 -0.3383
18249SOL    HW166401   3.503   9.635   3.334  0.7956  0.0889  0.5941
18249SOL    HW266402   3.371   9.591   3.419  0.8165  0.0941  0.6292
18250SOL     OW66403   0.883   8.458   3.757  0.8640 -0.2986 -0.0260
18250SOL    HW166404   0.941   8.532   3.723 -0.3113  0.4564 -0.4391
18250SOL    HW266405   0.832   8.419   3.681  1.4517 -1.5188  0.2030
18251SOL     OW66406   2.134   3.212   2.426 -0.0486 -0.1612  0.2820
18251SOL    HW166407   2.085   3.181   2.345 -1.1628 -0.9461  1.2305
18251SOL    HW266408   2.139   3.312   2.426 -0.3686 -0.1446 -0.5537
18252SOL     OW66409   1.005   7.413   3.430  0.2560 -0.5008  0.7223
18252SOL    HW166410   1.105   7.417   3.426  0.3352 -1.3135  2.0108
18252SOL    HW266411   0.975   7.406   3.525 -1.0207 -0.5903  0.3220
18253SOL     OW66412   0.645   5.033   1.608  0.1892 -0.1178  0.5409
18253SOL    HW166413   0.707   5.072   1.541 -0.6240  0.8989  0.3631
18253SOL    HW266414   0.625   4.938   1.585  1.1403 -0.2391  0.2259
18254SOL     OW66415   5.230   5.530   0.467  0.4741  0.3858 -0.1478
18254SOL    HW166416   5.182   5.602   0.418  0.4527 -0.4030 -1.3119
18254SOL    HW266417   5.193   5.441   0.441  0.1608 -0.0305  1.6527
18255SOL     OW66418   1.596   5.148   3.558 -0.4325 -0.1513 -0.0551
18255SOL    HW166419   1.543   5.161   3.474  2.0013 -4.5611 -2.4659
18255SOL    HW266420   1.549   5.081   3.616  0.4860 -1.1083 -0.3974
18256SOL     OW66421   2.101   5.695   5.271 -0.1732 -0.6355 -0.1196
18256SOL    HW166422   2.044   5.742   5.338  2.0601 -0.5390  1.7547
18256SOL    HW266423   2.101   5.747   5.185 -3.3869 -0.9849 -0.3906
18257SOL     OW66424   3.133   8.276   0.557  0.0481  0.1274  0.0947
18257SOL    HW166425   3.168   8.199   0.502  0.4633  1.3408 -1.3743
18257SOL    HW266426   3.199   8.351   0.554 -1.6801  1.6481 -0.9212
18258SOL     OW66427   3.777   7.721   3.595  0.6972  0.1478 -0.5353
18258SOL    HW166428   3.762   7.657   3.519 -1.7400  0.1981 -0.1213
18258SOL    HW266429   3.775   7.815   3.561 -1.3867  0.2167 -0.3063
18259SOL     OW66430   9.518   6.384   5.517  0.4572 -0.6745 -0.0651
18259SOL    HW166431   9.523   6.406   5.419 -1.7084 -0.1186 -0.0828
18259SOL    HW266432   9.605   6.346   5.547  1.9804  1.4318 -1.6578
18260SOL     OW66433   2.834   1.918   3.359 -0.1110  0.3489  0.1446
18260SOL    HW166434   2.925   1.956   3.340  0.1087 -0.0855  0.3116
18260SOL    HW266435   2.837   1.866   3.445 -0.6977  0.9479  0.5274
18261SOL     OW66436   9.316   3.863   5.099  0.7988  0.2726 -0.0617
18261SOL    HW166437   9.281   3.791   5.039  0.8230 -0.2477  0.5414
18261SOL    HW266438   9.241   3.898   5.155  0.6031  1.3217 -0.9596
18262SOL     OW66439   3.550   0.359   2.715  0.0811 -0.0270  0.3122
18262SOL    HW166440   3.536   0.409   2.800  2.2794  0.2313  0.5396
18262SOL    HW266441   3.639   0.315   2.716 -0.8803 -2.0818 -0.8536
18263SOL     OW66442   1.901   0.127   5.997 -0.2258  0.1539  0.3373
18263SOL    HW166443   1.901   0.109   5.899 -1.7408  2.0508 -0.0531
18263SOL    HW266444   1.977   0.187   6.021 -1.0930  1.4312 -0.0555
18264SOL     OW66445   7.685   0.950   1.452 -0.3607  0.0359 -0.3211
18264SOL    HW166446   7.598   0.926   1.495  0.0293  0.5203  0.7600
18264SOL    HW266447   7.738   1.009   1.514  1.1220 -0.9929 -0.5870
18265SOL     OW66448   2.402   7.442   6.384 -0.8147 -0.3522 -0.3279
18265SOL    HW166449   2.445   7.520   6.338 -0.0561 -0.4321  0.2344
18265SOL    HW266450   2.459   7.361   6.373 -0.1009 -0.1528  1.5630
18266SOL     OW66451   1.204   6.336   6.001 -0.1608 -0.3630 -0.2173
18266SOL    HW166452   1.191   6.367   6.095 -0.9250 -0.6338 -0.2262
18266SOL    HW266453   1.150   6.253   5.986  0.4104 -0.6454 -0.7265
18267SOL     OW66454   2.575   5.021   1.517  0.2989  0.4896 -0.1753
18267SOL    HW166455   2.667   4.985   1.531 -0.1468 -1.3514 -1.6538
18267SOL    HW266456   2.545   5.068   1.600  1.5003 -1.3244  1.3582
18268SOL     OW66457   1.745   3.761   2.099 -0.3427  0.0493 -0.0511
18268SOL    HW166458   1.763   3.716   2.187 -0.6348  0.4228  0.2015
18268SOL    HW266459   1.676   3.832   2.112 -0.9699 -0.4274 -0.7383
18269SOL     OW66460   0.808   9.713   5.287  0.7859  0.4725 -0.5065
18269SOL    HW166461   0.710   9.696   5.274  1.4659 -3.6416 -0.7291
18269SOL    HW266462   0.854   9.707   5.198  1.3673  1.6383 -0.2889
18270SOL     OW66463   4.722   9.822   2.933  0.2478 -0.2011  0.2591
18270SOL    HW166464   4.798   9.787   2.878  0.9882 -0.0060  1.1653
18270SOL    HW266465   4.714   9.768   3.017 -1.3554 -0.9856 -0.3622
18271SOL     OW66466   7.168   3.343   2.579 -0.0556  0.6439  0.3469
18271SOL    HW166467   7.234   3.270   2.559  0.5999  1.5586 -0.8647
18271SOL    HW266468   7.216   3.423   2.615 -0.6396  0.8927  0.5763
18272SOL     OW66469   8.487   3.680   0.717 -0.1707 -0.1493  0.1386
18272SOL    HW166470   8.523   3.648   0.629  1.9154 -0.1772  0.9655
18272SOL    HW266471   8.507   3.777   0.728 -0.7139 -0.0701  0.4416
18273SOL     OW66472   0.313   4.866   7.315  0.3387 -0.2321  0.7854
18273SOL    HW166473   0.355   4.950   7.281 -0.5647  0.4157  1.2516
18273SOL    HW266474   0.220   4.886   7.348  0.6577 -1.1203  2.2634
18274SOL     OW66475   2.745   3.008   2.075  0.5108  0.1290  0.5788
18274SOL    HW166476   2.662   3.064   2.075  1.4413  1.5341 -0.0464
18274SOL    HW266477   2.822   3.063   2.041  1.9395 -0.7953  2.2687
18275SOL     OW66478   5.596   8.644   3.263  0.0188 -0.0899  0.1807
18275SOL    HW166479   5.519   8.686   3.215  0.4633 -0.6106 -1.0224
18275SOL    HW266480   5.650   8.716   3.307  0.4469  0.5730 -1.3694
18276SOL     OW66481   1.160   1.763   6.135 -0.1448 -0.2004 -0.1068
18276SOL    HW166482   1.184   1.853   6.172 -1.3085  0.0966 -0.0486
18276SOL    HW266483   1.145   1.771   6.036 -2.7415  0.1961  0.3035
18277SOL     OW66484   6.327   8.207   7.013  0.1276  0.1481  0.3639
18277SOL    HW166485   6.227   8.215   7.006  0.0290 -0.0407  1.4763
18277SOL    HW266486   6.364   8.289   7.057  0.4035 -0.0186  0.4423
18278SOL     OW66487   0.043   0.109   3.451 -0.3176  0.1505 -0.3037
18278SOL    HW166488   0.127   0.058   3.433  0.1637  0.5167  0.7932
18278SOL    HW266489   0.048   0.198   3.406  0.7969  0.9909  1.4074
18279SOL     OW66490   8.068   9.396   6.126 -0.0125 -0.3326 -0.4057
18279SOL    HW166491   8.024   9.321   6.077 -1.7266 -0.1613  0.8043
18279SOL    HW266492   8.048   9.389   6.224 -0.5411  1.8776 -0.3155
18280SOL     OW66493   8.149   7.587   6.775  0.8958 -0.1429 -0.5731
18280SOL    HW166494   8.147   7.489   6.791 -1.8729 -0.1762 -0.9025
18280SOL    HW266495   8.178   7.604   6.681  0.0060 -0.7275 -0.9639
18281SOL     OW66496   9.553   7.056   5.471 -0.4327 -0.0788  0.0377
18281SOL    HW166497   9.648   7.065   5.500 -0.2762 -1.1771 -0.1042
18281SOL    HW266498   9.495   7.117   5.526  0.3105  0.3883  0.3098
18282SOL     OW66499   0.598   5.429   4.535 -0.4603  0.0013 -0.0152
18282SOL    HW166500   0.646   5.367   4.473 -0.5776  2.2921 -2.4990
18282SOL    HW266501   0.502   5.438   4.506 -0.5517  0.9991  0.5635
18283SOL     OW66502   9.966   7.659   4.265 -0.3297  0.2239  0.0202
18283SOL    HW166503   9.929   7.571   4.236  1.3296 -0.4642 -0.0218
18283SOL    HW266504   9.913   7.693   4.343  0.7004 -2.0985  1.7620
18284SOL     OW66505   6.231   7.252   3.695 -0.3845  0.3349 -0.1611
18284SOL    HW166506   6.182   7.336   3.671 -0.5150  0.1694 -0.4797
18284SOL    HW266507   6.204   7.179   3.633 -1.2686 -0.3000  0.9583
18285SOL     OW66508   0.427   8.780   5.597 -0.1432 -0.3091  0.2534
18285SOL    HW166509   0.332   8.756   5.581  0.1624 -1.2929 -0.1217
18285SOL    HW266510   0.480   8.765   5.514  0.2742  0.5900  0.3504
18286SOL     OW66511   8.377   3.836   4.565  0.4086  0.0437  0.2699
18286SOL    HW166512   8.391   3.798   4.656  1.5088 -0.9329 -0.2890
18286SOL    HW266513   8.279   3.841   4.546  0.1608  0.6166  1.6489
18287SOL     OW66514   3.743   2.330   2.822 -0.0496  0.4958  0.6145
18287SOL    HW166515   3.721   2.422   2.855  3.2155  0.9117  1.7426
18287SOL    HW266516   3.757   2.334   2.723 -0.3938  1.0903  0.5795
18288SOL     OW66517   0.790   9.437   2.206 -0.4494  0.0075  0.7431
18288SOL    HW166518   0.771   9.383   2.123 -2.1780 -0.5020  1.4478
18288SOL    HW266519   0.882   9.416   2.239 -0.2345 -0.7633 -0.3221
18289SOL     OW66520   4.915   9.454   1.483 -0.3273  0.1145  0.6160
18289SOL    HW166521   4.849   9.528   1.476  0.8167  1.1884  0.9566
18289SOL    HW266522   4.888   9.391   1.556 -1.5833 -0.1047 -0.0327
18290SOL     OW66523   2.213   0.046   7.784 -0.2183 -0.3369 -0.5862
18290SOL    HW166524   2.244  -0.049   7.780 -2.7406 -1.1370 -2.7288
18290SOL    HW266525   2.167   0.063   7.871 -1.7957 -1.7628 -1.1286
18291SOL     OW66526   6.293   9.825   3.526  0.4907 -0.4032 -0.2743
18291SOL    HW166527   6.260   9.820   3.432  1.2672 -1.4787 -0.4996
18291SOL    HW266528   6.300   9.733   3.564  1.1173 -0.0374  0.5091
18292SOL     OW66529   9.827   0.535   5.539  0.1814  0.1005 -0.1379
18292SOL    HW166530   9.741   0.534   5.590  0.5352 -2.8664  0.4864
18292SOL    HW266531   9.849   0.629   5.513 -2.3067  1.1222  1.2601
18293SOL     OW66532   7.304   8.621   2.956 -0.0020 -0.6023 -0.1160
18293SOL    HW166533   7.311   8.525   2.928  0.7656 -0.5940  0.0328
18293SOL    HW266534   7.227   8.664   2.909 -0.1144 -1.1914 -0.4766
18294SOL     OW66535   2.095   1.696   1.495  0.0606 -0.2207 -0.4911
18294SOL    HW166536   2.101   1.624   1.564  1.4669 -1.5538 -1.9794
18294SOL    HW266537   2.157   1.771   1.522 -0.8304  0.1196  0.6610
18295SOL     OW66538   1.928   6.952   4.671 -0.2478 -0.5422 -0.0848
18295SOL    HW166539   2.009   6.937   4.614  0.4927  1.4287  0.4143
18295SOL    HW266540   1.931   6.888   4.748  1.2853  0.0503  0.3787
18296SOL     OW66541   4.092   3.018   0.141  0.0833  0.2483 -0.7505
18296SOL    HW166542   4.098   3.089   0.072  1.0995 -1.6310 -2.6779
18296SOL    HW266543   3.999   2.983   0.146  0.0311  0.3190 -1.2517
18297SOL     OW66544   9.942   0.081   6.777  0.4117 -0.5206  0.4802
18297SOL    HW166545   9.881   0.045   6.848  0.3625  0.3392  0.8741
18297SOL    HW266546   9.891   0.089   6.691  0.4013 -1.3175  0.4093
18298SOL     OW66547   6.871   3.412   1.227  0.3914  0.2791  0.1479
18298SOL    HW166548   6.806   3.480   1.195 -0.4452 -1.1802 -1.3727
18298SOL    HW266549   6.839   3.321   1.201  2.2007 -0.5863  0.8510
18299SOL     OW66550   8.279   4.135   5.804 -0.0203  0.3024 -0.0602
18299SOL    HW166551   8.207   4.194   5.840 -0.2804  0.5357 -0.9534
18299SOL    HW266552   8.364   4.153   5.853 -0.2633  0.9224  0.1413
18300SOL     OW66553   0.041   0.728   1.384 -0.3166 -0.2575  0.3444
18300SOL    HW166554   0.130   0.681   1.392 -0.5939 -1.0820 -1.2596
18300SOL    HW266555  -0.029   0.662   1.358 -0.9092  0.8916 -0.9949
18301SOL     OW66556   7.646   0.993   3.449 -0.0916 -0.0019 -0.1757
18301SOL    HW166557   7.573   1.053   3.416  0.2848  1.0988  0.9753
18301SOL    HW266558   7.614   0.898   3.445 -1.4557  0.4337 -0.0550
18302SOL     OW66559   6.274   3.662   2.317  0.3553 -0.4798 -0.2467
18302SOL    HW166560   6.367   3.652   2.351 -0.9991 -1.7298  3.3569
18302SOL    HW266561   6.236   3.571   2.297 -0.6609 -0.1280  0.0371
18303SOL     OW66562   1.883   8.836   3.141 -0.1317  0.1321  0.3278
18303SOL    HW166563   1.788   8.869   3.139  0.1506  1.0719  2.0316
18303SOL    HW266564   1.942   8.902   3.095 -0.5710 -1.4996 -2.7319
18304SOL     OW66565   2.429   2.208   4.799 -0.4284  0.0585  0.1896
18304SOL    HW166566   2.527   2.221   4.811 -0.5587 -0.4932  1.9265
18304SOL    HW266567   2.410   2.184   4.703  1.2620 -0.9851  0.0973
18305SOL     OW66568   0.104   8.103   5.166 -0.8793  0.1892 -0.1429
18305SOL    HW166569   0.112   8.036   5.092 -0.4651 -0.1624  0.2170
18305SOL    HW266570   0.059   8.185   5.131 -0.1150  0.2741 -0.9607
18306SOL     OW66571   5.137   9.855   2.340 -0.6129 -0.2062  0.1375
18306SOL    HW166572   5.142   9.883   2.244  0.3221 -1.1548 -0.0917
18306SOL    HW266573   5.144   9.755   2.347  3.8915  0.0887  1.4844
18307SOL     OW66574   6.989   0.772   2.803 -0.2938 -1.1266  0.1003
18307SOL    HW166575   6.995   0.727   2.714 -0.2660 -0.2778 -0.3310
18307SOL    HW266576   6.923   0.847   2.798  1.3135  0.3289  0.1756
18308SOL     OW66577   8.955   7.592   5.607 -0.1760  0.7262  0.0522
18308SOL    HW166578   8.964   7.681   5.562  0.9587  0.8769  0.5599
18308SOL    HW266579   9.020   7.587   5.683  0.1938 -0.7738 -0.3546
18309SOL     OW66580   0.831   1.998   0.672  0.2219  0.2473  0.4056
18309SOL    HW166581   0.856   1.977   0.767 -0.3297 -0.9445  0.2942
18309SOL    HW266582   0.732   2.012   0.666  0.3712  1.2583  0.1665
18310SOL     OW66583   9.333   5.884   1.467  0.5774 -0.4053 -0.2071
18310SOL    HW166584   9.322   5.801   1.411  1.8555 -0.0023 -1.0861
18310SOL    HW266585   9.251   5.940   1.460  1.5284  0.6772 -3.4499
18311SOL     OW66586   0.237   1.892   3.159 -0.1317  0.3375  0.0350
18311SOL    HW166587   0.271   1.954   3.230 -2.3500  0.6595  0.8470
18311SOL    HW266588   0.172   1.940   3.101 -1.7668 -1.1651  0.5864
18312SOL     OW66589   0.422   7.795   3.621 -0.0564  0.0066 -0.4758
18312SOL    HW166590   0.471   7.749   3.695 -1.4132  0.9841  1.0789
18312SOL    HW266591   0.457   7.889   3.612 -0.0884 -0.0195 -0.8960
18313SOL     OW66592   8.300   4.085   6.450  0.1317  0.1741  0.6371
18313SOL    HW166593   8.375   4.025   6.479  0.5161  0.7008  0.7368
18313SOL    HW266594   8.269   4.058   6.359  0.8567  0.3458  0.3404
18314SOL     OW66595   8.339   9.300   5.811 -0.2473  0.3371 -0.5305
18314SOL    HW166596   8.280   9.266   5.738  0.3819 -0.7503 -0.5375
18314SOL    HW266597   8.306   9.390   5.841 -0.8026  0.5801 -1.8064
18315SOL     OW66598   3.241   8.601   3.631 -0.2832 -0.1177  0.5335
18315SOL    HW166599   3.194   8.516   3.609  1.1620 -0.2265 -2.3697
18315SOL    HW266600   3.175   8.676   3.635 -0.8361 -0.3377 -3.0993
18316SOL     OW66601   1.421   9.498   0.206 -0.2588 -0.3650 -0.2076
18316SOL    HW166602   1.495   9.483   0.140 -0.4972  1.6327 -0.9665
18316SOL    HW266603   1.431   9.588   0.248 -1.0390 -0.9587  1.3013
18317SOL     OW66604   5.657   8.621   6.126  0.0938  0.9423  0.0797
18317SOL    HW166605   5.633   8.706   6.174  0.8627  1.6648 -0.7787
18317SOL    HW266606   5.752   8.626   6.095  0.6105 -0.8629  1.3096
18318SOL     OW66607   8.229   7.035   7.183 -0.1521  1.0319 -0.3537
18318SOL    HW166608   8.236   7.040   7.282  2.9486  0.2950 -0.4859
18318SOL    HW266609   8.270   6.949   7.151 -1.1794  1.2257 -2.2693
18319SOL     OW66610   9.291   9.423   2.636 -0.4447 -0.1147  0.3825
18319SOL    HW166611   9.301   9.493   2.565  1.1571  1.3012  1.9415
18319SOL    HW266612   9.311   9.464   2.725 -0.4317 -2.3400  1.4233
18320SOL     OW66613   5.132   0.924   5.273  0.1131 -0.1158 -0.5690
18320SOL    HW166614   5.050   0.893   5.319  0.8416 -1.4057 -0.1200
18320SOL    HW266615   5.179   0.992   5.329  1.2615 -2.0401  0.8630
18321SOL     OW66616   1.435   5.395   1.507 -0.4381  0.2776 -0.2817
18321SOL    HW166617   1.514   5.420   1.564 -0.5760 -0.3890  0.2070
18321SOL    HW266618   1.365   5.353   1.564  0.4489 -2.7086 -1.3038
18322SOL     OW66619   1.851   9.176   0.373  0.3497 -0.1111  0.1410
18322SOL    HW166620   1.941   9.134   0.367  0.9986  1.2737 -0.1554
18322SOL    HW266621   1.801   9.141   0.452  1.3819 -0.4402  0.6411
18323SOL     OW66622   9.559   0.396   0.387 -0.1581 -0.8281  0.0980
18323SOL    HW166623   9.554   0.489   0.422  1.2462 -0.4519 -0.6686
18323SOL    HW266624   9.468   0.354   0.390 -0.5240  0.0562  1.7838
18324SOL     OW66625   1.233   8.053   4.168  0.2998  0.6583  0.1873
18324SOL    HW166626   1.142   8.027   4.200 -0.0311  1.1637 -0.3478
18324SOL    HW266627   1.262   7.990   4.096  0.9895 -0.3996  1.3660
18325SOL     OW66628   7.458   1.436   5.803  0.0487 -0.5163 -0.0838
18325SOL    HW166629   7.410   1.380   5.870  1.5352  0.6860  2.0622
18325SOL    HW266630   7.474   1.527   5.841  0.7311  0.2870 -2.1743
18326SOL     OW66631   4.102   9.055   7.572  0.3974 -0.0866 -0.1411
18326SOL    HW166632   4.042   9.122   7.615 -1.3638 -2.1408  0.6246
18326SOL    HW266633   4.146   8.999   7.642  1.1807 -0.3282 -0.8130
18327SOL     OW66634   5.679   2.917   1.712 -0.3070 -0.2990  1.1881
18327SOL    HW166635   5.635   3.005   1.692  1.6888  0.3235 -0.6107
18327SOL    HW266636   5.777   2.932   1.728  0.1804 -2.2920  0.1543
18328SOL     OW66637   7.051   7.214   3.193  0.0931 -0.4516  0.1137
18328SOL    HW166638   7.023   7.310   3.191  2.9905  0.4739  1.8811
18328SOL    HW266639   7.138   7.203   3.145 -0.0139 -2.1355  0.2586
18329SOL     OW66640   6.919   5.165  10.001 -0.5847 -0.4569  0.2464
18329SOL    HW166641   7.008   5.201   9.973 -1.1562  1.5424  0.9888
18329SOL    HW266642   6.927   5.066  10.013  1.4059 -0.3839 -0.1802
18330SOL     OW66643   7.725   5.039   0.382  0.4729  0.3011  0.0268
18330SOL    HW166644   7.682   5.104   0.319 -0.0996 -0.8112 -0.7501
18330SOL    HW266645   7.791   4.983   0.332  1.2203  0.5101  0.7617
18331SOL     OW66646   2.828   2.793   2.867 -0.0112  0.6730  0.2196
18331SOL    HW166647   2.863   2.733   2.940  1.3895  0.3377 -0.7142
18331SOL    HW266648   2.903   2.818   2.806 -1.0002  1.7264 -0.5733
18332SOL     OW66649   9.368   4.975   7.093 -0.1423  0.6608  0.1349
18332SOL    HW166650   9.293   4.911   7.075 -0.5680  0.3151  2.9585
18332SOL    HW266651   9.336   5.069   7.077 -0.3791  0.3540 -1.2188
18333SOL     OW66652   4.113   7.746   4.065 -0.0698  0.5833 -0.0631
18333SOL    HW166653   4.210   7.764   4.051  0.5378 -1.0758  1.8282
18333SOL    HW266654   4.079   7.687   3.992  0.2385  1.4775 -0.9382
18334SOL     OW66655   9.734   0.345   4.187 -0.6647 -0.4974  0.0497
18334SOL    HW166656   9.779   0.382   4.268 -1.7101  0.3070  0.2762
18334SOL    HW266657   9.746   0.407   4.110 -0.9016 -0.5509 -0.0318
18335SOL     OW66658   9.274   9.541   4.834  0.0710  0.4738  0.1260
18335SOL    HW166659   9.206   9.539   4.908 -2.6325  2.0577 -2.1911
18335SOL    HW266660   9.256   9.465   4.771  0.9681  0.4617 -0.1203
18336SOL     OW66661   5.462   8.135   3.818 -0.0553  0.2967 -0.0785
18336SOL    HW166662   5.367   8.115   3.841 -0.7415  1.3365 -1.8805
18336SOL    HW266663   5.497   8.205   3.880 -0.1499 -0.7551  1.1888
18337SOL     OW66664   0.965   6.362   7.665  0.3745 -0.6197 -0.2879
18337SOL    HW166665   0.963   6.451   7.620 -0.6553 -0.9122 -0.8267
18337SOL    HW266666   1.060   6.335   7.680  0.7361  1.6809  2.1372
18338SOL     OW66667   9.118   0.500   0.998 -0.6297  0.1870  0.8943
18338SOL    HW166668   9.088   0.460   1.084 -0.4975  1.3564  1.4811
18338SOL    HW266669   9.089   0.595   0.992  0.2991  0.4328  0.1220
18339SOL     OW66670   8.353   5.305   1.006  0.5699  0.4105  0.2475
18339SOL    HW166671   8.349   5.354   0.918 -0.5247  0.6349  0.4151
18339SOL    HW266672   8.445   5.313   1.044  0.8977  0.8026 -0.6081
18340SOL     OW66673   5.781   7.202   4.223 -0.0020  0.6483 -0.5144
18340SOL    HW166674   5.862   7.157   4.259  0.1787 -0.6014 -2.3601
18340SOL    HW266675   5.709   7.202   4.292  0.9183 -0.0356  0.4598
18341SOL     OW66676   2.910   4.359   1.870 -0.2404  0.1287  0.0967
18341SOL    HW166677   2.872   4.434   1.923 -2.2576 -0.6416 -0.2267
18341SOL    HW266678   2.942   4.287   1.932  1.6060  1.1679  0.4010
18342SOL     OW66679   3.676   5.985   4.699  0.8869  0.5482  0.6798
18342SOL    HW166680   3.636   6.043   4.628  0.3852  0.3602  0.8056
18342SOL    HW266681   3.671   5.889   4.670  0.5601  0.4609  1.0301
18343SOL     OW66682   8.917   3.688   1.773  0.0784 -0.8663 -0.7796
18343SOL    HW166683   8.981   3.763   1.759 -0.8292  0.2999  1.1095
18343SOL    HW266684   8.955   3.622   1.837 -1.3690  0.8660  1.9594
18344SOL     OW66685   1.383   1.618   3.103  0.0677  0.1026  0.5221
18344SOL    HW166686   1.459   1.628   3.039 -0.9186  0.2599 -0.6476
18344SOL    HW266687   1.329   1.702   3.105 -1.2676 -0.6992 -0.2496
18345SOL     OW66688   4.735   2.299   5.576 -0.4098  0.4416 -0.6068
18345SOL    HW166689   4.725   2.393   5.609  0.2397  0.8652 -1.5785
18345SOL    HW266690   4.750   2.300   5.477 -0.2250 -0.6808 -0.5978
18346SOL     OW66691   0.953   9.242   0.127 -0.5022  0.0672 -0.1497
18346SOL    HW166692   1.030   9.300   0.154  0.1921 -1.6510  1.7624
18346SOL    HW266693   0.872   9.268   0.178  0.0795 -1.2833  1.5210
18347SOL     OW66694   3.330   7.322   6.904 -0.0141 -0.1688 -0.5979
18347SOL    HW166695   3.350   7.410   6.947 -1.5399  0.7149 -1.6180
18347SOL    HW266696   3.285   7.262   6.970  2.3213 -0.7444  0.5283
18348SOL     OW66697   7.694   8.988   6.652  0.4391 -0.2950 -0.3103
18348SOL    HW166698   7.649   9.069   6.690 -0.9785 -1.0012 -0.4625
18348SOL    HW266699   7.625   8.920   6.627  1.6585 -1.9724  0.7782
18349SOL     OW66700   5.515   8.919   8.386 -0.7145  0.1727 -0.8705
18349SOL    HW166701   5.608   8.917   8.349 -0.2873 -0.2131  0.2146
18349SOL    HW266702   5.516   8.960   8.477 -1.3732 -1.1759 -0.2350
18350SOL     OW66703   1.464   9.615   3.361 -0.2296 -0.4771 -0.3840
18350SOL    HW166704   1.480   9.530   3.311  2.8636 -0.3118  0.2530
18350SOL    HW266705   1.546   9.673   3.356 -1.3017  1.2741  1.5067
18351SOL     OW66706   8.402   5.890   7.290  0.7429  0.3471  0.3318
18351SOL    HW166707   8.329   5.958   7.281  0.8057  0.8272  2.9935
18351SOL    HW266708   8.373   5.819   7.354  1.0351 -1.7045 -1.7427
18352SOL     OW66709   6.815   8.814   8.098  0.5028 -0.7980  0.1442
18352SOL    HW166710   6.775   8.796   8.188 -0.0805  0.8743  0.2424
18352SOL    HW266711   6.791   8.907   8.070  0.1407 -1.5245 -2.0251
18353SOL     OW66712   3.387   9.151   0.081 -0.4518  0.2752 -0.4601
18353SOL    HW166713   3.459   9.132   0.014  0.5408 -0.7038  0.8503
18353SOL    HW266714   3.417   9.226   0.142  1.1058 -2.5525  2.4139
18354SOL     OW66715   2.585   7.384   0.411 -0.0756 -0.2165 -0.2592
18354SOL    HW166716   2.622   7.327   0.337  1.7736  0.9953 -0.3101
18354SOL    HW266717   2.508   7.437   0.376  1.8450  1.6339 -1.8655
18355SOL     OW66718   2.307   7.498  10.065  0.8222 -0.2599  0.1749
18355SOL    HW166719   2.368   7.453  10.000 -0.5443  0.8050 -1.8958
18355SOL    HW266720   2.216   7.456  10.062  0.3711  0.6658  0.4162
18356SOL     OW66721   9.089   7.751   7.670 -0.5657 -0.2450  0.5026
18356SOL    HW166722   9.120   7.819   7.737 -1.0128 -0.5124  0.9825
18356SOL    HW266723   9.159   7.679   7.662 -0.2168  0.1239  0.1982
18357SOL     OW66724   1.043   3.350   3.438 -0.2242 -0.0817 -0.0406
18357SOL    HW166725   1.060   3.415   3.363  1.5018 -2.1052 -1.4519
18357SOL    HW266726   1.089   3.382   3.520  1.7334 -0.1525 -1.0834
18358SOL     OW66727   0.832   2.376   2.407  0.3426  0.3004 -0.2087
18358SOL    HW166728   0.913   2.348   2.457  0.0872  0.7413  0.4591
18358SOL    HW266729   0.807   2.305   2.341  0.3585 -0.5313  0.6673
18359SOL     OW66730   1.982   4.310   3.271 -0.5359 -0.0652 -0.4217
18359SOL    HW166731   1.917   4.357   3.331 -0.4204 -0.6654  0.1722
18359SOL    HW266732   2.026   4.236   3.321  0.6886  0.4021 -0.7846
18360SOL     OW66733   3.928   1.932   2.746  0.7102  1.0411 -0.5791
18360SOL    HW166734   3.939   2.005   2.813  0.5197  0.1806  0.3974
18360SOL    HW266735   3.950   1.844   2.789  0.1231  0.4341 -1.5101
18361SOL     OW66736   7.033   5.937   7.196  0.0107  0.6843 -0.1614
18361SOL    HW166737   7.054   6.018   7.141  0.6833  0.1537 -0.7073
18361SOL    HW266738   7.076   5.857   7.154  2.4063  0.5895  2.3417
18362SOL     OW66739   4.159   0.654   6.558  0.2587 -0.0871 -0.5290
18362SOL    HW166740   4.139   0.670   6.461  0.5864  0.3345 -0.5328
18362SOL    HW266741   4.074   0.651   6.610  0.1192  0.4287 -0.7262
18363SOL     OW66742   9.054   1.529   7.119  0.1032 -0.2755 -0.1014
18363SOL    HW166743   9.044   1.429   7.115  0.0818 -0.3264  1.0970
18363SOL    HW266744   8.969   1.569   7.151  0.8068 -0.0461  1.5421
18364SOL     OW66745   2.224   7.432   4.213 -0.1174  0.8350  0.1887
18364SOL    HW166746   2.224   7.498   4.288  0.9521 -0.7357  1.5787
18364SOL    HW266747   2.133   7.431   4.171 -0.9995  1.0680  2.0396
18365SOL     OW66748   7.098   0.866   4.338 -0.8336  0.3200 -0.1377
18365SOL    HW166749   7.013   0.846   4.289 -0.1786 -0.2576 -1.0475
18365SOL    HW266750   7.118   0.791   4.401 -0.8907  0.3553 -0.0780
18366SOL     OW66751   6.518   9.445   6.119  0.7329 -0.2687  0.6076
18366SOL    HW166752   6.549   9.486   6.204 -0.0865  0.1806  0.6932
18366SOL    HW266753   6.552   9.351   6.113 -0.3668 -0.7716  2.0898
18367SOL     OW66754   2.494   2.071   1.071  0.0805  0.4825  0.0575
18367SOL    HW166755   2.443   2.145   1.116 -0.5000  0.6587 -0.8729
18367SOL    HW266756   2.592   2.092   1.073  0.1250  0.1870  1.7854
18368SOL     OW66757   3.509   8.039   7.277 -0.2859  0.4311  0.2114
18368SOL    HW166758   3.499   8.008   7.372 -1.5070  0.6197  0.1566
18368SOL    HW266759   3.453   7.980   7.218  1.2420 -0.3099 -0.5269
18369SOL     OW66760   7.410   3.285   5.364  0.6182  0.2554  0.4252
18369SOL    HW166761   7.376   3.206   5.415  1.4345  0.5645  1.4766
18369SOL    HW266762   7.355   3.299   5.282 -0.5146 -0.4508  1.0582
18370SOL     OW66763   6.008   9.756   2.463  0.4503  0.8034 -0.6512
18370SOL    HW166764   5.931   9.739   2.401  0.6973 -0.1379 -0.7148
18370SOL    HW266765   6.074   9.815   2.418 -0.6650  2.3712 -0.2545
18371SOL     OW66766   4.708   3.479   7.870 -0.0087 -0.5040  0.1404
18371SOL    HW166767   4.680   3.443   7.959  0.6119  0.1904  0.6186
18371SOL    HW266768   4.638   3.540   7.835  0.5763  0.6724  1.0063
18372SOL     OW66769   3.077   7.739   1.054  0.0083  0.2854 -0.0058
18372SOL    HW166770   3.057   7.742   0.956  0.3521  0.7873 -0.0637
18372SOL    HW266771   3.062   7.829   1.094 -2.8993 -0.5926  0.9694
18373SOL     OW66772   0.695   6.857   7.703 -0.0594  0.0643  0.0726
18373SOL    HW166773   0.757   6.928   7.669  0.0946  0.3727  0.9894
18373SOL    HW266774   0.601   6.886   7.687 -0.0311  1.1456  1.7343
18374SOL     OW66775   9.239   2.038   0.315 -0.5583 -0.1913 -0.4447
18374SOL    HW166776   9.140   2.023   0.311 -0.7993  1.2056 -0.1555
18374SOL    HW266777   9.264   2.111   0.251 -0.2477  1.8958  1.9365
18375SOL     OW66778   9.893   7.126   4.674 -0.3593 -1.0455  0.9424
18375SOL    HW166779   9.923   7.095   4.584 -4.6997 -2.7102 -0.0577
18375SOL    HW266780   9.843   7.212   4.664  0.0499 -0.6795  1.9492
18376SOL     OW66781   1.487   5.253   7.086  0.3749 -0.0891  0.1025
18376SOL    HW166782   1.403   5.305   7.067  0.1484 -0.8006 -0.8734
18376SOL    HW266783   1.535   5.296   7.162  0.7357  2.1970 -1.3375
18377SOL     OW66784   9.443   5.253   1.468 -0.0712  0.1112  0.2313
18377SOL    HW166785   9.460   5.213   1.378  1.5719 -0.2986  0.7081
18377SOL    HW266786   9.344   5.254   1.486 -0.3726 -0.3358 -1.3179
18378SOL     OW66787   2.576   5.339   1.969  0.2461 -0.4572 -0.0798
18378SOL    HW166788   2.611   5.432   1.965 -1.3468  0.0844 -1.7670
18378SOL    HW266789   2.509   5.332   2.044 -1.5195  0.4284 -1.5515
18379SOL     OW66790   3.973   7.973   1.986 -0.6188 -0.9492 -0.1877
18379SOL    HW166791   4.050   7.960   1.925 -1.4070 -0.9947 -1.1871
18379SOL    HW266792   3.958   7.890   2.039  0.3288 -0.7622  0.3765
18380SOL     OW66793   4.938   1.657   6.613 -0.2608  0.3499  0.0809
18380SOL    HW166794   4.876   1.641   6.537  0.6849  2.5862 -1.2084
18380SOL    HW266795   4.895   1.628   6.699 -1.4656 -1.8606 -1.2305
18381SOL     OW66796   5.868   5.046   1.485 -0.4594 -0.1329 -0.5730
18381SOL    HW166797   5.877   5.079   1.391 -1.9258  2.5012  0.1509
18381SOL    HW266798   5.776   5.007   1.498 -0.6570  0.5047  0.0198
18382SOL     OW66799   7.706   9.906   5.160  0.1713  0.1181  0.1026
18382SOL    HW166800   7.650   9.861   5.229 -2.3248 -0.1687 -2.0268
18382SOL    HW266801   7.681  10.002   5.154 -0.2085 -0.0372 -0.9420
18383SOL     OW66802   6.962   9.757   1.654  0.1573 -0.0575  0.6946
18383SOL    HW166803   7.025   9.813   1.707  1.0817 -0.7460  0.3365
18383SOL    HW266804   6.890   9.723   1.714 -0.2446  1.2523  0.9742
18384SOL     OW66805   5.409   9.751   5.703 -0.4733  0.3121 -0.0210
18384SOL    HW166806   5.493   9.802   5.687 -0.3476 -0.1377 -0.8368
18384SOL    HW266807   5.330   9.807   5.679 -0.5103  1.4307  2.5720
18385SOL     OW66808   1.620   1.085   1.994  0.8272 -0.0854  0.6206
18385SOL    HW166809   1.611   1.079   1.894  1.8337  0.4960  0.4921
18385SOL    HW266810   1.619   1.181   2.021 -3.3979 -0.2936  1.5481
18386SOL     OW66811   7.839   7.002   2.875 -0.6016 -0.0655 -0.1643
18386SOL    HW166812   7.936   6.997   2.849 -0.8376  0.5639 -1.1877
18386SOL    HW266813   7.813   6.917   2.922  1.3381  1.1437  3.3163
18387SOL     OW66814   3.380   3.036   2.952  0.6405 -0.2555  0.1945
18387SOL    HW166815   3.330   2.998   3.030 -0.5649  1.0642  0.0730
18387SOL    HW266816   3.392   2.965   2.883 -2.1466 -0.2816 -0.3034
18388SOL     OW66817   1.065   8.358   6.847 -0.1661  0.2179  0.0322
18388SOL    HW166818   1.159   8.338   6.872 -0.1518  0.2194 -0.0187
18388SOL    HW266819   1.039   8.303   6.768  0.0839  0.8821 -0.5131
18389SOL     OW66820   7.393   0.782   4.938 -0.5570  0.4285  0.3626
18389SOL    HW166821   7.470   0.722   4.913  0.5822  2.4046 -0.9500
18389SOL    HW266822   7.380   0.779   5.037  0.8684 -0.3495  0.5389
18390SOL     OW66823   3.634   4.414   1.251  0.0316 -0.2285 -0.3602
18390SOL    HW166824   3.608   4.446   1.342  0.7886  0.5844 -0.4203
18390SOL    HW266825   3.571   4.450   1.183 -0.5272 -0.8251 -0.1714
18391SOL     OW66826   2.347   3.456   1.219 -0.2691 -1.0016 -0.3537
18391SOL    HW166827   2.329   3.379   1.280  1.0643 -0.3052  0.9191
18391SOL    HW266828   2.264   3.511   1.211 -0.3027 -0.8007  1.2490
18392SOL     OW66829   0.613   5.412   4.067 -0.0276 -0.3108 -0.2604
18392SOL    HW166830   0.693   5.363   4.032  2.3458  3.1152  0.0333
18392SOL    HW266831   0.638   5.460   4.151 -2.2928  1.0900 -0.3473
18393SOL     OW66832   6.090   3.181   0.429  1.0353  0.0767  0.6934
18393SOL    HW166833   6.087   3.202   0.527  0.1942  0.0972  0.6713
18393SOL    HW266834   6.165   3.231   0.386  0.7017  0.9505  1.1208
18394SOL     OW66835   2.514   3.170   6.344  0.3550 -0.4385 -0.3032
18394SOL    HW166836   2.416   3.183   6.359  0.7447  1.1097  1.1362
18394SOL    HW266837   2.537   3.073   6.352 -1.0327 -0.7843 -0.4925
18395SOL     OW66838   2.917   2.093   0.595 -0.0430  0.5111  0.2987
18395SOL    HW166839   2.955   2.045   0.515 -0.2091 -1.6053  1.4724
18395SOL    HW266840   2.952   2.187   0.596  2.0412 -0.2059 -0.8317
18396SOL     OW66841   5.217   6.243   0.733  0.3469 -0.5432 -0.6006
18396SOL    HW166842   5.205   6.329   0.783  0.2432 -0.4538 -0.7799
18396SOL    HW266843   5.127   6.202   0.716  0.4461 -1.1365  0.2740
18397SOL     OW66844   1.186   4.473   0.271 -0.9257  0.0234  0.0201
18397SOL    HW166845   1.219   4.490   0.364 -2.4115 -0.0180  0.5631
18397SOL    HW266846   1.185   4.374   0.253  0.5456  0.0877 -0.4922
18398SOL     OW66847   7.745   7.493   7.011 -0.7166 -0.5219  0.5044
18398SOL    HW166848   7.755   7.430   7.088  0.1576 -1.4754 -0.3703
18398SOL    HW266849   7.813   7.566   7.019  0.3281 -1.4057 -0.0881
18399SOL     OW66850   5.706   8.336   7.054  0.0671 -0.0206 -0.2750
18399SOL    HW166851   5.665   8.245   7.047  0.1887 -0.1489  0.5538
18399SOL    HW266852   5.775   8.335   7.127 -1.0584  1.1597  0.8124
18400SOL     OW66853   6.627   3.172   2.205  0.5051 -0.1004  0.2437
18400SOL    HW166854   6.555   3.225   2.159  0.5056  0.0544  0.4171
18400SOL    HW266855   6.625   3.194   2.303  0.3010 -0.6578  0.3656
18401SOL     OW66856   4.178   3.484   3.254 -0.0051  0.3091 -0.2857
18401SOL    HW166857   4.130   3.448   3.334  0.8416  1.9986  1.0327
18401SOL    HW266858   4.113   3.495   3.179 -0.7320 -1.6858  0.0242
18402SOL     OW66859   3.880   7.506   6.369  0.1164  0.3087 -0.5336
18402SOL    HW166860   3.933   7.587   6.345 -2.3795  1.2788 -3.0900
18402SOL    HW266861   3.885   7.439   6.294  0.1812 -0.8742  0.5069
18403SOL     OW66862   1.792   5.627   7.299  1.2294 -0.4578  0.0561
18403SOL    HW166863   1.760   5.714   7.261  0.4338 -1.0806 -0.7304
18403SOL    HW266864   1.857   5.644   7.373  0.0789  0.8282  0.7832
18404SOL     OW66865   7.738   5.893   4.524 -0.2090 -0.6393  0.4769
18404SOL    HW166866   7.825   5.848   4.501 -0.1229 -0.1655 -0.1388
18404SOL    HW266867   7.686   5.909   4.440 -0.3637  0.1456  0.7218
18405SOL     OW66868   4.180   4.842   1.062  1.1044  0.0951 -0.8720
18405SOL    HW166869   4.114   4.767   1.058 -0.7007  1.6691 -1.2246
18405SOL    HW266870   4.164   4.894   1.146  3.1154 -0.5874 -0.0465
18406SOL     OW66871   8.592   6.399   6.323  0.5708  0.1193  0.8836
18406SOL    HW166872   8.513   6.456   6.346  1.6035  2.1024 -0.3736
18406SOL    HW266873   8.573   6.348   6.239 -0.1511 -1.0349  1.7254
18407SOL     OW66874   9.486   6.518   5.844 -0.4200  0.3348  0.1102
18407SOL    HW166875   9.422   6.463   5.898  0.9339  0.1306  1.5317
18407SOL    HW266876   9.488   6.611   5.879  0.7091  0.1167  0.6629
18408SOL     OW66877   0.992   1.178   5.107 -0.4197  0.2162  0.1298
18408SOL    HW166878   0.974   1.101   5.168 -0.6347  1.2197  1.3636
18408SOL    HW266879   1.084   1.170   5.070 -0.8862 -1.2777 -0.7231
18409SOL     OW66880   1.241   7.160   5.012 -0.3488  0.2664 -0.6543
18409SOL    HW166881   1.255   7.088   4.945 -2.9274 -0.7118 -0.2115
18409SOL    HW266882   1.297   7.142   5.093 -1.7022 -1.8675 -0.1291
18410SOL     OW66883   9.723   6.692   5.711 -0.9091  0.1210 -0.0851
18410SOL    HW166884   9.682   6.669   5.799  1.3161 -0.0156  0.9483
18410SOL    HW266885   9.662   6.753   5.660 -1.9662  0.6440  1.7789
18411SOL     OW66886   4.046   3.860   1.398  0.2288 -0.0473  0.3639
18411SOL    HW166887   4.078   3.944   1.353  1.0198 -0.4542  0.1567
18411SOL    HW266888   3.953   3.839   1.368  1.0879 -0.8379 -1.8356
18412SOL     OW66889   0.472   8.061   7.734 -0.3363 -0.7802 -0.2631
18412SOL    HW166890   0.402   7.998   7.768 -0.1274  0.0456  1.7972
18412SOL    HW266891   0.557   8.012   7.720 -0.2560 -1.0422  1.0500
18413SOL     OW66892   2.212   7.215   2.423 -0.3292 -0.3858  0.2829
18413SOL    HW166893   2.291   7.248   2.372 -0.1950  0.4401  1.0090
18413SOL    HW266894   2.172   7.290   2.475 -0.4984 -1.1909  1.3436
18414SOL     OW66895   4.661   7.931   4.874 -0.1833 -0.2927 -0.0445
18414SOL    HW166896   4.730   7.919   4.945 -1.5344 -0.6757  1.2106
18414SOL    HW266897   4.684   8.011   4.818  1.6481 -0.8323 -0.0876
18415SOL     OW66898   4.063   4.486   6.946  0.4775 -0.0382  0.1903
18415SOL    HW166899   4.031   4.579   6.963 -1.3046 -0.5511 -0.3141
18415SOL    HW266900   4.072   4.472   6.847  0.6334 -0.4535  0.2616
18416SOL     OW66901   0.486   7.545   6.115  1.0246  0.4929 -0.0640
18416SOL    HW166902   0.506   7.456   6.155 -0.3391 -0.3398 -1.1892
18416SOL    HW266903   0.551   7.613   6.150  1.8492 -0.8590  1.0692
18417SOL     OW66904   8.019   9.529   0.757 -0.6921  0.4975  0.0514
18417SOL    HW166905   8.101   9.577   0.789 -1.4764  1.4815  0.6196
18417SOL    HW266906   8.045   9.440   0.719  0.3682 -0.3863  2.7184
18418SOL     OW66907   8.052   2.700   4.532  0.2529  0.1471 -0.1593
18418SOL    HW166908   8.069   2.665   4.624  1.4883  0.8779 -0.1021
18418SOL    HW266909   8.041   2.799   4.535  1.1465  0.2711 -0.9137
18419SOL     OW66910   4.342   4.586   2.366  0.0336 -0.2682 -0.1251
18419SOL    HW166911   4.389   4.639   2.437  1.0025 -0.4471 -0.6260
18419SOL    HW266912   4.382   4.607   2.277  0.0013 -1.3646 -0.3992
18420SOL     OW66913   3.184   0.970   5.781 -0.1011 -0.2539 -0.6962
18420SOL    HW166914   3.213   1.016   5.697  0.0004  0.6462 -0.1819
18420SOL    HW266915   3.092   0.934   5.770  0.7069 -2.0178 -1.9131
18421SOL     OW66916   9.354   9.984   4.666  0.6104  0.1666  0.0184
18421SOL    HW166917   9.384   9.890   4.682  0.9012 -0.1982 -2.5250
18421SOL    HW266918   9.359  10.035   4.752  1.5324 -1.8272  1.1908
18422SOL     OW66919   8.449   0.489   6.884  0.3355 -0.2353 -0.1907
18422SOL    HW166920   8.417   0.499   6.978  0.2152 -1.3406 -0.1126
18422SOL    HW266921   8.417   0.567   6.830  0.7257  0.6066  0.7564
18423SOL     OW66922   7.476   4.943   0.128  0.0177  0.1409  0.4208
18423SOL    HW166923   7.452   4.870   0.064 -0.6188  1.0564 -0.4030
18423SOL    HW266924   7.452   4.916   0.221 -3.0211  0.4971 -0.2185
18424SOL     OW66925   6.168   2.170   6.391 -0.4722  0.0452  0.0120
18424SOL    HW166926   6.108   2.188   6.469 -2.9080  0.7281 -1.9471
18424SOL    HW266927   6.169   2.073   6.370 -0.1447 -0.0829  0.6232
18425SOL     OW66928   2.060   8.008   6.524  0.2486  0.2558 -0.0378
18425SOL    HW166929   1.988   8.011   6.594  0.1427  2.3262 -0.1999
18425SOL    HW266930   2.090   7.914   6.512 -1.1438 -0.4044  1.3582
18426SOL     OW66931   1.946   5.205   2.806  0.1113  0.5564 -0.0658
18426SOL    HW166932   1.964   5.236   2.712  0.3212  0.2306 -0.1348
18426SOL    HW266933   1.879   5.132   2.804  0.4269  0.2640  0.0015
18427SOL     OW66934   7.945   8.645   1.447  0.4820  0.1208 -0.2370
18427SOL    HW166935   8.006   8.609   1.518 -1.0697 -0.4710  0.8324
18427SOL    HW266936   7.858   8.597   1.451 -0.4359  1.6815 -1.0348
18428SOL     OW66937   1.501   9.953   3.594  0.0655  0.7709 -0.3534
18428SOL    HW166938   1.460   9.977   3.506 -1.5428 -1.6680 -0.3209
18428SOL    HW266939   1.513   9.854   3.599  0.3197  0.9009  2.1049
18429SOL     OW66940   3.961   9.666   5.992 -0.0489  0.2303  0.0610
18429SOL    HW166941   4.050   9.621   5.996  0.8771  1.8911 -1.3491
18429SOL    HW266942   3.942   9.694   5.898 -0.9064  2.1667  0.7916
18430SOL     OW66943   8.146   1.590   6.419  0.3625 -0.1101 -0.3589
18430SOL    HW166944   8.149   1.597   6.518 -1.9572  2.3753 -0.4122
18430SOL    HW266945   8.135   1.494   6.393  1.5318 -0.8478  1.7239
18431SOL     OW66946   2.386   7.065   5.027 -0.6018 -0.5790 -0.4062
18431SOL    HW166947   2.326   7.071   5.107 -1.1559 -1.9047 -0.7027
18431SOL    HW266948   2.330   7.058   4.944 -0.0313  0.6085 -0.8956
18432SOL     OW66949   5.194   1.603   4.392 -0.5010 -0.1141 -0.0101
18432SOL    HW166950   5.141   1.567   4.468  1.2733  0.4562  1.5440
18432SOL    HW266951   5.242   1.528   4.346 -0.7228 -0.3336  0.1166
18433SOL     OW66952   7.933   8.206   6.834  0.5096  0.1900 -0.1433
18433SOL    HW166953   8.001   8.179   6.902 -0.1124 -0.1081  0.3662
18433SOL    HW266954   7.962   8.291   6.790  0.2910  1.0821  1.4014
18434SOL     OW66955   2.392   0.975   6.328  0.5181 -0.2676  0.5743
18434SOL    HW166956   2.412   0.955   6.424 -1.0081  0.7993  1.1253
18434SOL    HW266957   2.303   0.936   6.303 -0.0575  1.2570  0.1880
18435SOL     OW66958   7.923   9.540   5.416 -0.6457 -0.3480  0.0253
18435SOL    HW166959   7.827   9.513   5.428 -0.3966 -0.6975  1.3899
18435SOL    HW266960   7.982   9.460   5.430 -0.1618 -0.1773 -1.0044
18436SOL     OW66961   1.290   2.744   6.326 -0.4436  0.1907 -0.0212
18436SOL    HW166962   1.244   2.814   6.271 -0.2626  1.2518  1.1363
18436SOL    HW266963   1.272   2.654   6.288 -1.4919  0.7921 -0.9801
18437SOL     OW66964   2.001   7.614   5.311 -0.4354 -0.4199 -0.0411
18437SOL    HW166965   2.074   7.644   5.373 -1.0585  0.8053  0.1197
18437SOL    HW266966   1.921   7.672   5.324 -0.3836  0.2156 -2.3885
18438SOL     OW66967   4.758   1.944   5.819  0.0508 -0.2572 -0.4455
18438SOL    HW166968   4.756   1.845   5.830  2.3311 -0.3419 -0.4419
18438SOL    HW266969   4.853   1.974   5.808 -0.3576  2.2048  2.0579
18439SOL     OW66970   3.440   6.476   2.086 -0.8913  0.2478 -0.5652
18439SOL    HW166971   3.444   6.444   2.180 -1.5538 -1.7627 -1.1952
18439SOL    HW266972   3.347   6.465   2.050 -1.1566  2.9825 -0.7931
18440SOL     OW66973   5.750   9.574   8.240  0.1755  0.1051  0.2365
18440SOL    HW166974   5.787   9.588   8.148 -1.7703 -1.0252 -0.7575
18440SOL    HW266975   5.807   9.510   8.290  1.2172  0.6860 -0.1903
18441SOL     OW66976   9.280   6.930   2.626  0.6183  0.5789  0.3790
18441SOL    HW166977   9.306   6.837   2.651  0.4474 -0.2147 -2.2437
18441SOL    HW266978   9.210   6.927   2.555 -0.0299  2.7316  0.8684
18442SOL     OW66979   7.950   8.826   7.723 -0.1039 -0.6766  0.5606
18442SOL    HW166980   7.880   8.896   7.713 -0.5004 -1.2985 -1.2081
18442SOL    HW266981   8.040   8.869   7.728 -0.3114 -0.0419 -0.8560
18443SOL     OW66982   9.190   9.614   5.119  0.0486 -0.6225 -0.2169
18443SOL    HW166983   9.205   9.520   5.148 -0.0669  0.0578  2.1617
18443SOL    HW266984   9.092   9.630   5.107 -0.0476 -0.4195  0.8018
18444SOL     OW66985   0.878   2.430   7.554 -0.1792 -0.3513 -0.3670
18444SOL    HW166986   0.818   2.365   7.506 -1.5419 -0.1734  1.0553
18444SOL    HW266987   0.902   2.394   7.643  0.5118  0.3127 -0.2812
18445SOL     OW66988   6.785   9.373   2.693 -0.0331 -0.2184 -0.3238
18445SOL    HW166989   6.828   9.425   2.767  1.2665 -1.7781  0.0325
18445SOL    HW266990   6.686   9.387   2.697  0.2020  1.3473  0.4384
18446SOL     OW66991   0.098   4.884   7.671  0.0700 -0.2471 -0.4318
18446SOL    HW166992   0.126   4.957   7.733 -0.3237 -1.2863  0.9968
18446SOL    HW266993   0.179   4.843   7.628  0.2735  1.2620 -1.5555
18447SOL     OW66994   4.257   3.015   4.782 -0.2677  0.6697 -0.1483
18447SOL    HW166995   4.244   2.984   4.877 -0.2692 -0.1685 -0.4168
18447SOL    HW266996   4.306   3.102   4.782  1.3628 -0.2128  0.5812
18448SOL     OW66997   7.779   6.472   6.326  0.9732  0.3070  0.1023
18448SOL    HW166998   7.712   6.543   6.303  1.0179  0.3532  0.1142
18448SOL    HW266999   7.790   6.411   6.247  2.5466  1.5896 -0.7018
18449SOL     OW67000   7.840   2.894   4.857  0.5709 -0.1152  0.3423
18449SOL    HW167001   7.800   2.841   4.782 -0.6481 -0.5215  1.2433
18449SOL    HW267002   7.915   2.949   4.823 -0.3420  0.1580 -1.2989
18450SOL     OW67003   9.932   8.195   2.161 -0.1931 -0.0068 -0.2277
18450SOL    HW167004   9.874   8.225   2.237  0.4318 -0.0924  0.2922
18450SOL    HW267005   9.908   8.101   2.135 -1.2630  0.4715 -0.9813
18451SOL     OW67006   6.735   0.780   1.703 -0.3009  0.4427  0.8766
18451SOL    HW167007   6.757   0.807   1.797 -2.0756  1.4809  1.0224
18451SOL    HW267008   6.666   0.708   1.704 -2.8734  2.7703  0.4030
18452SOL     OW67009   9.185   1.972   3.927  0.4603  0.1534  0.0262
18452SOL    HW167010   9.269   1.953   3.978  0.8874  0.7861 -0.4294
18452SOL    HW267011   9.206   2.033   3.851  0.0573 -1.7236 -1.6342
18453SOL     OW67012   7.482   8.022   4.208 -0.9157  0.2728 -0.4584
18453SOL    HW167013   7.580   8.014   4.188 -0.8892  1.9011 -1.0911
18453SOL    HW267014   7.451   7.940   4.255  0.7722 -0.2459 -0.2016
18454SOL     OW67015   9.933   6.988   4.447  0.1494  0.1396  0.9397
18454SOL    HW167016   9.936   7.067   4.386 -0.7847 -0.0846  0.5891
18454SOL    HW267017  10.025   6.953   4.461  0.5894  1.3606  1.1971
18455SOL     OW67018   8.817   5.301   3.047 -0.1096  0.7989 -0.2003
18455SOL    HW167019   8.718   5.293   3.048  0.0005 -0.6787  0.7545
18455SOL    HW267020   8.857   5.211   3.029  1.0995  1.0158  1.3190
18456SOL     OW67021   7.365   1.744   4.962  0.1622  0.1103 -0.1667
18456SOL    HW167022   7.311   1.677   5.013  0.0106  0.6696  0.4162
18456SOL    HW267023   7.313   1.829   4.955  0.3288  0.1495 -0.9510
18457SOL     OW67024   5.074   5.267   0.183  0.1634  0.0097 -0.5567
18457SOL    HW167025   5.103   5.287   0.090  1.3794  2.4410  0.2945
18457SOL    HW267026   4.982   5.304   0.199 -0.2903 -0.9268 -0.9404
18458SOL     OW67027   3.238   2.383   6.830  0.0121 -0.7573 -0.4458
18458SOL    HW167028   3.165   2.318   6.851 -1.3895  1.1307  0.5954
18458SOL    HW267029   3.200   2.473   6.815  2.0642  0.1006 -0.7239
18459SOL     OW67030   2.367   2.185   7.422  0.0364  0.1101 -0.3529
18459SOL    HW167031   2.369   2.117   7.496 -0.2909 -0.4603 -0.8628
18459SOL    HW267032   2.274   2.192   7.386  0.3192 -0.0839 -1.1319
18460SOL     OW67033   0.047   5.893   6.612 -0.3825 -0.1131  0.3956
18460SOL    HW167034   0.099   5.808   6.610 -1.5048 -0.8033 -0.0193
18460SOL    HW267035   0.037   5.928   6.518 -1.0247 -0.2158  0.4226
18461SOL     OW67036   2.460   7.698   1.291  0.0696  0.4145  0.2653
18461SOL    HW167037   2.503   7.634   1.226 -0.3055  0.5012 -0.0697
18461SOL    HW267038   2.529   7.760   1.327  0.0354  1.3233 -1.1681
18462SOL     OW67039   9.261   6.130   3.520  0.0539  0.0199 -0.2381
18462SOL    HW167040   9.170   6.150   3.484 -0.4046 -0.4195  0.6675
18462SOL    HW267041   9.262   6.144   3.619  1.3191  1.2534 -0.4188
18463SOL     OW67042   3.708   7.203   1.236  0.2573 -0.5006 -0.3543
18463SOL    HW167043   3.689   7.110   1.267  0.0754 -0.5854 -0.7111
18463SOL    HW267044   3.657   7.269   1.292 -1.4729 -0.7518 -1.5875
18464SOL     OW67045   7.948   9.849   8.123 -0.3640 -0.7769 -0.5178
18464SOL    HW167046   7.884   9.924   8.143 -1.0260 -1.2937 -0.6459
18464SOL    HW267047   7.940   9.779   8.193  1.4054 -0.0119  0.4731
18465SOL     OW67048   5.585   2.032   4.477  0.5806  0.3846 -0.4638
18465SOL    HW167049   5.586   2.132   4.478  2.6489  0.3979 -2.3226
18465SOL    HW267050   5.678   1.997   4.482 -0.2459 -1.5606  4.1423
18466SOL     OW67051   9.069   1.007   0.438  0.1529 -0.5693 -0.6812
18466SOL    HW167052   9.093   0.910   0.443 -0.0733 -0.8052 -3.5067
18466SOL    HW267053   9.124   1.058   0.505  0.0740 -2.6473  1.0264
18467SOL     OW67054   3.260   9.295   2.896  0.3048  0.3936  0.2299
18467SOL    HW167055   3.192   9.368   2.902  0.8489  0.9686 -0.5291
18467SOL    HW267056   3.221   9.217   2.847  0.0676  0.5775  0.1265
18468SOL     OW67057   3.971   6.435   0.884 -0.1096  0.3742  0.1099
18468SOL    HW167058   3.919   6.356   0.918 -0.2406  1.2490  1.9436
18468SOL    HW267059   3.907   6.504   0.851 -0.0906  1.0031  1.3754
18469SOL     OW67060   6.350   5.741   1.736  0.0538 -0.0053  0.0787
18469SOL    HW167061   6.443   5.741   1.698  0.0285  2.0991 -0.0395
18469SOL    HW267062   6.326   5.648   1.764  1.3298 -0.9775 -1.9481
18470SOL     OW67063   1.668   9.158   4.618 -0.0332 -0.3715  0.1074
18470SOL    HW167064   1.584   9.165   4.673  0.2994 -0.7736  0.6786
18470SOL    HW267065   1.656   9.088   4.548 -0.6371  0.4884 -0.6596
18471SOL     OW67066   3.129   2.266   0.188  0.4237 -0.4657 -0.4156
18471SOL    HW167067   3.111   2.175   0.223 -0.5010 -0.4433 -0.8129
18471SOL    HW267068   3.122   2.266   0.088 -1.1237  0.3561 -0.3268
18472SOL     OW67069   3.560   3.145   6.406  0.0041  0.0923  0.0589
18472SOL    HW167070   3.640   3.190   6.444 -0.2468 -1.9157  3.0930
18472SOL    HW267071   3.578   3.047   6.395 -0.4706  0.3190 -3.6474
18473SOL     OW67072   2.775   9.359   1.870  0.0540  0.3983  0.0801
18473SOL    HW167073   2.859   9.409   1.848  0.0635  0.7368  0.8802
18473SOL    HW267074   2.696   9.414   1.844  0.0709  0.4833  0.2089
18474SOL     OW67075   0.718   9.867   5.780  0.5038  0.4684  0.2576
18474SOL    HW167076   0.789   9.857   5.850  2.1205 -0.6208 -1.5040
18474SOL    HW267077   0.671   9.779   5.768 -0.4029  0.8952  0.6177
18475SOL     OW67078   4.345   4.073   7.768  0.0905 -0.2023  0.0789
18475SOL    HW167079   4.263   4.093   7.821  0.5663  0.6984  0.4944
18475SOL    HW267080   4.342   4.125   7.682  0.1739 -0.2634  0.0391
18476SOL     OW67081   1.766   3.616   2.324  0.6459 -0.2541 -0.0096
18476SOL    HW167082   1.772   3.654   2.417  0.4958  0.0851 -0.1366
18476SOL    HW267083   1.675   3.575   2.311  0.6364 -0.2241 -0.0373
18477SOL     OW67084   2.730   2.678   6.803  1.1929  0.5272  0.4986
18477SOL    HW167085   2.711   2.642   6.895 -1.4985  0.4111 -0.0517
18477SOL    HW267086   2.696   2.772   6.796 -4.0102 -1.3389 -2.0293
18478SOL     OW67087   4.018   6.912   3.786  0.0465 -0.3955  0.2881
18478SOL    HW167088   3.980   6.849   3.720  0.5087 -0.5486  0.1661
18478SOL    HW267089   4.105   6.948   3.752 -0.3602  0.5414  0.2159
18479SOL     OW67090   2.749   8.040   5.437  0.0691 -0.1312  0.5835
18479SOL    HW167091   2.767   8.016   5.532 -1.0876 -0.4615  0.7242
18479SOL    HW267092   2.836   8.056   5.390  0.6855 -0.8326  1.4618
18480SOL     OW67093   4.381   7.590   2.629 -0.0845 -0.5648 -0.4001
18480SOL    HW167094   4.349   7.619   2.538  1.0667 -0.7951 -0.8832
18480SOL    HW267095   4.346   7.499   2.649 -2.3372  0.4436  0.4201
18481SOL     OW67096   6.226   1.148   5.849  0.4806  0.2873  0.0362
18481SOL    HW167097   6.150   1.084   5.842  2.3088 -1.9459  0.0689
18481SOL    HW267098   6.197   1.228   5.901 -1.6148 -0.8789  0.7173
18482SOL     OW67099   1.859   3.149   7.741  0.4724 -0.0482  0.0973
18482SOL    HW167100   1.760   3.144   7.725  0.6463 -0.6195 -0.8739
18482SOL    HW267101   1.900   3.060   7.722  0.8971 -0.4248  2.5782
18483SOL     OW67102   0.136   1.054   5.531 -0.1786 -0.0351 -0.3792
18483SOL    HW167103   0.228   1.036   5.565  0.2874  3.0923  0.2083
18483SOL    HW267104   0.137   1.058   5.431  0.1673 -0.7963 -0.4058
18484SOL     OW67105   5.540   1.072   5.436 -0.4782 -0.0021 -0.3234
18484SOL    HW167106   5.547   1.144   5.367 -2.7425  0.5684 -0.0225
18484SOL    HW267107   5.592   1.099   5.517  1.3852 -0.2251 -1.4257
18485SOL     OW67108   0.288   7.242   5.575  0.0678 -0.4127  0.1394
18485SOL    HW167109   0.230   7.275   5.500 -2.1979 -0.7410  1.6981
18485SOL    HW267110   0.296   7.313   5.645 -2.6245 -2.1142  2.2570
18486SOL     OW67111   4.407   4.439   0.517 -0.5057 -0.2083  0.7640
18486SOL    HW167112   4.446   4.352   0.547 -1.7611 -0.7838  0.7579
18486SOL    HW267113   4.307   4.430   0.508 -0.6161  1.1475  0.4920
18487SOL     OW67114   8.925   2.705   0.158 -0.0838 -0.5442 -0.8379
18487SOL    HW167115   8.925   2.745   0.250 -1.8614 -1.6631 -0.3264
18487SOL    HW267116   8.894   2.773   0.092  1.7488  0.4429 -0.7039
18488SOL     OW67117   8.021   1.047   1.019  0.1838 -0.3852 -0.1733
18488SOL    HW167118   8.038   1.128   1.076  1.1665 -0.6852 -0.0343
18488SOL    HW267119   7.932   1.008   1.042  0.6203 -0.5773  1.2433
18489SOL     OW67120   1.572   4.429   4.118  0.1663 -0.6653  0.2262
18489SOL    HW167121   1.625   4.457   4.038 -0.1345  0.9251  0.5620
18489SOL    HW267122   1.481   4.400   4.090  0.0729 -0.1412 -0.0118
18490SOL     OW67123   8.575   4.025   2.799  0.0090  0.3446  0.3837
18490SOL    HW167124   8.669   4.008   2.829  0.2210  0.8772  0.0351
18490SOL    HW267125   8.525   3.939   2.795  0.7308 -0.0532 -0.2596
18491SOL     OW67126   5.612   9.253   2.893 -0.3386 -0.2178  0.3783
18491SOL    HW167127   5.629   9.349   2.869 -0.7981 -0.9588 -3.1097
18491SOL    HW267128   5.544   9.250   2.967 -0.6296  2.1508  0.2764
18492SOL     OW67129   7.152   1.904   2.575  0.1253 -0.3023 -1.1612
18492SOL    HW167130   7.128   1.894   2.478 -0.8649 -2.2211 -0.7593
18492SOL    HW267131   7.072   1.881   2.631  0.8616  0.2274  0.1269
18493SOL     OW67132   3.103   9.908   5.825 -0.2987 -0.2269  0.2411
18493SOL    HW167133   3.102   9.850   5.744 -0.8546  1.2018 -0.8103
18493SOL    HW267134   3.120  10.003   5.797  1.3899  0.0034  2.0010
18494SOL     OW67135   7.079   2.679   3.497 -0.2314 -0.0319  0.1527
18494SOL    HW167136   7.005   2.641   3.552 -1.5460  1.3467 -0.6321
18494SOL    HW267137   7.078   2.779   3.505  1.4444  0.0108 -0.0059
18495SOL     OW67138   9.523   5.131   3.565  0.0905  0.3805 -0.0748
18495SOL    HW167139   9.586   5.138   3.642 -0.4419  0.7492  0.3276
18495SOL    HW267140   9.447   5.195   3.577 -0.2446  0.1069 -0.6712
18496SOL     OW67141   9.700   0.625   1.828  0.4332 -0.1539  0.7240
18496SOL    HW167142   9.718   0.573   1.745  1.0382 -0.9647  1.3444
18496SOL    HW267143   9.777   0.686   1.847 -1.3313  2.8309 -1.3302
18497SOL     OW67144   1.606   2.337   1.340 -0.5829 -0.8854 -0.2393
18497SOL    HW167145   1.633   2.344   1.244 -0.1369 -1.6027 -0.1751
18497SOL    HW267146   1.566   2.423   1.370  1.7175  0.2446 -0.3187
18498SOL     OW67147   4.963   3.009   5.211 -0.2032  0.6512  0.6692
18498SOL    HW167148   5.020   2.941   5.166 -0.7666 -0.7637  2.0698
18498SOL    HW267149   4.867   2.979   5.210 -0.6040  1.8964  0.4121
18499SOL     OW67150   3.675   1.322   2.165 -0.1439  0.0504 -0.6205
18499SOL    HW167151   3.758   1.342   2.113 -0.2055 -1.5543 -1.3732
18499SOL    HW267152   3.655   1.398   2.227  2.2102  0.1877  0.0006
18500SOL     OW67153   3.555   3.077   5.429 -0.1250 -0.2801 -0.0380
18500SOL    HW167154   3.628   3.118   5.373 -0.3711  1.0372  0.6121
18500SOL    HW267155   3.473   3.067   5.373 -0.2406  0.6362 -0.0308
18501SOL     OW67156   7.367   2.073   0.487  0.2375  0.3880  0.5904
18501SOL    HW167157   7.442   2.013   0.459 -1.4206 -1.4656  0.0315
18501SOL    HW267158   7.347   2.137   0.413 -0.0278 -0.4173 -0.0451
18502SOL     OW67159   4.319   2.061   1.460 -0.3614  0.2002 -0.2550
18502SOL    HW167160   4.270   2.039   1.376 -0.3636  0.7233 -0.3881
18502SOL    HW267161   4.403   2.111   1.438 -0.0508 -0.1931  0.0106
18503SOL     OW67162   2.033   1.886   6.676 -0.0067 -0.1307  0.2720
18503SOL    HW167163   2.008   1.967   6.729 -0.5682 -0.1598  0.0602
18503SOL    HW267164   2.036   1.807   6.737 -1.6132 -0.3412  0.0996
18504SOL     OW67165   9.074   5.060   1.702  0.2440 -0.2564  0.0146
18504SOL    HW167166   8.977   5.037   1.700  0.4774 -1.1447 -2.1788
18504SOL    HW267167   9.121   5.002   1.769 -0.8724  0.8343  1.7675
18505SOL     OW67168   9.217   2.283   0.683 -0.8828 -0.0701 -0.3857
18505SOL    HW167169   9.180   2.315   0.771 -1.1258 -0.3157 -0.3978
18505SOL    HW267170   9.242   2.187   0.691 -0.7478 -0.0468 -0.5369
18506SOL     OW67171   7.066   7.850   7.835  0.0660  0.0316 -0.4491
18506SOL    HW167172   7.016   7.903   7.766  0.4255 -1.2406 -1.7043
18506SOL    HW267173   7.032   7.874   7.926 -1.3297  0.7724 -1.1455
18507SOL     OW67174   3.464   7.013   0.311 -0.6500  0.6027  0.6880
18507SOL    HW167175   3.394   7.057   0.255 -0.1763  3.0148  1.9545
18507SOL    HW267176   3.543   6.990   0.254 -1.6065 -0.2359 -0.3248
18508SOL     OW67177   0.285   1.488   1.116 -0.1914  0.2689  0.3603
18508SOL    HW167178   0.303   1.485   1.018  2.9839  1.3356  0.8603
18508SOL    HW267179   0.270   1.395   1.150  0.1622 -0.2429 -0.8515
18509SOL     OW67180   6.960   1.968   5.975  0.4000  0.0363 -0.3453
18509SOL    HW167181   6.965   2.013   6.064 -0.2103  1.1232 -0.8548
18509SOL    HW267182   6.866   1.972   5.941  1.0179  1.4141 -1.9494
18510SOL     OW67183   3.318   8.714   7.847 -0.0994 -0.1736 -0.6318
18510SOL    HW167184   3.228   8.678   7.825 -0.5904  0.4222  0.3773
18510SOL    HW267185   3.388   8.648   7.819 -0.9626 -1.8235  0.9673
18511SOL     OW67186   7.556   1.353   1.625 -0.6926  0.3459  0.3120
18511SOL    HW167187   7.462   1.323   1.641 -1.6203  2.4075 -1.0454
18511SOL    HW267188   7.611   1.276   1.592 -1.7690 -0.9717  1.5270
18512SOL     OW67189   2.623   6.358   0.030 -0.3114 -0.0991 -0.1793
18512SOL    HW167190   2.614   6.407   0.117 -4.1468 -1.5454  0.3632
18512SOL    HW267191   2.658   6.420  -0.040 -0.3603  2.0201  1.6307
18513SOL     OW67192   0.198   0.503   2.088 -0.5446 -0.2216  0.0100
18513SOL    HW167193   0.206   0.469   2.182 -0.4930 -2.1124 -0.6602
18513SOL    HW267194   0.249   0.589   2.079  2.7956 -2.0529  0.7285
18514SOL     OW67195   9.612   5.347   5.740  0.6617  0.5918  0.2689
18514SOL    HW167196   9.528   5.306   5.778  0.1159  0.6665 -0.8563
18514SOL    HW267197   9.677   5.363   5.815 -0.1596  0.1491  1.0961
18515SOL     OW67198   9.517   3.512   3.285  0.4299 -0.1044  0.2079
18515SOL    HW167199   9.422   3.489   3.261  0.2129 -0.6372  1.5424
18515SOL    HW267200   9.562   3.432   3.325  1.4234  0.1728 -0.3462
18516SOL     OW67201   1.828   9.871   0.809 -0.1957  0.1700  0.1716
18516SOL    HW167202   1.750   9.898   0.752 -0.0697  0.5272  0.1695
18516SOL    HW267203   1.891   9.815   0.755  0.8195  1.9921 -0.5624
18517SOL     OW67204   4.337   7.090   2.440 -0.5669  0.4171  0.0031
18517SOL    HW167205   4.340   7.014   2.504 -0.5553  1.4163  1.2196
18517SOL    HW267206   4.271   7.070   2.367 -2.0190  0.0521  1.3700
18518SOL     OW67207   2.256   7.193  10.065 -0.0801 -0.1676  0.8224
18518SOL    HW167208   2.267   7.100  10.100 -0.9214 -0.2445  0.8899
18518SOL    HW267209   2.338   7.220  10.014  0.0327 -1.0609  0.5280
18519SOL     OW67210   8.012   5.757   4.453 -0.3281  0.0421 -0.9667
18519SOL    HW167211   8.070   5.756   4.372  0.3966 -0.9953 -0.4634
18519SOL    HW267212   8.070   5.755   4.535 -1.0635  0.1349 -0.4380
18520SOL     OW67213   8.210   3.404   0.369  0.0301  0.3330  0.2220
18520SOL    HW167214   8.234   3.334   0.301  1.6684 -0.2087  1.3064
18520SOL    HW267215   8.253   3.491   0.344 -0.3455  0.4334 -0.0672
18521SOL     OW67216   9.774   5.031   3.354  0.0922 -0.1395 -0.5045
18521SOL    HW167217   9.779   4.931   3.353  0.0659 -0.1693  1.0459
18521SOL    HW267218   9.684   5.060   3.388 -0.3721  0.4220 -2.1655
18522SOL     OW67219   9.381   1.704   7.401 -0.4403  0.1184 -0.0509
18522SOL    HW167220   9.412   1.771   7.334 -0.8785  1.5146  1.1149
18522SOL    HW267221   9.349   1.622   7.354  1.6301  0.0619 -1.4318
18523SOL     OW67222   7.246   9.334   7.498  0.3663 -0.5673 -0.0398
18523SOL    HW167223   7.203   9.250   7.531 -0.9240 -0.1703 -0.6744
18523SOL    HW267224   7.217   9.411   7.555  0.2435 -0.2908 -0.4803
18524SOL     OW67225   0.917   4.576   4.972  0.3672  0.8810 -0.9121
18524SOL    HW167226   0.992   4.644   4.971  1.7999 -0.5978  1.0724
18524SOL    HW267227   0.922   4.520   4.890  1.1848  1.0713 -1.0010
18525SOL     OW67228   3.708   3.653   3.771 -0.4291  0.1009 -0.0571
18525SOL    HW167229   3.650   3.697   3.702  0.2843 -0.1269 -0.8208
18525SOL    HW267230   3.672   3.562   3.791 -1.1855  0.5383  0.5857
18526SOL     OW67231   9.791   4.629   2.265  0.1268  0.2000  0.3803
18526SOL    HW167232   9.752   4.547   2.306 -1.3512 -0.4487 -2.2118
18526SOL    HW267233   9.759   4.710   2.315 -0.5774 -0.6321  1.2881
18527SOL     OW67234   2.390   6.736   1.911  0.1478  0.6084  0.3362
18527SOL    HW167235   2.329   6.660   1.889  0.9418 -0.2280  0.9854
18527SOL    HW267236   2.476   6.724   1.861  1.2266 -0.2662  2.3661
18528SOL     OW67237   9.044   7.747   2.767 -0.6134  0.7683  0.2964
18528SOL    HW167238   9.002   7.835   2.789  0.2037  0.2107  4.3135
18528SOL    HW267239   9.128   7.762   2.715 -2.1121  2.1659 -1.8116
18529SOL     OW67240   0.606   7.717   6.376 -0.1184 -0.4118 -0.2559
18529SOL    HW167241   0.668   7.707   6.453  1.1825  0.9789 -1.1004
18529SOL    HW267242   0.512   7.707   6.408  0.4958 -2.0531  1.1168
18530SOL     OW67243   9.317   0.145   4.449 -0.4683 -0.4239 -0.0011
18530SOL    HW167244   9.393   0.123   4.388 -1.4093 -1.8488 -0.7187
18530SOL    HW267245   9.324   0.090   4.532  1.1298  1.9410  1.4663
18531SOL     OW67246   1.155   3.754   0.616 -0.7242  0.0164  0.0373
18531SOL    HW167247   1.069   3.753   0.666 -2.6256 -1.1330 -3.1426
18531SOL    HW267248   1.187   3.661   0.602  0.9416  0.4176  0.9162
18532SOL     OW67249   5.056   0.056   1.614 -0.3448  0.0037 -0.4081
18532SOL    HW167250   5.090  -0.017   1.555  0.0194 -0.2002  0.0545
18532SOL    HW267251   5.010   0.016   1.694  0.3094  0.2805  0.1053
18533SOL     OW67252   1.068   9.717   4.456  0.1474  0.0550  0.3719
18533SOL    HW167253   1.109   9.627   4.439  0.2433  0.0912  0.4208
18533SOL    HW267254   1.059   9.766   4.369  0.6325  0.2343  0.4217
18534SOL     OW67255   2.513   8.995   5.499  0.4672  0.0999 -0.5239
18534SOL    HW167256   2.547   9.054   5.572 -1.3974 -0.5903  0.9418
18534SOL    HW267257   2.573   8.915   5.490  1.0158  0.4634 -0.1305
18535SOL     OW67258   2.155   0.434   5.255 -0.5472  0.0710 -0.0286
18535SOL    HW167259   2.133   0.386   5.341  2.7309  0.8353  1.3188
18535SOL    HW267260   2.105   0.520   5.251 -0.5689  0.1214  1.1984
18536SOL     OW67261   7.423   0.395   0.368  0.6338  0.0093  0.4187
18536SOL    HW167262   7.394   0.446   0.288  0.4608 -0.8085 -0.0469
18536SOL    HW267263   7.443   0.300   0.342  0.2099 -0.3604  1.4034
18537SOL     OW67264   0.339   0.116   1.430  0.5542 -0.1871 -0.0164
18537SOL    HW167265   0.372   0.177   1.502 -2.6578  2.3987 -0.6177
18537SOL    HW267266   0.403   0.040   1.419  2.0550  0.3144  4.2773
18538SOL     OW67267   8.419   9.725   8.031  0.3700 -1.1522 -0.7244
18538SOL    HW167268   8.337   9.776   8.004 -1.2390 -1.8892  2.5707
18538SOL    HW267269   8.434   9.650   7.967 -0.0399  0.4873 -2.8124
18539SOL     OW67270   9.019   8.766   2.728  0.0069  0.3884 -0.1548
18539SOL    HW167271   8.961   8.778   2.648  0.7969  0.6011 -0.7073
18539SOL    HW267272   8.967   8.724   2.802 -0.2433 -1.5863 -1.4123
18540SOL     OW67273   7.859   1.665   0.629 -0.0672 -0.2011 -0.1194
18540SOL    HW167274   7.797   1.588   0.614  0.2412 -0.8930  1.9953
18540SOL    HW267275   7.945   1.632   0.669 -0.6120  1.4276  2.4803
18541SOL     OW67276   6.166   1.876   4.739  0.3863 -0.1148  0.4004
18541SOL    HW167277   6.082   1.874   4.793  0.4900  1.4289  0.6290
18541SOL    HW267278   6.244   1.882   4.800  0.7758 -2.8022  0.2541
18542SOL     OW67279   0.417   6.235   4.014 -0.2804 -0.2912 -0.5425
18542SOL    HW167280   0.508   6.203   4.041  0.0931  0.9862 -0.2811
18542SOL    HW267281   0.349   6.196   4.077  0.3596  0.8837  0.9024
18543SOL     OW67282   3.732   8.714   2.591  0.1118  0.1743 -0.0502
18543SOL    HW167283   3.706   8.631   2.640  0.1666  0.0855 -0.1722
18543SOL    HW267284   3.679   8.791   2.627 -1.2341 -0.2142 -1.1266
18544SOL     OW67285   7.908   6.865   6.774  0.3110  0.4136  0.2629
18544SOL    HW167286   7.850   6.817   6.708 -0.1598  0.9005  0.3179
18544SOL    HW267287   7.940   6.801   6.843  1.8289 -0.3677 -1.1287
18545SOL     OW67288   0.749   0.182   4.085  0.1922 -0.1860  0.2988
18545SOL    HW167289   0.670   0.241   4.102 -0.0370  0.1124 -1.7067
18545SOL    HW267290   0.725   0.088   4.111 -0.4142  0.1070  0.8266
18546SOL     OW67291   1.497   9.874   2.952 -0.3349  0.5074  0.4336
18546SOL    HW167292   1.523   9.792   2.901 -0.0264 -0.5945  2.3280
18546SOL    HW267293   1.578   9.915   2.992 -0.6832  0.8487  0.7912
18547SOL     OW67294   8.618   3.486   2.456 -0.2301 -0.5802 -0.3749
18547SOL    HW167295   8.654   3.482   2.550  0.3146 -0.8946 -0.5931
18547SOL    HW267296   8.559   3.566   2.447 -0.6233 -0.7778  0.3532
18548SOL     OW67297   2.953   0.596  10.031  0.0551  0.4944 -0.3116
18548SOL    HW167298   2.861   0.558  10.037  0.5406 -0.6296 -0.0635
18548SOL    HW267299   3.020   0.523  10.039  0.9667  1.2595 -0.9208
18549SOL     OW67300   4.126   5.125   5.100 -0.1505 -0.3417 -0.1308
18549SOL    HW167301   4.096   5.202   5.044 -0.4426 -1.4164 -1.4767
18549SOL    HW267302   4.047   5.068   5.124  0.1820 -0.6850  0.1595
18550SOL     OW67303   1.215   3.491   5.793 -0.2110  0.0333 -0.4784
18550SOL    HW167304   1.211   3.565   5.725 -1.1843  0.1696 -0.2702
18550SOL    HW267305   1.125   3.451   5.805  0.9158 -3.4894 -3.0671
18551SOL     OW67306   4.558   1.376   0.339 -0.2466 -0.3254  0.0178
18551SOL    HW167307   4.540   1.358   0.435  0.2710 -1.7150 -0.1390
18551SOL    HW267308   4.513   1.307   0.283 -2.5319  1.8213 -0.8870
18552SOL     OW67309   8.153   4.602   2.193 -0.5794  0.0789  0.4228
18552SOL    HW167310   8.088   4.606   2.269 -0.3196  0.3325  0.6347
18552SOL    HW267311   8.244   4.578   2.229 -0.4925  0.0273  0.1687
18553SOL     OW67312   8.296   4.754   0.181  0.2678 -0.6455  0.3274
18553SOL    HW167313   8.261   4.839   0.220  1.7564  0.3346 -0.4479
18553SOL    HW267314   8.379   4.727   0.229  1.1113 -0.3898 -0.9545
18554SOL     OW67315   7.875   3.825   1.921 -0.1627  0.1333 -0.0957
18554SOL    HW167316   7.796   3.833   1.981 -1.0395  1.0751 -1.3469
18554SOL    HW267317   7.845   3.803   1.829  1.0758  0.0166 -0.4819
18555SOL     OW67318   2.957   4.074   4.025 -0.1043 -0.2446 -0.5208
18555SOL    HW167319   2.886   4.140   4.050 -0.0106  0.6319 -2.4998
18555SOL    HW267320   3.045   4.120   4.017  0.6112 -1.2356  1.3922
18556SOL     OW67321   3.072   1.793   3.511  0.0959 -0.1532 -0.2172
18556SOL    HW167322   3.069   1.834   3.602  0.0826 -0.3986 -0.1056
18556SOL    HW267323   3.093   1.863   3.443  0.2468  0.0028 -0.0083
18557SOL     OW67324   8.286   0.035   7.804 -0.7576 -0.4925  0.3154
18557SOL    HW167325   8.376   0.051   7.844 -0.5316 -1.6424  0.2657
18557SOL    HW267326   8.256  -0.058   7.825  0.1353 -1.7547 -3.6930
18558SOL     OW67327   8.874   1.833   7.456 -0.7052  0.2770 -0.7815
18558SOL    HW167328   8.954   1.893   7.459 -0.5570  0.0733 -0.6646
18558SOL    HW267329   8.887   1.757   7.520 -1.8996  1.3863  0.7940
18559SOL     OW67330   7.360   6.825   5.345 -0.2619 -0.1271 -0.5072
18559SOL    HW167331   7.439   6.838   5.406 -1.6920 -0.5812  1.4857
18559SOL    HW267332   7.362   6.733   5.307 -0.0368 -0.2643 -0.1650
18560SOL     OW67333   7.684   9.306   4.536 -0.2077  0.9440 -0.3876
18560SOL    HW167334   7.736   9.224   4.513  0.3975  1.3335 -0.4321
18560SOL    HW267335   7.590   9.282   4.555  0.1076  0.1627  0.1770
18561SOL     OW67336   6.929   0.819   4.949 -0.6476  0.0940  0.0577
18561SOL    HW167337   6.993   0.743   4.935 -1.6076 -0.5802 -0.7397
18561SOL    HW267338   6.977   0.906   4.937 -0.1685 -0.4176 -1.9156
18562SOL     OW67339   2.988   9.803   0.150  0.4517  0.8057 -0.4191
18562SOL    HW167340   3.071   9.854   0.172  1.1330 -0.9961  1.2923
18562SOL    HW267341   2.948   9.767   0.234 -0.9570 -0.0483 -1.4381
18563SOL     OW67342   7.990   2.758   1.130  0.0116 -0.1314 -0.3919
18563SOL    HW167343   7.919   2.692   1.158 -0.1266 -0.8842 -2.4386
18563SOL    HW267344   8.061   2.762   1.200  0.0298 -2.4922 -0.2371
18564SOL     OW67345   9.416   9.688   4.253  0.0237  0.0857 -0.4685
18564SOL    HW167346   9.417   9.678   4.153 -0.1215  1.3558 -0.6055
18564SOL    HW267347   9.463   9.610   4.294 -0.3555 -0.7028 -1.5044
18565SOL     OW67348   2.378   4.300   4.429  0.0483 -0.2020  0.4907
18565SOL    HW167349   2.336   4.383   4.464 -3.0495 -0.5212 -2.2723
18565SOL    HW267350   2.431   4.321   4.347 -1.2194 -0.9683 -0.5560
18566SOL     OW67351   4.358   0.495   6.663 -0.5075  0.2793 -0.2422
18566SOL    HW167352   4.307   0.555   6.602  1.1081  2.0877  0.1414
18566SOL    HW267353   4.352   0.529   6.757  0.6563  0.0135 -0.0621
18567SOL     OW67354   0.200   5.359   6.566  0.7173 -0.0166  0.3918
18567SOL    HW167355   0.198   5.444   6.513  1.1144 -0.7189 -0.7661
18567SOL    HW267356   0.131   5.295   6.530  1.4684 -0.7647  0.2611
18568SOL     OW67357   7.079   6.837   8.288 -0.0874  0.5320  0.1688
18568SOL    HW167358   7.137   6.793   8.356 -0.6861 -1.8139 -0.7816
18568SOL    HW267359   7.000   6.878   8.333 -0.0906 -0.3300  0.9615
18569SOL     OW67360   9.819   7.300   2.748  0.0765 -0.1472 -0.1301
18569SOL    HW167361   9.902   7.260   2.710 -1.0347 -0.0252 -2.7554
18569SOL    HW267362   9.838   7.393   2.779  0.6745  0.2843 -1.7401
18570SOL     OW67363   7.249   2.044   0.722  1.1581 -0.3790  0.0867
18570SOL    HW167364   7.295   2.033   0.634  2.7347 -0.3643  0.8886
18570SOL    HW267365   7.317   2.055   0.795 -0.1191  1.3759  1.0864
18571SOL     OW67366   9.977   0.710   7.553 -0.2197 -0.2290 -0.4243
18571SOL    HW167367   9.963   0.756   7.465 -2.5042 -0.5574 -0.2623
18571SOL    HW267368   9.958   0.774   7.628  2.1474  0.1830 -0.1156
18572SOL     OW67369   9.512   8.910   1.329 -0.5462 -0.3011  0.1699
18572SOL    HW167370   9.513   8.811   1.346 -1.1472  0.0432  2.4954
18572SOL    HW267371   9.419   8.944   1.343 -0.2621  0.6500 -0.2542
18573SOL     OW67372   4.023   0.078   4.438 -0.1533 -0.1409  0.1772
18573SOL    HW167373   4.047   0.132   4.519  1.1818 -0.7907  0.2331
18573SOL    HW267374   4.077   0.110   4.360 -0.0434 -0.7678 -0.0086
18574SOL     OW67375   8.102   7.472   5.588 -0.1141  0.4661  0.1068
18574SOL    HW167376   8.025   7.501   5.645 -0.0862  1.3524 -0.2961
18574SOL    HW267377   8.156   7.552   5.562 -0.4493  0.1501 -1.6348
18575SOL     OW67378   1.797   6.775   2.181  0.3722 -0.0852  0.6710
18575SOL    HW167379   1.759   6.796   2.090  1.1193 -0.7422  0.2015
18575SOL    HW267380   1.722   6.767   2.247 -0.1560  0.7571  0.1941
18576SOL     OW67381   6.911   0.979   3.448 -0.4800  0.5288 -0.4998
18576SOL    HW167382   6.988   0.998   3.387 -0.9260  1.5933 -0.7576
18576SOL    HW267383   6.921   1.032   3.532 -2.8256  3.6939 -2.1115
18577SOL     OW67384   7.604   7.968   3.425 -0.5010 -0.6235  0.2243
18577SOL    HW167385   7.604   7.870   3.448  0.6339 -0.5548  0.5287
18577SOL    HW267386   7.627   7.980   3.329 -0.0640 -0.6211  0.3300
18578SOL     OW67387   8.331   5.172   3.794 -0.9379  0.3470 -0.2731
18578SOL    HW167388   8.310   5.079   3.763  0.5307 -0.7642  1.9273
18578SOL    HW267389   8.295   5.184   3.887  2.6894  0.4614  1.1734
18579SOL     OW67390   1.508   5.311   3.774 -0.7705  0.2983  0.8946
18579SOL    HW167391   1.545   5.248   3.843  1.8109 -0.1627 -0.8569
18579SOL    HW267392   1.488   5.260   3.690 -0.2719  1.5344  0.0224
18580SOL     OW67393   9.254   6.595   2.084 -0.3350 -0.2671  0.8913
18580SOL    HW167394   9.282   6.637   1.997 -1.7337 -0.1630  0.4812
18580SOL    HW267395   9.331   6.545   2.122  0.7239  0.8876  0.3120
18581SOL     OW67396   8.595   4.165   6.201  0.1364  0.1809  0.0910
18581SOL    HW167397   8.618   4.177   6.298 -0.1347 -1.5130  0.3847
18581SOL    HW267398   8.544   4.244   6.169 -2.0934 -0.3856  2.0679
18582SOL     OW67399   4.349   0.836   7.762 -0.5694  0.6504  0.1208
18582SOL    HW167400   4.256   0.872   7.752 -0.2510  1.0430 -1.6316
18582SOL    HW267401   4.391   0.827   7.671  0.0998 -2.2041  0.6759
18583SOL     OW67402   6.780   2.246   5.594 -0.5649 -0.2704 -0.0441
18583SOL    HW167403   6.864   2.290   5.561 -2.0241  0.8912 -2.3279
18583SOL    HW267404   6.785   2.236   5.694  2.4462 -0.6079 -0.1864
18584SOL     OW67405   7.438   3.370   1.538 -0.3162  0.1353  0.1931
18584SOL    HW167406   7.384   3.308   1.596 -2.0615  0.2176 -1.3220
18584SOL    HW267407   7.504   3.419   1.595 -0.6256 -1.2617  1.8035
18585SOL     OW67408   8.462   0.877   5.457 -0.1856 -0.0221  0.1792
18585SOL    HW167409   8.525   0.843   5.527  0.7123 -1.6508 -1.3605
18585SOL    HW267410   8.495   0.848   5.367 -3.2321 -1.0299 -0.6556
18586SOL     OW67411   5.629   8.087   4.446  0.7074 -0.3199 -0.0733
18586SOL    HW167412   5.650   8.002   4.494  0.1950 -0.4502 -0.0693
18586SOL    HW267413   5.580   8.065   4.361  0.2704 -0.0149  0.0963
18587SOL     OW67414   0.391   4.821   0.395 -0.3591  0.0668  0.3178
18587SOL    HW167415   0.334   4.835   0.477 -0.3661  1.9459  0.0031
18587SOL    HW267416   0.434   4.730   0.400  0.3063  0.4772  2.8193
18588SOL     OW67417   8.045   9.233   4.617  0.1617 -0.2155 -0.0525
18588SOL    HW167418   7.990   9.177   4.679  2.0042 -0.8033  1.0626
18588SOL    HW267419   8.128   9.264   4.663  0.4285  1.2894 -1.4876
18589SOL     OW67420   7.676   3.906   0.860 -0.7359 -0.1903  0.4213
18589SOL    HW167421   7.770   3.907   0.827 -0.1404 -0.6449  2.0679
18589SOL    HW267422   7.622   3.844   0.802  0.3032 -1.0344  0.3268
18590SOL     OW67423   1.566   0.247   3.035  0.2670 -0.3270  0.4788
18590SOL    HW167424   1.593   0.194   2.955 -0.6016 -0.9853  0.6178
18590SOL    HW267425   1.486   0.304   3.012 -0.5246 -1.1705  1.1164
18591SOL     OW67426   6.824   0.121   1.685  0.6160  0.6112 -0.0667
18591SOL    HW167427   6.893   0.083   1.624  1.8840 -0.3224  1.9122
18591SOL    HW267428   6.735   0.123   1.638  1.1304 -2.0504 -1.1940
18592SOL     OW67429   1.496   3.602   3.471 -0.6422  0.0829 -0.3388
18592SOL    HW167430   1.550   3.623   3.553  0.8022 -2.0410 -0.7211
18592SOL    HW267431   1.558   3.582   3.395 -1.9729  2.1145 -2.0045
18593SOL     OW67432   5.646   9.802   3.980  0.6780  0.5368  0.1672
18593SOL    HW167433   5.593   9.722   4.008  1.7048 -0.3900 -0.4775
18593SOL    HW267434   5.597   9.850   3.907  1.0207 -0.6901 -0.8869
18594SOL     OW67435   1.613   8.294   3.832 -0.2005  0.4379  0.2424
18594SOL    HW167436   1.575   8.285   3.924 -0.5539  0.3503  0.0877
18594SOL    HW267437   1.713   8.291   3.837 -0.1941  1.4783  0.7327
18595SOL     OW67438   2.687   4.741   2.217 -0.0141  0.6287 -0.5182
18595SOL    HW167439   2.604   4.699   2.254  0.1622  1.2836  0.6426
18595SOL    HW267440   2.668   4.835   2.190 -0.0741  0.2345 -1.8787
18596SOL     OW67441   8.004   2.159   4.140 -0.3452 -0.1943 -0.1059
18596SOL    HW167442   8.082   2.213   4.107 -0.2212  0.1615  0.7521
18596SOL    HW267443   7.958   2.209   4.213 -1.4654 -0.3448 -0.7106
18597SOL     OW67444   8.048   4.257   3.631 -0.6663 -0.2415  0.2981
18597SOL    HW167445   8.131   4.290   3.586  0.7988 -2.6533  1.1147
18597SOL    HW267446   8.047   4.288   3.726  0.1164 -1.5161  0.7329
18598SOL     OW67447   2.572   7.345   5.510 -0.2926  0.1156  0.7177
18598SOL    HW167448   2.595   7.348   5.413 -1.0117 -1.0409  0.5124
18598SOL    HW267449   2.615   7.423   5.557  0.9167  0.0833 -0.3286
18599SOL     OW67450   7.580   5.985   4.304 -0.2114  0.0138  0.5087
18599SOL    HW167451   7.633   6.070   4.297  0.1216 -0.0357  2.2225
18599SOL    HW267452   7.483   6.007   4.307 -0.1993  0.2379 -0.4946
18600SOL     OW67453   7.321   3.083   0.532  0.1884 -0.5035  0.0895
18600SOL    HW167454   7.271   3.049   0.452 -0.0043 -0.6978  0.2916
18600SOL    HW267455   7.333   3.182   0.525  0.9226 -0.6305 -0.6039
18601SOL     OW67456   3.200   2.837   9.945 -0.6131  0.2401  0.2560
18601SOL    HW167457   3.136   2.894   9.893 -0.3405  2.1131  1.9362
18601SOL    HW267458   3.289   2.882   9.949 -0.6569  0.1643  2.4227
18602SOL     OW67459   1.406   3.412   0.031 -0.5525 -0.4976  0.4736
18602SOL    HW167460   1.491   3.407  -0.022 -1.4846  0.3436 -1.1590
18602SOL    HW267461   1.388   3.323   0.073 -0.1103 -1.3820 -1.1686
18603SOL     OW67462   1.508   9.958   7.287  0.5639 -0.2183 -0.5782
18603SOL    HW167463   1.587   9.896   7.287  1.0477  0.3931 -0.0230
18603SOL    HW267464   1.538  10.049   7.259  0.1491  0.1239  0.0909
18604SOL     OW67465   8.593   7.887   5.142 -0.1770  0.1502 -0.9860
18604SOL    HW167466   8.498   7.857   5.138 -0.3923  1.0867 -3.0431
18604SOL    HW267467   8.652   7.806   5.146 -0.9636 -0.4815 -1.7699
18605SOL     OW67468   7.606   0.832   1.193 -0.1529 -0.6439  0.1545
18605SOL    HW167469   7.511   0.813   1.215  0.2638 -1.8835  0.9101
18605SOL    HW267470   7.656   0.858   1.275  0.1357  0.1479 -0.2609
18606SOL     OW67471   9.921   2.333   2.102  0.2223  0.1768  0.1304
18606SOL    HW167472   9.984   2.270   2.057 -0.9614 -0.6782 -0.3344
18606SOL    HW267473   9.935   2.425   2.066  0.5182 -0.1871 -0.6962
18607SOL     OW67474   8.376   6.722   8.259  0.3374 -0.6851 -0.0236
18607SOL    HW167475   8.285   6.738   8.223  1.1380  1.3753 -1.2063
18607SOL    HW267476   8.444   6.735   8.187  1.7053 -0.1655  1.3224
18608SOL     OW67477   8.195   0.081   1.371 -0.0963 -0.0360 -0.3884
18608SOL    HW167478   8.236   0.080   1.280  0.5436  0.7474 -0.1134
18608SOL    HW267479   8.102   0.044   1.366  0.4978 -1.4753 -1.0753
18609SOL     OW67480   0.331   9.209   6.545  0.0523 -0.1332  0.0928
18609SOL    HW167481   0.259   9.269   6.511 -0.2394  0.0667  1.0458
18609SOL    HW267482   0.295   9.151   6.618  0.8632 -0.0219  0.5868
18610SOL     OW67483   7.298   2.386   4.501 -0.5611 -0.5021 -0.7910
18610SOL    HW167484   7.392   2.417   4.487 -0.0111 -0.9585  1.7031
18610SOL    HW267485   7.287   2.294   4.464 -0.0471 -0.4509 -1.0767
18611SOL     OW67486   3.268   7.254   4.819  0.0683 -0.5486 -0.4706
18611SOL    HW167487   3.222   7.275   4.905  3.0584  1.1208  0.7960
18611SOL    HW267488   3.286   7.156   4.814 -2.4614 -1.0532 -0.4539
18612SOL     OW67489   5.952   8.481   4.507 -0.0662  0.0158  0.2220
18612SOL    HW167490   5.893   8.401   4.519  0.3890 -0.2056  1.0128
18612SOL    HW267491   5.993   8.506   4.595  0.0898  0.8907 -0.0959
18613SOL     OW67492   0.258   7.520   1.282  0.1428  0.0963  0.6423
18613SOL    HW167493   0.225   7.440   1.232  1.8454 -0.3557  0.2037
18613SOL    HW267494   0.188   7.592   1.280 -0.3429 -0.4025 -1.2528
18614SOL     OW67495   0.424   9.554   0.136 -0.7810 -0.1331  0.4165
18614SOL    HW167496   0.494   9.513   0.078 -1.1230  0.3487 -0.3504
18614SOL    HW267497   0.461   9.634   0.183 -1.1686  0.8792 -0.9762
18615SOL     OW67498   3.139   4.563   2.147 -0.3069 -0.5226  0.1800
18615SOL    HW167499   3.093   4.483   2.185 -0.2116 -1.0080 -0.7152
18615SOL    HW267500   3.176   4.541   2.057 -0.7832  0.6990 -0.3203
18616SOL     OW67501   7.486   2.513   1.655 -0.2112 -0.3220  0.4207
18616SOL    HW167502   7.571   2.481   1.698  0.0510 -0.4083 -0.1528
18616SOL    HW267503   7.505   2.597   1.604 -0.8809  0.7198  1.8587
18617SOL     OW67504   1.758   9.435   5.782  0.0902  0.5952 -0.1639
18617SOL    HW167505   1.752   9.407   5.686  0.9606  1.4438 -0.4721
18617SOL    HW267506   1.777   9.533   5.786  0.7789  0.4194  0.8792
18618SOL     OW67507   8.130   9.301   1.104 -0.3670 -0.0136  0.4921
18618SOL    HW167508   8.052   9.362   1.090 -1.8381 -1.2906  2.8465
18618SOL    HW267509   8.177   9.286   1.017 -0.3771  3.8944 -0.2401
18619SOL     OW67510   0.246   3.835   7.812  0.1136 -0.6139 -0.2115
18619SOL    HW167511   0.282   3.919   7.852  0.8548 -0.6545 -0.7786
18619SOL    HW267512   0.290   3.818   7.724 -1.0579 -0.8485 -0.7608
18620SOL     OW67513   2.913   1.396   2.302  0.1084  0.0348 -0.6662
18620SOL    HW167514   2.897   1.304   2.338 -0.7878  0.0523 -1.0122
18620SOL    HW267515   2.997   1.397   2.249  1.7692  0.1319  1.8483
18621SOL     OW67516   5.162   7.681   5.506 -0.2815 -0.0972  0.7229
18621SOL    HW167517   5.085   7.650   5.449 -0.0336  1.2511 -0.3675
18621SOL    HW267518   5.246   7.641   5.471 -0.0538  1.1850 -0.2511
18622SOL     OW67519   5.401   8.312   5.815 -0.5196  0.1805 -0.0574
18622SOL    HW167520   5.417   8.409   5.795  0.5987  0.0810  0.3555
18622SOL    HW267521   5.414   8.258   5.731  1.6706  0.0636  0.3403
18623SOL     OW67522   6.908   2.036   2.171 -0.2167 -0.1744 -0.0413
18623SOL    HW167523   6.909   2.135   2.157  0.6561 -0.2502 -0.5186
18623SOL    HW267524   6.825   2.011   2.222 -1.1508  0.6229 -1.1488
18624SOL     OW67525   7.995   5.780   1.252  0.7583  0.8736 -0.4092
18624SOL    HW167526   7.956   5.690   1.230  0.2254  0.8947  0.4069
18624SOL    HW267527   7.956   5.812   1.338  3.6405  0.2890  1.1580
18625SOL     OW67528   0.603   4.327   9.794  0.5367  0.4739  0.5715
18625SOL    HW167529   0.569   4.383   9.719  0.7417  0.4699  0.4747
18625SOL    HW267530   0.680   4.372   9.838  1.5015 -0.2880 -0.2955
18626SOL     OW67531   7.366   7.274   4.811  0.0618 -0.2616  0.4779
18626SOL    HW167532   7.457   7.311   4.827  0.0410  0.3790 -0.7951
18626SOL    HW267533   7.298   7.347   4.821  0.1116  0.3487 -3.0445
18627SOL     OW67534   8.784   4.412   4.031  0.7291  0.2323 -0.0225
18627SOL    HW167535   8.747   4.422   3.939  0.0480  1.2616  0.3629
18627SOL    HW267536   8.816   4.318   4.043  0.7496  0.0661 -1.2772
18628SOL     OW67537   8.794   5.814   1.288  0.0400  0.5578 -0.2325
18628SOL    HW167538   8.775   5.911   1.273 -1.6983  0.3553  0.5914
18628SOL    HW267539   8.764   5.761   1.209  1.9465  0.7830 -1.1345
18629SOL     OW67540   8.432   7.440   6.884 -0.1475 -0.3257  0.9985
18629SOL    HW167541   8.496   7.364   6.892 -0.5602 -0.7583  0.2228
18629SOL    HW267542   8.450   7.490   6.800 -0.1993  0.1410  1.2616
18630SOL     OW67543   7.228   4.827   0.580  0.2672 -0.4252  0.6071
18630SOL    HW167544   7.228   4.875   0.668 -0.1613 -1.4776  1.1874
18630SOL    HW267545   7.137   4.836   0.538  0.8630  1.2628 -0.4075
18631SOL     OW67546   3.630   7.316   3.571  0.4062  0.1146  0.5208
18631SOL    HW167547   3.704   7.312   3.504  0.4211  0.1609  0.5348
18631SOL    HW267548   3.545   7.342   3.526  0.7709  1.8725  0.8219
18632SOL     OW67549   6.308   1.442   0.710 -0.5635 -0.2975  0.1406
18632SOL    HW167550   6.388   1.384   0.722 -0.9490 -0.5634  1.5360
18632SOL    HW267551   6.231   1.404   0.762 -1.2382  0.6480 -0.1486
18633SOL     OW67552   4.972   0.171   2.141 -0.0753  0.2805  0.1263
18633SOL    HW167553   4.970   0.208   2.048 -0.2585 -2.6146 -1.0824
18633SOL    HW267554   5.062   0.186   2.181  0.3065  0.7323 -0.8729
18634SOL     OW67555   1.704   3.476   4.790 -0.3851  0.1554 -0.2136
18634SOL    HW167556   1.793   3.492   4.832 -0.0828 -0.8285 -0.4572
18634SOL    HW267557   1.708   3.499   4.693 -0.6100  0.8271 -0.0652
18635SOL     OW67558   1.587   6.957   6.243 -0.2025 -0.4705  0.1404
18635SOL    HW167559   1.621   6.898   6.170  0.0138 -2.1311  1.5593
18635SOL    HW267560   1.573   6.903   6.326  1.4944  1.7731  1.9454
18636SOL     OW67561   6.924   1.200   4.401 -0.6511  0.5760  0.2885
18636SOL    HW167562   6.889   1.211   4.494 -0.3593 -0.5204  0.5364
18636SOL    HW267563   7.018   1.167   4.405 -1.0153 -0.5817 -0.3919
18637SOL     OW67564   9.859   2.797   2.778  0.0301 -0.4442  0.2041
18637SOL    HW167565   9.825   2.704   2.771  0.2525 -0.6431  1.5747
18637SOL    HW267566   9.959   2.795   2.783  0.0882 -0.0655 -0.7500
18638SOL     OW67567   0.642   4.240   7.817  0.1594  0.1520  0.1554
18638SOL    HW167568   0.706   4.163   7.818 -0.6058 -0.5348 -1.8222
18638SOL    HW267569   0.610   4.256   7.724 -0.3541  2.3318  0.6776
18639SOL     OW67570   5.582   2.801   5.404 -0.1840  0.1997  0.1364
18639SOL    HW167571   5.578   2.704   5.428 -0.2362 -0.1611 -1.2726
18639SOL    HW267572   5.494   2.830   5.368 -0.6799  1.2116  2.1529
18640SOL     OW67573   8.736   7.932   0.950  0.1202  0.7614  0.2617
18640SOL    HW167574   8.827   7.942   0.991 -0.2442  2.0265  0.7855
18640SOL    HW267575   8.714   8.015   0.899 -0.3183  0.0361 -0.7505
18641SOL     OW67576   9.856   2.236   5.520  0.5639  0.4832  0.2200
18641SOL    HW167577   9.856   2.145   5.479 -0.3828  1.2593 -1.5420
18641SOL    HW267578   9.943   2.250   5.568  0.1558 -1.8593  1.7326
18642SOL     OW67579   7.430   3.156   1.147  0.0760  0.8076 -0.0666
18642SOL    HW167580   7.349   3.103   1.172 -0.3748  0.9598 -1.1968
18642SOL    HW267581   7.447   3.149   1.049  1.8388  0.2344  0.2470
18643SOL     OW67582   8.311   6.666   1.599  0.5184 -0.3991  0.3773
18643SOL    HW167583   8.286   6.763   1.603 -3.7084 -1.4796  1.9031
18643SOL    HW267584   8.285   6.629   1.509  1.0436 -0.4361  0.2361
18644SOL     OW67585   3.960   8.505   3.870  0.2102 -0.0013  0.3674
18644SOL    HW167586   3.974   8.431   3.803 -0.0521  1.9042 -1.8475
18644SOL    HW267587   3.869   8.544   3.858  0.4373  0.8612  1.3794
18645SOL     OW67588   4.470   8.407   3.399  0.0211 -0.3186 -0.4977
18645SOL    HW167589   4.549   8.383   3.455  0.6950  1.1741 -0.7928
18645SOL    HW267590   4.388   8.412   3.456  0.7572  1.5116  0.4372
18646SOL     OW67591   3.562   1.181   5.902  0.5486 -0.5507  0.7051
18646SOL    HW167592   3.477   1.131   5.920  0.6931 -0.3843  1.8741
18646SOL    HW267593   3.555   1.273   5.941  2.6383 -1.7494  4.1560
18647SOL     OW67594   3.315   4.556   0.366  0.6052 -0.0215 -0.2366
18647SOL    HW167595   3.266   4.528   0.449 -0.2239  1.2821 -0.2714
18647SOL    HW267596   3.360   4.476   0.326  1.2137 -0.6132  1.5886
18648SOL     OW67597   8.856   3.112   4.880  0.1661 -0.3452 -0.1249
18648SOL    HW167598   8.845   3.068   4.790  0.7955 -2.4864  0.8192
18648SOL    HW267599   8.869   3.042   4.950  0.5098  1.3452  1.5398
18649SOL     OW67600   6.007   0.086   3.657 -0.3027 -0.1433  0.4187
18649SOL    HW167601   5.987   0.136   3.742 -0.3086  0.8305 -0.1488
18649SOL    HW267602   6.005   0.149   3.580  2.8627 -0.3802  0.0686
18650SOL     OW67603   0.142   6.926   1.860  0.2399  0.0812  0.4714
18650SOL    HW167604   0.076   6.958   1.928  2.2378  1.9778  1.6049
18650SOL    HW267605   0.234   6.934   1.898  1.0771 -3.7572 -0.5807
18651SOL     OW67606   1.668   3.297   3.543 -0.2317  0.0533  0.2725
18651SOL    HW167607   1.657   3.383   3.492  0.9748  0.4700  0.6931
18651SOL    HW267608   1.757   3.297   3.589 -0.6462 -0.9978  1.0923
18652SOL     OW67609   5.319   0.766   4.186 -0.3202 -0.1807 -0.3380
18652SOL    HW167610   5.256   0.767   4.263  1.2134 -0.5548  0.9497
18652SOL    HW267611   5.402   0.716   4.211  1.4733  2.2449 -1.1886
18653SOL     OW67612   3.993   0.980   3.663 -0.1872 -0.3268  0.0889
18653SOL    HW167613   3.974   0.914   3.735  0.7076  0.1655  0.7734
18653SOL    HW267614   3.940   1.064   3.679  0.0552 -0.1956  0.2072
18654SOL     OW67615   0.063   3.362   1.318 -0.0562  0.0293  0.5814
18654SOL    HW167616  -0.005   3.332   1.251  0.3578 -1.0796  0.6553
18654SOL    HW267617   0.027   3.347   1.410  0.8631 -1.9518  0.6414
18655SOL     OW67618   7.226   2.413   0.646  0.3666  0.4105  0.1854
18655SOL    HW167619   7.175   2.495   0.620 -0.3734  0.1155  0.6608
18655SOL    HW267620   7.300   2.397   0.581 -0.6349  0.4090 -0.9847
18656SOL     OW67621   0.294   0.262   5.978 -0.0795  0.7368  0.1494
18656SOL    HW167622   0.308   0.163   5.983  1.1806  0.8765 -0.3146
18656SOL    HW267623   0.322   0.303   6.065 -0.1951  0.7317  0.1890
18657SOL     OW67624   8.426   6.535   7.427 -0.3749  0.0562 -0.2391
18657SOL    HW167625   8.329   6.521   7.407 -1.1010  1.9392  1.7299
18657SOL    HW267626   8.452   6.629   7.405  0.4216  0.2299  1.3651
18658SOL     OW67627   1.494   3.785   0.886  0.1525 -0.3128  0.4158
18658SOL    HW167628   1.456   3.701   0.848 -0.0029 -0.3638  0.6824
18658SOL    HW267629   1.582   3.805   0.843  0.7927 -1.2902  1.2720
18659SOL     OW67630   0.376   9.123   1.081 -0.7102  0.4826 -0.3732
18659SOL    HW167631   0.341   9.161   0.996  0.5871 -1.2160 -1.7055
18659SOL    HW267632   0.312   9.053   1.115 -0.2089 -0.3618 -1.1213
18660SOL     OW67633   1.053   3.901   3.102 -0.5576 -0.3425  0.0028
18660SOL    HW167634   0.978   3.967   3.099 -1.0519 -0.9039 -0.2281
18660SOL    HW267635   1.101   3.910   3.189  0.9722  2.0207 -1.0269
18661SOL     OW67636   0.214   6.038   2.439 -0.3213 -0.2695 -0.0381
18661SOL    HW167637   0.240   5.973   2.367 -0.2352 -1.1693  0.8021
18661SOL    HW267638   0.119   6.022   2.465 -0.7176  0.8378 -0.7752
18662SOL     OW67639   1.657   7.452   1.198 -0.4523  0.8330  0.4954
18662SOL    HW167640   1.692   7.493   1.113 -0.2687  1.0518  0.6740
18662SOL    HW267641   1.699   7.362   1.211 -0.8103  0.6118  0.1326
18663SOL     OW67642   1.611   1.206   7.525 -0.8065 -0.1839 -0.4563
18663SOL    HW167643   1.531   1.167   7.481  0.2186 -0.7307 -1.8853
18663SOL    HW267644   1.620   1.303   7.500 -0.8118 -0.2260 -0.6241
18664SOL     OW67645   1.554   3.973   1.488  0.1248  0.1282  0.3387
18664SOL    HW167646   1.468   4.013   1.457 -0.5948 -1.6500  0.0097
18664SOL    HW267647   1.580   4.015   1.575  0.3831  2.6771 -0.9012
18665SOL     OW67648   7.882   2.077   5.952 -0.2802 -0.1526 -0.1717
18665SOL    HW167649   7.804   2.020   5.926 -1.9881  1.6923  0.8040
18665SOL    HW267650   7.907   2.059   6.047  1.8108 -2.1950 -1.0663
18666SOL     OW67651   0.758   3.920   2.511 -0.1879  0.5215  0.1861
18666SOL    HW167652   0.659   3.938   2.513 -0.4238 -0.6652 -0.2429
18666SOL    HW267653   0.800   3.957   2.593 -0.9080  1.5133  0.1217
18667SOL     OW67654   2.708   8.723   7.513 -0.5607  0.1828  0.1271
18667SOL    HW167655   2.666   8.750   7.600 -0.2131  0.9252  0.0716
18667SOL    HW267656   2.805   8.702   7.529 -0.5017  0.2995 -0.0731
18668SOL     OW67657   3.147   1.380   2.145 -0.4955  0.0156 -0.4521
18668SOL    HW167658   3.172   1.301   2.089 -0.5946 -0.4037  0.0867
18668SOL    HW267659   3.158   1.464   2.092 -0.4967 -0.3703 -1.0657
18669SOL     OW67660   8.763   0.511   4.506 -0.6655 -0.1383 -0.5459
18669SOL    HW167661   8.718   0.569   4.574 -0.8980 -0.5382 -0.3594
18669SOL    HW267662   8.855   0.547   4.487 -1.5184  1.4168 -1.8558
18670SOL     OW67663   1.898   1.762   7.291 -0.1304 -0.2966 -0.1460
18670SOL    HW167664   1.997   1.772   7.284 -0.4113  1.7747 -1.8725
18670SOL    HW267665   1.867   1.687   7.233  0.1285  1.0510 -2.0656
18671SOL     OW67666   9.413   8.920   4.861 -0.5159 -0.1937  0.2356
18671SOL    HW167667   9.337   8.855   4.871 -0.8695  0.1864  0.0562
18671SOL    HW267668   9.426   8.940   4.764  1.5619 -2.2888  0.0327
18672SOL     OW67669   7.852   1.777   3.818  0.0576  0.6407  0.0411
18672SOL    HW167670   7.882   1.683   3.800  0.8315  0.8292  0.3200
18672SOL    HW267671   7.920   1.841   3.782 -0.0959  1.0772  0.5153
18673SOL     OW67672   9.453   6.875   3.266  0.0622 -0.4362 -0.8538
18673SOL    HW167673   9.388   6.880   3.191  0.8742 -1.4441 -1.6456
18673SOL    HW267674   9.463   6.965   3.309 -1.6038 -0.2111 -0.9214
18674SOL     OW67675   1.138   3.740   8.127 -0.1797  0.3748 -0.0046
18674SOL    HW167676   1.164   3.815   8.066 -0.8810  0.5027 -0.1405
18674SOL    HW267677   1.193   3.659   8.106 -1.4406 -0.0269 -1.7563
18675SOL     OW67678   2.849   4.321   1.012  0.0920 -0.1505  0.1161
18675SOL    HW167679   2.908   4.285   1.084  0.2316  0.5448  0.3558
18675SOL    HW267680   2.838   4.252   0.940  0.5273 -0.5851  0.4630
18676SOL     OW67681   5.047   9.051   7.581 -0.1384  0.1654  0.0916
18676SOL    HW167682   5.003   8.970   7.620  0.5814 -0.6748 -0.8255
18676SOL    HW267683   4.978   9.123   7.569 -0.9817 -0.6470 -0.0279
18677SOL     OW67684   7.864   9.311   7.544  0.0533  0.3774 -0.2946
18677SOL    HW167685   7.920   9.393   7.531  1.0743 -0.3744 -0.7341
18677SOL    HW267686   7.846   9.298   7.642  0.3172  0.8455 -0.1799
18678SOL     OW67687   7.894   3.922   0.685 -0.2130  0.5044 -0.1529
18678SOL    HW167688   7.824   3.967   0.629  1.0980  1.1828 -1.3171
18678SOL    HW267689   7.969   3.987   0.701  0.5559 -0.4874  0.2796
18679SOL     OW67690   0.855   1.583   6.648 -0.2445 -0.5325  0.2487
18679SOL    HW167691   0.830   1.536   6.733  2.7966 -1.3377  0.7791
18679SOL    HW267692   0.928   1.531   6.602  2.9025  3.3065  0.6122
18680SOL     OW67693   8.696   6.257   7.241  0.1770  0.8318  0.1620
18680SOL    HW167694   8.608   6.304   7.250  0.3674  1.0247  1.0755
18680SOL    HW267695   8.764   6.302   7.299  0.5220 -0.1533  0.5373
18681SOL     OW67696   1.433   1.384   5.518  0.5155  0.1406  0.4308
18681SOL    HW167697   1.450   1.343   5.607  0.2009 -0.1199  0.3723
18681SOL    HW267698   1.507   1.448   5.495  1.2234 -0.7133  0.3297
18682SOL     OW67699   2.886   5.330   4.108  0.0714 -0.1148 -0.0667
18682SOL    HW167700   2.848   5.296   4.022 -0.2681  1.4024 -0.5343
18682SOL    HW267701   2.986   5.329   4.102  0.0765 -1.2711  0.0355
18683SOL     OW67702   0.897   3.417   3.869  0.2359 -0.9328 -0.6907
18683SOL    HW167703   0.874   3.322   3.849  0.9301 -1.0995 -0.7062
18683SOL    HW267704   0.847   3.477   3.807 -0.1955 -1.2855 -0.6897
18684SOL     OW67705   4.258   0.141   4.610  0.1080 -0.2517 -0.2972
18684SOL    HW167706   4.315   0.214   4.648 -1.3393  0.8586 -0.2011
18684SOL    HW267707   4.307   0.097   4.534  1.2263  0.4353  0.0102
18685SOL     OW67708   1.427   1.838   6.412  0.3316 -0.0664 -0.2254
18685SOL    HW167709   1.481   1.827   6.496 -0.7705  0.9071  0.6231
18685SOL    HW267710   1.364   1.761   6.402 -0.8166  0.7305  0.8054
18686SOL     OW67711   3.108   5.274   2.148  0.3286 -0.0307 -0.1225
18686SOL    HW167712   3.061   5.187   2.133  0.3787 -0.2056  0.7084
18686SOL    HW267713   3.095   5.333   2.069  0.0175 -0.6722 -0.5528
18687SOL     OW67714   2.715   7.162   6.692  0.2992 -0.4658 -0.0309
18687SOL    HW167715   2.691   7.148   6.596 -2.4867  1.4715  0.3460
18687SOL    HW267716   2.670   7.244   6.727  4.4087  1.1321  1.8881
18688SOL     OW67717   7.381   6.897   6.357 -0.0387 -0.5926 -0.2806
18688SOL    HW167718   7.369   6.980   6.411 -0.9245 -1.0761  0.2853
18688SOL    HW267719   7.343   6.911   6.266  0.3442 -0.1860 -0.3809
18689SOL     OW67720   2.988   6.706   5.116  0.0133  0.5363 -0.3574
18689SOL    HW167721   2.979   6.796   5.158 -2.3322 -0.7588  2.1298
18689SOL    HW267722   2.915   6.694   5.048 -1.3526 -0.4561  1.2582
18690SOL     OW67723   8.531   2.971   1.906  0.1577 -0.3607 -0.2937
18690SOL    HW167724   8.515   2.904   1.834 -1.6827  0.0080 -0.2568
18690SOL    HW267725   8.499   2.934   1.994 -1.3410  0.7264 -0.3555
18691SOL     OW67726   8.137   8.580   1.236  0.0122 -0.7549 -0.4093
18691SOL    HW167727   8.180   8.662   1.198  0.0573 -0.5384  0.1076
18691SOL    HW267728   8.056   8.607   1.290 -0.8183 -1.1627 -1.4374
18692SOL     OW67729   8.689   2.977   2.564  0.0935  0.4800 -0.1882
18692SOL    HW167730   8.773   3.024   2.538  0.5514 -0.4865 -0.4655
18692SOL    HW267731   8.711   2.898   2.622 -0.6691  0.6030  0.2882
18693SOL     OW67732   8.645   5.412   0.238 -0.0174 -0.3143  0.0740
18693SOL    HW167733   8.611   5.335   0.292 -1.3050  0.7521  0.7985
18693SOL    HW267734   8.568   5.461   0.198  0.7062  1.5431  0.9113
18694SOL     OW67735   5.590   9.694   8.413  0.5755 -0.2128 -0.1896
18694SOL    HW167736   5.654   9.654   8.347  0.0573 -0.4404 -0.5519
18694SOL    HW267737   5.624   9.784   8.441  0.3530  0.2561 -1.4155
18695SOL     OW67738   3.049   4.828   4.364 -0.1852  0.7586 -0.4481
18695SOL    HW167739   3.013   4.778   4.443 -1.2493  0.5720 -1.0478
18695SOL    HW267740   3.142   4.795   4.344 -0.2178  0.2379  0.2218
18696SOL     OW67741   1.309   5.402   0.348  0.1664 -0.6504 -0.4464
18696SOL    HW167742   1.386   5.382   0.409  0.4730  1.9864  0.0981
18696SOL    HW267743   1.335   5.476   0.286 -1.5761 -0.5050 -1.0168
18697SOL     OW67744   3.336   9.894   0.963  0.2867 -0.1173  0.0222
18697SOL    HW167745   3.263   9.934   1.018 -1.3229  0.6022 -2.5608
18697SOL    HW267746   3.305   9.808   0.923  1.9563 -1.3889  1.3994
18698SOL     OW67747   0.088   9.709   2.666 -0.1330 -0.7937  0.2170
18698SOL    HW167748   0.043   9.693   2.754  0.5695 -2.7420  0.2590
18698SOL    HW267749   0.164   9.772   2.678 -1.2735  0.5497  0.6043
18699SOL     OW67750   8.611   5.240   3.708 -0.2775  0.2102 -0.0583
18699SOL    HW167751   8.640   5.261   3.802 -0.8079 -2.5071  0.7505
18699SOL    HW267752   8.511   5.238   3.704 -0.2873  1.7128 -1.0412
18700SOL     OW67753   4.577   5.404   0.549 -0.7870 -0.0158  0.5227
18700SOL    HW167754   4.601   5.498   0.525  0.3584 -0.2250  0.8422
18700SOL    HW267755   4.501   5.404   0.615 -1.0209  0.6695  0.2506
18701SOL     OW67756   7.908   2.008   1.990 -0.0869 -0.4378  0.1388
18701SOL    HW167757   7.837   2.078   1.991 -0.5513 -0.8966  1.5995
18701SOL    HW267758   7.896   1.949   1.911  0.0788  0.8943 -0.8925
18702SOL     OW67759   9.899   6.639   7.660  0.3577 -0.0342 -0.0057
18702SOL    HW167760   9.971   6.638   7.591 -0.8340  1.1805 -1.3053
18702SOL    HW267761   9.862   6.732   7.668 -1.5237 -0.7721  0.1229
18703SOL     OW67762   0.190   7.486   1.694 -0.9870 -0.3212 -0.0784
18703SOL    HW167763   0.259   7.454   1.629 -0.7192  0.8272 -0.3845
18703SOL    HW267764   0.230   7.489   1.786 -0.3348  1.1564 -0.3859
18704SOL     OW67765   0.959   8.639   0.042 -0.1297  0.0539 -0.2008
18704SOL    HW167766   0.904   8.582   0.103  1.2832 -2.3422 -1.0975
18704SOL    HW267767   0.898   8.690  -0.018 -1.4546  0.0707  1.1047
18705SOL     OW67768   8.707   0.421   3.118 -0.2756 -0.1775 -0.2282
18705SOL    HW167769   8.622   0.375   3.090 -0.2200 -0.5806  0.2651
18705SOL    HW267770   8.749   0.465   3.038 -1.1845  0.4127 -0.3878
18706SOL     OW67771   9.796   5.997   4.338 -0.8736  0.5988 -0.2068
18706SOL    HW167772   9.797   5.925   4.268 -0.3293  2.1290 -1.8113
18706SOL    HW267773   9.740   6.074   4.306  0.4505  1.8739  0.4609
18707SOL     OW67774   9.846   4.039   1.602 -0.0106  0.2440  0.0730
18707SOL    HW167775   9.779   4.095   1.553 -0.8823 -1.2540 -0.4611
18707SOL    HW267776   9.880   3.967   1.542  0.9513  0.0656  0.8185
18708SOL     OW67777   4.362   4.008   6.099 -0.0431  0.5990 -0.1416
18708SOL    HW167778   4.329   4.061   6.177 -0.0067  0.6715 -0.1748
18708SOL    HW267779   4.378   3.914   6.126  1.8830  1.0695  0.4374
18709SOL     OW67780   9.366   9.838   6.377  0.7362  0.2873  0.1311
18709SOL    HW167781   9.295   9.902   6.349  1.9482  0.7529 -1.9924
18709SOL    HW267782   9.453   9.888   6.388  0.9004 -0.3768  2.0609
18710SOL     OW67783   7.439   7.746   2.870 -0.3876 -0.2460 -0.1860
18710SOL    HW167784   7.408   7.685   2.944  1.3373 -0.2431  0.5709
18710SOL    HW267785   7.373   7.744   2.795 -1.5601 -1.1950  0.8499
18711SOL     OW67786   7.353   9.323   7.841 -0.0182  0.5191 -0.8263
18711SOL    HW167787   7.257   9.323   7.812 -1.0903 -1.5918  2.3525
18711SOL    HW267788   7.392   9.233   7.826  0.8363  0.7855 -0.2477
18712SOL     OW67789   9.138   5.153   7.012  0.5537  0.0095  0.1453
18712SOL    HW167790   9.114   5.138   6.916  1.7751  0.2497 -0.2108
18712SOL    HW267791   9.212   5.220   7.017  0.0612  0.4698  1.2991
18713SOL     OW67792   2.388   6.885   0.544 -0.0585 -0.5374 -0.0003
18713SOL    HW167793   2.473   6.937   0.546  0.7717 -1.8070 -1.5560
18713SOL    HW267794   2.346   6.886   0.635  0.6982  1.5815  0.3439
18714SOL     OW67795   6.905   6.804   4.946 -0.7348 -0.6656 -0.2478
18714SOL    HW167796   6.854   6.885   4.974 -0.4070 -0.7467  0.6241
18714SOL    HW267797   6.873   6.773   4.857 -0.8775  0.4038 -0.5715
18715SOL     OW67798   4.453   0.105   3.525  0.5108  0.1641  0.0382
18715SOL    HW167799   4.371   0.109   3.469  0.3279  0.9100  0.3626
18715SOL    HW267800   4.452   0.179   3.592  2.0265  0.9326 -0.7519
18716SOL     OW67801   1.906   8.650   1.186  0.0284 -0.5178  0.5736
18716SOL    HW167802   1.848   8.593   1.128  2.2756 -1.7295 -0.5428
18716SOL    HW267803   2.000   8.648   1.152  0.6259  1.9709  1.9280
18717SOL     OW67804   1.702   5.486   3.377 -0.2355 -1.1053 -0.1903
18717SOL    HW167805   1.793   5.443   3.375 -0.0285 -0.6511 -0.6850
18717SOL    HW267806   1.684   5.529   3.289  0.8128  2.4307  1.2505
18718SOL     OW67807   5.075   0.046   1.275  0.1513  0.1108  0.0698
18718SOL    HW167808   5.101   0.036   1.179  2.0969 -0.1500  0.6132
18718SOL    HW267809   5.154   0.074   1.328 -1.2730  1.7973  1.3598
18719SOL     OW67810   7.739   5.146   2.050  0.2835 -0.6168 -0.1843
18719SOL    HW167811   7.732   5.047   2.033  3.6195 -1.1130  0.9350
18719SOL    HW267812   7.769   5.161   2.144  0.4641  1.4578 -0.5657
18720SOL     OW67813   4.035   8.219   7.263 -0.0602 -0.3427 -0.1233
18720SOL    HW167814   4.041   8.299   7.203  1.2261 -1.8008 -1.9880
18720SOL    HW267815   3.941   8.185   7.265 -0.3456  0.4270 -0.3672
18721SOL     OW67816   1.724   5.250   2.569  0.4137 -0.0182  0.3183
18721SOL    HW167817   1.664   5.284   2.496 -0.0104 -1.3662  0.0126
18721SOL    HW267818   1.807   5.305   2.573 -1.1433  2.2980  1.1952
18722SOL     OW67819   2.991   1.164   4.398  0.3856 -0.0048 -0.1727
18722SOL    HW167820   3.082   1.176   4.359  0.1389  0.4368 -0.6066
18722SOL    HW267821   2.999   1.119   4.487  1.2979  3.3115  1.4749
18723SOL     OW67822   9.654   6.744   3.749 -0.2796 -0.2698 -0.1332
18723SOL    HW167823   9.624   6.720   3.841 -1.9736 -1.0475 -0.8716
18723SOL    HW267824   9.576   6.743   3.687  0.9534 -0.3569 -1.7095
18724SOL     OW67825   7.790   8.873   2.372 -0.0159 -0.1327 -0.1658
18724SOL    HW167826   7.826   8.805   2.436  0.4865 -0.3221 -0.6481
18724SOL    HW267827   7.861   8.942   2.353 -0.1028 -0.1721 -0.6460
18725SOL     OW67828   3.518   5.176   1.379 -0.4890  0.4975  0.1916
18725SOL    HW167829   3.468   5.255   1.415  0.2592  0.6476  0.9418
18725SOL    HW267830   3.505   5.098   1.441  0.1334  0.5168  0.3503
18726SOL     OW67831   7.456   2.119   3.750  0.2034  0.4859  0.4508
18726SOL    HW167832   7.491   2.107   3.657 -1.8600  1.1133 -0.4346
18726SOL    HW267833   7.481   2.040   3.806  1.0602 -0.1067 -0.7677
18727SOL     OW67834   7.439   9.207   5.339 -0.4144 -0.5471 -0.1567
18727SOL    HW167835   7.343   9.216   5.367  0.4387  0.8635  2.4320
18727SOL    HW267836   7.454   9.262   5.257 -1.1108  1.7784  1.2280
18728SOL     OW67837   2.839   7.929   3.975  0.1055  0.1799  0.5686
18728SOL    HW167838   2.859   7.956   3.880  1.5936 -0.1265  0.7855
18728SOL    HW267839   2.740   7.920   3.986 -0.1006  0.3820 -0.9101
18729SOL     OW67840   8.906   7.701   0.595  0.2475  0.1920  0.0916
18729SOL    HW167841   8.919   7.758   0.514  1.5010  1.7784  1.3890
18729SOL    HW267842   8.983   7.711   0.657 -0.5836 -1.1825  1.4079
18730SOL     OW67843   7.863   1.825   5.418 -0.1251 -0.5100 -0.5389
18730SOL    HW167844   7.788   1.877   5.376 -0.3078 -0.7508 -0.5138
18730SOL    HW267845   7.928   1.798   5.348 -0.5240 -1.0695 -0.6939
18731SOL     OW67846   8.942   2.387   3.293 -0.9531 -0.1065  0.1276
18731SOL    HW167847   8.948   2.307   3.354 -0.8056 -0.4572 -0.3361
18731SOL    HW267848   8.880   2.366   3.218  0.5531 -0.4966 -1.0313
18732SOL     OW67849   9.782   2.757   2.459  0.0551  0.5951  0.0561
18732SOL    HW167850   9.809   2.679   2.515 -3.4597 -1.6045 -1.1325
18732SOL    HW267851   9.722   2.817   2.512  0.8206  1.2282  0.2128
18733SOL     OW67852   6.499   0.986   0.974 -0.0201 -0.0599  0.6616
18733SOL    HW167853   6.492   0.894   0.934 -0.3150  0.1575  0.2033
18733SOL    HW267854   6.421   1.041   0.944  1.0626  0.8907 -0.4988
18734SOL     OW67855   5.285   7.941   5.489 -0.0774  0.4451  0.4413
18734SOL    HW167856   5.243   8.005   5.425  0.1790 -1.3530 -1.5819
18734SOL    HW267857   5.220   7.867   5.510  0.6148 -0.1532  0.5068
18735SOL     OW67858   3.699   5.702   4.625 -0.5825 -0.1837  0.4123
18735SOL    HW167859   3.783   5.696   4.571 -1.0978 -1.5082 -0.2608
18735SOL    HW267860   3.709   5.650   4.709 -0.6379 -0.1454  0.4427
18736SOL     OW67861   4.224   8.914   4.500  0.5910  0.4844 -0.2833
18736SOL    HW167862   4.138   8.964   4.498  0.3995  0.1199 -1.2193
18736SOL    HW267863   4.240   8.870   4.412  1.2016 -0.3511  0.2302
18737SOL     OW67864   7.918   6.781   1.954  0.6629 -0.6715 -0.0630
18737SOL    HW167865   7.984   6.856   1.954  0.6582 -0.6404  2.4447
18737SOL    HW267866   7.966   6.694   1.939  1.3831 -0.7197  2.3999
18738SOL     OW67867   2.393   0.922   0.900 -0.0522 -0.2525  0.5130
18738SOL    HW167868   2.399   0.902   0.802  0.1848  0.7848  0.3076
18738SOL    HW267869   2.333   0.856   0.944 -1.9525  0.5891 -0.7239
18739SOL     OW67870   1.890   1.016   0.908  0.3188 -0.6933 -0.3188
18739SOL    HW167871   1.923   1.042   0.817 -1.4389 -0.1028 -0.8180
18739SOL    HW267872   1.866   0.919   0.909  2.7594 -1.3213  0.2801
18740SOL     OW67873   7.228   9.457   4.521 -0.1571  0.0570 -0.2610
18740SOL    HW167874   7.240   9.525   4.448  0.8212  0.2159  0.0481
18740SOL    HW267875   7.201   9.502   4.605 -2.1779 -0.2178 -0.7385
18741SOL     OW67876   2.598   5.347   4.306  0.0658 -0.2126  0.7270
18741SOL    HW167877   2.694   5.346   4.334  0.1074 -0.5796  0.5705
18741SOL    HW267878   2.589   5.396   4.220 -0.0925  1.1247  1.4832
18742SOL     OW67879   8.546   0.257   7.710 -0.0347 -0.1225 -0.1964
18742SOL    HW167880   8.540   0.353   7.739 -1.0370 -0.0076 -0.7497
18742SOL    HW267881   8.534   0.197   7.789  1.7913  0.2034  0.3536
18743SOL     OW67882   7.553   0.761   2.088  0.2859 -0.6875  0.2951
18743SOL    HW167883   7.512   0.840   2.133 -1.3750 -1.1533 -0.3443
18743SOL    HW267884   7.586   0.697   2.157 -0.3844 -0.4550  0.8389
18744SOL     OW67885   3.590   4.550   5.143 -0.2088  0.1089 -0.2757
18744SOL    HW167886   3.662   4.619   5.156 -0.3764  0.2194  0.0730
18744SOL    HW267887   3.587   4.523   5.047  1.5171 -1.2090  0.0141
18745SOL     OW67888   7.024   0.953   5.229 -0.6491 -0.0146  0.2527
18745SOL    HW167889   7.082   0.977   5.152 -0.3913  0.8351  0.7047
18745SOL    HW267890   6.999   0.857   5.224 -0.4464 -0.0100 -0.7651
18746SOL     OW67891   8.160   9.873   6.558  0.0426  0.3174  0.7270
18746SOL    HW167892   8.187   9.780   6.533  2.3041  1.0800  0.2517
18746SOL    HW267893   8.173   9.934   6.480 -1.3949  1.0542  1.0520
18747SOL     OW67894   9.470   4.746   6.718  0.1197  0.5344 -0.4343
18747SOL    HW167895   9.523   4.830   6.726  1.4947 -0.2322 -1.2519
18747SOL    HW267896   9.532   4.669   6.702 -0.9382 -0.9632  2.3261
18748SOL     OW67897   0.563   4.395   4.316 -0.6727 -0.1689  0.0847
18748SOL    HW167898   0.637   4.409   4.383 -0.5067 -0.6301  0.0027
18748SOL    HW267899   0.601   4.398   4.223 -0.3406 -2.6603  0.0865
18749SOL     OW67900   2.818   7.639   0.976  0.1261  0.3836 -1.4399
18749SOL    HW167901   2.856   7.582   1.049  0.7695  0.5894 -1.6105
18749SOL    HW267902   2.891   7.665   0.912 -0.2382  1.0638 -1.5856
18750SOL     OW67903   0.738   8.086   0.281 -0.2054  0.4769 -0.6811
18750SOL    HW167904   0.825   8.136   0.271 -1.2387  1.9472 -2.5513
18750SOL    HW267905   0.668   8.148   0.315 -1.2350  0.0557 -1.9864
18751SOL     OW67906   0.446   8.285   4.244  0.2989  0.0395  0.1928
18751SOL    HW167907   0.509   8.210   4.224 -0.3800 -0.2609 -0.8581
18751SOL    HW267908   0.394   8.308   4.162 -0.4359  0.7788  0.8527
18752SOL     OW67909   3.797   7.390   4.994 -0.0216  0.1073  0.1683
18752SOL    HW167910   3.710   7.385   5.043 -0.2080 -0.1355 -0.1840
18752SOL    HW267911   3.781   7.381   4.895  0.3905  0.1779  0.0920
18753SOL     OW67912   4.975   0.206   2.936 -0.1081  0.0618 -0.7368
18753SOL    HW167913   5.030   0.204   2.852 -0.6415 -0.6517 -1.0843
18753SOL    HW267914   4.879   0.195   2.912 -0.1056 -2.0405  0.0878
18754SOL     OW67915   3.803   7.516   1.174 -0.3176  0.7272 -0.0602
18754SOL    HW167916   3.735   7.478   1.111  0.2126  0.9554 -0.7729
18754SOL    HW267917   3.791   7.615   1.180 -1.1446  0.5623  1.1362
18755SOL     OW67918   0.773   6.487   7.004  0.3798  0.0455  0.5822
18755SOL    HW167919   0.700   6.456   7.064 -0.6613 -0.1261 -0.7628
18755SOL    HW267920   0.846   6.528   7.059 -0.3799 -0.4635  1.9866
18756SOL     OW67921   4.855   9.343   5.949  0.1094 -0.5899  0.3446
18756SOL    HW167922   4.861   9.256   5.901  0.8754  0.0871 -0.7964
18756SOL    HW267923   4.885   9.417   5.889 -0.5823  0.4727  1.2834
18757SOL     OW67924   8.660   8.693   6.943  0.0359  0.2407  0.4699
18757SOL    HW167925   8.708   8.629   7.002 -1.0724 -0.0109  1.1112
18757SOL    HW267926   8.571   8.716   6.984 -1.3963 -1.0865 -1.7761
18758SOL     OW67927   0.725   6.684   3.004  0.1615  0.5915 -0.0721
18758SOL    HW167928   0.770   6.681   3.093  0.5007  0.0572 -0.2601
18758SOL    HW267929   0.636   6.639   3.011 -0.9007  2.7185  0.6029
18759SOL     OW67930   2.920   8.863   4.637 -0.2982 -1.0254  0.3252
18759SOL    HW167931   2.842   8.924   4.622 -0.7174 -1.8942 -1.2284
18759SOL    HW267932   2.888   8.768   4.636  0.7541 -1.3809 -0.1602
18760SOL     OW67933   7.553   7.483   6.810 -0.3232  0.6984  0.2041
18760SOL    HW167934   7.479   7.450   6.870  0.7661  0.2691  1.3405
18760SOL    HW267935   7.636   7.494   6.864  1.2170 -1.5851 -1.6144
18761SOL     OW67936   0.961   6.056   6.246  0.1276  0.1413 -0.5730
18761SOL    HW167937   1.006   6.082   6.331  1.7793 -0.1513 -1.3508
18761SOL    HW267938   0.894   5.983   6.264  1.6801 -1.1045  0.1982
18762SOL     OW67939   5.425   9.437   2.057 -0.0577 -0.0668  0.5687
18762SOL    HW167940   5.479   9.516   2.088  1.4428 -1.3181  1.1883
18762SOL    HW267941   5.386   9.390   2.136 -0.5929 -0.2239  0.2172
18763SOL     OW67942   5.697   8.176   3.461 -0.2434  0.0217 -0.0959
18763SOL    HW167943   5.760   8.223   3.523 -1.7089 -0.2393  1.6361
18763SOL    HW267944   5.702   8.078   3.477 -0.8702 -0.0202 -0.1525
18764SOL     OW67945   1.434   9.632   4.274  0.1504 -0.3103 -0.0779
18764SOL    HW167946   1.378   9.595   4.349 -0.0686 -0.1365 -0.1546
18764SOL    HW267947   1.379   9.636   4.191  0.2125  0.0601 -0.1009
18765SOL     OW67948   3.017   8.813   2.006 -0.0006 -0.4759  0.3679
18765SOL    HW167949   2.919   8.804   1.989 -0.1737 -0.2128  1.2155
18765SOL    HW267950   3.044   8.909   1.998 -0.0862 -0.3481  1.5683
18766SOL     OW67951   4.062   2.926   4.318  0.3557 -0.6263  0.0224
18766SOL    HW167952   4.008   2.926   4.403 -0.6616 -0.7630 -0.6159
18766SOL    HW267953   4.057   2.836   4.276  2.1780 -1.0320  0.6272
18767SOL     OW67954   8.977   4.876   3.272  0.4636  0.1696 -0.4544
18767SOL    HW167955   8.966   4.779   3.250 -0.7083  0.2561 -0.2535
18767SOL    HW267956   9.013   4.885   3.365 -0.2602 -0.0495 -0.1539
18768SOL     OW67957   4.094   0.409   7.023 -0.2908 -0.4906  0.2473
18768SOL    HW167958   4.065   0.320   6.986  0.7753 -0.2851 -1.1348
18768SOL    HW267959   4.053   0.482   6.970  0.9291 -0.1857 -0.2877
18769SOL     OW67960   6.581   7.824   7.501  0.5915 -0.2812 -0.2696
18769SOL    HW167961   6.566   7.915   7.465  0.9552 -0.7119 -1.5210
18769SOL    HW267962   6.523   7.758   7.453 -0.0889 -0.6408  1.0012
18770SOL     OW67963   2.124   0.529   0.821 -0.3010 -0.2671 -0.3617
18770SOL    HW167964   2.126   0.564   0.727  0.1253 -0.9450 -0.6178
18770SOL    HW267965   2.084   0.597   0.882 -0.7143  0.1228 -1.0623
18771SOL     OW67966   1.184   3.382   3.956 -0.1411  0.3378 -0.2913
18771SOL    HW167967   1.197   3.288   3.989  1.2645  0.7162  0.2498
18771SOL    HW267968   1.088   3.395   3.932  0.1042 -2.0216 -2.8130
18772SOL     OW67969   2.520   9.651   6.743 -0.1514 -0.7023 -0.2268
18772SOL    HW167970   2.451   9.678   6.810 -0.2876 -2.0138  0.1661
18772SOL    HW267971   2.611   9.670   6.779 -0.2548 -0.2999 -0.1682
18773SOL     OW67972   7.552   2.318   3.936  0.0041 -0.1519 -0.6479
18773SOL    HW167973   7.476   2.365   3.981 -1.1093 -1.4164 -1.1915
18773SOL    HW267974   7.521   2.231   3.900  1.1703  0.2920 -2.8268
18774SOL     OW67975   3.563   2.828   0.455 -0.0431 -0.7678 -0.3786
18774SOL    HW167976   3.496   2.790   0.518  1.1022  0.0827  1.4127
18774SOL    HW267977   3.539   2.923   0.434  1.1868 -0.0650  1.2204
18775SOL     OW67978   9.733   3.717   2.682  0.2591 -0.2173  0.6223
18775SOL    HW167979   9.737   3.750   2.776 -2.1141 -2.0489  1.4141
18775SOL    HW267980   9.763   3.622   2.678 -0.2129 -0.3329 -0.3788
18776SOL     OW67981   2.836   3.879   7.147 -0.0153 -0.4820 -0.1367
18776SOL    HW167982   2.795   3.814   7.211 -1.5688 -0.2642 -0.9083
18776SOL    HW267983   2.886   3.830   7.076 -0.1706 -0.7823 -0.0367
18777SOL     OW67984   6.066   7.343   4.733 -0.0786  0.1308 -0.3097
18777SOL    HW167985   6.124   7.268   4.700 -1.4869 -0.4306 -1.6097
18777SOL    HW267986   6.119   7.404   4.790  1.2192 -1.6509  0.4377
18778SOL     OW67987   9.930   8.546   4.508 -0.3931  0.1060  0.0468
18778SOL    HW167988   9.973   8.465   4.468 -0.9287  0.5170 -1.3753
18778SOL    HW267989   9.946   8.546   4.607  2.6629  0.1702 -0.4214
18779SOL     OW67990   0.570   9.217   3.070 -0.3206 -0.7602  0.0681
18779SOL    HW167991   0.525   9.248   2.986  1.2336  1.9465  0.1849
18779SOL    HW267992   0.663   9.253   3.074 -0.4770 -0.5590  3.1251
18780SOL     OW67993   9.904   5.493   6.364 -0.0115  0.4207 -0.4436
18780SOL    HW167994   9.827   5.441   6.401 -0.7951  1.7041 -0.2332
18780SOL    HW267995   9.896   5.589   6.392  0.3205  1.0702 -2.4720
18781SOL     OW67996   2.907   7.176   1.123 -0.0373 -0.1805 -0.1078
18781SOL    HW167997   2.930   7.274   1.121 -0.0639 -0.1942 -2.0461
18781SOL    HW267998   2.827   7.161   1.180 -0.2739  0.9925 -0.1284
18782SOL     OW67999   3.078   9.847   5.064 -0.0496 -0.1110  0.2305
18782SOL    HW168000   3.098   9.821   5.158  1.5657 -0.4310 -0.1831
18782SOL    HW268001   3.139   9.798   5.002 -1.5581 -0.4345 -1.0501
18783SOL     OW68002   4.532   2.529   5.830 -0.1979  0.0144 -0.0374
18783SOL    HW168003   4.494   2.621   5.821 -1.1171 -0.3617 -0.1131
18783SOL    HW268004   4.488   2.482   5.907  1.1562  0.0645  0.7782
18784SOL     OW68005   2.818   8.606   4.669  0.1274 -0.4768  0.1016
18784SOL    HW168006   2.858   8.557   4.746 -2.4038 -0.3297  1.5767
18784SOL    HW268007   2.800   8.543   4.593 -1.1778 -1.4588  1.2086
18785SOL     OW68008   3.680   2.308   7.523  0.1076 -0.1888 -0.3015
18785SOL    HW168009   3.747   2.241   7.555 -1.1351 -0.9658  0.7152
18785SOL    HW268010   3.596   2.299   7.576 -0.2482  1.8728 -0.4653
18786SOL     OW68011   1.334   8.570   0.388 -0.2584 -0.5259  0.1107
18786SOL    HW168012   1.238   8.544   0.384 -0.0261 -1.2478 -1.0121
18786SOL    HW268013   1.344   8.651   0.446 -1.5200 -0.5241  0.3419
18787SOL     OW68014   8.398   5.529   7.506  0.0371  0.8696  0.3006
18787SOL    HW168015   8.472   5.583   7.547  2.5083 -1.1737 -1.2876
18787SOL    HW268016   8.437   5.464   7.440 -3.1821 -0.4672 -0.3767
18788SOL     OW68017   1.991   8.599   7.641  0.5608 -0.1602  0.5389
18788SOL    HW168018   2.038   8.671   7.589  0.1403 -0.6329 -0.5051
18788SOL    HW268019   1.908   8.637   7.682 -0.6157 -0.4608 -1.4896
18789SOL     OW68020   4.753   0.347   4.044 -0.0155  0.2987  0.1512
18789SOL    HW168021   4.659   0.319   4.058 -0.4920  2.8415  2.2940
18789SOL    HW268022   4.765   0.442   4.074  2.4019  1.2075 -3.3274
18790SOL     OW68023   8.318   2.846   3.256  0.3321 -0.9432  0.9318
18790SOL    HW168024   8.255   2.785   3.208 -1.2348 -0.0497  1.7862
18790SOL    HW268025   8.410   2.806   3.257  0.1020 -1.5765 -1.6044
18791SOL     OW68026   9.800   4.979   0.493  0.1342 -0.4341  0.4485
18791SOL    HW168027   9.812   4.981   0.394  1.2475  1.2933  0.5992
18791SOL    HW268028   9.885   4.948   0.536 -0.0422 -0.2639  0.9200
18792SOL     OW68029   6.434   0.736   1.965 -0.0441 -0.2875  0.1187
18792SOL    HW168030   6.427   0.800   2.042 -0.7202 -0.0327 -0.1436
18792SOL    HW268031   6.357   0.672   1.969  0.3493 -0.7595  0.0907
18793SOL     OW68032   6.130   4.037   0.849  0.0535  0.0776  1.1974
18793SOL    HW168033   6.092   3.976   0.780 -0.7190 -0.7961  2.3695
18793SOL    HW268034   6.058   4.062   0.914  1.0870 -0.3024  2.5244
18794SOL     OW68035   0.693   7.425   1.235 -0.0094  0.0828 -0.1251
18794SOL    HW168036   0.616   7.488   1.248 -0.1993  0.2959 -2.0834
18794SOL    HW268037   0.699   7.363   1.313 -1.5379  0.7353  0.5339
18795SOL     OW68038   8.346   6.048   4.723 -0.4689  0.2031  0.2950
18795SOL    HW168039   8.428   6.085   4.766 -0.9801 -0.0687  1.5296
18795SOL    HW268040   8.368   5.961   4.678 -0.4015 -0.6668  1.9739
18796SOL     OW68041   9.940   9.203   0.409  0.1989  0.0160  0.2384
18796SOL    HW168042   9.883   9.129   0.374  1.9806 -0.2572 -2.2092
18796SOL    HW268043   9.883   9.280   0.436 -1.3933 -0.6690 -1.0858
18797SOL     OW68044   8.518   1.124   6.938  0.1873 -0.1211  0.0584
18797SOL    HW168045   8.548   1.176   7.018 -0.0603 -1.3889  0.9819
18797SOL    HW268046   8.418   1.124   6.933  0.2001 -0.1124 -0.2072
18798SOL     OW68047   8.091   0.356   6.740  0.0982  0.4248  0.2534
18798SOL    HW168048   8.097   0.435   6.801  1.2576 -1.5451  2.7639
18798SOL    HW268049   8.039   0.283   6.784 -1.0542 -0.2002 -2.0857
18799SOL     OW68050   6.482   1.883   2.460 -0.3054 -0.0750 -0.3069
18799SOL    HW168051   6.402   1.886   2.400 -0.8808  2.5457  0.5138
18799SOL    HW268052   6.477   1.803   2.520 -1.1674 -1.1421 -1.7751
18800SOL     OW68053   3.755   4.061   0.947 -0.1790 -0.4165  0.6248
18800SOL    HW168054   3.800   4.095   1.030 -2.3196  1.7811  0.9345
18800SOL    HW268055   3.757   4.132   0.877 -3.2077 -0.2306  0.6789
18801SOL     OW68056   0.451   2.986   1.424  0.2289  0.0124  0.1170
18801SOL    HW168057   0.546   3.006   1.402 -0.3138  1.9349 -0.5977
18801SOL    HW268058   0.402   3.072   1.441 -1.1653 -1.0027  1.3549
18802SOL     OW68059   3.769   4.320   6.451 -0.0466  0.4374  0.3338
18802SOL    HW168060   3.748   4.235   6.402  0.1874 -0.0761  1.1038
18802SOL    HW268061   3.850   4.363   6.412  1.2477 -0.9420  1.4476
18803SOL     OW68062   4.266   9.506   1.281  0.1112  0.4653 -0.0014
18803SOL    HW168063   4.251   9.565   1.202  0.2168 -1.2188 -1.2918
18803SOL    HW268064   4.359   9.520   1.315 -0.2250  1.8428  0.4036
18804SOL     OW68065   6.433   8.966   5.260 -0.2358  0.5104  0.2339
18804SOL    HW168066   6.497   8.969   5.184 -0.0742 -1.8584  0.2563
18804SOL    HW268067   6.345   8.930   5.229 -0.2574 -0.1999  1.0951
18805SOL     OW68068   2.464   7.054   2.368  0.4516  0.2855  0.2077
18805SOL    HW168069   2.469   7.070   2.270 -0.5688 -0.4694  0.0258
18805SOL    HW268070   2.434   6.960   2.386  2.2739 -0.1258  1.2516
18806SOL     OW68071   2.934   5.635   4.640  0.4737 -0.1657 -0.4170
18806SOL    HW168072   3.001   5.561   4.642 -0.1387 -0.7317 -0.4954
18806SOL    HW268073   2.851   5.605   4.686  0.4535  0.7053  0.1077
18807SOL     OW68074   4.822   3.169   0.773  0.1284  0.4769  0.3849
18807SOL    HW168075   4.784   3.158   0.865 -1.5200  0.6731 -0.2689
18807SOL    HW268076   4.813   3.265   0.745  1.9744  0.7380  0.5794
18808SOL     OW68077   9.900   5.208   5.230 -0.5394 -0.2488 -0.1446
18808SOL    HW168078   9.801   5.212   5.246 -0.4852  0.2072  0.0887
18808SOL    HW268079   9.945   5.281   5.281 -0.0299 -0.7450  0.1248
18809SOL     OW68080   0.863   4.923   6.671 -0.0128 -0.2788 -0.2703
18809SOL    HW168081   0.948   4.895   6.626  0.4448 -1.3672  1.2431
18809SOL    HW268082   0.796   4.951   6.602  1.3244 -0.0878 -1.5095
18810SOL     OW68083   9.787   7.232   0.337 -0.1886 -0.0710  0.6939
18810SOL    HW168084   9.718   7.304   0.326  0.1014 -0.0925 -1.5418
18810SOL    HW268085   9.805   7.190   0.248  3.5190  0.6662  1.0188
18811SOL     OW68086   5.275   6.485   1.262 -0.1780  0.3233 -0.5970
18811SOL    HW168087   5.196   6.426   1.275 -0.2527  0.6241  0.3593
18811SOL    HW268088   5.359   6.435   1.284 -0.3540  1.0484  1.8588
18812SOL     OW68089   7.546   7.719   2.148 -0.2219  0.3011 -0.0318
18812SOL    HW168090   7.539   7.743   2.051 -0.1934  1.3112  0.2065
18812SOL    HW268091   7.536   7.802   2.203  0.6346 -0.1420  0.7992
18813SOL     OW68092   0.718   2.217   6.529  0.3542  0.5442 -0.4652
18813SOL    HW168093   0.737   2.284   6.457 -2.4099  1.6801 -0.2044
18813SOL    HW268094   0.697   2.266   6.614  1.7086 -0.7578  0.6375
18814SOL     OW68095   2.536   5.106   2.572  0.0536 -0.3447 -0.4065
18814SOL    HW168096   2.506   5.012   2.559  1.4169 -0.7454 -0.6869
18814SOL    HW268097   2.456   5.164   2.591 -0.6323 -1.7986  1.2783
18815SOL     OW68098   0.306   1.873   6.822 -0.4342 -0.0567 -0.0858
18815SOL    HW168099   0.304   1.968   6.853 -0.5177  0.2608 -1.0287
18815SOL    HW268100   0.359   1.868   6.737 -0.6531 -0.8188 -0.1774
18816SOL     OW68101   3.192   5.578   5.534 -0.2357 -0.3263  0.5513
18816SOL    HW168102   3.235   5.539   5.615 -0.3409 -0.9274  0.3209
18816SOL    HW268103   3.098   5.604   5.555 -0.1353 -0.1120  0.7330
18817SOL     OW68104   4.795   3.128   1.462 -0.2274  0.4192 -0.1472
18817SOL    HW168105   4.883   3.080   1.451 -1.0006 -0.7364 -1.4342
18817SOL    HW268106   4.725   3.061   1.486 -0.9060  1.2381  0.1373
18818SOL     OW68107   8.840   5.460   7.546  0.1522 -0.2051  0.2511
18818SOL    HW168108   8.858   5.552   7.512 -0.4728 -0.4981 -0.9181
18818SOL    HW268109   8.855   5.457   7.645  0.8133  0.9793  0.1961
18819SOL     OW68110   1.484   9.559   7.407 -0.4447  0.3701  0.2447
18819SOL    HW168111   1.461   9.559   7.504  0.5971 -0.3992  0.5084
18819SOL    HW268112   1.542   9.637   7.386 -0.2168  0.2348  0.3649
18820SOL     OW68113   1.419   1.072   0.818 -0.1909 -0.4990 -0.4887
18820SOL    HW168114   1.337   1.015   0.826  1.1698 -2.3675  0.3510
18820SOL    HW268115   1.427   1.130   0.899 -0.8615 -0.0408 -0.7399
18821SOL     OW68116   8.736   1.499   2.030  0.7539  0.2598  0.1226
18821SOL    HW168117   8.718   1.406   2.064  0.3579 -0.4778 -2.0032
18821SOL    HW268118   8.771   1.493   1.937  1.0403  2.2576  0.0954
18822SOL     OW68119   3.615   1.768   2.505  0.6728 -0.0292  0.4390
18822SOL    HW168120   3.603   1.764   2.604  1.0308 -0.2820  0.4705
18822SOL    HW268121   3.527   1.750   2.460  0.2787  1.1397  0.7224
18823SOL     OW68122   3.385   4.814   5.483 -0.2385 -0.4319 -0.2849
18823SOL    HW168123   3.318   4.775   5.546  1.2323  0.4846  1.9177
18823SOL    HW268124   3.377   4.914   5.485  1.0266 -0.3267 -0.1692
18824SOL     OW68125   7.677   8.978   3.749  0.2766  0.0622  0.3350
18824SOL    HW168126   7.674   8.973   3.849  0.2884 -0.2039  0.3227
18824SOL    HW268127   7.744   8.912   3.715  0.0634 -0.0491  0.1327
18825SOL     OW68128   5.696   2.558   5.511  0.2572  0.5496  0.2573
18825SOL    HW168129   5.795   2.551   5.520  0.1516 -1.1227  0.3610
18825SOL    HW268130   5.653   2.552   5.601  0.0675  1.5695  0.2411
18826SOL     OW68131   3.506   3.952   5.597  0.2043 -0.0844  0.3845
18826SOL    HW168132   3.457   3.865   5.588  1.0889 -0.6686  0.9991
18826SOL    HW268133   3.583   3.953   5.533  0.9079 -0.2688  1.2190
18827SOL     OW68134   7.184   6.590   3.775  0.1132  0.1307 -0.3295
18827SOL    HW168135   7.219   6.659   3.838 -0.4029  0.1010 -0.0110
18827SOL    HW268136   7.249   6.579   3.700  0.4537  0.5799 -0.1097
18828SOL     OW68137   0.777   5.931   9.794 -0.0109 -0.1385 -0.3750
18828SOL    HW168138   0.700   5.868   9.807 -1.7861  2.1043  0.2905
18828SOL    HW268139   0.795   5.942   9.696  2.3778 -4.0289 -0.4899
18829SOL     OW68140   2.895   1.458   0.541  0.1359  0.4061  0.3145
18829SOL    HW168141   2.904   1.442   0.443 -2.0048 -1.3102  0.3436
18829SOL    HW268142   2.804   1.495   0.560 -1.0006 -3.0029  1.9907
18830SOL     OW68143   8.339   2.290   5.182  0.4592 -0.0799  0.8576
18830SOL    HW168144   8.277   2.351   5.133  1.9629  0.7730 -0.0447
18830SOL    HW268145   8.289   2.242   5.254 -1.6630 -0.9512 -1.1379
18831SOL     OW68146   4.722   5.911   4.120 -0.1131 -0.0306  0.0701
18831SOL    HW168147   4.662   5.976   4.073  0.1223  0.2414  0.1387
18831SOL    HW268148   4.711   5.820   4.081 -0.1663  0.1280 -0.2794
18832SOL     OW68149   8.157   6.744   6.389 -0.4100  0.6583  0.4740
18832SOL    HW168150   8.240   6.693   6.410  0.1697  0.7170 -1.5136
18832SOL    HW268151   8.156   6.830   6.441  0.4287  0.3417  1.0243
18833SOL     OW68152   1.534   5.591   1.052  0.3012 -0.3405 -0.2359
18833SOL    HW168153   1.538   5.513   0.990 -2.0946  1.3315 -2.6344
18833SOL    HW268154   1.481   5.566   1.134  1.0888 -1.7285 -0.1370
18834SOL     OW68155   7.087   6.888   4.418 -0.0616  0.2025  0.2243
18834SOL    HW168156   7.044   6.806   4.382  1.1048  0.3222 -1.5090
18834SOL    HW268157   7.158   6.862   4.484  0.0004 -0.1615  0.0161
18835SOL     OW68158   3.056   8.827   3.685  0.5716  0.0121 -0.0516
18835SOL    HW168159   3.009   8.821   3.597  0.4977  3.4512 -0.3098
18835SOL    HW268160   2.992   8.806   3.759 -0.8659  2.6056 -0.5200
18836SOL     OW68161   6.823   1.007   6.818 -0.1427 -0.1333  0.4129
18836SOL    HW168162   6.734   1.049   6.834 -0.5022 -0.5842 -0.3762
18836SOL    HW268163   6.891   1.079   6.800 -0.9171  0.1075 -1.7039
18837SOL     OW68164   1.201   5.915   6.192 -0.2317  0.1336  0.1938
18837SOL    HW168165   1.137   5.989   6.173 -1.0797 -0.6694 -0.1374
18837SOL    HW268166   1.152   5.839   6.235  0.5775 -0.3200  0.3110
18838SOL     OW68167   8.417   8.251   1.145 -0.0235 -0.3638 -0.0066
18838SOL    HW168168   8.395   8.258   1.047 -0.1574 -0.9540 -0.0185
18838SOL    HW268169   8.475   8.171   1.160 -0.6131 -0.6922  0.5095
18839SOL     OW68170   0.465   1.567   3.481 -0.3737  0.1489  0.4442
18839SOL    HW168171   0.387   1.626   3.503  2.2479  3.8138  0.5404
18839SOL    HW268172   0.502   1.528   3.566 -1.2063 -0.4069  0.5530
18840SOL     OW68173   7.446   5.668   0.853 -0.3869 -0.2388  0.5204
18840SOL    HW168174   7.532   5.650   0.807 -1.1836 -0.7759 -0.7728
18840SOL    HW268175   7.424   5.766   0.847  0.6766  0.0976  1.8398
18841SOL     OW68176   2.414   9.039   2.046 -0.6457  0.6779  0.2757
18841SOL    HW168177   2.499   9.017   2.094 -0.8664  0.6249  0.6458
18841SOL    HW268178   2.342   8.977   2.077 -1.2887  1.9499  1.3746
18842SOL     OW68179   9.233   9.325   5.140 -0.0280  0.0058  0.6080
18842SOL    HW168180   9.179   9.329   5.056  3.1249  2.9347 -1.4781
18842SOL    HW268181   9.281   9.238   5.145 -1.2053 -0.6796 -0.0144
18843SOL     OW68182   2.323   1.336   4.900  0.2247 -0.5743 -0.1005
18843SOL    HW168183   2.247   1.275   4.878 -0.3620 -0.2144  0.8897
18843SOL    HW268184   2.294   1.401   4.970  1.8670 -1.2814  1.2494
18844SOL     OW68185   3.234   4.093   0.122  0.4685 -0.3205  0.1800
18844SOL    HW168186   3.218   4.192   0.112  1.5480  0.0159  1.5503
18844SOL    HW268187   3.251   4.072   0.218  0.7060 -1.7851 -0.1664
18845SOL     OW68188   4.530   9.957   3.290 -0.9420 -0.2579 -0.4447
18845SOL    HW168189   4.619   9.913   3.288 -0.8657 -0.1031 -0.4595
18845SOL    HW268190   4.512   9.993   3.382 -0.6020  0.5047 -0.6763
18846SOL     OW68191   3.200   4.338   5.534 -0.3135 -0.1496 -0.5249
18846SOL    HW168192   3.272   4.268   5.526 -0.9301 -0.8766  0.2015
18846SOL    HW268193   3.166   4.361   5.443  0.6655  0.0191 -0.8584
18847SOL     OW68194   9.559   4.179   7.669  0.2569 -0.3328  0.3791
18847SOL    HW168195   9.571   4.090   7.625 -0.2486 -0.6013  0.7791
18847SOL    HW268196   9.643   4.233   7.661  0.2561 -0.4852 -0.6813
18848SOL     OW68197   9.639   9.168   3.434 -0.0613  0.6269 -0.2634
18848SOL    HW168198   9.608   9.262   3.419 -0.7380  0.4021 -0.2932
18848SOL    HW268199   9.678   9.132   3.350  0.6101  1.0382 -0.1255
18849SOL     OW68200   9.320   2.533   5.022  0.6173 -0.0688  0.1327
18849SOL    HW168201   9.338   2.626   4.991 -0.7023  0.9549  2.3151
18849SOL    HW268202   9.390   2.506   5.089 -0.5234  0.3568  1.5012
18850SOL     OW68203   1.102   6.009   7.583  0.2687  0.3660 -0.0681
18850SOL    HW168204   1.107   5.909   7.574  1.4743  0.4679 -0.6837
18850SOL    HW268205   1.193   6.044   7.606 -0.2696  1.2775  0.7051
18851SOL     OW68206   0.184   7.613   3.368 -0.4759 -0.7108  0.8380
18851SOL    HW168207   0.247   7.538   3.387  0.0354 -0.2189  1.0869
18851SOL    HW268208   0.190   7.682   3.440 -0.1078  0.1177  0.0339
18852SOL     OW68209   0.176   8.938   1.170  0.4618  0.6917 -0.3739
18852SOL    HW168210   0.112   9.010   1.197  0.4955  1.1531 -1.4850
18852SOL    HW268211   0.138   8.886   1.093  1.5065  1.1226 -1.2013
18853SOL     OW68212   1.201   4.193   5.805  0.4602  0.4305 -0.2630
18853SOL    HW168213   1.187   4.233   5.714  0.6375 -0.2357 -0.5873
18853SOL    HW268214   1.238   4.101   5.795  1.4898  0.7580  0.5091
18854SOL     OW68215   1.189   7.216  10.027  0.1002  0.2751  0.5946
18854SOL    HW168216   1.278   7.233  10.072  0.8129 -0.8437 -0.3807
18854SOL    HW268217   1.204   7.167   9.942 -1.3712  1.2071 -0.2181
18855SOL     OW68218   2.978   8.422   3.203 -0.4861  0.5243  0.1115
18855SOL    HW168219   2.882   8.405   3.179 -0.0711 -0.4850 -0.8683
18855SOL    HW268220   3.037   8.361   3.151  0.6864  0.9387  0.9275
18856SOL     OW68221   9.538   1.456   3.877 -0.3237  0.0197  0.5572
18856SOL    HW168222   9.463   1.391   3.859  0.7476 -0.8578 -0.8389
18856SOL    HW268223   9.573   1.491   3.791  0.7648  0.5652  1.2085
18857SOL     OW68224   3.720   0.710   5.483  0.3075  0.1818 -0.8348
18857SOL    HW168225   3.753   0.616   5.479  0.4559  0.2295 -0.7134
18857SOL    HW268226   3.626   0.711   5.517 -0.2093 -0.0487 -2.2322
18858SOL     OW68227   9.544   0.113   5.557  0.3493  0.1010 -0.7597
18858SOL    HW168228   9.543   0.022   5.600 -2.6237  0.4988  0.1796
18858SOL    HW268229   9.613   0.170   5.601  0.2398 -0.8305  0.6789
18859SOL     OW68230   2.553   9.766   2.160  0.7334 -0.0896  0.7694
18859SOL    HW168231   2.506   9.811   2.085 -3.0228 -1.1619  2.3686
18859SOL    HW268232   2.583   9.834   2.227  1.2401  0.5912 -0.1532
18860SOL     OW68233   2.877   9.052   0.613  0.8481 -0.7404 -0.1469
18860SOL    HW168234   2.910   9.146   0.602 -1.4798 -0.0567 -1.8599
18860SOL    HW268235   2.827   9.025   0.531 -1.0835 -2.3970  1.5094
18861SOL     OW68236   4.043   5.055   6.390 -0.0607  0.3358  0.6614
18861SOL    HW168237   4.134   5.048   6.430  0.2393  0.8016  0.0505
18861SOL    HW268238   4.002   4.964   6.386  0.4451  0.1018  0.7657
18862SOL     OW68239   5.010   5.682   2.192  0.9449  0.6948  0.4752
18862SOL    HW168240   5.030   5.611   2.124 -1.3738 -1.5738  2.0534
18862SOL    HW268241   5.023   5.645   2.283  0.1742  2.4783  1.3325
18863SOL     OW68242   2.821   2.660   7.422  0.0946 -0.7951 -0.9113
18863SOL    HW168243   2.742   2.721   7.415 -0.3738 -1.4029 -0.9116
18863SOL    HW268244   2.817   2.610   7.509  1.0656 -0.0192 -0.3968
18864SOL     OW68245   8.752   6.971   3.356 -0.2666 -0.3392  0.1972
18864SOL    HW168246   8.774   7.061   3.320 -1.2224 -0.3134 -0.3445
18864SOL    HW268247   8.783   6.901   3.292  1.7073 -0.4749  1.2478
18865SOL     OW68248   6.129   9.583   8.229 -0.3946  0.4914 -0.3074
18865SOL    HW168249   6.079   9.499   8.212  0.3797 -0.0058 -0.1508
18865SOL    HW268250   6.065   9.660   8.232 -1.2277 -0.2122  0.4865
18866SOL     OW68251   6.249   4.428   1.578  0.0779  0.0431  0.0371
18866SOL    HW168252   6.167   4.457   1.529 -0.5507 -1.3889  0.2253
18866SOL    HW268253   6.330   4.467   1.534 -0.6819  1.2977 -0.2709
18867SOL     OW68254   9.360   2.321   6.709 -1.1215 -0.3761 -0.2288
18867SOL    HW168255   9.422   2.364   6.643 -0.9899  0.2844  0.3314
18867SOL    HW268256   9.412   2.291   6.789 -1.6023  0.5814  0.4393
18868SOL     OW68257   3.320   9.866   1.862  0.3168  0.5668 -0.4651
18868SOL    HW168258   3.347   9.827   1.773  1.3604  1.7636 -0.6852
18868SOL    HW268259   3.373   9.821   1.934  0.1062  0.2151 -0.5256
18869SOL     OW68260   5.933   3.828  10.063  0.1124  0.1537  0.4734
18869SOL    HW168261   5.865   3.884  10.015  0.3032 -0.8098 -0.9600
18869SOL    HW268262   5.968   3.758  10.000  0.3476 -1.1560  2.0479
18870SOL     OW68263   8.055   0.144   4.981 -0.0379 -0.0863  0.8554
18870SOL    HW168264   8.006   0.060   4.957 -1.6535  1.5023 -1.5877
18870SOL    HW268265   8.120   0.166   4.907  1.3401  0.1205  2.1061
18871SOL     OW68266   1.209   9.614   1.496 -0.1772 -0.1649  0.0866
18871SOL    HW168267   1.116   9.605   1.459 -0.2686  1.9474 -0.2478
18871SOL    HW268268   1.275   9.590   1.424 -0.4574 -1.7686  0.3554
18872SOL     OW68269   4.175   0.850   3.513  0.5300  0.3301  0.1462
18872SOL    HW168270   4.129   0.809   3.435  0.8043  0.4611 -0.0849
18872SOL    HW268271   4.106   0.887   3.576  0.3474  2.1190 -1.0683
18873SOL     OW68272   2.803   4.025   3.423 -0.4999  0.5138  0.4430
18873SOL    HW168273   2.751   3.947   3.458  1.4006 -0.3725  1.4087
18873SOL    HW268274   2.894   3.993   3.394 -0.1084  2.1872 -0.1905
18874SOL     OW68275   4.071   0.705   5.475  0.2713  0.9717 -0.0565
18874SOL    HW168276   4.142   0.660   5.529 -1.8500 -0.3286  1.7264
18874SOL    HW268277   3.994   0.642   5.463 -0.0450  1.8716 -3.1152
18875SOL     OW68278   2.146   5.931   7.789  0.4283 -0.0808  0.9395
18875SOL    HW168279   2.142   6.028   7.812  0.8237  0.3012 -0.5082
18875SOL    HW268280   2.223   5.889   7.837  0.5624  0.4328  1.1824
18876SOL     OW68281   6.272   0.040   3.707  0.6634  0.6166  0.0999
18876SOL    HW168282   6.280  -0.037   3.643  1.5670  1.8792 -1.3384
18876SOL    HW268283   6.185   0.087   3.691  0.3026  0.1584  0.6941
18877SOL     OW68284   0.063   2.508   3.738  0.5386 -0.2572  0.0433
18877SOL    HW168285  -0.022   2.462   3.712 -0.7389  2.2747 -0.3725
18877SOL    HW268286   0.096   2.564   3.661  2.2640 -0.7186  0.4133
18878SOL     OW68287   3.470   8.903   4.598  0.0059  0.5376 -0.3790
18878SOL    HW168288   3.515   8.820   4.631  0.1471  0.5929 -0.4337
18878SOL    HW268289   3.504   8.982   4.647  0.6251  0.6856 -1.0523
18879SOL     OW68290   4.934   4.525   0.562  0.7987  0.3368 -0.3416
18879SOL    HW168291   4.904   4.450   0.621  3.1253 -0.6688 -0.3814
18879SOL    HW268292   4.907   4.506   0.468 -0.2319  0.4760 -0.0902
18880SOL     OW68293   0.569   6.572   3.354  0.4811  0.1179  0.0220
18880SOL    HW168294   0.571   6.539   3.448  2.7166 -1.3663 -0.5048
18880SOL    HW268295   0.474   6.578   3.323 -0.2247 -0.4110  1.9984
18881SOL     OW68296   7.586   9.198   3.543  0.0273  0.1522  0.1823
18881SOL    HW168297   7.615   9.159   3.630  0.2296  1.0405  0.5125
18881SOL    HW268298   7.664   9.238   3.496 -0.4064  1.3424  0.4535
18882SOL     OW68299   8.356   4.162   0.658  0.0352  0.2041  0.4205
18882SOL    HW168300   8.265   4.145   0.695 -1.0489 -0.0343 -2.2469
18882SOL    HW268301   8.357   4.252   0.613  0.9214 -0.0769 -0.1276
18883SOL     OW68302   4.617   4.532   0.045  0.6445 -0.5519  0.1489
18883SOL    HW168303   4.629   4.608   0.108 -0.5085 -1.6379  1.7192
18883SOL    HW268304   4.665   4.551  -0.041  1.8633  1.1349  1.1893
18884SOL     OW68305   4.747   7.741   2.607  0.3097 -0.2897 -0.1769
18884SOL    HW168306   4.726   7.737   2.510 -1.4287 -1.8269  0.2237
18884SOL    HW268307   4.763   7.649   2.642  0.9610  0.2489  0.9793
18885SOL     OW68308   2.380   1.970   3.098 -0.0604  0.3778 -0.0729
18885SOL    HW168309   2.424   2.014   3.020 -0.0661 -1.1603 -0.9586
18885SOL    HW268310   2.449   1.924   3.153 -0.2945 -0.1337 -0.2112
18886SOL     OW68311   4.766   1.529  10.033  0.4265  0.2967 -0.0026
18886SOL    HW168312   4.827   1.451  10.018  0.0526 -0.1509  0.7835
18886SOL    HW268313   4.810   1.594  10.095 -0.4282 -0.6945  1.7129
18887SOL     OW68314   1.693   2.398   7.345 -0.3141  0.0255 -0.7137
18887SOL    HW168315   1.766   2.337   7.314 -1.5525 -1.7810 -0.1708
18887SOL    HW268316   1.604   2.356   7.327 -1.2310  2.0354 -1.0410
18888SOL     OW68317   2.115   2.523   3.392  0.0081  0.2343  0.0628
18888SOL    HW168318   2.086   2.439   3.437  0.6003  0.1548  0.3101
18888SOL    HW268319   2.056   2.542   3.314  0.5515 -1.0067 -0.6673
18889SOL     OW68320   2.376   3.525   2.919 -0.2247  0.5551  0.2583
18889SOL    HW168321   2.394   3.612   2.872 -0.7050  0.1465 -0.7019
18889SOL    HW268322   2.462   3.485   2.948  0.2946 -0.2390 -2.2241
18890SOL     OW68323   7.391   5.289   0.945  0.0931 -0.0797  0.5197
18890SOL    HW168324   7.329   5.355   0.903 -0.1266 -1.1885 -0.9366
18890SOL    HW268325   7.445   5.243   0.875 -0.8619 -2.5633  1.3228
18891SOL     OW68326   3.647   9.163   1.275  0.3084  0.2654 -0.2342
18891SOL    HW168327   3.741   9.148   1.304  0.7651  0.3263 -1.6724
18891SOL    HW268328   3.585   9.144   1.352  1.3783 -1.2245  0.2829
18892SOL     OW68329   9.832   5.739   6.453  0.4671 -0.0902  0.2170
18892SOL    HW168330   9.861   5.786   6.537 -1.1802 -0.7601  1.1801
18892SOL    HW268331   9.738   5.765   6.431  0.4031 -1.0294 -0.6288
18893SOL     OW68332   8.919   3.861   0.220  0.4599  0.5703 -0.0351
18893SOL    HW168333   9.016   3.838   0.212  0.2753  0.7177 -3.2175
18893SOL    HW268334   8.908   3.961   0.217  0.1866  0.5489  0.1887
18894SOL     OW68335   5.501   2.432   1.893  0.0384 -0.5233 -0.0167
18894SOL    HW168336   5.582   2.374   1.898 -0.9437 -1.7697  2.6654
18894SOL    HW268337   5.489   2.480   1.980 -0.9717  1.2504 -1.0951
18895SOL     OW68338   0.804   8.356   6.057  0.1631  0.4437 -0.2665
18895SOL    HW168339   0.736   8.396   6.119  0.7582  1.6438 -0.3733
18895SOL    HW268340   0.863   8.293   6.108 -0.7340 -0.2636 -0.0830
18896SOL     OW68341   7.678   7.197   3.559  0.0101 -0.3672 -0.6693
18896SOL    HW168342   7.736   7.270   3.596 -1.2880  0.1979  0.3177
18896SOL    HW268343   7.699   7.183   3.462  0.5010  1.0947 -0.7881
18897SOL     OW68344   9.125   7.576   6.059  0.1409 -0.2691  0.1644
18897SOL    HW168345   9.130   7.604   5.964 -0.3334  0.0906  0.2436
18897SOL    HW268346   9.167   7.646   6.117 -2.1719  0.9103  0.4777
18898SOL     OW68347   8.746   2.331   2.757 -0.2379 -0.2372  0.5960
18898SOL    HW168348   8.776   2.400   2.691 -0.4022 -1.2867 -0.5882
18898SOL    HW268349   8.678   2.372   2.819 -3.0081 -0.2389 -2.3195
18899SOL     OW68350   0.555   4.125   1.617  0.4676 -0.5016 -0.3606
18899SOL    HW168351   0.518   4.163   1.532  0.1382  0.8203  0.3624
18899SOL    HW268352   0.581   4.030   1.602  0.0509 -0.3974 -1.8385
18900SOL     OW68353   3.927   4.786   2.648  0.4061  0.2257 -0.8486
18900SOL    HW168354   3.970   4.866   2.690  1.2521  0.8877 -2.8668
18900SOL    HW268355   3.834   4.809   2.619  0.3743  0.2415 -0.7330
18901SOL     OW68356   2.354   5.847   3.432  0.0646 -0.1460 -0.6208
18901SOL    HW168357   2.446   5.810   3.447  0.8083  1.0045 -2.2014
18901SOL    HW268358   2.347   5.882   3.339 -1.5673  0.9859 -0.0901
18902SOL     OW68359   6.028   0.842   2.229  0.0271  0.0918 -0.0990
18902SOL    HW168360   5.989   0.784   2.300 -0.9924  0.5159 -0.2967
18902SOL    HW268361   6.033   0.791   2.143  1.9450 -0.6559  0.4391
18903SOL     OW68362   1.960   3.690   6.282 -0.3080  0.1383  0.0448
18903SOL    HW168363   1.903   3.677   6.200  0.0782 -0.0484 -0.1973
18903SOL    HW268364   1.903   3.683   6.364 -0.5706 -0.4426 -0.1813
18904SOL     OW68365   2.808   7.055   3.065  0.2813  0.0522  0.2690
18904SOL    HW168366   2.875   7.127   3.042 -0.8159  0.9268 -0.2547
18904SOL    HW268367   2.820   7.029   3.160  2.2534 -0.7606 -0.1693
18905SOL     OW68368   4.842   9.888   6.375  0.1083  0.6680 -0.3911
18905SOL    HW168369   4.930   9.907   6.333  0.4403 -0.1289 -0.0606
18905SOL    HW268370   4.782   9.844   6.308  0.4665 -0.1490 -0.1716
18906SOL     OW68371   2.201   2.747   4.573 -0.2303 -0.2359 -0.0622
18906SOL    HW168372   2.161   2.764   4.663  4.1686 -0.6292  2.1158
18906SOL    HW268373   2.201   2.649   4.554  0.7060 -0.3354  0.4438
18907SOL     OW68374   7.758   7.983   4.176  0.3322  0.1744  0.0622
18907SOL    HW168375   7.738   7.885   4.173 -2.1641  0.6618 -0.2732
18907SOL    HW268376   7.850   7.999   4.143  0.4215 -1.9787 -0.8074
18908SOL     OW68377   0.574   0.561   5.051  0.7316  0.4264 -0.3575
18908SOL    HW168378   0.644   0.521   5.109 -1.6156 -2.0679  0.8550
18908SOL    HW268379   0.585   0.528   4.957 -0.7526 -2.6247  0.4903
18909SOL     OW68380   9.987   0.198   5.329 -0.0359  0.1625 -0.1735
18909SOL    HW168381   9.921   0.236   5.264 -0.2021  1.7267  0.8855
18909SOL    HW268382  10.080   0.224   5.302 -0.0777  0.4653 -0.0363
18910SOL     OW68383   9.571   8.183   0.606 -0.3633  0.5180  0.0962
18910SOL    HW168384   9.529   8.151   0.691  2.2277 -2.1966  0.4054
18910SOL    HW268385   9.633   8.259   0.627  0.2394 -0.1154  0.6360
18911SOL     OW68386   9.385   6.483   0.700  0.7123 -0.1425  0.1606
18911SOL    HW168387   9.470   6.432   0.688  0.6347  0.2480 -2.4053
18911SOL    HW268388   9.384   6.562   0.639 -1.0739  0.4232  0.8702
18912SOL     OW68389   3.149   8.513   7.391 -0.0073 -0.4055 -0.3184
18912SOL    HW168390   3.062   8.563   7.391 -0.6964 -1.5836 -0.8155
18912SOL    HW268391   3.223   8.575   7.364 -1.1541 -0.1831 -3.1363
18913SOL     OW68392   5.134   0.594   4.002 -0.0047 -0.0009  0.3739
18913SOL    HW168393   5.109   0.596   3.905 -2.4521 -1.0535  0.9503
18913SOL    HW268394   5.179   0.679   4.026  0.5835  0.3051 -1.6722
18914SOL     OW68395   1.467   1.099   6.140 -0.3680 -0.1233  0.2165
18914SOL    HW168396   1.394   1.102   6.208 -0.9924 -0.8773 -0.4133
18914SOL    HW268397   1.436   1.049   6.059  1.4451 -2.0392  0.6547
18915SOL     OW68398   9.257   0.854   1.715 -0.1812  0.0096 -0.2608
18915SOL    HW168399   9.183   0.846   1.648  0.5662  2.1317 -1.3736
18915SOL    HW268400   9.327   0.915   1.680  2.1494 -1.9878  0.7698
18916SOL     OW68401   1.982   4.287   1.609 -0.1445 -0.3846 -0.1827
18916SOL    HW168402   1.991   4.191   1.636 -0.2760 -0.5056 -0.5551
18916SOL    HW268403   2.054   4.341   1.651 -0.1954 -0.6131  0.1967
18917SOL     OW68404   4.291   0.120   1.578 -0.1560  0.0596  0.0441
18917SOL    HW168405   4.282   0.138   1.676  0.0415  0.8961 -0.0855
18917SOL    HW268406   4.245   0.034   1.555  0.9981 -0.8573  1.1000
18918SOL     OW68407   9.544   3.395   1.618 -0.2460 -0.4283  0.3418
18918SOL    HW168408   9.603   3.348   1.684 -1.2033 -1.3186  0.5817
18918SOL    HW268409   9.485   3.328   1.573 -1.7392  0.5688  0.7851
18919SOL     OW68410   4.884   2.548   1.057  0.1065  0.5173  0.0446
18919SOL    HW168411   4.917   2.497   0.977 -0.9636  0.2351 -0.2268
18919SOL    HW268412   4.939   2.631   1.069  0.4380  0.4264 -0.8291
18920SOL     OW68413   1.148   4.637   6.077 -0.2955 -0.1829 -0.3266
18920SOL    HW168414   1.074   4.702   6.059 -0.1628  0.3670  1.0135
18920SOL    HW268415   1.223   4.684   6.122  1.2845 -0.5503 -2.5201
18921SOL     OW68416   6.474   9.165   4.612  0.9252  0.5541 -0.4654
18921SOL    HW168417   6.456   9.187   4.708 -0.0838  0.1154 -0.5461
18921SOL    HW268418   6.494   9.067   4.603 -3.5918 -0.4244 -1.2693
18922SOL     OW68419   1.612   8.977   3.164  0.0285  0.2328  0.4530
18922SOL    HW168420   1.540   8.919   3.200  1.3107 -1.2438  0.6796
18922SOL    HW268421   1.651   9.032   3.238  0.2521 -0.1854  0.6474
18923SOL     OW68422   5.015   7.710   1.208  0.3749  0.3857 -0.3841
18923SOL    HW168423   5.047   7.780   1.143 -0.1532 -1.0689 -2.2707
18923SOL    HW268424   4.946   7.653   1.163 -0.6410 -0.1287  1.7776
18924SOL     OW68425   0.947   1.428   4.829  0.8380  0.1731 -0.4062
18924SOL    HW168426   1.027   1.475   4.790  0.9906 -0.3468 -0.7223
18924SOL    HW268427   0.932   1.461   4.922  1.7834 -0.1483 -0.1278
18925SOL     OW68428   0.628   9.623   5.728  0.4690 -0.3730 -0.3360
18925SOL    HW168429   0.546   9.602   5.781 -0.3100  0.1919 -1.3148
18925SOL    HW268430   0.613   9.603   5.632  1.6465 -0.7258 -0.4565
18926SOL     OW68431   1.581   8.745  10.020 -0.0215  0.1794  0.4341
18926SOL    HW168432   1.540   8.667  10.068 -1.3974 -0.5053 -1.7715
18926SOL    HW268433   1.509   8.806   9.987  0.8986  0.6524 -0.7383
18927SOL     OW68434   8.166   7.753   7.982  0.7042 -0.0011  0.4111
18927SOL    HW168435   8.145   7.739   7.886 -1.0335  0.8489  0.6406
18927SOL    HW268436   8.142   7.672   8.034  0.2633  0.0796  0.3318
18928SOL     OW68437   3.822   9.613   0.146 -0.1594 -0.4524  0.2925
18928SOL    HW168438   3.832   9.647   0.239  0.4073 -0.3092  0.1829
18928SOL    HW268439   3.794   9.689   0.086  1.8657  0.0065 -0.0931
18929SOL     OW68440   0.789   1.323   1.447  0.0069 -0.2962  0.1971
18929SOL    HW168441   0.751   1.245   1.497  0.5448  0.6730  2.1920
18929SOL    HW268442   0.866   1.361   1.499 -0.5414  1.8336 -0.5103
18930SOL     OW68443   6.965   4.867  10.031  0.1652  0.2922 -0.4324
18930SOL    HW168444   6.983   4.867  10.130 -0.3282  0.9640 -0.3374
18930SOL    HW268445   7.049   4.843   9.982  0.0422 -1.4919  0.2063
18931SOL     OW68446   9.914   6.377   6.292  0.4563 -0.3831  0.4549
18931SOL    HW168447  10.000   6.335   6.264  0.7844  0.2917  0.4588
18931SOL    HW268448   9.874   6.425   6.214  1.8094  2.2551  1.3541
18932SOL     OW68449   1.223   1.572   5.206  0.3128 -0.5020 -0.2173
18932SOL    HW168450   1.241   1.651   5.146 -0.7906  0.6488  0.9490
18932SOL    HW268451   1.300   1.560   5.268  0.5972 -0.5084 -0.5649
18933SOL     OW68452   1.531   7.702   4.584 -0.1802  0.6968 -0.3400
18933SOL    HW168453   1.573   7.654   4.507 -2.7857 -1.6476 -0.4205
18933SOL    HW268454   1.447   7.747   4.554  0.6769  2.8404  0.3977
18934SOL     OW68455   9.007   0.759   5.822  0.3348 -0.3440  0.3365
18934SOL    HW168456   9.015   0.787   5.918  0.2156  1.0101 -0.0282
18934SOL    HW268457   8.969   0.667   5.816 -1.4133  0.2821  1.5459
18935SOL     OW68458   5.076   9.723   4.279 -0.3332 -0.0413  0.0791
18935SOL    HW168459   5.027   9.646   4.320 -0.3514  0.2050  0.5258
18935SOL    HW268460   5.126   9.691   4.198  0.8732 -0.8611  1.1138
18936SOL     OW68461   9.123   2.357   0.958  0.0840 -0.0395 -0.0737
18936SOL    HW168462   9.093   2.262   0.963  0.9791 -0.3878 -1.1026
18936SOL    HW268463   9.219   2.363   0.985  0.3320  0.4017 -1.0299
18937SOL     OW68464   7.496   2.745   4.329  0.1495 -0.0284 -0.0125
18937SOL    HW168465   7.463   2.774   4.239 -0.8975  0.1217  0.4253
18937SOL    HW268466   7.420   2.714   4.385  0.6831  0.7327  1.1596
18938SOL     OW68467   6.128   1.641   7.244  0.2877  0.5739 -0.1757
18938SOL    HW168468   6.077   1.707   7.190 -0.1525 -0.4706 -1.0401
18938SOL    HW268469   6.137   1.675   7.338 -1.5989  0.9838 -0.1232
18939SOL     OW68470   8.546   9.178   6.518  0.1723 -0.1449 -0.7193
18939SOL    HW168471   8.628   9.174   6.575  0.4305  0.8370 -1.0156
18939SOL    HW268472   8.466   9.192   6.577  0.4333  0.8249 -0.5911
18940SOL     OW68473   4.222   5.919   1.529 -0.1033  0.4130  0.3943
18940SOL    HW168474   4.142   5.973   1.501 -0.2352 -0.3231 -0.6599
18940SOL    HW268475   4.216   5.827   1.490  0.1311 -0.3833  2.1602
18941SOL     OW68476   7.469   1.182   3.298 -0.0470  0.3627  0.4143
18941SOL    HW168477   7.555   1.232   3.289  0.8834 -1.3367 -0.5264
18941SOL    HW268478   7.393   1.246   3.309  1.1824  1.9218 -0.0558
18942SOL     OW68479   0.523   3.430   2.740  0.8553 -0.2329  0.3642
18942SOL    HW168480   0.579   3.465   2.815  1.8323  1.8247 -1.2931
18942SOL    HW268481   0.426   3.451   2.757  0.8329 -1.5256  1.9720
18943SOL     OW68482   2.602   2.907   3.004  0.0858 -0.2139  0.2334
18943SOL    HW168483   2.675   2.869   2.947  0.7665 -1.1458  1.6827
18943SOL    HW268484   2.555   2.832   3.050 -0.2447  0.5445  1.1291
18944SOL     OW68485   4.198   9.197   5.741 -0.0304  0.0936 -0.2094
18944SOL    HW168486   4.157   9.128   5.801  0.9239  0.6007  1.0649
18944SOL    HW268487   4.292   9.214   5.771  0.2570  0.8087 -1.4941
18945SOL     OW68488   0.293   1.530   0.557 -0.5748  0.2064 -0.0242
18945SOL    HW168489   0.199   1.560   0.576  0.3195  2.6017  0.7772
18945SOL    HW268490   0.307   1.524   0.458 -1.5828 -0.2186 -0.1485
18946SOL     OW68491   0.582   5.559   1.430  0.3931  0.5254  0.4929
18946SOL    HW168492   0.567   5.477   1.486  1.6235  0.7944  1.2365
18946SOL    HW268493   0.497   5.611   1.422 -0.2499 -0.5143  0.5063
18947SOL     OW68494   9.693   3.782   3.922 -0.3105 -0.1707 -0.8664
18947SOL    HW168495   9.660   3.723   3.848 -0.9418 -0.1886 -0.5746
18947SOL    HW268496   9.616   3.809   3.980 -0.3587  2.5689 -2.1183
18948SOL     OW68497   6.664   9.845   4.023 -0.4537  0.7517 -0.1005
18948SOL    HW168498   6.575   9.870   3.984 -0.9807 -2.0794 -0.8397
18948SOL    HW268499   6.669   9.876   4.117 -1.4999  2.5290 -0.6004
18949SOL     OW68500   5.342   8.833   3.480  0.1748  0.3598 -0.2730
18949SOL    HW168501   5.363   8.856   3.385  1.5371  2.6398  0.5481
18949SOL    HW268502   5.267   8.767   3.482 -0.8917  1.4220 -2.8868
18950SOL     OW68503   2.883   9.062   1.303 -0.5177 -0.4945 -0.0133
18950SOL    HW168504   2.914   9.011   1.222  2.1803 -0.7366  1.1209
18950SOL    HW268505   2.858   9.155   1.276 -1.5418 -1.1612 -1.4403
18951SOL     OW68506   1.572   7.527   2.370 -0.4367 -0.1179 -0.2673
18951SOL    HW168507   1.671   7.531   2.356 -0.2862  0.5021  0.9226
18951SOL    HW268508   1.539   7.434   2.351  0.8387 -1.1426  2.2395
18952SOL     OW68509   2.505   8.242   7.429  0.7055 -0.0845  0.6392
18952SOL    HW168510   2.490   8.195   7.342  0.5889  0.8818  0.1290
18952SOL    HW268511   2.549   8.180   7.493 -0.3153 -1.1852  0.2894
18953SOL     OW68512   9.981   6.740   2.447  0.3469  0.0454 -0.1541
18953SOL    HW168513  10.018   6.670   2.508  0.8371  2.0040  1.8552
18953SOL    HW268514  10.029   6.827   2.462 -2.7446  1.7864  0.1305
18954SOL     OW68515   5.877   9.448   4.654  0.5885  0.1489  0.1170
18954SOL    HW168516   5.896   9.493   4.741 -2.1751  1.4554  0.1091
18954SOL    HW268517   5.804   9.381   4.666  0.8883 -0.3933 -0.9956
18955SOL     OW68518   1.024   7.968   6.939 -0.2435 -0.0188 -0.2904
18955SOL    HW168519   0.998   8.063   6.953  0.2238  0.1635 -0.6346
18955SOL    HW268520   1.087   7.940   7.012  0.3657  0.2280 -0.7126
18956SOL     OW68521   9.865   1.566   0.863  0.0009  1.2779  0.8104
18956SOL    HW168522   9.817   1.561   0.950 -1.0987  1.1228  0.1910
18956SOL    HW268523   9.814   1.518   0.792  2.1891 -0.8800  0.6396
18957SOL     OW68524   2.011   2.377   2.151  0.2414  0.5146 -0.6468
18957SOL    HW168525   1.949   2.320   2.205  1.8510  1.1045  1.9321
18957SOL    HW268526   1.975   2.470   2.147 -0.2811  0.2909 -1.3020
18958SOL     OW68527   0.400   9.718   7.666  0.1855  0.4282  0.2523
18958SOL    HW168528   0.406   9.749   7.761  1.9750 -2.7855  1.2399
18958SOL    HW268529   0.383   9.797   7.606 -3.2329  2.2514  3.4040
18959SOL     OW68530   3.779   8.102   7.235 -0.0532  0.1514  0.0972
18959SOL    HW168531   3.682   8.119   7.248 -0.0640 -0.7554  1.2210
18959SOL    HW268532   3.791   8.030   7.166 -0.2190 -0.8045  1.0668
18960SOL     OW68533   4.832   1.683   7.320 -0.3591 -0.0557 -0.3900
18960SOL    HW168534   4.773   1.764   7.320  0.0533  0.2787 -1.9011
18960SOL    HW268535   4.825   1.636   7.407 -2.4361  0.2928 -0.3508
18961SOL     OW68536   2.026   0.677   5.598  0.6943 -0.4045  0.0254
18961SOL    HW168537   2.010   0.759   5.543  1.0989 -1.2206 -1.3475
18961SOL    HW268538   2.025   0.596   5.539  0.6485 -1.3604  1.3026
18962SOL     OW68539   3.175   9.857   6.074  0.0453  0.4259  0.4370
18962SOL    HW168540   3.260   9.806   6.088  1.1683  2.0925 -0.2847
18962SOL    HW268541   3.162   9.875   5.977 -1.8526 -1.0250  0.4059
18963SOL     OW68542   0.076   2.439   6.343  0.2117  0.2682 -0.4442
18963SOL    HW168543   0.081   2.427   6.442 -0.2004 -3.2390 -0.7861
18963SOL    HW268544   0.068   2.536   6.322  1.0367  1.1347  2.9105
18964SOL     OW68545   5.098   9.118   1.103  0.1741  0.4864  0.0966
18964SOL    HW168546   5.163   9.044   1.119 -0.0995  0.1177 -0.5136
18964SOL    HW268547   5.070   9.157   1.192 -0.3229 -0.6941  0.4634
18965SOL     OW68548   9.967   4.087   7.394 -0.1211 -0.0984 -0.0867
18965SOL    HW168549  10.040   4.035   7.439  0.1056  0.1323 -0.1937
18965SOL    HW268550   9.997   4.116   7.303 -0.4050 -0.1426 -0.1967
18966SOL     OW68551   8.557   5.848   5.598 -0.1039 -0.1166 -0.3636
18966SOL    HW168552   8.604   5.899   5.670  0.3316 -0.4305 -0.4212
18966SOL    HW268553   8.501   5.910   5.544  0.5049  0.3205 -0.4947
18967SOL     OW68554   3.634   6.765   5.595  1.4075  0.0493 -0.2684
18967SOL    HW168555   3.719   6.761   5.543  1.3724  0.5960 -0.3788
18967SOL    HW268556   3.624   6.857   5.635 -0.0472  0.6119 -1.8385
18968SOL     OW68557   9.397   9.349   1.459  0.1741  0.0471  0.0284
18968SOL    HW168558   9.444   9.322   1.543  1.3740 -1.7627 -1.1828
18968SOL    HW268559   9.413   9.446   1.442  2.2490 -0.1972  0.4539
18969SOL     OW68560   2.333   9.543   5.808  0.1457 -0.6177 -0.4147
18969SOL    HW168561   2.260   9.496   5.856  0.3002 -0.8020 -0.3586
18969SOL    HW268562   2.393   9.476   5.763 -0.9562 -0.3868 -2.2940
18970SOL     OW68563   1.607   9.882   2.400 -0.2793  0.4928 -0.1678
18970SOL    HW168564   1.674   9.809   2.411 -1.9960 -1.0054  0.5342
18970SOL    HW268565   1.523   9.859   2.449 -1.3157  2.3544 -0.9976
18971SOL     OW68566   7.551   2.276   2.957 -0.3426 -0.1562 -0.1976
18971SOL    HW168567   7.594   2.357   2.916 -2.4752 -0.6039 -3.4926
18971SOL    HW268568   7.597   2.194   2.924 -0.1663 -0.4253  0.7030
18972SOL     OW68569   3.080   8.835   0.700  0.0412 -0.1680 -0.5568
18972SOL    HW168570   3.002   8.772   0.700  1.3452 -1.8242  0.6539
18972SOL    HW268571   3.047   8.929   0.686 -2.3366 -0.6494  1.4115
18973SOL     OW68572   7.436   1.001   5.340 -0.0211 -0.2791  0.3450
18973SOL    HW168573   7.530   0.976   5.362  0.8155 -0.5076 -3.3048
18973SOL    HW268574   7.387   0.922   5.304 -0.9153  0.4140 -0.0025
18974SOL     OW68575   9.140   3.773   4.545 -0.2737  0.6090  0.2226
18974SOL    HW168576   9.058   3.721   4.564 -0.3509  0.4613 -0.5186
18974SOL    HW268577   9.217   3.736   4.598 -0.2012 -0.6093 -0.7191
18975SOL     OW68578   9.781   8.491   6.974 -0.1166  0.6238  0.3305
18975SOL    HW168579   9.813   8.397   6.963 -0.2253  0.8204 -1.9016
18975SOL    HW268580   9.857   8.548   7.006  0.0160 -0.1670  1.4422
18976SOL     OW68581   7.309   0.134   4.735 -0.1498 -0.2937  0.4228
18976SOL    HW168582   7.298   0.039   4.704 -1.9209  0.1946 -0.5089
18976SOL    HW268583   7.242   0.154   4.805  1.3432 -0.2206  1.8515
18977SOL     OW68584   6.413   0.068   3.455  0.2639 -0.0658  0.0056
18977SOL    HW168585   6.375   0.131   3.388  2.2481  0.8468 -0.3165
18977SOL    HW268586   6.350  -0.008   3.470 -1.5108  1.2395 -0.6859
18978SOL     OW68587   1.826   0.452   1.878  0.1542 -0.1798 -0.1388
18978SOL    HW168588   1.740   0.444   1.928 -0.6778  2.0623 -1.1566
18978SOL    HW268589   1.811   0.428   1.782  0.5227  0.8500 -0.4544
18979SOL     OW68590   8.080   8.330   6.425  0.7636  0.0846 -0.0049
18979SOL    HW168591   8.045   8.239   6.404 -1.9601  0.3294  3.0554
18979SOL    HW268592   8.037   8.397   6.365 -0.9222 -0.1277  0.9335
18980SOL     OW68593   8.947   9.799   5.881  0.4953 -0.3113 -0.7445
18980SOL    HW168594   9.038   9.780   5.844  1.1443  2.1931 -0.5147
18980SOL    HW268595   8.947   9.781   5.980 -0.0521 -2.9102 -1.1819
18981SOL     OW68596   6.381   0.464   3.604  0.1173  0.1407  0.7305
18981SOL    HW168597   6.458   0.399   3.606  0.2420  0.2144 -1.0556
18981SOL    HW268598   6.356   0.483   3.509 -2.4880 -0.3131  1.2999
18982SOL     OW68599   0.233   7.972   2.376 -0.3797  0.4142 -0.2925
18982SOL    HW168600   0.230   7.872   2.366 -0.7951  0.1724  1.9577
18982SOL    HW268601   0.152   8.003   2.426  0.6309  1.6660  0.6003
18983SOL     OW68602   5.015   8.611   5.156 -0.2199 -0.6743 -0.1877
18983SOL    HW168603   4.932   8.667   5.148 -0.1656 -0.6846 -0.7979
18983SOL    HW268604   5.066   8.641   5.237 -1.8350 -2.0221  1.3766
18984SOL     OW68605   6.824   8.773   7.761 -0.0663  0.4677  0.3631
18984SOL    HW168606   6.789   8.715   7.834  0.3868  1.3367  1.2800
18984SOL    HW268607   6.921   8.753   7.745 -0.2207  0.1178 -0.1713
18985SOL     OW68608   9.741   6.767   1.423 -0.4666 -0.3471  0.0575
18985SOL    HW168609   9.753   6.725   1.513  0.4753  0.3454  0.2640
18985SOL    HW268610   9.816   6.831   1.407  0.5812 -2.0437 -2.1139
18986SOL     OW68611   3.726   9.160   3.308 -0.0133  0.9310 -0.2831
18986SOL    HW168612   3.653   9.229   3.309 -1.1436 -0.2130 -1.1851
18986SOL    HW268613   3.697   9.083   3.252  1.8358  0.3614 -0.4834
18987SOL     OW68614   1.906   3.282   3.652  0.0968 -0.2398 -0.1531
18987SOL    HW168615   1.937   3.194   3.618 -0.1905 -0.7124  0.7771
18987SOL    HW268616   1.977   3.322   3.710  0.5998  0.5748 -1.3179
18988SOL     OW68617   9.321   3.533   1.697  0.2121  0.3984  0.0215
18988SOL    HW168618   9.405   3.482   1.678  1.4961  1.8806  1.5284
18988SOL    HW268619   9.266   3.483   1.763  0.2462 -0.2604 -0.4527
18989SOL     OW68620   8.347   0.745   7.736 -0.1484  0.0120  0.2246
18989SOL    HW168621   8.391   0.792   7.661 -1.3445  0.1476 -0.4131
18989SOL    HW268622   8.268   0.798   7.768 -0.3369 -0.5954  0.8075
18990SOL     OW68623   8.949   1.263   5.722 -0.3257  0.9807 -0.4168
18990SOL    HW168624   8.987   1.174   5.697 -1.2337  0.5309 -0.2188
18990SOL    HW268625   9.018   1.334   5.709  1.4112 -0.1265  2.2191
18991SOL     OW68626   9.272   0.024   6.080 -0.0801  0.0659 -0.0368
18991SOL    HW168627   9.331   0.059   6.008  0.2783  1.1524  0.7747
18991SOL    HW268628   9.296  -0.071   6.099  0.2919 -0.0092 -0.8580
18992SOL     OW68629   4.961   1.372   6.391  0.7491  0.2599 -0.1998
18992SOL    HW168630   4.952   1.471   6.396  0.1733  0.2210 -0.5082
18992SOL    HW268631   4.986   1.345   6.298  0.5173  0.0858 -0.2123
18993SOL     OW68632   2.032   0.117   3.087 -0.2727 -0.4430 -0.5029
18993SOL    HW168633   2.120   0.159   3.107 -0.7162  0.6106 -0.7182
18993SOL    HW268634   2.000   0.146   2.997 -1.2992 -0.0123 -0.0163
18994SOL     OW68635   5.766   5.050   2.721 -0.1128 -0.4943 -0.6613
18994SOL    HW168636   5.860   5.083   2.717  0.2323 -1.5184 -1.5408
18994SOL    HW268637   5.704   5.127   2.729  0.7113  0.3193 -1.8543
18995SOL     OW68638   0.631   2.013   6.091 -0.2984 -0.6674  0.1859
18995SOL    HW168639   0.627   1.924   6.138  1.7891 -0.6751  0.3976
18995SOL    HW268640   0.727   2.037   6.074 -0.9231  0.7512 -1.3972
18996SOL     OW68641   2.894   0.776   2.977  0.0821 -0.2906  0.4544
18996SOL    HW168642   2.820   0.774   2.910  0.2912 -0.1917  0.2192
18996SOL    HW268643   2.859   0.809   3.064 -0.0999 -0.0181  0.2777
18997SOL     OW68644   8.195   9.670   3.183 -0.0743  0.5541 -0.1899
18997SOL    HW168645   8.156   9.762   3.185  1.3353  1.1661 -0.0134
18997SOL    HW268646   8.265   9.665   3.112 -0.2905 -0.4436 -0.3394
18998SOL     OW68647   9.640   8.575   0.229 -0.2106  0.0976  0.4589
18998SOL    HW168648   9.702   8.653   0.231 -0.7327  0.5111  0.6775
18998SOL    HW268649   9.567   8.589   0.296 -0.6000 -0.3329  0.1257
18999SOL     OW68650   6.423   9.447   1.469 -0.6181 -0.5060 -0.1348
18999SOL    HW168651   6.350   9.473   1.533 -0.7266  1.3081 -0.9573
18999SOL    HW268652   6.388   9.379   1.404 -1.8120  0.8322 -0.9336
19000SOL     OW68653   8.432   9.577   1.146  0.0529 -0.3434  0.3793
19000SOL    HW168654   8.480   9.631   1.215 -0.5533  1.5732 -0.6626
19000SOL    HW268655   8.338   9.561   1.175 -0.2921  0.7279 -0.1239
19001SOL     OW68656   5.222   1.130   5.847 -0.3613 -0.9151 -0.3571
19001SOL    HW168657   5.148   1.124   5.779  0.6827  0.3610 -1.6429
19001SOL    HW268658   5.296   1.069   5.821 -0.2952 -1.0142  0.0652
19002SOL     OW68659   2.836   7.455   6.544 -0.7961  0.0096  0.4269
19002SOL    HW168660   2.929   7.465   6.509 -1.1021  0.3569 -0.3099
19002SOL    HW268661   2.785   7.540   6.528 -1.3401 -0.2967  0.5160
19003SOL     OW68662   3.349   2.844   7.077 -0.2138  0.2494  0.4690
19003SOL    HW168663   3.318   2.752   7.054 -0.4562  0.4728 -0.1003
19003SOL    HW268664   3.282   2.911   7.044  0.0965  0.6471  0.6383
19004SOL     OW68665   8.728   7.928   5.515  0.0043 -0.3847 -0.4292
19004SOL    HW168666   8.786   8.009   5.508  0.2572 -0.6286 -1.1940
19004SOL    HW268667   8.775   7.849   5.476  0.2464 -1.1677  1.4014
19005SOL     OW68668   8.902   4.339   3.184 -0.4906  0.5230 -0.0545
19005SOL    HW168669   8.844   4.320   3.263  1.1784 -1.3998  0.7615
19005SOL    HW268670   8.850   4.321   3.100 -2.2500  2.5075  0.5792
19006SOL     OW68671   3.315   2.021   0.976  0.3853  0.3358  0.3447
19006SOL    HW168672   3.365   2.095   1.020  0.9639 -0.0289  0.3101
19006SOL    HW268673   3.366   1.935   0.986  0.6407  0.2862 -1.2292
19007SOL     OW68674   7.363   5.897   0.600  0.2106 -0.3884 -0.1645
19007SOL    HW168675   7.319   5.873   0.513 -0.2676  1.2965 -0.3983
19007SOL    HW268676   7.294   5.912   0.669  0.4775  0.8105 -0.1525
19008SOL     OW68677   1.878   6.353   3.949  0.1434  0.0261  0.3018
19008SOL    HW168678   1.838   6.417   4.014 -1.3429  0.2285 -0.7730
19008SOL    HW268679   1.875   6.392   3.857  1.5583 -0.5492 -0.0134
19009SOL     OW68680   0.544   0.442   3.403 -0.2962 -0.0199  0.0659
19009SOL    HW168681   0.629   0.399   3.373 -0.4899  0.3923 -1.1249
19009SOL    HW268682   0.565   0.526   3.454  0.0366 -0.6228  0.9208
19010SOL     OW68683   0.899   4.334   1.301 -0.1479  0.3361 -0.1292
19010SOL    HW168684   0.972   4.373   1.245  0.2815  1.5570  1.2367
19010SOL    HW268685   0.867   4.403   1.366 -2.1186 -0.3855 -0.3173
19011SOL     OW68686   1.573   6.806   6.776  0.1976 -0.2632 -0.4860
19011SOL    HW168687   1.493   6.858   6.805  1.6651  2.1223 -0.5273
19011SOL    HW268688   1.632   6.788   6.855  1.4901  1.4218 -1.0173
19012SOL     OW68689   3.430   1.363   3.819  0.1000  0.1366 -0.6261
19012SOL    HW168690   3.508   1.316   3.777 -0.6048 -2.0748  0.4892
19012SOL    HW268691   3.461   1.450   3.858  1.4979  0.4477 -2.3680
19013SOL     OW68692   2.501   6.624   9.930 -0.0746 -0.4443  0.0038
19013SOL    HW168693   2.589   6.589   9.961 -1.3247 -1.1832  2.9159
19013SOL    HW268694   2.428   6.575   9.977 -2.0393  0.4932 -1.9997
19014SOL     OW68695   4.048   7.718   5.580 -0.1297 -0.8208  0.2805
19014SOL    HW168696   3.993   7.747   5.502 -0.1077 -0.3877  0.4239
19014SOL    HW268697   3.993   7.723   5.663 -0.2669 -1.6274  0.2509
19015SOL     OW68698   5.846   1.852   7.427  0.0650  0.4224 -0.3172
19015SOL    HW168699   5.817   1.758   7.410  1.5377 -0.3700  1.2717
19015SOL    HW268700   5.771   1.915   7.408 -1.2060 -1.1487 -0.6040
19016SOL     OW68701   2.058   7.220   5.063  0.2992  0.3510 -0.3111
19016SOL    HW168702   2.070   7.264   4.974  0.7391 -0.9321 -0.8933
19016SOL    HW268703   2.004   7.136   5.052  0.0305  0.3814  0.6876
19017SOL     OW68704   5.796   5.452   2.232  0.7716  0.0218  0.3172
19017SOL    HW168705   5.735   5.463   2.310  1.3606 -1.4207  0.9999
19017SOL    HW268706   5.810   5.540   2.187 -2.3798  0.2602 -0.2801
19018SOL     OW68707   1.134   4.815   6.586  0.3578  0.1664  0.6820
19018SOL    HW168708   1.185   4.843   6.668  1.0995  1.1798 -0.1087
19018SOL    HW268709   1.184   4.844   6.505  0.0826 -1.6529 -0.1584
19019SOL     OW68710   8.599   7.619   8.313  0.0087 -0.1450 -0.0112
19019SOL    HW168711   8.603   7.716   8.288  1.0535 -0.3593 -0.6998
19019SOL    HW268712   8.641   7.564   8.241 -1.9032 -1.2482 -0.3199
19020SOL     OW68713   8.849   2.200   6.855 -0.3911 -0.6247 -0.6337
19020SOL    HW168714   8.847   2.294   6.821 -1.2340 -0.6840 -0.7706
19020SOL    HW268715   8.885   2.140   6.784  0.1508 -0.4016 -0.5460
19021SOL     OW68716   4.660   6.344   2.966  0.0597 -0.2106 -0.2742
19021SOL    HW168717   4.593   6.417   2.978  0.2448 -0.1512  0.4391
19021SOL    HW268718   4.702   6.323   3.054  1.2764  0.0426 -0.7808
19022SOL     OW68719   3.582   1.233   0.965 -0.2376  0.2867 -0.6787
19022SOL    HW168720   3.649   1.181   0.912 -0.7075  0.9404 -1.9480
19022SOL    HW268721   3.600   1.222   1.063  2.4970  1.4417 -0.9986
19023SOL     OW68722   8.544   0.949   5.810  0.0567 -0.1063 -0.9944
19023SOL    HW168723   8.593   0.952   5.897  0.4045  0.7666 -1.2132
19023SOL    HW268724   8.467   0.886   5.817  1.3021 -1.6500 -0.6853
19024SOL     OW68725   6.947   7.657   4.752 -0.5411  0.4360 -0.4526
19024SOL    HW168726   6.938   7.559   4.734 -1.1848  0.3352  0.3727
19024SOL    HW268727   6.957   7.706   4.665  0.7043 -0.4444 -0.8184
19025SOL     OW68728   5.859   5.134   1.240  0.0002  0.4899 -0.0116
19025SOL    HW168729   5.914   5.214   1.266  0.7668 -0.7303  2.2546
19025SOL    HW268730   5.883   5.106   1.147  2.1590  0.9132  0.3925
19026SOL     OW68731   4.705   8.721   4.138 -0.3711 -0.6490  0.4616
19026SOL    HW168732   4.641   8.670   4.195  0.2617 -1.3642  0.5325
19026SOL    HW268733   4.784   8.664   4.116  0.7254  0.5408  1.1911
19027SOL     OW68734   9.645   4.934   6.815  0.0943 -0.4713 -0.0935
19027SOL    HW168735   9.602   5.025   6.816 -0.0817 -0.5543  0.0065
19027SOL    HW268736   9.739   4.941   6.849 -0.8416 -0.7682  2.6852
19028SOL     OW68737   7.458   6.487   2.886  0.7384  0.5499 -0.5040
19028SOL    HW168738   7.370   6.533   2.875 -0.4884 -1.6296 -0.0511
19028SOL    HW268739   7.471   6.422   2.812  2.7425  1.9954 -1.4726
19029SOL     OW68740   3.782   3.201   1.618  0.0119 -0.3016  0.3253
19029SOL    HW168741   3.747   3.235   1.531 -1.0750 -1.0917  0.4403
19029SOL    HW268742   3.868   3.247   1.640 -0.5327  1.0672 -0.3765
19030SOL     OW68743   9.281   5.604   6.939  0.2534  0.0713 -0.3771
19030SOL    HW168744   9.211   5.563   6.881  0.3105 -1.1248  0.3598
19030SOL    HW268745   9.347   5.654   6.883  0.7873 -1.7732 -1.4303
19031SOL     OW68746   0.439   9.222   1.776  0.3933 -0.2189  0.2241
19031SOL    HW168747   0.437   9.122   1.775  2.3047 -0.2605 -0.0744
19031SOL    HW268748   0.502   9.255   1.706  3.9210  1.0476  3.8509
19032SOL     OW68749   0.394   1.586   4.272 -0.1307  0.3410 -0.3733
19032SOL    HW168750   0.328   1.514   4.294  2.2086 -1.2068  2.0330
19032SOL    HW268751   0.360   1.674   4.304 -0.8513 -0.4973  1.2377
19033SOL     OW68752   3.151   8.165   3.339  0.2802 -0.0665  0.0019
19033SOL    HW168753   3.232   8.173   3.280 -0.1067  0.9241 -0.4073
19033SOL    HW268754   3.159   8.083   3.395  2.0215  0.5378  0.6695
19034SOL     OW68755   7.508   3.007  10.070  0.2013  0.3576 -0.3526
19034SOL    HW168756   7.455   2.987  10.152  0.5255 -0.9197 -0.4472
19034SOL    HW268757   7.605   2.991  10.088  0.1362 -1.2900 -1.3991
19035SOL     OW68758   7.679   4.085   1.493  0.1312 -0.0338 -0.5520
19035SOL    HW168759   7.749   4.015   1.495  0.0154 -0.1340 -0.0111
19035SOL    HW268760   7.600   4.053   1.440 -0.4427 -0.8094  0.7442
19036SOL     OW68761   3.102   0.523   4.419  0.1263  0.0961 -0.9460
19036SOL    HW168762   3.051   0.466   4.484  0.4286 -1.4958 -2.0885
19036SOL    HW268763   3.173   0.574   4.469 -0.3981 -0.2130  0.1385
19037SOL     OW68764   9.402   4.879   4.405 -0.4384 -0.3193 -0.1014
19037SOL    HW168765   9.436   4.943   4.336  1.3596  0.6687  1.6350
19037SOL    HW268766   9.458   4.887   4.488  0.9817 -5.3804 -0.3852
19038SOL     OW68767   1.686   5.991   6.628 -0.2613 -0.2015 -0.6962
19038SOL    HW168768   1.700   5.896   6.600 -0.6501 -0.2917 -0.5854
19038SOL    HW268769   1.603   6.026   6.585 -0.1390  0.0793 -0.7064
19039SOL     OW68770   4.192   8.043   1.547  0.1729  0.1715  0.3010
19039SOL    HW168771   4.237   8.096   1.619  0.1932 -0.0149  0.4258
19039SOL    HW268772   4.261   7.994   1.494  0.4202  2.4311 -1.5792
19040SOL     OW68773   0.789   4.900   4.480 -0.2455  0.2616 -0.4574
19040SOL    HW168774   0.874   4.926   4.433 -0.8259  1.6768 -0.7486
19040SOL    HW268775   0.804   4.899   4.579 -0.2435  1.9651 -0.4138
19041SOL     OW68776   3.286   6.359   7.156  0.2663 -0.2366 -0.3783
19041SOL    HW168777   3.379   6.324   7.145  0.8993  0.8975  1.1209
19041SOL    HW268778   3.274   6.441   7.101 -0.2276 -1.0569 -1.4930
19042SOL     OW68779   2.053   2.902   0.595  0.4973  0.2110  0.1586
19042SOL    HW168780   2.085   2.810   0.614  1.5899  0.6961  0.7373
19042SOL    HW268781   1.959   2.913   0.626 -0.2734 -1.2511 -1.5724
19043SOL     OW68782   4.712   1.061   3.967  0.4997 -0.1431  0.4957
19043SOL    HW168783   4.665   1.051   4.054  0.1464 -0.1928  0.3022
19043SOL    HW268784   4.718   1.157   3.943  1.3627 -0.0742  0.9901
19044SOL     OW68785   2.644   4.514   5.571  0.9803  0.0778  0.1297
19044SOL    HW168786   2.619   4.593   5.514  1.5026 -0.0794 -0.3276
19044SOL    HW268787   2.565   4.454   5.581  0.7262  0.3947  0.0389
19045SOL     OW68788   0.202   8.956   6.445  0.4918  0.0504  0.0967
19045SOL    HW168789   0.171   9.024   6.512  0.4066  0.6997 -0.5993
19045SOL    HW268790   0.301   8.945   6.452  0.6972  1.2658 -0.7190
19046SOL     OW68791   4.759   0.375   5.211 -0.1496 -0.2505  0.4805
19046SOL    HW168792   4.850   0.373   5.254 -0.7845  0.1604  1.8857
19046SOL    HW268793   4.736   0.469   5.186 -1.3030  0.0684  2.6230
19047SOL     OW68794   2.137   8.926   5.232  0.3688  0.3264 -0.2179
19047SOL    HW168795   2.091   8.919   5.144  1.3655  1.2972 -0.8271
19047SOL    HW268796   2.076   8.969   5.298 -1.4607 -2.9964  0.3999
19048SOL     OW68797   1.419   8.769   0.587  0.1653 -0.4249  0.5313
19048SOL    HW168798   1.352   8.838   0.614  0.5733 -0.1888  0.9614
19048SOL    HW268799   1.458   8.726   0.669  1.7037  0.5759  0.3505
19049SOL     OW68800   9.256   3.443   3.279  0.6061 -0.0586  0.1032
19049SOL    HW168801   9.157   3.457   3.278  0.6228  0.1529 -2.8807
19049SOL    HW268802   9.277   3.351   3.314 -0.7751 -0.8366 -1.0689
19050SOL     OW68803   3.657   9.399   4.947  0.1950  0.2185 -0.6635
19050SOL    HW168804   3.611   9.310   4.954  1.8072 -0.5982 -0.4159
19050SOL    HW268805   3.731   9.405   5.014  0.1683  1.7179 -0.7442
19051SOL     OW68806   4.539   7.645   5.518  0.6132  0.2722 -0.7441
19051SOL    HW168807   4.598   7.661   5.439 -0.2824  1.2250 -1.2247
19051SOL    HW268808   4.444   7.634   5.487  0.1843  1.1598  0.2486
19052SOL     OW68809   3.540   2.738   2.451 -0.3336  0.7811 -0.1535
19052SOL    HW168810   3.502   2.756   2.542  1.0423  1.4632  0.3081
19052SOL    HW268811   3.508   2.808   2.387 -2.3194 -0.4150 -0.5144
19053SOL     OW68812   1.207   3.294   1.760  0.3110 -0.5129  0.3184
19053SOL    HW168813   1.304   3.310   1.740  0.4447 -1.6831 -0.0525
19053SOL    HW268814   1.156   3.290   1.674 -0.1610  0.6345  0.5406
19054SOL     OW68815   7.263   2.638   5.691  0.2040 -0.3412  0.0909
19054SOL    HW168816   7.363   2.638   5.686  0.1739 -0.3521 -0.6533
19054SOL    HW268817   7.226   2.655   5.600 -0.4586  1.5725  0.7014
19055SOL     OW68818   1.576   2.540   4.745 -0.7683 -0.0822  0.5701
19055SOL    HW168819   1.512   2.473   4.705 -2.1952  0.5756  1.7149
19055SOL    HW268820   1.662   2.495   4.766 -1.7260 -1.5866  1.3568
19056SOL     OW68821   4.426   1.725   5.153 -0.2337  0.2729  0.1325
19056SOL    HW168822   4.500   1.762   5.209  0.0713 -2.3909  1.5344
19056SOL    HW268823   4.465   1.670   5.079 -0.7651  0.1329 -0.0426
19057SOL     OW68824   6.478   2.084   6.424  0.0971  0.0325 -0.4048
19057SOL    HW168825   6.381   2.084   6.401  0.3385 -1.7165 -1.5142
19057SOL    HW268826   6.498   2.006   6.484  0.6979  0.7887  0.3948
19058SOL     OW68827   5.028   0.623   3.480  0.6904  0.4545  0.0228
19058SOL    HW168828   5.080   0.612   3.395  2.0427  1.2436  0.7284
19058SOL    HW268829   4.946   0.566   3.476  0.5543  0.7564 -1.9462
19059SOL     OW68830   8.817   3.780   6.267 -0.5628  0.2691  0.1098
19059SOL    HW168831   8.837   3.876   6.284 -0.4920  0.4235 -0.8701
19059SOL    HW268832   8.814   3.762   6.169  2.0439 -1.2544  0.2493
19060SOL     OW68833   5.408   2.323   1.435 -0.5725  0.6770  0.6647
19060SOL    HW168834   5.382   2.418   1.418  0.5703  0.7341 -0.7975
19060SOL    HW268835   5.439   2.314   1.530 -0.2215  1.8633  0.6700
19061SOL     OW68836   1.313   8.795   3.652  0.2300  0.5198  0.4653
19061SOL    HW168837   1.288   8.821   3.559 -2.2758  0.2952  1.0395
19061SOL    HW268838   1.397   8.843   3.678  0.2806  1.5381 -1.4550
19062SOL     OW68839   4.575   0.250   7.180  0.2745 -0.2537 -0.0103
19062SOL    HW168840   4.611   0.305   7.255  1.3013 -0.1397 -0.5731
19062SOL    HW268841   4.588   0.153   7.200  0.3099 -0.2314  0.0712
19063SOL     OW68842   3.862   0.962   3.282 -0.0327  0.0099  0.6942
19063SOL    HW168843   3.928   0.892   3.311  0.3754  0.2041  0.2307
19063SOL    HW268844   3.898   1.011   3.203 -0.1766  0.9662  1.2219
19064SOL     OW68845   8.622   2.608   7.183 -0.1801  0.4287  0.0086
19064SOL    HW168846   8.581   2.642   7.268 -0.8165  1.0878 -0.5577
19064SOL    HW268847   8.720   2.596   7.197 -0.3333  0.1906  0.9448
19065SOL     OW68848   6.694   0.612   7.783  0.1905 -0.2881  0.8698
19065SOL    HW168849   6.717   0.704   7.816 -2.6713  0.4183  0.9913
19065SOL    HW268850   6.607   0.584   7.822  0.0417 -2.2192 -0.8143
19066SOL     OW68851   9.888   7.341   0.863 -0.1270 -0.5060  0.6141
19066SOL    HW168852   9.917   7.313   0.771  1.1880  1.4344  0.4000
19066SOL    HW268853   9.792   7.369   0.861  0.0204 -0.0282 -0.2987
19067SOL     OW68854   0.034   7.580   7.144 -0.2304 -0.0708  0.4333
19067SOL    HW168855  -0.045   7.520   7.138 -0.8868  0.9527 -1.5739
19067SOL    HW268856   0.004   7.675   7.157  0.5919  0.4460 -1.1856
19068SOL     OW68857   9.426   2.494   0.650 -0.2974 -0.7351  0.0832
19068SOL    HW168858   9.495   2.430   0.614  0.4071 -0.4977  0.9933
19068SOL    HW268859   9.337   2.449   0.651  0.3554 -2.0628  1.6269
19069SOL     OW68860   6.222   9.431   6.602  0.0503  0.3824  0.5471
19069SOL    HW168861   6.240   9.510   6.543 -0.5922  0.3500  0.3075
19069SOL    HW268862   6.135   9.389   6.577  1.2545 -1.5204 -0.5576
19070SOL     OW68863   8.970   3.379   3.277 -0.3647 -0.2744  0.2870
19070SOL    HW168864   8.966   3.291   3.323 -0.7415 -0.6691 -0.4984
19070SOL    HW268865   8.900   3.383   3.205 -0.0830  0.4996  0.0499
19071SOL     OW68866   0.955   7.484   1.925  0.1269  0.1111  0.4741
19071SOL    HW168867   1.054   7.472   1.931  0.1028 -0.9006 -1.1475
19071SOL    HW268868   0.909   7.397   1.945 -0.3932  0.2390 -0.1539
19072SOL     OW68869   8.259   1.905   2.466  0.7980  0.1866  0.2044
19072SOL    HW168870   8.357   1.910   2.445  0.6393  0.7161 -0.4468
19072SOL    HW268871   8.219   1.826   2.420  1.0150 -0.3148  0.8742
19073SOL     OW68872   5.743   3.283   0.637  0.4183  0.1907  0.2082
19073SOL    HW168873   5.681   3.256   0.563 -0.4355  0.1855  0.9268
19073SOL    HW268874   5.691   3.297   0.721  1.0565  2.5215  0.2449
19074SOL     OW68875   3.244   5.076   0.334 -0.0149 -0.2020  0.2194
19074SOL    HW168876   3.208   5.089   0.427 -0.1764 -0.5494  0.2049
19074SOL    HW268877   3.251   4.979   0.315  0.7083 -0.1303  0.1327
19075SOL     OW68878   8.978   2.648   2.879 -0.4599 -0.0693 -0.5015
19075SOL    HW168879   8.968   2.600   2.792 -0.9846  3.5795 -2.5506
19075SOL    HW268880   9.010   2.741   2.862  1.3102  0.1256  3.3852
19076SOL     OW68881   0.509   9.416   2.286  0.2727  0.1094  0.3710
19076SOL    HW168882   0.601   9.454   2.276 -0.4722  1.8946  0.1425
19076SOL    HW268883   0.492   9.350   2.213  1.3161 -0.1648  0.3622
19077SOL     OW68884   0.937   4.241   3.961 -0.2940  0.2915 -0.2976
19077SOL    HW168885   0.938   4.161   4.021 -0.8718 -0.5972 -1.4626
19077SOL    HW268886   0.869   4.228   3.889 -0.9449  2.1784 -0.0384
19078SOL     OW68887   0.192   1.642   5.752 -0.0203  0.4676 -0.7008
19078SOL    HW168888   0.233   1.588   5.826 -0.4523  1.3663  0.1978
19078SOL    HW268889   0.145   1.581   5.689 -1.2615 -0.1322  0.7879
19079SOL     OW68890   7.305   1.591   3.619 -0.0851 -0.2988  0.3418
19079SOL    HW168891   7.353   1.654   3.558 -2.6251  0.4787 -0.9153
19079SOL    HW268892   7.369   1.556   3.688  1.1040  4.6473  1.9191
19080SOL     OW68893   8.942   8.515   6.833 -0.2475 -0.1697 -0.0029
19080SOL    HW168894   8.900   8.472   6.913 -1.6824 -0.9653 -1.1461
19080SOL    HW268895   9.006   8.585   6.863 -0.7913 -0.4202  1.8401
19081SOL     OW68896   0.037   8.352   7.012  0.2850 -0.1031  0.0460
19081SOL    HW168897   0.028   8.300   7.097  1.5178 -2.9674 -1.5119
19081SOL    HW268898   0.120   8.408   7.016 -0.2312  0.6037  1.1276
19082SOL     OW68899   9.818   7.559   2.818  0.3784 -0.0171 -0.9171
19082SOL    HW168900   9.858   7.650   2.824  0.1340  0.1765 -2.2907
19082SOL    HW268901   9.740   7.552   2.880  1.7407 -0.0045  0.8548
19083SOL     OW68902   3.709   4.337   7.682 -0.5477 -0.6752  0.6671
19083SOL    HW168903   3.720   4.404   7.608  0.6675 -1.1272  0.4277
19083SOL    HW268904   3.615   4.303   7.682 -0.6091 -0.5360 -0.5618
19084SOL     OW68905   5.574   0.592   5.562 -0.4630  0.6005 -0.3655
19084SOL    HW168906   5.540   0.649   5.637  3.3043  2.5432 -0.0211
19084SOL    HW268907   5.605   0.650   5.487 -0.3283 -1.1697 -1.7175
19085SOL     OW68908   9.266   0.544   2.181  0.3989  0.2039  0.3260
19085SOL    HW168909   9.180   0.514   2.223  0.7964 -1.4324  0.0139
19085SOL    HW268910   9.279   0.496   2.094  1.1563  1.1609 -0.0944
19086SOL     OW68911   3.763   5.518   5.146  0.0322 -0.4318  0.7322
19086SOL    HW168912   3.688   5.524   5.213  1.1180 -1.4625  2.0720
19086SOL    HW268913   3.850   5.521   5.194  0.8319 -0.9285 -0.6761
19087SOL     OW68914   2.106   3.005   2.957 -0.5608 -0.2737  0.4491
19087SOL    HW168915   2.120   3.076   3.026 -0.8408 -0.9309  1.2035
19087SOL    HW268916   2.189   2.993   2.903 -0.1837 -0.0607  0.9796
19088SOL     OW68917   3.100   9.954   1.088 -0.0475 -0.2362  0.1713
19088SOL    HW168918   3.069  10.047   1.106 -0.5041 -0.3641  0.0396
19088SOL    HW268919   3.141   9.915   1.171  2.8106  1.1231 -0.5245
19089SOL     OW68920   1.316   8.362   7.339  0.0138 -0.0074  0.3884
19089SOL    HW168921   1.413   8.339   7.345 -0.2427 -1.1853  0.1201
19089SOL    HW268922   1.301   8.453   7.379  1.1813  0.0844  0.6457
19090SOL     OW68923   1.611   5.951   6.232  0.0921  0.1471 -0.2813
19090SOL    HW168924   1.578   5.994   6.316 -0.9223 -0.1581 -0.5074
19090SOL    HW268925   1.683   5.885   6.254 -0.8332 -0.6327  0.4521
19091SOL     OW68926   0.672   0.641   3.684 -0.8430  0.3214  0.2017
19091SOL    HW168927   0.611   0.667   3.758 -0.2813  1.5289  0.2533
19091SOL    HW268928   0.666   0.708   3.610 -0.1735  0.0272 -0.1297
19092SOL     OW68929   0.209   7.923   5.779  0.3959 -0.5600  0.1427
19092SOL    HW168930   0.259   8.006   5.803  0.0984 -0.5158  0.5994
19092SOL    HW268931   0.266   7.867   5.718 -0.7337  1.5664 -2.9422
19093SOL     OW68932   3.950   0.085   2.215  0.3697 -0.0806  0.1441
19093SOL    HW168933   4.019   0.157   2.220 -0.4578  0.7738 -0.3518
19093SOL    HW268934   3.888   0.093   2.293 -0.3623  0.4256 -0.4816
19094SOL     OW68935   5.591   4.469  10.045 -0.0625 -0.6569  0.4495
19094SOL    HW168936   5.498   4.484  10.079  0.5132 -0.1351  1.8386
19094SOL    HW268937   5.601   4.509   9.954 -0.8462  0.3330  0.7992
19095SOL     OW68938   0.790   6.174   2.612 -0.5010  0.0600 -0.1837
19095SOL    HW168939   0.856   6.103   2.592 -1.2281 -1.0391  1.1802
19095SOL    HW268940   0.768   6.225   2.529  1.6352  0.0932 -0.7439
19096SOL     OW68941   9.968   7.730   7.563 -0.8836 -0.0993  0.2782
19096SOL    HW168942  10.056   7.683   7.558 -1.4615 -1.1102 -0.8453
19096SOL    HW268943   9.981   7.824   7.593  0.4231 -0.6448  1.4332
19097SOL     OW68944   2.378   6.131   6.859 -0.0836  0.3083  0.2424
19097SOL    HW168945   2.428   6.058   6.812  1.2258  0.7023  0.9877
19097SOL    HW268946   2.440   6.178   6.922 -1.5703  0.3796  1.6868
19098SOL     OW68947   4.952   7.709   4.737  0.2097 -0.1763  0.1602
19098SOL    HW168948   5.021   7.638   4.753  1.1341  0.9177  1.0799
19098SOL    HW268949   4.928   7.712   4.640  0.8958 -1.0604 -0.0403
19099SOL     OW68950   9.704   1.265   0.970  0.6594  0.2455  0.1409
19099SOL    HW168951   9.703   1.365   0.962  3.8945  0.4624  1.5519
19099SOL    HW268952   9.643   1.237   1.044  0.3869  1.2789  0.3148
19100SOL     OW68953   6.248   2.173   1.682  0.6528 -1.0359  0.2168
19100SOL    HW168954   6.318   2.111   1.717  0.7310 -1.6691 -1.0508
19100SOL    HW268955   6.282   2.220   1.601  1.3998  2.3049  2.3562
19101SOL     OW68956   5.470   4.474   1.713  0.8908 -0.3310  0.0467
19101SOL    HW168957   5.455   4.389   1.763  0.2325 -0.1916  0.0886
19101SOL    HW268958   5.388   4.530   1.717  0.7983 -0.3657 -1.2928
19102SOL     OW68959   9.920   7.420   4.969  0.0474 -0.4806  0.4837
19102SOL    HW168960   9.923   7.334   5.020  1.3287 -0.1884  0.9251
19102SOL    HW268961  10.014   7.454   4.956 -0.2492 -0.5749 -2.1268
19103SOL     OW68962   8.051   4.348   5.892  0.0285 -0.4654 -0.6389
19103SOL    HW168963   8.004   4.323   5.977  0.3209 -1.4228 -0.7615
19103SOL    HW268964   8.080   4.444   5.898 -0.4399 -0.3632  0.1198
19104SOL     OW68965   0.966   5.655   3.814 -0.1986 -0.0036 -0.1223
19104SOL    HW168966   1.027   5.682   3.889 -0.9557 -2.0816  1.3006
19104SOL    HW268967   0.874   5.691   3.831 -0.1601  0.2978 -0.5411
19105SOL     OW68968   7.810   1.504   2.052 -0.2089 -0.2586 -0.4039
19105SOL    HW168969   7.824   1.599   2.080  0.2588 -0.5136  0.2405
19105SOL    HW268970   7.803   1.499   1.953  0.4740  0.3686 -0.4870
19106SOL     OW68971   2.760   7.644   7.249 -0.0029 -0.2382  0.2558
19106SOL    HW168972   2.814   7.597   7.179  2.5887  3.2721 -0.1985
19106SOL    HW268973   2.807   7.637   7.337  1.2949  2.8620 -0.1493
19107SOL     OW68974   7.041   0.480   3.121  0.0471 -0.3740 -0.2126
19107SOL    HW168975   7.083   0.479   3.211 -1.2260 -0.5514  0.3797
19107SOL    HW268976   7.074   0.401   3.068  1.2071  0.0301 -0.1099
19108SOL     OW68977   6.847   4.845   2.849 -0.3380  0.3264  0.2865
19108SOL    HW168978   6.883   4.931   2.813 -0.7824  0.7232  0.7823
19108SOL    HW268979   6.752   4.834   2.819 -0.5089  0.3566  0.8250
19109SOL     OW68980   9.045   5.500   4.487  0.1112 -0.4197 -0.1602
19109SOL    HW168981   9.078   5.410   4.516 -0.0542 -0.5282 -0.3041
19109SOL    HW268982   9.092   5.527   4.403  2.7837  1.2255  1.7821
19110SOL     OW68983   2.599   6.301   7.005 -0.1416  0.3720 -0.5887
19110SOL    HW168984   2.639   6.319   6.915  1.1694  4.2320  0.6487
19110SOL    HW268985   2.670   6.268   7.067 -0.2246  1.1824 -0.0487
19111SOL     OW68986   2.293   3.381   0.633 -0.3058  0.3147  0.1199
19111SOL    HW168987   2.236   3.463   0.642 -0.0581  0.6983 -1.6274
19111SOL    HW268988   2.387   3.407   0.612  0.1042 -0.3796  1.0459
19112SOL     OW68989   8.827   3.239   1.813 -0.3987 -0.0278 -0.0411
19112SOL    HW168990   8.898   3.170   1.802 -0.3392 -0.3789  2.2544
19112SOL    HW268991   8.811   3.255   1.911 -2.1231  1.4412 -0.5319
19113SOL     OW68992   9.040   1.617   4.293 -0.0563 -0.1678 -0.7494
19113SOL    HW168993   9.024   1.532   4.343 -0.4321  0.6097  0.4742
19113SOL    HW268994   9.005   1.609   4.200  2.0042 -2.1784 -1.3974
19114SOL     OW68995   1.156   6.891   3.460  0.0158  0.0539 -0.7643
19114SOL    HW168996   1.236   6.920   3.514 -0.2358  0.5218 -0.6354
19114SOL    HW268997   1.150   6.792   3.461  0.0074  0.0525  0.1015
19115SOL     OW68998   8.790   5.224   1.815 -0.6661 -0.0729  0.4758
19115SOL    HW168999   8.886   5.252   1.817 -0.3342 -0.8616 -2.5524
19115SOL    HW269000   8.746   5.251   1.901  2.2257  0.3500  1.8939
19116SOL     OW69001   0.061   5.789   4.146  0.7090  0.3564 -0.2417
19116SOL    HW169002   0.109   5.785   4.059 -0.6449  2.1455 -1.0885
19116SOL    HW269003   0.118   5.837   4.213  0.8419  0.9175 -0.7531
19117SOL     OW69004   3.781   0.884   4.386 -1.0491 -0.1471  0.1872
19117SOL    HW169005   3.771   0.859   4.483  3.7130  0.0373  0.8221
19117SOL    HW269006   3.762   0.982   4.376 -1.7969 -0.2109  0.8798
19118SOL     OW69007   8.530   4.686   0.315 -0.1607 -0.1260  0.7572
19118SOL    HW169008   8.618   4.707   0.275  0.1509 -0.4423  1.2701
19118SOL    HW269009   8.543   4.644   0.405 -0.8411  0.4094  1.1129
19119SOL     OW69010   3.160   9.278   7.112 -0.1744  0.3298  0.0022
19119SOL    HW169011   3.196   9.217   7.182 -1.3940 -1.1556 -0.6470
19119SOL    HW269012   3.209   9.263   7.027 -1.0047 -0.3211 -0.3675
19120SOL     OW69013   8.042   8.975   6.959  0.0987  0.0884 -0.2627
19120SOL    HW169014   8.010   9.003   6.869 -0.4880 -0.7709 -0.3232
19120SOL    HW269015   8.102   8.896   6.950 -0.5734 -0.4743  0.1646
19121SOL     OW69016   2.769   9.400   4.715  0.2456 -0.5145 -0.4082
19121SOL    HW169017   2.734   9.493   4.728  1.7194  0.1300 -0.7990
19121SOL    HW269018   2.724   9.358   4.636  0.5848  0.4277 -1.1176
19122SOL     OW69019   1.118   8.609   1.346 -0.4169 -0.2789  0.1656
19122SOL    HW169020   1.068   8.656   1.273 -0.3586  0.9890  0.9380
19122SOL    HW269021   1.127   8.512   1.322 -1.6010 -0.1546 -0.8643
19123SOL     OW69022   9.322   2.667   1.954  0.5767  0.3019 -0.0573
19123SOL    HW169023   9.283   2.577   1.933  1.3943 -0.0246 -0.2046
19123SOL    HW269024   9.270   2.738   1.905 -0.1930 -0.0683  0.2123
19124SOL     OW69025   4.422   7.199   1.391  0.1047 -0.4014 -0.0647
19124SOL    HW169026   4.421   7.274   1.457  0.3854 -2.5787  2.5001
19124SOL    HW269027   4.411   7.236   1.298 -1.4791  2.6282  1.2505
19125SOL     OW69028   6.621   7.523   3.015 -0.4316  0.6545 -0.1014
19125SOL    HW169029   6.521   7.523   3.010 -0.3495 -0.6868 -2.7624
19125SOL    HW269030   6.654   7.429   3.014  0.8650  1.0972  0.4191
19126SOL     OW69031   3.720   8.053   7.636 -0.3261 -0.5298 -0.5619
19126SOL    HW169032   3.801   8.072   7.580  0.3500  2.0923  1.2165
19126SOL    HW269033   3.717   8.117   7.713 -2.9560 -1.9874  0.6026
19127SOL     OW69034   2.443   9.283   4.265  0.5024  0.1164 -0.4600
19127SOL    HW169035   2.373   9.244   4.325  0.1124  0.0556 -0.9512
19127SOL    HW269036   2.400   9.339   4.195  0.6064 -2.8313 -3.0244
19128SOL     OW69037   3.682   9.920   0.533 -1.0222  0.0020  0.2677
19128SOL    HW169038   3.645   9.879   0.616 -0.5910 -0.1650  0.3783
19128SOL    HW269039   3.775   9.953   0.551 -0.4846 -1.0837 -0.4618
19129SOL     OW69040   4.838   5.558   0.415 -0.2855 -0.0238 -0.6529
19129SOL    HW169041   4.833   5.478   0.356 -0.5014 -0.8577  0.4837
19129SOL    HW269042   4.761   5.619   0.395 -0.0907 -0.0671 -1.5551
19130SOL     OW69043   5.814   3.536   0.660  0.1185  0.4010  0.0161
19130SOL    HW169044   5.798   3.441   0.637 -1.8706  0.4231  1.1957
19130SOL    HW269045   5.727   3.584   0.669  0.9987  1.6938  2.0583
19131SOL     OW69046   2.539   5.445   5.130  0.5499 -0.1215 -0.6315
19131SOL    HW169047   2.527   5.537   5.091 -0.9683  0.1378  0.4085
19131SOL    HW269048   2.471   5.383   5.091 -1.7909  0.4231  2.4056
19132SOL     OW69049   4.631   6.382   0.901  0.3255 -0.3654  0.1831
19132SOL    HW169050   4.722   6.374   0.942  0.3656  1.5887  0.5298
19132SOL    HW269051   4.612   6.478   0.882 -1.0548 -0.9179 -1.3158
19133SOL     OW69052   3.074   0.083   0.859 -0.4924 -0.6585  0.0955
19133SOL    HW169053   3.007   0.156   0.872 -0.5619 -0.7548  0.2766
19133SOL    HW269054   3.074   0.023   0.939  1.2523  0.4827  0.9795
19134SOL     OW69055   0.860   1.532   7.241 -0.0327 -0.2724 -0.3305
19134SOL    HW169056   0.858   1.555   7.338 -0.7764 -1.2875 -0.0899
19134SOL    HW269057   0.934   1.466   7.224  0.3465  0.2020 -0.5241
19135SOL     OW69058   8.643   5.617   1.106 -0.1182 -0.0819 -0.3370
19135SOL    HW169059   8.545   5.620   1.088 -0.0545 -2.7113 -1.3840
19135SOL    HW269060   8.692   5.655   1.027 -0.2995  3.2565  1.0685
19136SOL     OW69061   8.550   8.393   3.458  0.3109 -0.8509 -0.1038
19136SOL    HW169062   8.578   8.478   3.503  1.1704 -0.6923 -0.9254
19136SOL    HW269063   8.487   8.343   3.518 -0.9784  0.8281 -0.0238
19137SOL     OW69064   4.021   5.550   0.033  0.3226  0.2398 -0.2448
19137SOL    HW169065   3.949   5.592   0.089  1.4897  0.7003  0.9280
19137SOL    HW269066   4.036   5.456   0.064  1.0889  0.5507  0.3290
19138SOL     OW69067   8.910   4.119   3.624  0.0981  0.1407 -0.1789
19138SOL    HW169068   8.948   4.089   3.537  1.9890  2.0823 -0.0297
19138SOL    HW269069   8.948   4.208   3.649 -1.8508  0.4748  1.7162
19139SOL     OW69070   9.678   5.613   7.315 -0.0697 -0.1428 -0.0260
19139SOL    HW169071   9.593   5.579   7.276 -0.5230  2.1916 -1.1929
19139SOL    HW269072   9.657   5.670   7.395  0.5114 -0.7120  0.5374
19140SOL     OW69073   0.552   7.836   7.053 -0.3608  0.1234  0.6078
19140SOL    HW169074   0.466   7.888   7.061 -0.7675 -0.0871 -2.0510
19140SOL    HW269075   0.628   7.893   7.082 -1.0496  1.4500 -0.1598
19141SOL     OW69076   1.033   9.821   3.733  0.2565  0.2673 -0.3443
19141SOL    HW169077   1.132   9.812   3.731  0.3935  1.7639 -0.7618
19141SOL    HW269078   1.008   9.912   3.764 -0.9955 -0.1431 -0.1106
19142SOL     OW69079   9.711   1.650   5.692  0.3481 -0.1368  0.0290
19142SOL    HW169080   9.613   1.631   5.687  0.3337 -0.1757  0.3967
19142SOL    HW269081   9.726   1.749   5.694  0.2911 -0.1320  0.3500
19143SOL     OW69082   9.487   7.592   6.735  0.4120  0.5067 -0.1829
19143SOL    HW169083   9.486   7.689   6.759  0.4900  0.7413 -1.0901
19143SOL    HW269084   9.527   7.540   6.809  1.8691  1.3638 -0.3453
19144SOL     OW69085   5.109   9.411   3.372  0.0181  0.7654  0.4561
19144SOL    HW169086   5.036   9.357   3.413 -1.0128  3.0540  1.6941
19144SOL    HW269087   5.198   9.375   3.401 -0.5883 -1.7289 -0.6738
19145SOL     OW69088   3.316   4.828   0.269 -0.5960 -0.5256  0.1212
19145SOL    HW169089   3.409   4.832   0.307 -1.1639 -0.4294  1.5473
19145SOL    HW269090   3.271   4.744   0.299 -1.6227  0.3320  1.0350
19146SOL     OW69091   0.540   6.729   6.986  0.5358 -0.1009 -0.0633
19146SOL    HW169092   0.580   6.655   7.039  0.0783  0.8550  1.6709
19146SOL    HW269093   0.570   6.817   7.023  0.9506  0.5977 -1.9962
19147SOL     OW69094   9.712   6.913   4.303 -0.0957 -0.4753 -0.2345
19147SOL    HW169095   9.706   6.843   4.232  0.1834 -0.7726  0.0295
19147SOL    HW269096   9.801   6.907   4.348  1.1674  2.0776 -2.2887
19148SOL     OW69097   1.910   8.920   1.467  0.2185  0.3595  0.2937
19148SOL    HW169098   1.821   8.950   1.433 -0.0338 -0.2154  0.4513
19148SOL    HW269099   1.965   9.000   1.492 -0.0758  0.7326 -0.2532
19149SOL     OW69100   1.543   1.960   6.195 -0.2723  0.1400 -0.6017
19149SOL    HW169101   1.478   1.919   6.259 -1.4731  0.8671 -1.3251
19149SOL    HW269102   1.634   1.922   6.211 -0.9041 -1.0461  0.3012
19150SOL     OW69103   2.336   1.798   2.763 -0.6317 -0.7109 -0.0406
19150SOL    HW169104   2.403   1.841   2.824 -0.8701 -0.5154  0.0793
19150SOL    HW269105   2.271   1.866   2.731  0.0808 -0.6188 -1.2966
19151SOL     OW69106   3.499   1.316  10.010  0.1908  0.3653 -0.0550
19151SOL    HW169107   3.568   1.388  10.004 -0.4986  0.9564 -0.9794
19151SOL    HW269108   3.538   1.230   9.977  1.2436  0.1182  1.7192
19152SOL     OW69109   7.785   2.580   1.219  0.3231  0.1000  0.5215
19152SOL    HW169110   7.759   2.483   1.224  1.8047 -0.2788  1.4178
19152SOL    HW269111   7.824   2.608   1.307  0.5904  1.3066  0.0277
19153SOL     OW69112   6.503   9.560   4.377  0.1591  0.4603  0.0849
19153SOL    HW169113   6.562   9.594   4.450 -0.6630  0.0235  0.9576
19153SOL    HW269114   6.509   9.461   4.372 -0.9601  0.3641  0.5783
19154SOL     OW69115   1.638   6.155   5.557 -0.4921 -0.2274  0.4195
19154SOL    HW169116   1.677   6.085   5.616 -0.4234  0.8969  1.7240
19154SOL    HW269117   1.538   6.151   5.563 -0.4803  1.3125  2.3740
19155SOL     OW69118   8.646   5.532   4.375 -0.2344  0.1671 -0.4019
19155SOL    HW169119   8.714   5.586   4.424  0.1162 -0.1980 -0.4835
19155SOL    HW269120   8.638   5.442   4.417 -1.0780  0.4072 -0.0493
19156SOL     OW69121   9.525   3.191   0.624 -0.5559  0.3072 -0.5700
19156SOL    HW169122   9.574   3.236   0.699  2.8182 -1.3109 -1.6856
19156SOL    HW269123   9.499   3.259   0.555  0.0138  1.2396  0.1216
19157SOL     OW69124   1.364   6.271   5.251 -0.2670  0.3438  0.1403
19157SOL    HW169125   1.368   6.307   5.344 -3.2483 -0.1591  0.5132
19157SOL    HW269126   1.289   6.314   5.201  1.8216  1.2234 -2.3568
19158SOL     OW69127   9.354   1.094   7.754  0.0468 -0.4355  0.1621
19158SOL    HW169128   9.365   0.996   7.742  2.0127 -0.2492  0.2311
19158SOL    HW269129   9.354   1.116   7.851  0.0414 -0.3204  0.1353
19159SOL     OW69130   5.564   9.519   3.980  0.0617 -0.0652 -0.3523
19159SOL    HW169131   5.583   9.487   4.072 -2.2666  1.2625  0.6131
19159SOL    HW269132   5.634   9.484   3.918  1.6235 -1.0107  1.8864
19160SOL     OW69133   4.847   3.415   7.166  0.2115 -0.1243  1.0932
19160SOL    HW169134   4.917   3.479   7.134 -0.0471  0.7909  2.3362
19160SOL    HW269135   4.757   3.447   7.137  0.1887 -0.6862  0.5112
19161SOL     OW69136   9.693   3.741   0.279  0.2493 -0.5165 -0.7804
19161SOL    HW169137   9.724   3.672   0.345  0.1334  1.1885  1.0835
19161SOL    HW269138   9.610   3.785   0.313 -0.6190 -0.5788 -2.7506
19162SOL     OW69139   1.717   3.055   5.816 -0.2744  0.5742 -0.1643
19162SOL    HW169140   1.719   3.134   5.754 -0.6075  1.2525  0.6892
19162SOL    HW269141   1.797   3.057   5.875  1.4522 -1.5137 -2.3259
19163SOL     OW69142   6.695   4.932   0.453  0.0484  0.5608 -0.0000
19163SOL    HW169143   6.708   4.946   0.355 -1.5791  2.0556 -0.0321
19163SOL    HW269144   6.606   4.891   0.470  0.2498  0.4559  0.8577
19164SOL     OW69145   8.680   9.191   7.889  0.1496 -0.1290  0.1148
19164SOL    HW169146   8.690   9.102   7.933 -2.1184 -0.6944 -0.4892
19164SOL    HW269147   8.586   9.203   7.857  0.6744  2.0722 -0.7107
19165SOL     OW69148   9.847   2.485   7.417 -0.7655  0.3218 -0.4092
19165SOL    HW169149   9.864   2.413   7.350 -0.8030  0.2263 -0.3167
19165SOL    HW269150   9.759   2.468   7.462  0.1808 -0.7389  1.1012
19166SOL     OW69151   3.068   2.167   5.339  0.2230  0.1443 -0.0840
19166SOL    HW169152   3.075   2.211   5.249 -0.7315 -0.6113 -0.5355
19166SOL    HW269153   3.159   2.142   5.371  0.4165 -1.2820 -1.6935
19167SOL     OW69154   4.974   2.777   4.948  0.0366  0.3288 -0.2569
19167SOL    HW169155   5.049   2.781   5.014  0.1666  1.3649 -0.4600
19167SOL    HW269156   4.972   2.862   4.894 -1.7294  0.6335  0.2424
19168SOL     OW69157   0.160   3.504   3.594 -0.1654 -0.7244 -0.6058
19168SOL    HW169158   0.070   3.538   3.621  0.2617  1.8058 -2.2184
19168SOL    HW269159   0.208   3.574   3.541  2.9758 -1.8397  0.6449
19169SOL     OW69160   1.594   7.731   5.073 -0.0163  0.2996 -0.1997
19169SOL    HW169161   1.532   7.693   5.141  0.8828 -0.8919 -0.0257
19169SOL    HW269162   1.567   7.825   5.052 -0.7400  0.4314  1.2484
19170SOL     OW69163   9.966   8.226   3.697 -0.1201 -0.1693  0.2092
19170SOL    HW169164   9.949   8.270   3.609  2.4233 -0.3399 -0.4108
19170SOL    HW269165   9.891   8.247   3.760 -0.8908  1.7935 -1.2997
19171SOL     OW69166   1.285   7.721   4.329 -0.2066 -0.3542  0.9921
19171SOL    HW169167   1.215   7.720   4.400 -0.0437  1.0926  1.1907
19171SOL    HW269168   1.310   7.816   4.309 -0.7259 -0.6985 -1.4662
19172SOL     OW69169   7.296   5.457   3.064 -0.0069  0.0985  0.6695
19172SOL    HW169170   7.275   5.388   2.995 -0.6888 -0.0705  1.0479
19172SOL    HW269171   7.222   5.462   3.131  0.2171  0.9245  0.8649
19173SOL     OW69172   1.411   3.525   1.983 -0.6060 -0.6661 -0.0368
19173SOL    HW169173   1.395   3.427   1.998  0.1311 -0.7015  0.5386
19173SOL    HW269174   1.332   3.565   1.936 -0.0522 -1.9532 -2.1255
19174SOL     OW69175   3.183   4.037   0.687 -0.0089 -0.1189  0.1184
19174SOL    HW169176   3.215   4.108   0.749  0.3867  0.5391 -0.8183
19174SOL    HW269177   3.088   4.054   0.662  0.1387  0.2003 -0.2469
19175SOL     OW69178   0.809   7.306   2.095  0.5797 -0.2707 -0.5307
19175SOL    HW169179   0.735   7.362   2.133 -0.0617 -1.4991  0.0672
19175SOL    HW269180   0.813   7.218   2.144  1.9993 -0.4894 -1.0095
19176SOL     OW69181   2.747   3.765   2.584  0.6965 -0.6254 -0.3161
19176SOL    HW169182   2.673   3.771   2.518  0.4358  2.0099  0.1872
19176SOL    HW269183   2.722   3.699   2.655 -1.9199  1.4340  0.7519
19177SOL     OW69184   9.162   4.393   1.720 -0.3548  0.5515  0.0737
19177SOL    HW169185   9.077   4.346   1.694  0.3241 -0.6639 -0.0055
19177SOL    HW269186   9.186   4.369   1.814  0.9551 -0.7295 -0.5619
19178SOL     OW69187   1.782   6.960   5.820  0.3430 -0.6176 -0.2167
19178SOL    HW169188   1.837   6.960   5.903  1.1032 -0.3447 -0.7110
19178SOL    HW269189   1.838   6.928   5.743 -0.4779 -1.3037 -0.5405
19179SOL     OW69190   4.212   4.903   0.066 -0.4721  0.2622 -0.3864
19179SOL    HW169191   4.231   4.835   0.137 -1.9885 -0.8266 -1.0083
19179SOL    HW269192   4.209   4.994   0.107  1.0570 -0.0825  0.5381
19180SOL     OW69193   9.971   1.223   1.024  0.0621  0.1580  0.1523
19180SOL    HW169194   9.875   1.228   0.998  0.2275  0.5901 -0.3872
19180SOL    HW269195   9.999   1.128   1.030 -0.0254  0.0388 -1.1106
19181SOL     OW69196   5.608   2.404   5.041 -0.0707 -0.6110 -0.4932
19181SOL    HW169197   5.627   2.371   5.134  0.3134  0.8163 -0.0456
19181SOL    HW269198   5.545   2.341   4.996  0.2763 -1.6958  0.4853
19182SOL     OW69199   3.497   8.456   6.273  0.1470  0.4366  0.1328
19182SOL    HW169200   3.497   8.556   6.278  1.8937  0.4640 -0.3042
19182SOL    HW269201   3.429   8.426   6.206 -0.0613  1.3522 -0.0711
19183SOL     OW69202   6.281   1.361   1.735  0.3001  0.3973 -0.1957
19183SOL    HW169203   6.205   1.302   1.761  0.2022  0.6176  0.0224
19183SOL    HW269204   6.313   1.337   1.643 -0.0550  0.3288 -0.3009
19184SOL     OW69205   8.353   6.688   0.645  0.3369  0.0076  0.6141
19184SOL    HW169206   8.343   6.780   0.606 -1.9324  0.4576  2.1279
19184SOL    HW269207   8.434   6.644   0.606  0.0124  1.6451 -2.1036
19185SOL     OW69208   3.271   1.419   5.091 -0.2611 -0.4396 -0.0193
19185SOL    HW169209   3.305   1.471   5.013 -1.7070 -0.0939 -0.4327
19185SOL    HW269210   3.285   1.472   5.175  1.9089 -1.1015  0.0560
19186SOL     OW69211   0.645   0.045   4.363 -0.2958  0.2152 -0.4125
19186SOL    HW169212   0.698  -0.012   4.300  0.3473  0.0846  0.2402
19186SOL    HW269213   0.703   0.120   4.396  0.1133 -1.0804  1.8670
19187SOL     OW69214   7.505   5.491   6.806 -0.1371  0.2817 -0.1233
19187SOL    HW169215   7.561   5.544   6.870 -1.4354 -0.7559  1.9415
19187SOL    HW269216   7.452   5.553   6.749  0.4722  1.2351  0.3370
19188SOL     OW69217   9.770   8.336   2.869  0.0752  0.4101 -0.5671
19188SOL    HW169218   9.689   8.277   2.872 -0.8678  1.7488  2.5613
19188SOL    HW269219   9.847   8.289   2.911  0.6469 -0.3745 -2.4150
19189SOL     OW69220   4.782   9.386   3.252  0.1811  0.4328  0.5561
19189SOL    HW169221   4.846   9.359   3.324 -0.1736  1.0744  1.1180
19189SOL    HW269222   4.698   9.331   3.259  0.8931 -0.8306 -0.5562
19190SOL     OW69223   3.758   3.918   2.472 -0.0738 -0.1145  0.0908
19190SOL    HW169224   3.854   3.946   2.465 -0.4364  0.8895 -1.2955
19190SOL    HW269225   3.752   3.827   2.512  1.5905 -1.0167 -1.6053
19191SOL     OW69226   0.736   0.384   5.730 -0.1079  0.1224 -0.2856
19191SOL    HW169227   0.804   0.357   5.798  1.1614 -0.6483 -1.8343
19191SOL    HW269228   0.668   0.312   5.720 -2.6253  1.8668  3.0062
19192SOL     OW69229   9.127   0.825   2.884 -0.5490 -0.2385  0.4082
19192SOL    HW169230   9.158   0.818   2.979 -2.2794  1.3948  1.1114
19192SOL    HW269231   9.134   0.920   2.853 -1.5168 -0.4795 -0.5662
19193SOL     OW69232   5.620   7.865   5.103 -0.1504 -0.4440  0.1627
19193SOL    HW169233   5.717   7.872   5.128  0.4362 -0.4268 -2.0107
19193SOL    HW269234   5.568   7.829   5.180  1.8550 -2.0684  0.8024
19194SOL     OW69235   8.005   6.672   4.610  0.3812  0.6156  0.1761
19194SOL    HW169236   8.047   6.734   4.676  0.0808  0.7023  0.2851
19194SOL    HW269237   8.004   6.579   4.648 -1.5867  0.9903  1.1326
19195SOL     OW69238   6.433   0.498   3.308 -0.4219  0.0822 -0.6943
19195SOL    HW169239   6.515   0.537   3.349 -0.4644  1.0560 -1.4951
19195SOL    HW269240   6.388   0.568   3.251 -1.4136 -0.6477 -0.8246
19196SOL     OW69241   8.152   6.012   4.318 -0.5405 -0.1133  0.2855
19196SOL    HW169242   8.075   6.021   4.255  0.4497 -0.3575 -0.9794
19196SOL    HW269243   8.176   5.916   4.328  0.9890  0.1126 -1.0462
19197SOL     OW69244   2.209   0.470   3.551  0.3185 -0.0154 -0.5881
19197SOL    HW169245   2.241   0.519   3.632  3.4135  1.0808 -2.3850
19197SOL    HW269246   2.129   0.517   3.512  1.1574  1.6611 -0.3287
19198SOL     OW69247   1.670   5.416   5.907  0.5977  0.1697 -0.1682
19198SOL    HW169248   1.749   5.464   5.943  1.0293  0.3864 -1.3815
19198SOL    HW269249   1.590   5.475   5.910  1.1101  0.9632 -1.5841
19199SOL     OW69250   5.018   3.632   1.172 -0.0012 -0.3102  0.0214
19199SOL    HW169251   4.997   3.725   1.204 -0.8563  0.2120 -1.9603
19199SOL    HW269252   5.102   3.600   1.215  1.6136  2.3267 -1.0267
19200SOL     OW69253   8.135   0.514   7.467  0.1885 -0.3705 -0.1780
19200SOL    HW169254   8.119   0.539   7.563 -0.3760 -1.5538  0.0470
19200SOL    HW269255   8.206   0.573   7.429 -3.2153  3.6873 -0.5981
19201SOL     OW69256   7.553   8.715   5.396 -0.0485  0.2247 -0.3830
19201SOL    HW169257   7.506   8.627   5.396 -1.5496  1.0046 -1.7176
19201SOL    HW269258   7.652   8.700   5.396 -0.2698 -1.4865 -2.1819
19202SOL     OW69259   6.743   8.711   8.349 -0.1268 -0.1601 -0.0354
19202SOL    HW169260   6.786   8.765   8.421  0.3015 -0.8544  0.2339
19202SOL    HW269261   6.752   8.614   8.370 -1.4880 -0.3271 -0.1766
19203SOL     OW69262   5.882   8.804   4.130  0.5914  0.1153  0.6175
19203SOL    HW169263   5.931   8.748   4.064 -0.0649  0.1752  0.0683
19203SOL    HW269264   5.864   8.750   4.213 -0.9239 -0.8157 -0.3036
19204SOL     OW69265   7.273   0.666   8.126  0.0204  0.1886  0.0698
19204SOL    HW169266   7.182   0.640   8.157 -0.4236  1.1373 -0.4248
19204SOL    HW269267   7.266   0.743   8.062  1.4620  3.2437  3.4402
19205SOL     OW69268   7.944   2.584   2.062 -0.8111 -0.3295  0.2713
19205SOL    HW169269   7.990   2.498   2.078 -1.6204 -0.5289  1.5966
19205SOL    HW269270   8.000   2.660   2.095 -1.5040 -0.5851  2.0727
19206SOL     OW69271   3.989   4.654   1.420  0.6065 -0.1736  0.2072
19206SOL    HW169272   3.969   4.562   1.386  1.1305 -0.2505  0.1167
19206SOL    HW269273   4.016   4.649   1.516  0.2729 -0.0725  0.3090
19207SOL     OW69274   7.649   1.613   0.923  0.5481  0.1310 -0.3487
19207SOL    HW169275   7.636   1.659   1.011 -2.3950  0.2251 -0.7924
19207SOL    HW269276   7.641   1.681   0.850 -0.5659 -0.5339 -0.8491
19208SOL     OW69277   6.301   7.742   3.304 -0.3274 -0.3812 -0.3187
19208SOL    HW169278   6.317   7.838   3.284 -1.8979 -0.0842 -0.2110
19208SOL    HW269279   6.221   7.710   3.253 -2.1473 -0.5885  2.5701
19209SOL     OW69280   9.715   6.617   7.897 -0.2278  0.3211 -0.0893
19209SOL    HW169281   9.804   6.576   7.880 -0.2926  0.0547  0.2037
19209SOL    HW269282   9.645   6.569   7.844 -0.1406  0.7982 -0.6445
19210SOL     OW69283   4.012   6.053   1.435  0.2993  0.0870  0.0145
19210SOL    HW169284   4.017   6.071   1.336 -0.5842 -1.6570 -0.3628
19210SOL    HW269285   3.934   6.102   1.473  0.6595  0.7891 -0.1492
19211SOL     OW69286   9.783   4.932   2.379  0.1791 -0.2245 -0.3961
19211SOL    HW169287   9.847   4.899   2.450 -1.7618  0.4355  1.7143
19211SOL    HW269288   9.833   4.985   2.312  2.0124 -0.4598  0.7345
19212SOL     OW69289   8.019   2.311   6.289 -0.3782  0.3993 -0.2642
19212SOL    HW169290   8.025   2.368   6.372 -0.9648  1.9790 -1.2864
19212SOL    HW269291   7.927   2.319   6.250 -0.5269 -1.4268 -0.3145
19213SOL     OW69292   4.506   7.074   5.298  0.0683  0.2644 -0.0928
19213SOL    HW169293   4.485   7.064   5.395 -3.0120  1.1911 -0.6315
19213SOL    HW269294   4.558   7.158   5.283  1.3377 -0.3419  0.8436
19214SOL     OW69295   4.216   8.572   1.774 -0.3388 -0.2942 -0.8750
19214SOL    HW169296   4.207   8.672   1.767 -0.9627 -0.0905  2.0445
19214SOL    HW269297   4.256   8.536   1.690 -1.1643  2.2851 -2.4201
19215SOL     OW69298   2.950   9.591   1.299 -0.1389  0.2100 -0.0642
19215SOL    HW169299   2.939   9.636   1.210  1.6861  1.6674  0.4168
19215SOL    HW269300   2.877   9.620   1.360 -1.0923 -0.3778 -0.9146
19216SOL     OW69301   1.348   3.065   1.088  0.0676  0.4173 -0.2059
19216SOL    HW169302   1.257   3.037   1.118  0.4274 -0.8595 -0.3091
19216SOL    HW269303   1.401   3.096   1.167 -0.7914  2.1468 -0.2827
19217SOL     OW69304   6.780   8.696   5.610  0.0927  0.2612 -0.0217
19217SOL    HW169305   6.774   8.597   5.602  1.4879  0.2621 -1.1317
19217SOL    HW269306   6.744   8.739   5.527  1.0320  0.6326 -0.2437
19218SOL     OW69307   1.193   9.369   1.262 -0.4210  0.3674  0.3731
19218SOL    HW169308   1.236   9.449   1.220  0.3954  1.0100  2.4127
19218SOL    HW269309   1.106   9.395   1.302 -0.7795 -0.0627 -0.1140
19219SOL     OW69310   8.283   9.249   3.167  0.5263 -0.8429  0.2467
19219SOL    HW169311   8.342   9.269   3.089  0.7142 -3.5004 -0.3706
19219SOL    HW269312   8.221   9.173   3.143 -2.6126  1.3283  1.1358
19220SOL     OW69313   7.820   7.105   2.108 -0.9646 -0.0369  0.1317
19220SOL    HW169314   7.893   7.149   2.056  0.5063  0.4676  2.5471
19220SOL    HW269315   7.734   7.154   2.092 -0.0626  1.5473  0.0054
19221SOL     OW69316   0.313   4.042   3.422  0.7597  0.0300 -0.4366
19221SOL    HW169317   0.410   4.028   3.405  0.3085 -0.7296 -2.4360
19221SOL    HW269318   0.302   4.109   3.496  2.7871 -0.1280  0.0418
19222SOL     OW69319   4.931   0.120   5.925 -0.0218  0.1910 -0.3114
19222SOL    HW169320   4.866   0.058   5.969 -1.0691  0.4239 -1.4910
19222SOL    HW269321   5.024   0.085   5.937 -0.2905  0.1434  1.8888
19223SOL     OW69322   2.893   3.890   6.247  0.4267 -0.2862 -0.3749
19223SOL    HW169323   2.860   3.910   6.340  0.4372  0.5910 -0.5479
19223SOL    HW269324   2.815   3.876   6.187  0.3981 -0.0391 -0.3989
19224SOL     OW69325   1.154   6.981   0.267 -0.2048 -0.3241  0.3108
19224SOL    HW169326   1.179   7.067   0.223 -0.7232 -0.0764  0.4960
19224SOL    HW269327   1.236   6.926   0.283  0.2735  0.6454  1.2581
19225SOL     OW69328   9.962   4.927   3.981 -0.2660 -0.8486 -0.3577
19225SOL    HW169329   9.905   4.849   3.958  1.4135 -1.9728 -0.8001
19225SOL    HW269330  10.039   4.933   3.916 -0.4674  1.2701 -0.4578
19226SOL     OW69331   9.476   3.854   5.580 -0.2916  0.2409  0.4628
19226SOL    HW169332   9.472   3.796   5.662  0.7165  0.8731  0.9658
19226SOL    HW269333   9.439   3.804   5.503 -0.7336 -0.5758  1.1935
19227SOL     OW69334   0.633   8.280   6.751  0.2886  0.0094 -0.2278
19227SOL    HW169335   0.632   8.234   6.840  0.4881 -0.4220 -0.4449
19227SOL    HW269336   0.631   8.211   6.678  0.7174  0.3460 -0.5590
19228SOL     OW69337   7.103   8.834   3.767 -0.0171 -0.4741  0.1666
19228SOL    HW169338   7.082   8.915   3.713  0.0777 -0.2803  0.4160
19228SOL    HW269339   7.159   8.860   3.846  0.9630 -0.9471 -0.3677
19229SOL     OW69340   3.832   2.084   7.602  0.5526  0.5850  0.0709
19229SOL    HW169341   3.818   2.057   7.507  0.7889 -1.2553  0.5395
19229SOL    HW269342   3.830   2.003   7.661  0.9261  1.6375  1.5750
19230SOL     OW69343   7.142   9.904   1.825  0.3723 -0.1681 -0.0353
19230SOL    HW169344   7.225   9.959   1.819 -0.8644  1.6753 -0.4827
19230SOL    HW269345   7.083   9.941   1.896 -0.3875 -1.0545 -0.2026
19231SOL     OW69346   1.556   0.701   5.187  0.2047 -0.2058  0.0691
19231SOL    HW169347   1.484   0.723   5.253  0.7909  0.9126  0.3580
19231SOL    HW269348   1.645   0.709   5.231  0.5754 -0.0209 -0.6928
19232SOL     OW69349   1.724   9.186   1.765  0.0271  0.0042 -0.0710
19232SOL    HW169350   1.684   9.202   1.674 -1.2894 -0.8644  0.3328
19232SOL    HW269351   1.655   9.144   1.824  0.9333  0.4162  1.2854
19233SOL     OW69352   1.641   3.180   4.656  1.2438 -0.3224 -0.2983
19233SOL    HW169353   1.572   3.208   4.722  1.4494 -1.5598  0.4623
19233SOL    HW269354   1.670   3.259   4.602  0.2635  0.4782  0.3273
19234SOL     OW69355   9.503   7.482   7.380  0.3026  0.1934 -0.4011
19234SOL    HW169356   9.431   7.442   7.437  1.9233  2.0180  3.1386
19234SOL    HW269357   9.560   7.409   7.342 -0.5931 -1.0909  0.6825
19235SOL     OW69358   0.034   1.728   1.956 -0.2122  0.1627  0.0458
19235SOL    HW169359  -0.039   1.663   1.977 -0.5201  0.3772 -0.3595
19235SOL    HW269360   0.109   1.680   1.910  0.1388 -0.1609  0.9399
19236SOL     OW69361   7.751   7.538   3.826  0.4177  0.5987 -0.3984
19236SOL    HW169362   7.677   7.600   3.800  0.8416  0.9289 -0.8351
19236SOL    HW269363   7.713   7.452   3.858 -0.1569  0.7629 -0.6386
19237SOL     OW69364   1.439   9.288   2.776 -0.2331 -0.1664  0.3006
19237SOL    HW169365   1.438   9.230   2.857 -0.0780  0.0539  0.4604
19237SOL    HW269366   1.400   9.238   2.699 -3.4323  0.7188  1.2589
19238SOL     OW69367   7.340   7.117   3.033 -0.1928 -0.1962  0.3791
19238SOL    HW169368   7.343   7.205   2.985  0.1682 -0.2929  0.2164
19238SOL    HW269369   7.342   7.043   2.966 -0.1291 -0.3278  0.5273
19239SOL     OW69370   9.900   4.355   4.145  0.1879  0.3573 -0.7352
19239SOL    HW169371   9.833   4.298   4.192 -0.2524  2.8024  1.7685
19239SOL    HW269372   9.884   4.352   4.046 -1.9852 -1.0969 -0.3611
19240SOL     OW69373   6.481   8.897   7.128  0.4016 -0.1985 -0.1311
19240SOL    HW169374   6.561   8.932   7.079  0.3936 -0.6888 -0.4885
19240SOL    HW269375   6.413   8.866   7.063  0.2791 -0.6005  0.1885
19241SOL     OW69376   4.649   5.369   7.114 -0.0453 -0.0742  0.1608
19241SOL    HW169377   4.570   5.390   7.056 -0.3770 -0.1070  0.5959
19241SOL    HW269378   4.728   5.347   7.057 -0.6177 -1.0273 -0.2691
19242SOL     OW69379   9.380   4.160   5.254  0.4079  0.0978  0.2765
19242SOL    HW169380   9.364   4.130   5.160  1.7163 -1.4302  0.5189
19242SOL    HW269381   9.292   4.176   5.300 -0.2623 -0.7984 -0.6804
19243SOL     OW69382   3.141   0.640   4.836  0.0164 -0.0953 -0.9444
19243SOL    HW169383   3.172   0.554   4.876 -1.3366 -0.5100 -0.7795
19243SOL    HW269384   3.178   0.716   4.890 -2.6215 -0.6534  1.8180
19244SOL     OW69385   4.765   1.037   4.869  0.2319  0.1122 -0.1437
19244SOL    HW169386   4.668   1.063   4.870  0.3863  0.7498 -1.1653
19244SOL    HW269387   4.773   0.940   4.893 -0.6221  0.1415  0.3165
19245SOL     OW69388   7.254   0.295   6.023 -0.1330 -0.2709  0.3515
19245SOL    HW169389   7.323   0.367   6.021 -0.4199 -0.0142 -1.3911
19245SOL    HW269390   7.293   0.211   5.985 -0.6193 -0.2504 -0.2050
19246SOL     OW69391   0.110   2.910   7.004  0.7655 -0.0363 -0.2264
19246SOL    HW169392   0.208   2.898   6.993  0.8068 -1.3341  1.4437
19246SOL    HW269393   0.075   2.846   7.072 -1.1467  0.8107 -0.3621
19247SOL     OW69394   4.650   0.737   5.184 -0.1531 -0.1618 -0.0653
19247SOL    HW169395   4.584   0.812   5.183 -0.7488 -0.6771  0.0965
19247SOL    HW269396   4.625   0.672   5.257 -0.5121 -1.2787 -1.1723
19248SOL     OW69397   1.501   2.923   6.119  0.0068  0.1892 -0.4415
19248SOL    HW169398   1.467   2.940   6.027 -0.9031  1.0906  0.0495
19248SOL    HW269399   1.517   2.825   6.132 -3.6953 -0.4305 -0.2593
19249SOL     OW69400   9.390   4.486   0.207  0.0572 -0.6634  0.3712
19249SOL    HW169401   9.396   4.515   0.112 -1.1577  0.3974  0.6078
19249SOL    HW269402   9.316   4.420   0.218  1.3171 -2.1311  0.2733
19250SOL     OW69403   3.617   1.490   1.617  0.6693 -0.4551  0.4240
19250SOL    HW169404   3.661   1.579   1.614  1.5349 -0.8782  0.4926
19250SOL    HW269405   3.554   1.481   1.540 -1.6845  1.3788  2.0845
19251SOL     OW69406   0.228   3.381   1.936 -0.5955 -0.0321 -0.0028
19251SOL    HW169407   0.188   3.460   1.982 -1.6351 -0.5959  0.0832
19251SOL    HW269408   0.327   3.395   1.925 -0.4863  0.5365  1.5240
19252SOL     OW69409   5.026   1.091   4.930 -0.1315 -0.4187  0.0656
19252SOL    HW169410   4.928   1.071   4.931 -0.3266  0.3977 -1.3014
19252SOL    HW269411   5.076   1.010   4.899 -0.5908 -0.0507 -1.6703
19253SOL     OW69412   9.960   5.096   4.178  0.7127  0.0193 -1.0052
19253SOL    HW169413   9.967   5.053   4.268  0.6228 -0.7709 -1.3724
19253SOL    HW269414   9.973   5.026   4.106  1.4075  0.7482 -1.5967
19254SOL     OW69415   8.122   2.544   4.755 -0.2194 -0.0042  0.2020
19254SOL    HW169416   8.039   2.494   4.783  0.0969  0.3127  1.7581
19254SOL    HW269417   8.170   2.576   4.836 -0.2874  2.6432 -0.7739
19255SOL     OW69418   2.832   8.221   0.755  0.1678 -0.6234  0.6628
19255SOL    HW169419   2.911   8.282   0.756  0.6372 -1.2321  1.1771
19255SOL    HW269420   2.789   8.221   0.845 -2.3088  2.1147 -0.4550
19256SOL     OW69421   7.282   3.792   0.419  0.1418 -0.0487  0.2065
19256SOL    HW169422   7.239   3.861   0.476  0.0815 -1.8903  2.4726
19256SOL    HW269423   7.268   3.815   0.322 -2.7548  1.2937  0.8867
19257SOL     OW69424   7.791   9.722   7.361 -1.0060  0.0914 -0.3185
19257SOL    HW169425   7.699   9.689   7.384 -1.5787  0.8064 -1.5595
19257SOL    HW269426   7.859   9.663   7.406 -2.0618  0.6119  2.0324
19258SOL     OW69427   9.767   7.467   1.533  0.0616  0.0650  0.0520
19258SOL    HW169428   9.778   7.558   1.573 -0.1804  0.0220  0.2158
19258SOL    HW269429   9.847   7.411   1.555 -0.3258 -0.1409  0.9663
19259SOL     OW69430   7.969   6.252   2.237 -0.6935 -0.2458 -0.2899
19259SOL    HW169431   8.000   6.263   2.332 -1.9614 -0.8801  0.2092
19259SOL    HW269432   8.046   6.264   2.175 -0.2199  2.1224  0.7156
19260SOL     OW69433   0.774   7.635   6.570  0.2184  0.6139 -0.2945
19260SOL    HW169434   0.851   7.612   6.510 -1.5750 -0.9461 -2.0647
19260SOL    HW269435   0.793   7.721   6.617  2.3510  1.0539 -1.8863
19261SOL     OW69436   5.873   9.791   7.503 -0.0194 -0.3390 -0.6660
19261SOL    HW169437   5.880   9.718   7.436  0.1737  0.7281 -1.8188
19261SOL    HW269438   5.939   9.775   7.576  0.5512 -0.9049 -1.2967
19262SOL     OW69439   2.764   5.843   5.857 -0.0367 -0.3370 -0.4469
19262SOL    HW169440   2.676   5.878   5.825 -0.1641 -0.7464 -0.5440
19262SOL    HW269441   2.824   5.920   5.881 -0.6234 -0.0658  0.1539
19263SOL     OW69442   6.594   4.685   2.031 -0.4989  0.5548  0.0840
19263SOL    HW169443   6.508   4.639   2.009 -1.2406  0.8237  2.2952
19263SOL    HW269444   6.623   4.658   2.122  3.1249 -1.4849 -1.5748
19264SOL     OW69445   1.274   3.238   3.089 -0.1511  0.5737 -0.5542
19264SOL    HW169446   1.253   3.331   3.119  2.3831  0.4797  1.6658
19264SOL    HW269447   1.320   3.240   3.001 -1.4253  1.3010 -1.2175
19265SOL     OW69448   0.138   3.368   2.641  0.4836  0.1221 -0.3842
19265SOL    HW169449   0.118   3.421   2.559 -2.0115  0.2123  0.2402
19265SOL    HW269450   0.133   3.270   2.619 -0.5182  0.1423 -0.2991
19266SOL     OW69451   0.823   6.418   0.528 -0.2687 -0.3443 -0.5465
19266SOL    HW169452   0.856   6.493   0.585  3.8181 -1.3160 -1.4532
19266SOL    HW269453   0.866   6.424   0.438 -0.5018 -3.2951 -0.8933
19267SOL     OW69454   7.645   1.523   1.412  0.3312 -0.1228 -0.3366
19267SOL    HW169455   7.611   1.500   1.503 -1.5957  0.3271 -0.9048
19267SOL    HW269456   7.738   1.557   1.418  0.0507  0.3816  1.5241
19268SOL     OW69457   3.512   5.219   0.539 -0.2625 -0.4984 -0.0888
19268SOL    HW169458   3.503   5.258   0.631 -0.3083  0.4624 -0.5045
19268SOL    HW269459   3.438   5.253   0.481 -0.1382 -0.9833 -0.5308
19269SOL     OW69460   4.501   8.258   0.626 -0.1643 -0.5796  0.3282
19269SOL    HW169461   4.556   8.175   0.621 -0.3234 -0.7191  0.8322
19269SOL    HW269462   4.421   8.249   0.567  1.2456  0.3139 -1.7796
19270SOL     OW69463   7.545   7.874   4.457  0.3322  0.0127 -0.2100
19270SOL    HW169464   7.599   7.820   4.394  1.0957 -0.6608  0.9949
19270SOL    HW269465   7.598   7.892   4.540 -1.5649 -1.3834  1.3609
19271SOL     OW69466   3.563   7.902   2.230 -0.0312  0.0022  0.3239
19271SOL    HW169467   3.601   7.942   2.148  3.0340  0.3480  1.8646
19271SOL    HW269468   3.483   7.954   2.259  0.2439  1.2446 -1.1241
19272SOL     OW69469   9.192   7.825   1.341 -0.6849  0.7100  0.2025
19272SOL    HW169470   9.274   7.800   1.291 -0.8198 -1.2114  0.9284
19272SOL    HW269471   9.122   7.858   1.277 -0.3203 -0.2777 -0.6933
19273SOL     OW69472   4.900   3.384   5.993  0.2230 -0.2602 -0.1682
19273SOL    HW169473   4.850   3.431   5.920  0.5765  0.5922  0.1310
19273SOL    HW269474   4.928   3.451   6.062  0.0644 -1.0300  0.6469
19274SOL     OW69475   0.432   0.592   7.820  0.4208 -0.0126 -1.0712
19274SOL    HW169476   0.417   0.506   7.771  0.0181 -0.2045 -0.6103
19274SOL    HW269477   0.384   0.590   7.907  2.7531 -0.4649  0.2596
19275SOL     OW69478   0.533   0.363   7.410 -0.3097 -0.5704 -0.0749
19275SOL    HW169479   0.490   0.337   7.324 -0.3443 -1.9282  0.3287
19275SOL    HW269480   0.463   0.378   7.480 -0.2896  0.6764 -0.3162
19276SOL     OW69481   0.973   2.837   2.454  0.3780  0.1584 -0.2509
19276SOL    HW169482   0.898   2.860   2.516  0.1283  1.4913 -1.0299
19276SOL    HW269483   1.011   2.748   2.480 -0.8075 -0.0716  0.7721
19277SOL     OW69484   6.820   1.524   3.378  0.1148  0.3496 -0.1050
19277SOL    HW169485   6.733   1.572   3.367  0.3576  0.5788 -1.0569
19277SOL    HW269486   6.869   1.522   3.291 -0.0801 -2.0446 -0.1901
19278SOL     OW69487   3.427   3.258   5.744  0.2012 -0.4190 -0.2816
19278SOL    HW169488   3.515   3.270   5.698  0.3093 -0.1330 -0.0005
19278SOL    HW269489   3.361   3.218   5.680  0.3225  0.0664 -0.7087
19279SOL     OW69490   3.591   3.584   6.984  0.1899  0.4562  0.1800
19279SOL    HW169491   3.630   3.492   6.981 -0.2829  0.2825 -1.1184
19279SOL    HW269492   3.637   3.638   7.055  1.7785 -0.1903 -0.3412
19280SOL     OW69493   0.065   4.998   7.356 -0.5603  0.0033 -0.0416
19280SOL    HW169494  -0.004   4.998   7.428 -0.7884 -0.3180 -0.2633
19280SOL    HW269495   0.020   5.001   7.266 -0.3160 -1.7638 -0.2280
19281SOL     OW69496   0.965   4.418   7.706  0.0471 -0.0086 -0.0053
19281SOL    HW169497   0.994   4.362   7.784 -0.9832 -1.0244 -0.3502
19281SOL    HW269498   0.897   4.485   7.737 -0.9609 -0.9454 -0.1909
19282SOL     OW69499   2.111   8.138   0.365  0.2689  0.3697 -0.3402
19282SOL    HW169500   2.099   8.176   0.457 -1.6384  0.5689 -0.6376
19282SOL    HW269501   2.049   8.185   0.302 -0.0020 -1.2249 -1.2868
19283SOL     OW69502   8.537   7.126   0.357 -0.3928  0.3750  0.0392
19283SOL    HW169503   8.493   7.167   0.278 -0.3260  0.1411 -0.1207
19283SOL    HW269504   8.487   7.044   0.385 -1.3765  1.3631  1.2526
19284SOL     OW69505   0.339   7.064   4.375  0.3841  0.1128  0.9241
19284SOL    HW169506   0.240   7.071   4.380  0.3247  0.8450 -0.9505
19284SOL    HW269507   0.379   7.088   4.464 -1.0759  0.4596  1.4959
19285SOL     OW69508   3.340   4.941   3.858  0.5645  0.2333 -0.1397
19285SOL    HW169509   3.387   5.027   3.837  1.0134 -0.2526 -1.1620
19285SOL    HW269510   3.319   4.893   3.773 -1.1346  0.0891  0.3429
19286SOL     OW69511   4.891   9.586   4.989 -0.1343 -0.4452 -0.7078
19286SOL    HW169512   4.924   9.568   4.897  2.3163 -1.0035  0.2400
19286SOL    HW269513   4.800   9.545   5.001 -0.3359 -0.6198 -2.7539
19287SOL     OW69514   5.984   9.492   3.163 -0.3498  0.3477 -0.0760
19287SOL    HW169515   6.047   9.508   3.239 -0.0141  0.4499 -0.3754
19287SOL    HW269516   5.957   9.580   3.124  0.8746  0.2256 -1.2191
19288SOL     OW69517   8.915   4.465   4.498 -0.5904 -0.0806  0.0101
19288SOL    HW169518   8.826   4.427   4.474 -0.4716 -0.9289  0.8548
19288SOL    HW269519   8.987   4.401   4.472 -0.1575  0.9494 -1.3931
19289SOL     OW69520   8.011   0.310   3.081  0.2450  0.4958  0.1367
19289SOL    HW169521   8.049   0.373   3.148  0.2520  0.0042  0.6031
19289SOL    HW269522   8.084   0.250   3.047 -0.2599 -1.0809  1.7373
19290SOL     OW69523   2.155   1.682   4.678 -0.6823  0.1868  0.1999
19290SOL    HW169524   2.132   1.633   4.594 -0.7651  0.1298  0.2550
19290SOL    HW269525   2.084   1.749   4.698 -0.7292  0.1091  0.2952
19291SOL     OW69526   7.467   7.407   2.126  0.4130 -0.1225  0.3287
19291SOL    HW169527   7.377   7.376   2.098  1.0205 -1.6409  0.0266
19291SOL    HW269528   7.473   7.506   2.116 -0.6132 -0.2205 -1.3772
19292SOL     OW69529   1.365   7.624   3.642  0.6729 -0.3356  0.0467
19292SOL    HW169530   1.271   7.595   3.658 -0.2124  1.3613 -1.9311
19292SOL    HW269531   1.405   7.655   3.729 -1.4090  1.2567  0.4990
19293SOL     OW69532   1.129   0.022   4.154 -0.2374  0.0367  0.1916
19293SOL    HW169533   1.177   0.052   4.071  3.2813  0.4191  2.2501
19293SOL    HW269534   1.076   0.098   4.191  1.2789  1.0446  0.3522
19294SOL     OW69535   9.108   1.420   3.586 -0.0565  0.3469 -0.1835
19294SOL    HW169536   9.164   1.338   3.573 -2.8404 -1.2280 -3.1349
19294SOL    HW269537   9.096   1.466   3.498 -0.5802  2.5521  1.0113
19295SOL     OW69538   0.949   0.398   4.678  0.4314 -0.2147 -0.4138
19295SOL    HW169539   0.881   0.428   4.611  1.6839  3.2345 -0.2231
19295SOL    HW269540   1.013   0.334   4.635 -3.1702 -3.9976 -0.4491
19296SOL     OW69541   4.608   0.117   5.628 -0.2700 -0.4950 -0.3696
19296SOL    HW169542   4.679   0.051   5.652 -1.5141 -2.4006 -1.7767
19296SOL    HW269543   4.622   0.150   5.535  0.7014  1.7469  0.5384
19297SOL     OW69544   2.577   7.106   7.035 -0.1150  0.5836  0.7722
19297SOL    HW169545   2.612   7.014   7.056  3.6979  2.3669  2.8036
19297SOL    HW269546   2.590   7.124   6.938  0.0816 -0.6469  0.5569
19298SOL     OW69547   4.694   1.030   1.359  0.5178  0.0776 -0.2000
19298SOL    HW169548   4.645   0.964   1.301 -1.6519  1.9611 -0.5806
19298SOL    HW269549   4.636   1.058   1.434  1.7446  0.9262  0.4505
19299SOL     OW69550   5.184   5.249   0.440  0.2632 -0.2349  0.1890
19299SOL    HW169551   5.151   5.256   0.346  0.3381 -1.1791  0.0886
19299SOL    HW269552   5.269   5.197   0.442  0.9798  0.9454  0.6203
19300SOL     OW69553   4.514   1.049   2.015  0.4359  0.7340 -0.4604
19300SOL    HW169554   4.441   1.088   2.073 -1.5491  0.2782 -2.5882
19300SOL    HW269555   4.572   1.123   1.981  1.3183  1.0595  1.6600
19301SOL     OW69556   7.920   7.519   7.693 -0.2622  0.4400  0.6327
19301SOL    HW169557   7.856   7.595   7.698 -0.4495  0.3939 -0.7754
19301SOL    HW269558   7.918   7.479   7.601  0.6475 -0.5541  1.0215
19302SOL     OW69559   8.825   8.042   5.122  0.2600 -0.4636  0.6495
19302SOL    HW169560   8.744   7.999   5.164 -0.5220  1.6486  1.3714
19302SOL    HW269561   8.855   7.987   5.044 -0.9681 -2.0777  1.2711
19303SOL     OW69562   9.402   8.088   5.721  0.4048 -0.5109  0.0917
19303SOL    HW169563   9.471   8.155   5.695  1.6274 -2.4112 -1.6477
19303SOL    HW269564   9.437   8.032   5.797 -0.3067  0.2541  1.0066
19304SOL     OW69565   2.122   0.070   5.530 -0.1077 -0.0382  0.1931
19304SOL    HW169566   2.092   0.014   5.452  0.3427  1.6681 -1.2359
19304SOL    HW269567   2.222   0.064   5.538 -0.0189  0.8087 -0.1861
19305SOL     OW69568   7.996   1.478   7.179  0.3052 -0.3277 -0.4752
19305SOL    HW169569   7.942   1.456   7.098 -0.4148  0.0996 -0.1129
19305SOL    HW269570   7.982   1.574   7.203  1.2225 -0.2138 -0.3788
19306SOL     OW69571   9.135   3.392   1.896  0.5048 -0.2540 -0.0785
19306SOL    HW169572   9.079   3.387   1.813  0.6501  2.2449 -0.3703
19306SOL    HW269573   9.105   3.470   1.951  0.8001 -1.5442  1.9435
19307SOL     OW69574   9.958   7.927   4.965 -0.8162 -0.0613  0.1723
19307SOL    HW169575   9.866   7.968   4.962 -0.1440  1.4566  0.0485
19307SOL    HW269576   9.954   7.843   5.019 -2.3006 -0.0663  0.1028
19308SOL     OW69577   3.299   1.268   2.695 -0.5758  0.1398 -0.2741
19308SOL    HW169578   3.205   1.236   2.681 -0.1193 -0.5794 -1.8831
19308SOL    HW269579   3.298   1.355   2.744 -2.0979  0.2320 -0.4473
19309SOL     OW69580   1.975   5.756   1.845  0.5902 -0.2274 -0.6216
19309SOL    HW169581   1.955   5.707   1.930 -0.4516 -0.8943 -1.2438
19309SOL    HW269582   2.071   5.786   1.845  0.6820 -0.5260  0.6307
19310SOL     OW69583   7.919   6.030   4.178 -0.4825 -0.2549  0.4476
19310SOL    HW169584   7.842   6.077   4.222 -0.3402  0.0163  0.4069
19310SOL    HW269585   7.905   6.028   4.079 -0.3684 -0.0810  0.4277
19311SOL     OW69586   3.340   8.537   6.868 -0.0868 -0.2668  0.0411
19311SOL    HW169587   3.309   8.570   6.778 -1.3683  2.6102  1.4730
19311SOL    HW269588   3.439   8.523   6.865 -0.1385 -0.3869 -1.8863
19312SOL     OW69589   3.675   1.894   4.615 -0.4069  0.6545 -0.5720
19312SOL    HW169590   3.734   1.874   4.536  0.2822  0.5328 -0.0303
19312SOL    HW269591   3.718   1.964   4.672  0.3453 -1.1080  1.0823
19313SOL     OW69592   2.043   4.046   1.750 -0.0096 -0.2618  0.1899
19313SOL    HW169593   1.979   4.003   1.814  0.2557 -0.5316  0.2745
19313SOL    HW269594   2.037   4.000   1.661 -0.8196  0.5056 -0.1642
19314SOL     OW69595   7.674   3.763  10.003 -0.4131 -0.0297 -0.4800
19314SOL    HW169596   7.687   3.861   9.986 -0.3019 -0.1850 -1.3372
19314SOL    HW269597   7.761   3.715   9.990 -0.4522 -0.2306 -0.0026
19315SOL     OW69598   9.873   5.291   4.691  0.0441 -0.0232 -0.0793
19315SOL    HW169599   9.913   5.219   4.748  1.2371 -0.1070 -0.9983
19315SOL    HW269600   9.843   5.367   4.749 -0.8615 -1.0807  0.8577
19316SOL     OW69601   0.428   8.497   2.321 -0.0729  0.4803 -0.4277
19316SOL    HW169602   0.352   8.448   2.277  0.0937  0.3613 -0.5791
19316SOL    HW269603   0.504   8.433   2.337 -1.0511 -0.0952  2.2645
19317SOL     OW69604   4.315   7.468   1.973 -0.3965  0.7807 -0.5802
19317SOL    HW169605   4.268   7.541   2.023  0.8983  1.4186 -0.2908
19317SOL    HW269606   4.414   7.482   1.978 -0.1027 -1.2796 -0.0586
19318SOL     OW69607   8.668   5.243   2.422 -0.4579  0.3280  0.2272
19318SOL    HW169608   8.749   5.219   2.475 -0.6180 -1.1138 -0.1721
19318SOL    HW269609   8.616   5.314   2.471  1.0163  1.2410  0.4929
19319SOL     OW69610   2.092   1.258   6.979 -0.0662 -0.2567  0.2303
19319SOL    HW169611   2.009   1.205   6.960  0.0725 -0.3280 -0.1649
19319SOL    HW269612   2.068   1.355   6.986 -0.2533 -0.3249  0.5476
19320SOL     OW69613   1.027   4.578   5.601 -0.0453  0.1074 -0.4582
19320SOL    HW169614   1.060   4.495   5.646 -0.9615 -0.1866 -0.3260
19320SOL    HW269615   0.964   4.626   5.662 -1.1681 -0.2064 -1.3552
19321SOL     OW69616   0.869   8.282   0.695 -0.0032 -0.0154 -0.2671
19321SOL    HW169617   0.923   8.310   0.775 -0.9956  0.6808  0.1798
19321SOL    HW269618   0.886   8.186   0.675  0.6609 -0.0534  0.4689
19322SOL     OW69619   1.097   5.950   3.881  0.1237 -0.7422  0.0777
19322SOL    HW169620   1.058   5.931   3.791  0.9471  1.3227 -0.7396
19322SOL    HW269621   1.025   5.985   3.942  0.3918  1.8247 -1.0415
19323SOL     OW69622   2.077   7.913   0.711 -0.7491  0.1104  0.3207
19323SOL    HW169623   2.093   7.822   0.671  2.2431 -0.1661  1.9678
19323SOL    HW269624   2.129   7.981   0.659  0.6898  0.1786  1.7894
19324SOL     OW69625   8.439   5.723   1.329  0.3802 -0.3212  0.2627
19324SOL    HW169626   8.445   5.823   1.333  0.6486 -0.3743  1.1612
19324SOL    HW269627   8.408   5.696   1.238  2.7397  0.4583 -0.8147
19325SOL     OW69628   7.892   0.257   5.739 -0.3996 -0.0897  0.1210
19325SOL    HW169629   7.978   0.241   5.692 -1.3089 -0.6151 -1.3916
19325SOL    HW269630   7.907   0.317   5.818  1.2145  0.3876 -0.5473
19326SOL     OW69631   9.528   5.585   5.475 -0.2028 -0.3015  0.0980
19326SOL    HW169632   9.468   5.660   5.502  0.4375  0.8501 -1.6060
19326SOL    HW269633   9.478   5.498   5.479 -2.0088  0.6476 -1.3705
19327SOL     OW69634   3.466   0.135   2.410  0.4111  0.3123 -0.5632
19327SOL    HW169635   3.469   0.216   2.352  0.3663 -0.3299 -1.4653
19327SOL    HW269636   3.425   0.160   2.498  1.3278  1.4944 -0.4525
19328SOL     OW69637   6.215   1.372   5.982  0.3669  0.4490 -0.4329
19328SOL    HW169638   6.248   1.385   6.075  0.5137 -0.9775 -0.2789
19328SOL    HW269639   6.196   1.461   5.941  3.2246  1.2476 -0.1131
19329SOL     OW69640   7.515   4.246   2.383 -0.0091 -0.4095  0.7589
19329SOL    HW169641   7.504   4.238   2.284  0.0312  0.7532  0.6564
19329SOL    HW269642   7.459   4.321   2.417  1.5753  0.5392  1.3127
19330SOL     OW69643   3.378   2.753   2.834  0.6778  0.5264  0.3326
19330SOL    HW169644   3.430   2.668   2.823 -0.0953 -0.0425  1.0056
19330SOL    HW269645   3.309   2.741   2.905 -0.2910  1.3179 -0.4617
19331SOL     OW69646   8.533   0.040   4.124  0.3000 -0.3169 -0.4821
19331SOL    HW169647   8.573  -0.012   4.049  0.2394  0.1125 -0.8123
19331SOL    HW269648   8.562   0.136   4.117 -0.5648 -0.0572 -0.5631
19332SOL     OW69649   5.491   9.893   7.125  0.7470 -0.8291  0.3518
19332SOL    HW169650   5.411   9.951   7.135  0.5843 -1.0855  0.5291
19332SOL    HW269651   5.482   9.838   7.042  2.4258  1.8323 -1.7141
19333SOL     OW69652   7.432   8.129   6.002 -0.1452 -0.5601 -0.1394
19333SOL    HW169653   7.405   8.081   6.086  0.6862  1.1478  1.1487
19333SOL    HW269654   7.354   8.180   5.966 -0.1706 -0.2380  0.3568
19334SOL     OW69655   0.214   6.451   5.032 -0.2767  0.4711 -0.3833
19334SOL    HW169656   0.280   6.378   5.014 -0.5568  0.4595 -1.4113
19334SOL    HW269657   0.163   6.429   5.116  2.2725  1.4072  1.4660
19335SOL     OW69658   1.821   8.980   0.152  0.3751 -0.4751 -0.3127
19335SOL    HW169659   1.742   8.942   0.199 -0.0602  1.8352  0.8978
19335SOL    HW269660   1.868   9.045   0.213  2.2744 -0.6226 -1.5717
19336SOL     OW69661   5.693   2.601   4.851 -0.0263  0.0228  0.2166
19336SOL    HW169662   5.713   2.686   4.899  2.6160 -1.0116  1.0512
19336SOL    HW269663   5.678   2.528   4.918 -1.6802 -0.2949 -0.4897
19337SOL     OW69664   9.540   2.914   5.165 -0.2046 -0.5521  0.1980
19337SOL    HW169665   9.488   2.851   5.223 -1.8188  0.6958  0.1603
19337SOL    HW269666   9.496   3.004   5.166  0.8420  0.0063 -1.4344
19338SOL     OW69667   9.125   4.905   2.522 -0.0290  0.1870  0.3077
19338SOL    HW169668   9.051   4.868   2.578  0.4196  0.0226  0.7829
19338SOL    HW269669   9.192   4.950   2.580  0.7925 -0.5962 -0.0310
19339SOL     OW69670   3.252   9.123   2.343 -0.1032 -0.0336  0.2263
19339SOL    HW169671   3.348   9.100   2.329 -0.1660 -0.2771  0.1978
19339SOL    HW269672   3.194   9.050   2.308 -0.3085  0.2496 -0.0344
19340SOL     OW69673   7.047   2.658   4.700 -0.0055  0.0673 -0.1421
19340SOL    HW169674   7.043   2.676   4.602  1.2014  1.3054  0.0286
19340SOL    HW269675   7.133   2.611   4.722 -0.3572 -0.3737  0.2999
19341SOL     OW69676   8.390   7.424   5.187  0.0833 -0.0171  0.3211
19341SOL    HW169677   8.382   7.510   5.237 -0.9005 -0.3721  0.7916
19341SOL    HW269678   8.367   7.348   5.248  0.5603 -0.5848 -0.1978
19342SOL     OW69679   1.648   6.574   1.181  0.4363 -0.7705  0.1616
19342SOL    HW169680   1.649   6.643   1.252  0.2712 -0.2555 -0.3301
19342SOL    HW269681   1.702   6.606   1.103  0.9159 -1.4815  0.2003
19343SOL     OW69682   1.831   6.600   2.700 -0.4423  0.1125 -0.0965
19343SOL    HW169683   1.913   6.630   2.749  0.9129 -3.2454 -0.1130
19343SOL    HW269684   1.795   6.675   2.645  2.2323  1.8511  0.4356
19344SOL     OW69685   4.309   4.459   1.728 -0.0182 -0.2091 -0.5848
19344SOL    HW169686   4.256   4.387   1.772  1.2757 -0.1246  1.1829
19344SOL    HW269687   4.399   4.423   1.703  0.2852  0.5194 -0.5567
19345SOL     OW69688   2.529   8.381   4.548  0.0843 -0.3896  0.2944
19345SOL    HW169689   2.610   8.404   4.494 -0.1514  0.0685  0.1280
19345SOL    HW269690   2.517   8.282   4.552 -0.6916 -0.4011 -1.6769
19346SOL     OW69691   2.130   4.201   0.138 -1.1910  0.5660  0.3062
19346SOL    HW169692   2.061   4.236   0.075 -0.9831  2.0908  0.9070
19346SOL    HW269693   2.088   4.137   0.202 -1.3901 -1.0551 -1.4020
19347SOL     OW69694   4.852   8.014   5.492 -0.1722  0.0878  0.0039
19347SOL    HW169695   4.831   7.981   5.584  0.4250 -0.1080  0.0727
19347SOL    HW269696   4.914   8.092   5.498 -1.9878  1.5723 -0.1356
19348SOL     OW69697   1.547   9.988   4.606  0.5596 -0.1674 -0.0918
19348SOL    HW169698   1.528  10.087   4.612  1.5980 -0.0474  1.3958
19348SOL    HW269699   1.461   9.938   4.614  0.1802  0.5722  0.6023
19349SOL     OW69700   2.517   8.882   4.428  0.3758  0.2312  0.0876
19349SOL    HW169701   2.594   8.896   4.365  0.8197 -0.9667  0.3626
19349SOL    HW269702   2.528   8.796   4.477 -1.2592 -0.0688 -0.0320
19350SOL     OW69703   1.189   3.382   4.321 -0.2635 -0.1484 -0.0625
19350SOL    HW169704   1.234   3.327   4.391 -1.3813  0.1274  0.8860
19350SOL    HW269705   1.182   3.329   4.236  0.5957 -0.6770  0.1933
19351SOL     OW69706   8.011   2.939   2.735 -0.3546  0.2714  0.0642
19351SOL    HW169707   8.085   2.872   2.724 -1.6747 -1.4429  1.4139
19351SOL    HW269708   8.032   3.000   2.811 -1.1941 -1.4738  1.7524
19352SOL     OW69709   1.072   2.113   6.556  0.6132 -0.4299  0.2997
19352SOL    HW169710   1.170   2.126   6.544  0.5226  0.0852  0.1103
19352SOL    HW269711   1.042   2.036   6.499  0.5671  0.6523 -1.1578
19353SOL     OW69712   5.868   0.332   5.786 -0.1237 -0.7478 -0.0623
19353SOL    HW169713   5.960   0.297   5.800 -0.6305 -2.1783 -0.2002
19353SOL    HW269714   5.807   0.257   5.760 -1.0458  0.4069 -1.2827
19354SOL     OW69715   3.263   6.830   7.145  0.0574  0.0527 -0.2400
19354SOL    HW169716   3.290   6.893   7.072 -0.1969 -1.7830 -1.9686
19354SOL    HW269717   3.344   6.800   7.195  0.3052  0.8116 -0.1786
19355SOL     OW69718   7.763   4.657   2.572  0.1679  0.3472 -0.1290
19355SOL    HW169719   7.808   4.625   2.655 -0.1870 -1.1263 -0.4908
19355SOL    HW269720   7.730   4.750   2.586 -1.4252 -0.4992  1.9874
19356SOL     OW69721   8.315   0.369   1.975 -0.5719  0.2915 -0.0628
19356SOL    HW169722   8.374   0.410   1.905  0.3827  1.0532  1.1641
19356SOL    HW269723   8.235   0.428   1.989 -0.9208 -0.0202 -0.7249
19357SOL     OW69724   8.755   3.300   5.056 -0.1572 -0.1946  0.8348
19357SOL    HW169725   8.809   3.261   4.981  0.0836  0.6424  0.5707
19357SOL    HW269726   8.801   3.280   5.143  0.7793  0.8219  0.5851
19358SOL     OW69727   9.074   4.234   2.166 -0.1284 -0.1060  0.5640
19358SOL    HW169728   9.056   4.308   2.231 -0.9804  0.1152  0.0736
19358SOL    HW269729   9.064   4.146   2.212 -0.5797  0.0532  0.7722
19359SOL     OW69730   0.040   9.251   7.084  0.0496 -0.4806  0.2685
19359SOL    HW169731   0.109   9.290   7.022  0.1900 -0.6877  0.2954
19359SOL    HW269732   0.037   9.305   7.169  1.4957 -1.5833  1.0343
19360SOL     OW69733   3.086   0.726   6.096 -0.2245  0.1157 -0.6412
19360SOL    HW169734   3.116   0.656   6.031  0.2322  1.4025 -1.8497
19360SOL    HW269735   2.986   0.734   6.093 -0.2050  0.1822 -1.2134
19361SOL     OW69736   1.738   7.933   6.296 -0.2794  0.3615  0.1652
19361SOL    HW169737   1.645   7.958   6.271 -0.1432 -0.5534 -1.3054
19361SOL    HW269738   1.735   7.859   6.364 -0.6325  0.0607 -0.1707
19362SOL     OW69739   7.253   1.684   1.556 -0.4180 -0.0128 -0.3038
19362SOL    HW169740   7.295   1.669   1.466  1.2004  0.1136  0.4159
19362SOL    HW269741   7.168   1.633   1.562  1.3620 -3.0894 -0.5417
19363SOL     OW69742   2.821   7.569   0.359 -0.5833 -0.4895  0.3494
19363SOL    HW169743   2.815   7.604   0.265 -0.1159 -0.9118  0.1574
19363SOL    HW269744   2.753   7.497   0.372  1.3274 -2.5266 -0.6044
19364SOL     OW69745   9.643   0.070   3.972  0.2797  0.2111  0.3381
19364SOL    HW169746   9.723   0.127   3.955 -0.6767  1.8042  0.9814
19364SOL    HW269747   9.560   0.125   3.956 -0.6653 -1.2581  0.1537
19365SOL     OW69748   7.023   1.910   3.447  0.0635  0.0048 -0.1795
19365SOL    HW169749   6.925   1.917   3.426  0.1152  0.8086 -0.1502
19365SOL    HW269750   7.034   1.896   3.546  0.1078  3.5622  0.3717
19366SOL     OW69751   4.173   8.914   4.236 -0.5307  0.3370  0.7317
19366SOL    HW169752   4.085   8.886   4.197 -0.1110  1.2983 -0.9494
19366SOL    HW269753   4.246   8.894   4.172  0.6315 -1.3438  2.5269
19367SOL     OW69754   5.795   8.133   6.605  0.1909  0.2644 -0.4347
19367SOL    HW169755   5.793   8.198   6.681  1.9839 -0.3257  0.1513
19367SOL    HW269756   5.890   8.113   6.581 -0.3562  0.4590 -2.8616
19368SOL     OW69757   1.816   5.346   3.729 -0.0319  0.2043 -0.4030
19368SOL    HW169758   1.765   5.395   3.799  0.4277 -0.1829  0.2159
19368SOL    HW269759   1.759   5.273   3.691  0.0929 -0.3080  0.3737
19369SOL     OW69760   2.070   7.396   2.867  0.2640  0.0649 -0.0230
19369SOL    HW169761   1.982   7.352   2.851  0.7401 -1.2104  0.8333
19369SOL    HW269762   2.126   7.391   2.785  0.7151 -1.8660  0.3830
19370SOL     OW69763   2.765   2.786   5.389  0.1266  0.0333 -0.1248
19370SOL    HW169764   2.813   2.792   5.302  0.1032 -2.2393 -0.3377
19370SOL    HW269765   2.815   2.835   5.459 -0.1071  2.3047 -1.5133
19371SOL     OW69766   3.876   4.442   7.869  0.1563  0.6927  0.9799
19371SOL    HW169767   3.935   4.383   7.924  0.2997  0.1837  0.2876
19371SOL    HW269768   3.801   4.388   7.830  0.4663  0.8870  0.0821
19372SOL     OW69769   3.876   9.630   4.780  0.5470 -0.3678  0.1684
19372SOL    HW169770   3.890   9.531   4.784  0.6934 -0.3749 -0.5003
19372SOL    HW269771   3.794   9.650   4.726  1.5339 -0.0465 -1.2270
19373SOL     OW69772   9.420   5.889   3.765 -0.5712 -0.0074  0.1088
19373SOL    HW169773   9.422   5.878   3.666 -0.5266  1.2593 -0.0449
19373SOL    HW269774   9.343   5.948   3.791 -0.1053  0.3317  0.7448
19374SOL     OW69775   8.941   6.079   4.437 -0.0168 -0.0439  0.3563
19374SOL    HW169776   9.000   6.070   4.517  0.3607 -0.7364  0.0076
19374SOL    HW269777   8.859   6.131   4.461 -0.4734 -1.2759  1.4962
19375SOL     OW69778   5.375   9.643   4.364 -0.0339  0.5901  0.0029
19375SOL    HW169779   5.331   9.639   4.274 -0.6934  0.8900  0.3058
19375SOL    HW269780   5.306   9.629   4.435  0.4335  0.6565  0.4720
19376SOL     OW69781   3.931   8.830   0.851  0.0192 -0.8605 -0.0822
19376SOL    HW169782   3.839   8.839   0.890 -0.7650  2.7764 -2.5148
19376SOL    HW269783   3.998   8.860   0.919 -0.8113 -0.6038  0.6445
19377SOL     OW69784   3.560   0.976   3.051 -0.2166 -1.1199 -0.3219
19377SOL    HW169785   3.651   0.952   3.087  0.4428  0.5156 -0.8827
19377SOL    HW269786   3.503   1.011   3.125 -0.0196 -1.0777 -0.1897
19378SOL     OW69787   4.612   1.130   5.856 -0.2693  0.0552  0.3499
19378SOL    HW169788   4.625   1.229   5.856 -2.2098  0.3327 -0.2743
19378SOL    HW269789   4.551   1.105   5.932  0.7195 -0.7538  0.9022
19379SOL     OW69790   1.479   1.333   5.786  0.3978 -0.4625  0.7726
19379SOL    HW169791   1.406   1.380   5.836  0.3073  1.0279 -0.7498
19379SOL    HW269792   1.450   1.239   5.766 -1.6951  0.5443 -1.0675
19380SOL     OW69793   1.380   2.525   5.566 -0.7329 -0.0764 -0.5193
19380SOL    HW169794   1.480   2.524   5.553 -0.7216  0.1388 -0.4416
19380SOL    HW269795   1.345   2.432   5.555 -0.2759 -0.5052  1.3371
19381SOL     OW69796   5.566   7.136   2.511 -0.0549 -0.0794  0.3336
19381SOL    HW169797   5.543   7.196   2.588  0.7911 -1.6260  1.8199
19381SOL    HW269798   5.651   7.167   2.469  1.0940 -0.9746  1.9303
19382SOL     OW69799   0.643   7.408   1.856  0.5938 -0.7632 -0.3357
19382SOL    HW169800   0.699   7.481   1.893  1.7021 -1.4843 -0.5656
19382SOL    HW269801   0.621   7.429   1.760 -1.4462  0.6187  0.4067
19383SOL     OW69802   2.343   5.254   5.058 -0.2958 -0.3926 -0.0031
19383SOL    HW169803   2.275   5.318   5.024  0.1096  0.3491  0.5493
19383SOL    HW269804   2.364   5.186   4.988 -2.0011 -0.9580  0.0285
19384SOL     OW69805   9.686   0.404   3.270 -0.4186 -0.3053  0.3338
19384SOL    HW169806   9.637   0.349   3.336  0.2992  0.5521  1.6038
19384SOL    HW269807   9.712   0.347   3.192 -3.0840 -0.8353 -0.1987
19385SOL     OW69808   6.463   9.386   3.902  0.0792  0.3068  0.2533
19385SOL    HW169809   6.479   9.367   3.805  0.4928 -1.7327  0.6905
19385SOL    HW269810   6.533   9.449   3.936  1.7610 -1.3251 -0.0796
19386SOL     OW69811   9.876   6.238   7.055 -0.1438 -0.0503  0.3203
19386SOL    HW169812   9.784   6.240   7.016 -1.1999  0.6607  2.7544
19386SOL    HW269813   9.897   6.146   7.087 -0.7653  0.2087  1.4855
19387SOL     OW69814   5.383   8.084   7.156  0.4604  0.1081 -0.3617
19387SOL    HW169815   5.301   8.082   7.099 -0.0548 -0.6951  0.3893
19387SOL    HW269816   5.464   8.071   7.099 -0.0818 -1.1565 -0.8559
19388SOL     OW69817   0.278   1.125   6.515  0.1782  0.0830  0.3145
19388SOL    HW169818   0.260   1.028   6.499  0.1346 -0.1178  1.5573
19388SOL    HW269819   0.325   1.136   6.602  0.6958  1.1327 -0.0965
19389SOL     OW69820   1.158   1.190   6.993 -0.1089 -0.7327  0.1596
19389SOL    HW169821   1.137   1.259   6.924 -1.5951 -2.5274 -1.2499
19389SOL    HW269822   1.253   1.201   7.023 -0.5792  2.4609  0.6724
19390SOL     OW69823   5.367   9.497   2.627 -0.2223  0.1828  0.3075
19390SOL    HW169824   5.418   9.417   2.657 -1.3039 -0.7392 -0.2952
19390SOL    HW269825   5.337   9.485   2.533 -0.3251  1.3296  0.1835
19391SOL     OW69826   7.712   1.274   6.728  0.1377 -0.6741 -0.3427
19391SOL    HW169827   7.654   1.355   6.719  0.2326 -0.3800  1.5650
19391SOL    HW269828   7.662   1.194   6.694  0.0559  0.1618 -2.2737
19392SOL     OW69829   2.373   2.686   1.419  0.2749 -0.1832  0.1690
19392SOL    HW169830   2.311   2.684   1.341  0.0979  2.5410  0.2112
19392SOL    HW269831   2.461   2.645   1.392 -0.1007 -0.1564 -1.1433
19393SOL     OW69832   5.149   5.819   2.531 -0.2728  0.4980  0.0852
19393SOL    HW169833   5.149   5.731   2.483 -0.2948  0.1734  0.6764
19393SOL    HW269834   5.162   5.893   2.465  0.6971 -0.0088 -0.2929
19394SOL     OW69835   0.287   5.017   5.650  0.6925  0.1722  0.2250
19394SOL    HW169836   0.229   5.098   5.648 -0.7853 -0.8794 -2.3677
19394SOL    HW269837   0.281   4.975   5.740 -1.2037  1.0918  0.5613
19395SOL     OW69838   4.798   9.980   5.099  0.3426  0.2491 -0.3745
19395SOL    HW169839   4.823  10.076   5.097  0.8644  0.1313  0.4068
19395SOL    HW269840   4.871   9.925   5.058  1.4486 -0.1069  2.0216
19396SOL     OW69841   3.941   6.164   0.048 -0.2542 -0.4286 -0.0528
19396SOL    HW169842   3.909   6.183  -0.045 -1.5820 -1.0068  0.2626
19396SOL    HW269843   3.968   6.068   0.055  1.9089  0.1353 -0.3987
19397SOL     OW69844   8.763   2.872   0.009 -0.0060  0.1367  0.2184
19397SOL    HW169845   8.664   2.858   0.008 -0.0751  0.5014  1.2375
19397SOL    HW269846   8.782   2.970   0.012  0.4109  0.1087 -1.0738
19398SOL     OW69847   1.969   9.177   4.443 -0.2608  0.0776 -0.4743
19398SOL    HW169848   1.972   9.077   4.438 -1.4028  0.0817 -1.7090
19398SOL    HW269849   1.876   9.209   4.421 -0.2348  1.3490  1.1929
19399SOL     OW69850   2.241   5.944   7.139 -0.2017  0.0457  0.5240
19399SOL    HW169851   2.292   5.861   7.116  0.2153  0.1137  1.1765
19399SOL    HW269852   2.229   5.949   7.239 -0.8688  0.3920  0.4298
19400SOL     OW69853   9.836   4.508   3.089  0.5860  0.0355 -0.6020
19400SOL    HW169854   9.741   4.480   3.075  0.7402 -1.5196  1.2114
19400SOL    HW269855   9.842   4.608   3.087 -1.5439  0.2686  1.8332
19401SOL     OW69856   9.399   8.221   2.018  0.3716  0.0851  0.5189
19401SOL    HW169857   9.416   8.265   1.930 -0.9334  1.8437  1.1014
19401SOL    HW269858   9.486   8.200   2.062  1.0502  1.3507 -0.1687
19402SOL     OW69859   0.388   7.457   1.517  0.1510 -0.3086 -0.5734
19402SOL    HW169860   0.354   7.484   1.427 -0.4916 -3.4790 -1.3218
19402SOL    HW269861   0.395   7.358   1.522  3.2721 -0.0420  1.7989
19403SOL     OW69862   4.286   9.684   4.473  0.1726  0.0095  0.1212
19403SOL    HW169863   4.215   9.658   4.408 -0.8994  0.2257  1.1711
19403SOL    HW269864   4.370   9.633   4.455 -1.0441 -2.1520  0.4653
19404SOL     OW69865   8.452   6.887   5.783 -0.1162  0.0727  0.5053
19404SOL    HW169866   8.427   6.790   5.777 -0.1947  0.1292 -0.2159
19404SOL    HW269867   8.370   6.943   5.768 -0.0993  0.2528  1.0716
19405SOL     OW69868   3.936   4.117   4.874 -0.3042  0.2790 -0.0205
19405SOL    HW169869   3.909   4.131   4.779 -0.6619  1.2434  0.2158
19405SOL    HW269870   4.026   4.158   4.890  0.0089 -0.3769 -0.0803
19406SOL     OW69871   0.898   9.037   4.120  0.1246 -0.4585 -0.0399
19406SOL    HW169872   0.983   8.993   4.150  0.0080 -0.8770 -0.3183
19406SOL    HW269873   0.821   8.980   4.148 -0.1194  0.3982  1.0638
19407SOL     OW69874   7.755   7.811   5.825  0.7704 -0.5213 -0.4268
19407SOL    HW169875   7.753   7.736   5.892 -2.7619  0.1109  0.2644
19407SOL    HW269876   7.744   7.898   5.873  1.0712  0.1590 -1.5794
19408SOL     OW69877   0.259   9.043   5.104  0.3669  0.4489  0.1785
19408SOL    HW169878   0.172   8.999   5.082  0.6124 -0.5845  1.2433
19408SOL    HW269879   0.327   8.973   5.127  1.7434  1.1809 -1.5265
19409SOL     OW69880   6.151   0.299   5.790 -0.4544  0.2866  0.5872
19409SOL    HW169881   6.207   0.381   5.789 -0.0128  0.0125  1.8701
19409SOL    HW269882   6.176   0.241   5.713  0.6125  0.4469  0.8010
19410SOL     OW69883   3.381   5.138   5.532 -0.4031  0.3312 -0.5791
19410SOL    HW169884   3.470   5.145   5.487 -0.7434 -0.3701 -1.3929
19410SOL    HW269885   3.330   5.223   5.519  0.1352  0.7200 -0.1376
19411SOL     OW69886   0.296   2.224   7.441  0.3399 -0.0170  0.3805
19411SOL    HW169887   0.246   2.137   7.434 -0.2048  0.1897  1.4468
19411SOL    HW269888   0.259   2.289   7.375  0.6864 -0.5620 -0.3588
19412SOL     OW69889   2.629   8.556   1.762  0.1098 -0.3323 -0.3540
19412SOL    HW169890   2.708   8.608   1.729 -1.7522  3.5405  0.9807
19412SOL    HW269891   2.637   8.543   1.861 -0.7872 -0.1927 -0.2645
19413SOL     OW69892   9.802   2.909   1.325  0.2141 -0.2155  0.4846
19413SOL    HW169893   9.709   2.891   1.295  0.9848 -2.7586 -0.5368
19413SOL    HW269894   9.860   2.929   1.246  1.0734 -1.2458  0.8387
19414SOL     OW69895   6.471   0.492   2.424 -0.4297 -0.0270  0.1770
19414SOL    HW169896   6.512   0.518   2.336  0.0970 -0.2208  0.3641
19414SOL    HW269897   6.378   0.458   2.409 -0.3734  0.0286 -0.2926
19415SOL     OW69898   9.859   2.890   0.671 -0.5209 -1.0929  0.2161
19415SOL    HW169899   9.923   2.868   0.744 -2.0092 -1.0436  1.5584
19415SOL    HW269900   9.888   2.973   0.624 -0.0400 -0.6355  1.3258
19416SOL     OW69901   9.909   7.090   0.117  0.0834  0.0812 -0.1665
19416SOL    HW169902   9.909   6.991   0.101 -0.0715  0.0059  0.2813
19416SOL    HW269903   9.985   7.114   0.176  0.6548  0.3578 -1.0083
19417SOL     OW69904   0.212   8.172   3.777 -0.1327  0.4155 -0.4957
19417SOL    HW169905   0.119   8.199   3.750 -0.4540 -0.1034  0.0806
19417SOL    HW269906   0.266   8.151   3.696 -1.4650 -2.4081 -0.7090
19418SOL     OW69907   8.855   8.587   3.192 -0.1729  0.1897  0.1542
19418SOL    HW169908   8.813   8.671   3.227 -0.3467  0.0047  0.3917
19418SOL    HW269909   8.830   8.510   3.250  0.8071  0.1395  0.5237
19419SOL     OW69910   5.882   7.114   3.009 -0.5264  0.0125 -0.2307
19419SOL    HW169911   5.809   7.050   3.036 -0.5757 -0.0483 -0.5006
19419SOL    HW269912   5.926   7.150   3.090 -1.2061  0.4533 -0.0516
19420SOL     OW69913   0.606   9.806   0.575  0.0501 -0.5569  0.0442
19420SOL    HW169914   0.535   9.833   0.510  0.5140 -1.9555 -1.0630
19420SOL    HW269915   0.687   9.863   0.562  0.8706 -2.1256 -1.9906
19421SOL     OW69916   4.050   9.567   4.334  0.0273  0.2643 -0.5010
19421SOL    HW169917   3.954   9.563   4.362 -0.2601 -2.1689 -1.7163
19421SOL    HW269918   4.061   9.638   4.265 -0.9126  0.4390 -0.4885
19422SOL     OW69919   8.023   0.084   6.860  0.0031 -0.4856  0.8458
19422SOL    HW169920   8.121   0.070   6.877  0.0649  0.8502  1.6447
19422SOL    HW269921   7.978   0.106   6.946 -0.8379 -0.0990  0.3040
19423SOL     OW69922   0.025   4.657   9.868  0.1268  0.2155 -0.0043
19423SOL    HW169923   0.078   4.675   9.785  3.5575  0.3912  2.1421
19423SOL    HW269924   0.043   4.728   9.935 -2.7414  0.1596  0.8858
19424SOL     OW69925   0.395   3.225   3.092 -0.2362 -0.2273  1.1247
19424SOL    HW169926   0.315   3.218   3.151  0.4659 -2.5297  1.8473
19424SOL    HW269927   0.406   3.141   3.040  0.6374  0.7996 -0.3883
19425SOL     OW69928   5.101   1.145   4.494 -0.0472 -0.0067  0.1936
19425SOL    HW169929   5.190   1.129   4.539  1.0618 -0.5767 -2.1649
19425SOL    HW269930   5.031   1.090   4.539  0.7967  0.3394  2.0052
19426SOL     OW69931   0.868   2.922   2.706  0.0827 -0.0287  0.2826
19426SOL    HW169932   0.793   2.875   2.751  0.5029 -0.2706  0.7342
19426SOL    HW269933   0.932   2.957   2.775 -0.3497  1.4202 -0.0193
19427SOL     OW69934   2.803   0.908   1.999  0.4208  0.1704  1.0771
19427SOL    HW169935   2.705   0.888   1.992  0.6749 -0.7210 -0.0273
19427SOL    HW269936   2.818   1.004   1.977 -0.0938  0.0558  0.1864
19428SOL     OW69937   0.364   3.125   2.279  0.0295  0.0699  0.4572
19428SOL    HW169938   0.348   3.029   2.305 -0.1733  0.2118  0.8604
19428SOL    HW269939   0.462   3.143   2.276  0.0950 -0.4209 -0.6112
19429SOL     OW69940   2.723   8.880   6.763 -0.0447  0.0467  0.9128
19429SOL    HW169941   2.693   8.850   6.672 -0.4572  1.2392  0.6469
19429SOL    HW269942   2.823   8.872   6.769  0.0392  0.4577  0.1652
19430SOL     OW69943   7.639   7.114   4.456  0.3221 -0.1767 -0.0389
19430SOL    HW169944   7.647   7.103   4.357  1.2049  0.9374 -0.1083
19430SOL    HW269945   7.545   7.141   4.479  0.4861  1.0701 -0.7425
19431SOL     OW69946   1.856   9.675   0.018  0.4668 -0.3611  0.0483
19431SOL    HW169947   1.863   9.751  -0.046  0.7265 -1.1134 -0.8349
19431SOL    HW269948   1.876   9.589  -0.030  0.0107 -1.0035  0.9865
19432SOL     OW69949   3.653   5.804   6.729  0.1023  0.2230 -0.5117
19432SOL    HW169950   3.592   5.754   6.790  0.7522  1.8144  1.4979
19432SOL    HW269951   3.608   5.887   6.695  1.2902  1.7316  1.4733
19433SOL     OW69952   7.969   6.254   0.702 -0.1643 -0.4673  0.3815
19433SOL    HW169953   8.000   6.323   0.767 -0.0638  0.3285 -0.4955
19433SOL    HW269954   8.048   6.203   0.667 -0.1885 -0.6952  0.6611
19434SOL     OW69955   8.331   9.144   6.039 -0.4220 -0.0671  0.0420
19434SOL    HW169956   8.411   9.085   6.022 -0.7018 -0.3848 -0.1675
19434SOL    HW269957   8.320   9.208   5.963  0.4462  0.9055  0.7119
19435SOL     OW69958   9.201   9.189   2.510 -0.2994  0.2825 -0.1430
19435SOL    HW169959   9.130   9.126   2.543  1.3971 -1.2671  0.6415
19435SOL    HW269960   9.222   9.256   2.582 -0.9367  0.7043 -0.3544
19436SOL     OW69961   8.668   7.472   4.930  0.0590 -0.4955  0.4318
19436SOL    HW169962   8.634   7.381   4.955  0.5689 -1.2870 -1.7040
19436SOL    HW269963   8.766   7.466   4.910 -0.0890  0.3565 -0.5615
19437SOL     OW69964   3.507   3.175   1.716  0.6353  0.4434  0.2836
19437SOL    HW169965   3.482   3.078   1.717  0.9738  0.3570  1.1130
19437SOL    HW269966   3.603   3.185   1.689  0.2373  0.6472 -1.1025
19438SOL     OW69967   5.451   4.591   2.505 -0.1675  0.3557 -0.0944
19438SOL    HW169968   5.508   4.660   2.459 -0.5091  0.6747 -0.0439
19438SOL    HW269969   5.371   4.635   2.544 -0.7853 -0.1881 -0.7283
19439SOL     OW69970   0.386   6.016   0.266  0.1613 -0.1564 -0.4000
19439SOL    HW169971   0.292   5.998   0.293 -0.1249  1.2199 -0.4468
19439SOL    HW269972   0.446   5.944   0.303 -0.5214  0.4415  1.9608
19440SOL     OW69973   6.869   1.114   5.889 -0.1670  0.1696 -0.1633
19440SOL    HW169974   6.879   1.016   5.907 -1.2005 -0.1037 -0.9912
19440SOL    HW269975   6.790   1.129   5.829  0.1698  1.4823 -0.3026
19441SOL     OW69976   8.529   3.987   0.998  0.3787  0.4146  0.4188
19441SOL    HW169977   8.436   4.020   1.008 -0.1974 -1.5395  1.9188
19441SOL    HW269978   8.548   3.969   0.901 -0.4321  1.7857 -0.0077
19442SOL     OW69979   2.601   3.663   7.121 -0.1364 -0.2005 -0.4666
19442SOL    HW169980   2.566   3.753   7.143  1.0727  0.8189 -2.5204
19442SOL    HW269981   2.535   3.614   7.064 -0.7857 -0.6368  0.6362
19443SOL     OW69982   4.177   9.023   7.296 -0.1433  0.4942 -0.1464
19443SOL    HW169983   4.216   8.932   7.286  1.2803  1.1308 -0.5870
19443SOL    HW269984   4.164   9.043   7.393  0.8607  0.3426  0.0303
19444SOL     OW69985   7.680   2.593   3.284 -0.2812  0.3825  0.1695
19444SOL    HW169986   7.660   2.499   3.256 -0.6111  0.9412 -1.5303
19444SOL    HW269987   7.735   2.592   3.368  0.0215 -1.3336 -0.0317
19445SOL     OW69988   4.716   5.183   5.036  0.4266 -0.6534  0.1668
19445SOL    HW169989   4.769   5.120   5.093 -0.1453  0.1012  1.5642
19445SOL    HW269990   4.634   5.136   5.003  0.8956 -1.1781 -0.2641
19446SOL     OW69991   5.716   2.257   1.861  0.2029 -0.4526 -0.3486
19446SOL    HW169992   5.725   2.165   1.897 -1.3353 -1.3276 -2.0735
19446SOL    HW269993   5.800   2.284   1.814  0.8853 -0.7108  0.7230
19447SOL     OW69994   8.810   4.512   7.436  0.5211 -0.0212 -0.0983
19447SOL    HW169995   8.716   4.538   7.411  1.3730  0.1498 -3.3240
19447SOL    HW269996   8.854   4.589   7.482 -0.5845  0.2734  0.4911
19448SOL     OW69997   9.655   8.703   4.958 -0.1876 -1.2427  0.1136
19448SOL    HW169998   9.713   8.772   4.915  0.3988 -2.2203 -0.7004
19448SOL    HW269999   9.649   8.720   5.056 -0.2450  0.0953 -0.1171
19449SOL     OW70000   2.760   7.919   5.704  0.4291 -0.3075 -0.0871
19449SOL    HW170001   2.671   7.899   5.746 -0.4295 -0.3541 -1.8940
19449SOL    HW270002   2.832   7.906   5.772 -0.8889 -0.8970  1.2283
19450SOL     OW70003   8.470   3.685   0.156 -0.3638  0.2659  0.0167
19450SOL    HW170004   8.464   3.781   0.127 -1.2877  0.3146  0.3435
19450SOL    HW270005   8.563   3.652   0.144  0.6903  2.0768  2.5938
19451SOL     OW70006   0.480   2.527   6.014 -0.3472  0.2673 -0.3506
19451SOL    HW170007   0.420   2.496   6.088  0.2744 -0.9573 -0.3371
19451SOL    HW270008   0.446   2.489   5.927 -0.1978  0.4515 -0.4885
19452SOL     OW70009   8.468   9.646   5.540  0.2531  0.4316 -0.6026
19452SOL    HW170010   8.498   9.563   5.587  0.3203 -0.3614 -2.0098
19452SOL    HW270011   8.465   9.722   5.605  1.0660 -0.4623  0.5018
19453SOL     OW70012   2.163   4.373   5.037 -0.1448  0.1255 -0.4851
19453SOL    HW170013   2.070   4.397   5.007 -0.1903  0.0909 -0.3763
19453SOL    HW270014   2.188   4.431   5.114 -0.7789 -1.0577  0.6427
19454SOL     OW70015   4.104   9.591   0.838  0.0828 -0.4389  0.1571
19454SOL    HW170016   4.014   9.592   0.794 -0.5297 -0.9694  1.3826
19454SOL    HW270017   4.132   9.497   0.855 -0.0909 -0.2257  1.7045
19455SOL     OW70018   0.179   1.130   3.368  0.7866 -0.2471  0.4170
19455SOL    HW170019   0.257   1.134   3.429  0.5989  0.3017  0.6265
19455SOL    HW270020   0.096   1.157   3.418  0.3171 -1.6884  0.4380
19456SOL     OW70021   9.464   6.237   4.843  0.2870  0.9786  0.0011
19456SOL    HW170022   9.424   6.151   4.811  0.1642  0.7525  0.7598
19456SOL    HW270023   9.561   6.222   4.864  0.7564  1.4957 -1.7210
19457SOL     OW70024   4.917   3.541   2.189  0.7331  0.6192 -0.6738
19457SOL    HW170025   4.950   3.482   2.116 -0.5288  1.2451 -1.7750
19457SOL    HW270026   4.896   3.486   2.270  0.1893 -0.3684 -1.4706
19458SOL     OW70027   2.644   9.235   0.421 -0.1557 -0.7215 -0.0402
19458SOL    HW170028   2.637   9.214   0.324 -1.2667 -2.8928  0.4860
19458SOL    HW270029   2.614   9.157   0.475 -1.5892  1.2013  2.0458
19459SOL     OW70030   7.594   0.227   4.047 -0.6879 -0.3933 -0.0493
19459SOL    HW170031   7.589   0.283   4.129  1.5792 -0.1102 -0.0717
19459SOL    HW270032   7.609   0.131   4.072  0.6971 -0.2075 -0.1288
19460SOL     OW70033   7.549   0.661   6.364  0.4390  0.3508 -0.1472
19460SOL    HW170034   7.613   0.601   6.412 -0.0127  0.0730  0.1112
19460SOL    HW270035   7.527   0.621   6.275 -0.1472 -0.0567  0.1760
19461SOL     OW70036   2.532   5.736   6.655  0.2280 -0.1622  0.0591
19461SOL    HW170037   2.440   5.699   6.661  0.1724 -0.1190 -0.5145
19461SOL    HW270038   2.591   5.672   6.605  0.6332 -0.4197  0.8456
19462SOL     OW70039   3.615   7.236   4.054 -0.0077 -0.2710  0.6747
19462SOL    HW170040   3.703   7.190   4.047  0.0465 -0.0380 -0.2299
19462SOL    HW270041   3.629   7.335   4.063 -0.1022 -0.4704  3.2962
19463SOL     OW70042   9.911   1.011   4.854  0.9596 -0.4387  0.7997
19463SOL    HW170043   9.994   1.066   4.840  0.3566  0.4856  0.8641
19463SOL    HW270044   9.865   0.997   4.766  0.6023 -0.0416  0.9242
19464SOL     OW70045   9.774   1.511   2.877 -0.1411 -0.3730  0.0643
19464SOL    HW170046   9.682   1.504   2.914 -0.0319  0.6199  0.5613
19464SOL    HW270047   9.839   1.473   2.942 -0.3262 -2.4407 -0.9320
19465SOL     OW70048   3.393   1.447   4.160  0.3442 -0.4728 -0.0346
19465SOL    HW170049   3.436   1.383   4.096  0.9016  1.7382 -1.9667
19465SOL    HW270050   3.323   1.500   4.111 -0.7221 -0.2110  1.7370
19466SOL     OW70051   3.535   4.133   0.491  0.5390 -0.3397  0.2207
19466SOL    HW170052   3.581   4.056   0.536 -0.0746 -1.6659 -1.3770
19466SOL    HW270053   3.524   4.208   0.556  0.3829 -1.9215  2.0511
19467SOL     OW70054   3.740   4.963   3.698  0.4998  1.2377 -0.5838
19467SOL    HW170055   3.692   5.000   3.618  0.5978 -0.4331 -1.4462
19467SOL    HW270056   3.719   4.865   3.707 -0.5896  1.6852  2.2566
19468SOL     OW70057   4.106   8.956   0.210  0.3600 -0.4147  0.0012
19468SOL    HW170058   4.114   8.924   0.116 -1.0521 -0.4416 -0.1202
19468SOL    HW270059   4.144   9.048   0.217  0.3492 -0.3616 -0.6260
19469SOL     OW70060   8.083   9.419   3.601  0.1154 -0.3321  0.2807
19469SOL    HW170061   8.059   9.486   3.671 -0.0739  0.8095 -0.8459
19469SOL    HW270062   8.182   9.421   3.585 -0.1364  1.1280 -1.1703
19470SOL     OW70063   9.803   0.641   6.463 -0.0310 -0.5258 -0.2838
19470SOL    HW170064   9.839   0.696   6.387 -1.6320  1.6990  0.5066
19470SOL    HW270065   9.878   0.591   6.506  1.1463 -0.5541 -2.3178
19471SOL     OW70066   1.662   3.185   8.028 -0.0266 -0.4409 -0.2090
19471SOL    HW170067   1.617   3.228   8.106  1.6300  2.1646 -0.6209
19471SOL    HW270068   1.595   3.134   7.974 -2.1925  2.1292 -0.0187
19472SOL     OW70069   9.704   2.735   4.907 -0.4414  0.6609  0.0649
19472SOL    HW170070   9.621   2.787   4.924 -0.8419 -0.5042  1.8026
19472SOL    HW270071   9.692   2.678   4.825 -1.3805  0.4419  0.3563
19473SOL     OW70072   3.866   4.765   6.732 -0.0077 -0.9885  0.0198
19473SOL    HW170073   3.878   4.771   6.831  2.3689  1.3523 -0.3527
19473SOL    HW270074   3.915   4.686   6.697 -2.1700 -2.7644  0.8353
19474SOL     OW70075   1.976   4.513   1.421 -0.1110 -0.3482  0.7147
19474SOL    HW170076   1.966   4.416   1.403 -1.6746 -0.2446  1.0172
19474SOL    HW270077   2.021   4.525   1.510  0.9630 -0.7827  0.2454
19475SOL     OW70078   7.159   2.777   2.470  0.1148 -0.0116  0.4221
19475SOL    HW170079   7.064   2.810   2.469  0.8724  2.2455 -0.0824
19475SOL    HW270080   7.199   2.792   2.560  1.1220  2.5127 -0.3998
19476SOL     OW70081   2.226   3.582   9.995  0.1496 -0.1964 -0.0013
19476SOL    HW170082   2.166   3.515  10.038  1.3436 -0.6885  0.9445
19476SOL    HW270083   2.316   3.580  10.040  0.4155  1.5505 -0.4134
19477SOL     OW70084   0.221   5.301   0.807 -0.0018  0.0178  0.3530
19477SOL    HW170085   0.206   5.202   0.804  0.8872 -0.1450  0.9505
19477SOL    HW270086   0.166   5.345   0.737 -3.7140 -0.4823  2.7794
19478SOL     OW70087   3.932   1.760   4.194 -0.1866  0.6499  0.0530
19478SOL    HW170088   3.900   1.671   4.226  1.1215 -0.0853 -0.6134
19478SOL    HW270089   3.890   1.781   4.106  1.4386 -0.5288 -1.0498
19479SOL     OW70090   4.571   2.557   6.231 -0.3655  0.4857 -0.3476
19479SOL    HW170091   4.667   2.552   6.205 -0.3129  0.4419 -0.1509
19479SOL    HW270092   4.563   2.544   6.330 -0.6481 -0.4220 -0.4854
19480SOL     OW70093   3.899   0.536   6.372  0.0367 -0.2063  0.5285
19480SOL    HW170094   3.802   0.558   6.381  0.4103  0.3234  4.2034
19480SOL    HW270095   3.952   0.621   6.368  0.4378 -0.4751  0.1764
19481SOL     OW70096   1.704   6.536   3.268  0.6351  0.8981 -0.9376
19481SOL    HW170097   1.736   6.442   3.279 -1.8032 -0.0348 -1.3918
19481SOL    HW270098   1.712   6.563   3.172 -1.1902  0.1642 -1.3109
19482SOL     OW70099   8.050   1.259   7.500 -0.3412  0.5020  0.3096
19482SOL    HW170100   7.956   1.257   7.466 -0.0459 -1.5217 -0.4270
19482SOL    HW270101   8.063   1.185   7.565  0.8579  0.5650  0.1519
19483SOL     OW70102   6.909   0.447   7.926  0.1270  0.2749  0.2061
19483SOL    HW170103   6.895   0.418   8.020 -0.7383  0.2188  0.0587
19483SOL    HW270104   6.895   0.546   7.919 -0.7783  0.1291 -0.0547
19484SOL     OW70105   7.778   9.035   7.065 -0.1685 -0.0424  0.3723
19484SOL    HW170106   7.774   9.112   7.130  0.0004 -0.5902  1.0369
19484SOL    HW270107   7.874   9.012   7.047 -0.2283 -0.6812  0.8694
19485SOL     OW70108   0.234   5.605   7.945 -0.1520  0.2472 -0.0891
19485SOL    HW170109   0.161   5.668   7.974 -3.6866 -2.9118 -1.6157
19485SOL    HW270110   0.210   5.512   7.974  2.6363 -1.0655 -1.8316
19486SOL     OW70111   6.082   1.974   0.920 -0.5133 -0.4361 -0.1939
19486SOL    HW170112   6.123   2.040   0.857  1.1527 -1.0443  0.2303
19486SOL    HW270113   6.072   2.016   1.010 -0.8303 -0.2923 -0.2942
19487SOL     OW70114   9.728   4.763   0.027 -0.1457  0.2257 -0.9684
19487SOL    HW170115   9.818   4.774  -0.017  0.2395 -0.4194 -0.3528
19487SOL    HW270116   9.707   4.665   0.036 -0.5462  0.3640 -0.3729
19488SOL     OW70117   0.391   4.047   5.985 -0.0159 -0.6656  0.0728
19488SOL    HW170118   0.455   4.059   5.909 -0.2181 -0.2188 -0.0325
19488SOL    HW270119   0.410   3.961   6.032  2.2355  0.6290  1.5678
19489SOL     OW70120   1.583   3.164   1.266  0.4712  0.1837  0.1384
19489SOL    HW170121   1.575   3.100   1.343 -1.0477  0.8379  0.5524
19489SOL    HW270122   1.675   3.158   1.227  0.8642 -1.0619  1.2081
19490SOL     OW70123   0.851   0.660   5.974  0.1580 -0.3259  0.2390
19490SOL    HW170124   0.885   0.612   5.893 -0.4196 -0.1896 -0.0893
19490SOL    HW270125   0.891   0.619   6.056 -1.0019 -1.9544  0.0246
19491SOL     OW70126   7.505   8.558   4.369  0.1008 -0.3914  0.3515
19491SOL    HW170127   7.597   8.551   4.408  0.0889 -1.3062  0.2439
19491SOL    HW270128   7.437   8.545   4.442  0.0691 -0.4360  0.3144
19492SOL     OW70129   9.585   8.312   1.530 -0.4359 -0.4012 -0.1863
19492SOL    HW170130   9.487   8.328   1.517 -0.4304  1.0124  1.4079
19492SOL    HW270131   9.637   8.376   1.473 -0.4289 -0.8907 -0.7355
19493SOL     OW70132   1.483   6.357   2.563  0.2962 -0.2304  0.1039
19493SOL    HW170133   1.420   6.312   2.499  2.2228 -1.3395 -1.0427
19493SOL    HW270134   1.430   6.399   2.637 -1.7838 -1.3333 -0.7091
19494SOL     OW70135   7.213   7.323   2.088  0.0631  0.0887 -0.0241
19494SOL    HW170136   7.146   7.321   2.013  0.2163  1.4803 -0.2212
19494SOL    HW270137   7.179   7.268   2.164 -1.0541  0.3248 -0.3410
19495SOL     OW70138   3.145   2.724   0.310 -0.5109  0.4741 -0.3246
19495SOL    HW170139   3.204   2.674   0.373 -1.3819 -0.1721 -0.0124
19495SOL    HW270140   3.152   2.684   0.219 -0.0410  0.7541 -0.4129
19496SOL     OW70141   2.661   2.412   2.346 -0.2796  0.1983  0.1566
19496SOL    HW170142   2.690   2.367   2.430 -1.3531 -0.9955 -0.1030
19496SOL    HW270143   2.587   2.360   2.304 -1.5760  2.2180 -0.1321
19497SOL     OW70144   7.294   0.326   3.124  0.3883  0.5743  0.0505
19497SOL    HW170145   7.271   0.269   3.203 -0.3360 -1.1369 -1.3557
19497SOL    HW270146   7.300   0.421   3.153 -2.6847  0.3721  1.6503
19498SOL     OW70147   9.199   0.029   6.677  0.3598 -0.0368 -0.2618
19498SOL    HW170148   9.104   0.009   6.702  0.8572 -0.1706  1.5815
19498SOL    HW270149   9.256  -0.050   6.700  0.9063  0.0178 -1.4361
19499SOL     OW70150   2.854   0.555   6.602 -0.0757  0.3377  0.3145
19499SOL    HW170151   2.857   0.654   6.586  1.5146  0.4044  0.9788
19499SOL    HW270152   2.853   0.537   6.700  0.5703 -0.3309  0.2036
19500SOL     OW70153   4.629   8.163   2.288 -0.0679 -0.1211  0.1538
19500SOL    HW170154   4.648   8.070   2.320 -0.5381  0.5751  2.5945
19500SOL    HW270155   4.543   8.194   2.328  0.6750  1.7806  0.3019
19501SOL     OW70156   7.138   9.732   1.011 -0.4243  0.1093 -0.1091
19501SOL    HW170157   7.229   9.739   1.052  0.1952  0.0398 -1.4512
19501SOL    HW270158   7.109   9.636   1.012  0.1036 -0.0603 -0.9273
19502SOL     OW70159   2.636   5.550   6.484  0.5026  0.0513 -0.0838
19502SOL    HW170160   2.729   5.543   6.447  0.3422 -2.8257 -0.0768
19502SOL    HW270161   2.613   5.465   6.532 -2.1845  0.6817 -0.1822
19503SOL     OW70162   3.124   4.264   1.703  0.2102 -0.0963  0.1062
19503SOL    HW170163   3.147   4.174   1.665  1.0309 -0.3254  1.1411
19503SOL    HW270164   3.037   4.258   1.752  1.0083 -0.6855  1.4599
19504SOL     OW70165   8.237   8.572   4.428  0.1167  0.3730  0.6085
19504SOL    HW170166   8.197   8.610   4.345  0.0963 -0.5199  0.2011
19504SOL    HW270167   8.200   8.480   4.443  1.9672 -0.4603  0.2313
19505SOL     OW70168   5.342   8.013   2.040 -0.0577  0.2182  0.1970
19505SOL    HW170169   5.434   8.006   2.079 -1.0278 -0.0622  2.4732
19505SOL    HW270170   5.306   7.921   2.023 -1.2870  0.2309  2.6215
19506SOL     OW70171   0.141   4.787   5.032  0.0366 -0.6425  0.7693
19506SOL    HW170172   0.043   4.775   5.046  0.0324 -0.5152  0.8455
19506SOL    HW270173   0.186   4.798   5.120 -0.2321  2.0884  0.6251
19507SOL     OW70174   8.873   6.136   6.733 -0.3681  0.0129 -0.1610
19507SOL    HW170175   8.834   6.169   6.819  0.9290  0.5143  0.2441
19507SOL    HW270176   8.887   6.213   6.671  4.5965  0.6644  1.5486
19508SOL     OW70177   9.287   2.764   7.262  0.5390  0.2912 -0.1828
19508SOL    HW170178   9.248   2.816   7.186 -2.3377 -1.0289  0.3174
19508SOL    HW270179   9.287   2.821   7.345 -1.4754 -0.0294  0.0765
19509SOL     OW70180   3.210   1.137   0.207 -0.0294  0.0544  0.2025
19509SOL    HW170181   3.115   1.107   0.200  0.2915 -0.9471  0.0090
19509SOL    HW270182   3.265   1.063   0.245  0.3267  1.3349  2.2382
19510SOL     OW70183   0.656   0.818   1.116 -0.1354  0.0793 -0.0104
19510SOL    HW170184   0.646   0.917   1.128  0.0916  0.0926  0.0619
19510SOL    HW270185   0.566   0.778   1.095  0.0082  0.4895 -1.4469
19511SOL     OW70186   1.273   0.069   6.128 -0.1353 -0.1140 -0.4270
19511SOL    HW170187   1.231   0.051   6.217  1.3348  0.1830  0.3326
19511SOL    HW270188   1.243   0.158   6.094  0.9875  0.7271  0.7685
19512SOL     OW70189   8.433   4.227   4.110 -0.0346  0.0155  0.5326
19512SOL    HW170190   8.426   4.323   4.084  1.7484  0.2346  0.8232
19512SOL    HW270191   8.511   4.185   4.063 -1.3380 -1.5254 -0.2952
19513SOL     OW70192   2.028   2.548   4.955  0.3328 -0.2236  0.3416
19513SOL    HW170193   2.039   2.480   5.028  0.0591 -2.1753 -1.3900
19513SOL    HW270194   1.951   2.522   4.896  1.2979  0.6464 -1.3514
19514SOL     OW70195   4.673   1.683   5.819  0.2127  0.2473 -1.0098
19514SOL    HW170196   4.595   1.715   5.765 -0.5485 -2.4071 -1.5924
19514SOL    HW270197   4.748   1.660   5.758  0.7940  1.0317 -0.5958
19515SOL     OW70198   1.089   8.553   7.700  0.4178 -0.4500 -0.8013
19515SOL    HW170199   1.165   8.617   7.696 -0.7711  1.0366 -0.0859
19515SOL    HW270200   1.117   8.465   7.659  3.1115 -0.5869  1.1871
19516SOL     OW70201   2.954   9.682   7.702 -0.1674  0.2233 -0.2500
19516SOL    HW170202   2.863   9.725   7.704 -1.0642 -1.6242 -0.0730
19516SOL    HW270203   3.010   9.720   7.775 -1.2826  0.3551  0.5564
19517SOL     OW70204   0.400   6.300   3.353 -0.1640  0.5351  0.0622
19517SOL    HW170205   0.419   6.340   3.443  0.3395 -0.3424  0.3461
19517SOL    HW270206   0.469   6.332   3.288 -0.0029  0.4556  0.1938
19518SOL     OW70207   8.085   5.680   3.174  0.0567  0.0562  0.5569
19518SOL    HW170208   8.127   5.709   3.088 -1.1793  0.6892  0.1512
19518SOL    HW270209   8.025   5.602   3.156  1.7468 -1.4541  1.2925
19519SOL     OW70210   1.554   3.654   1.642 -1.1065  0.4216  0.1125
19519SOL    HW170211   1.622   3.617   1.705 -0.4116  0.6430 -0.5084
19519SOL    HW270212   1.475   3.686   1.694 -0.2533  1.2186  0.9275
19520SOL     OW70213   6.787   8.982   2.699 -0.2676 -0.0748 -0.1428
19520SOL    HW170214   6.825   9.033   2.777  0.5977 -0.0434 -0.5777
19520SOL    HW270215   6.836   8.895   2.691  0.2417  0.3027 -1.1811
19521SOL     OW70216   1.222   5.225   4.155 -0.5948  0.0423  0.3000
19521SOL    HW170217   1.187   5.311   4.119 -0.3754 -0.5266 -1.3009
19521SOL    HW270218   1.156   5.185   4.218 -0.3668  1.7559  1.6578
19522SOL     OW70219   2.481   8.569   4.294 -0.1843 -0.2152  0.3788
19522SOL    HW170220   2.476   8.642   4.226  3.6080  0.6789  0.9669
19522SOL    HW270221   2.439   8.600   4.379 -1.6145  0.0006 -0.3854
19523SOL     OW70222   5.176   4.541   7.048  0.3522 -0.1424 -0.2852
19523SOL    HW170223   5.078   4.532   7.068  0.1572  0.2961 -1.0438
19523SOL    HW270224   5.196   4.503   6.959  0.9317 -0.5145  0.0031
19524SOL     OW70225   1.549   5.112   6.282  0.2422 -0.4749 -0.4442
19524SOL    HW170226   1.550   5.139   6.186  0.5876 -1.6593 -0.7907
19524SOL    HW270227   1.607   5.031   6.294 -0.8475 -1.1255  0.5199
19525SOL     OW70228   3.304   0.655   7.499 -0.0113  0.2245  0.3125
19525SOL    HW170229   3.254   0.718   7.440 -1.6053  0.2583  1.6605
19525SOL    HW270230   3.340   0.580   7.444  0.0456  1.1665 -0.9675
19526SOL     OW70231   2.065   2.703   7.462 -0.1503 -0.6403  0.2463
19526SOL    HW170232   2.002   2.686   7.386  0.8489 -0.5524 -0.6115
19526SOL    HW270233   2.155   2.667   7.439  0.1898 -0.5136  1.3519
19527SOL     OW70234   0.256   6.128   4.196 -0.7732  0.8796 -0.3440
19527SOL    HW170235   0.259   6.049   4.257  0.9270  0.5018 -0.8892
19527SOL    HW270236   0.173   6.125   4.141 -0.6540 -0.5877 -0.4400
19528SOL     OW70237   5.223   6.283   1.511  0.3004 -0.0647 -0.0516
19528SOL    HW170238   5.276   6.226   1.573 -0.5747 -0.0105  0.7547
19528SOL    HW270239   5.256   6.377   1.516 -0.3628  0.1218  1.0311
19529SOL     OW70240   0.755   2.279   5.712  0.0866 -0.3306 -0.4506
19529SOL    HW170241   0.709   2.201   5.754  1.1237 -1.2670 -1.0440
19529SOL    HW270242   0.725   2.363   5.758  0.0457 -1.1880  1.1421
19530SOL     OW70243   9.045   7.202   6.831 -0.0036 -0.4539 -0.3027
19530SOL    HW170244   9.041   7.289   6.879  1.7182 -0.4765 -0.0772
19530SOL    HW270245   8.982   7.137   6.874 -1.2433  0.6463 -0.4339
19531SOL     OW70246   5.235   0.680   6.438  0.1128  0.1699  0.4170
19531SOL    HW170247   5.211   0.645   6.347  1.5255  0.4086 -0.0581
19531SOL    HW270248   5.254   0.603   6.499  0.7531  0.0511  0.0672
19532SOL     OW70249   3.530   8.975   5.212 -0.2038  0.1423 -0.0307
19532SOL    HW170250   3.530   8.933   5.121  1.5697 -3.8787  1.7009
19532SOL    HW270251   3.472   8.921   5.273  1.9287  0.3105  2.2107
19533SOL     OW70252   5.706   9.873   1.851  0.2581  0.1755  0.1530
19533SOL    HW170253   5.780   9.862   1.917  0.6464 -0.7085 -0.4256
19533SOL    HW270254   5.698   9.791   1.795  0.7158  1.3560 -1.6939
19534SOL     OW70255   0.287   5.099   3.847  0.5043  0.6461  0.7830
19534SOL    HW170256   0.357   5.124   3.914 -0.4517  0.7814  1.7389
19534SOL    HW270257   0.326   5.105   3.755  1.4862  1.6302  1.2498
19535SOL     OW70258   7.648   2.197   2.016 -0.0668  0.1264  0.3066
19535SOL    HW170259   7.652   2.287   2.059 -1.2053 -0.2803  1.3091
19535SOL    HW270260   7.589   2.137   2.070 -0.0287 -0.9627 -0.8255
19536SOL     OW70261   1.163   8.785   7.307 -0.2521  0.2384  0.2654
19536SOL    HW170262   1.234   8.732   7.354 -1.2078 -0.4468  0.9778
19536SOL    HW270263   1.159   8.758   7.211 -0.4380 -0.6853  0.5279
19537SOL     OW70264   5.778   8.204   5.593 -0.4069 -0.1116  0.3330
19537SOL    HW170265   5.777   8.206   5.693 -2.6546  0.0161  0.3369
19537SOL    HW270266   5.714   8.134   5.560  0.3779 -0.2155 -1.0140
19538SOL     OW70267   5.609   1.497   6.606  0.4968 -0.1383 -0.2166
19538SOL    HW170268   5.534   1.556   6.637  0.7965 -0.3705  0.9803
19538SOL    HW270269   5.572   1.420   6.555  0.0595  0.7505 -1.2700
19539SOL     OW70270   7.800   5.517   6.506 -0.2109 -0.3552  0.2438
19539SOL    HW170271   7.747   5.582   6.452  1.1996 -0.8467 -1.7821
19539SOL    HW270272   7.800   5.546   6.602 -0.6523  1.9179 -0.4138
19540SOL     OW70273   8.489   9.974   0.532 -1.0583  0.2848 -0.2381
19540SOL    HW170274   8.404  10.020   0.504 -1.1613 -0.4014 -1.0842
19540SOL    HW270275   8.467   9.890   0.581 -0.8672  0.8285  0.7945
19541SOL     OW70276   3.151   2.308   2.535 -0.5641 -0.1918 -0.2162
19541SOL    HW170277   3.165   2.316   2.436  0.9633  1.3194  0.0928
19541SOL    HW270278   3.119   2.396   2.571 -0.2725 -0.4719  0.7587
19542SOL     OW70279   3.124   6.531   1.284 -0.7090  0.4736  1.0232
19542SOL    HW170280   3.113   6.543   1.382  0.2833 -1.7111  1.4112
19542SOL    HW270281   3.219   6.550   1.259 -0.8969  0.7554  0.5037
19543SOL     OW70282   7.318   6.912   5.689  0.0495  0.3917  0.3325
19543SOL    HW170283   7.237   6.857   5.669 -0.4199  1.4457 -0.7060
19543SOL    HW270284   7.394   6.881   5.633  0.2935 -0.4119  1.1002
19544SOL     OW70285   0.879   4.790   6.912 -0.2706 -0.0219 -0.2275
19544SOL    HW170286   0.954   4.837   6.959  0.6669  0.1573 -1.8827
19544SOL    HW270287   0.870   4.826   6.820 -1.4615 -1.0611 -0.5232
19545SOL     OW70288   7.999   5.439   7.553 -0.3224 -0.0392 -0.1498
19545SOL    HW170289   7.999   5.520   7.495  1.4670 -0.1009 -0.2639
19545SOL    HW270290   7.915   5.436   7.607 -0.7926  1.4200 -0.7915
19546SOL     OW70291   7.575   8.415   5.644 -0.3255 -0.0548  0.2591
19546SOL    HW170292   7.528   8.450   5.725 -0.0477 -1.2658  0.9559
19546SOL    HW270293   7.673   8.432   5.653 -0.4612  1.2100 -0.5506
19547SOL     OW70294   0.763   5.295   5.123  0.7700  0.1123  0.2841
19547SOL    HW170295   0.745   5.232   5.198  1.3535  0.1639  0.4700
19547SOL    HW270296   0.677   5.331   5.088  0.4348 -0.7542  0.2065
19548SOL     OW70297   8.871   7.643   6.116 -0.2113  0.0739 -0.1621
19548SOL    HW170298   8.880   7.741   6.098  0.4756 -0.0799 -0.6995
19548SOL    HW270299   8.962   7.602   6.121 -0.4867 -0.4929  0.3375
19549SOL     OW70300   0.776   4.041   7.128 -0.5155  0.0231  0.0231
19549SOL    HW170301   0.680   4.013   7.133 -0.8059  0.8060 -1.0196
19549SOL    HW270302   0.824   4.008   7.209 -1.5766 -0.7003  0.3758
19550SOL     OW70303   8.875   9.504   5.339 -0.2745  0.7529 -0.2269
19550SOL    HW170304   8.871   9.540   5.432 -1.6032  0.3347 -0.1201
19550SOL    HW270305   8.922   9.570   5.280  0.8984  0.8616  0.8014
19551SOL     OW70306   9.894   5.366   0.591 -0.3876 -0.1499 -0.0670
19551SOL    HW170307   9.885   5.349   0.493 -1.1894 -0.2321  0.0258
19551SOL    HW270308   9.955   5.445   0.604 -1.3801  0.7406 -0.6810
19552SOL     OW70309   6.468   1.667   5.813  0.0243  0.5272  0.3183
19552SOL    HW170310   6.388   1.662   5.872 -0.8849  0.0929 -0.9157
19552SOL    HW270311   6.516   1.579   5.814 -1.8044 -0.5675 -2.0195
19553SOL     OW70312   7.711   0.585   4.946 -0.5322 -0.1527 -0.1081
19553SOL    HW170313   7.700   0.491   4.914  0.3687 -0.3544  0.1720
19553SOL    HW270314   7.700   0.648   4.868  2.4418 -0.6747 -1.0138
19554SOL     OW70315   5.148   7.857   0.744 -0.3040 -0.4032 -0.5149
19554SOL    HW170316   5.160   7.955   0.759 -0.7626 -0.2907 -0.8644
19554SOL    HW270317   5.052   7.838   0.723 -0.0546 -0.8123 -1.3066
19555SOL     OW70318   7.397   5.145   3.810  0.4202  0.1984  0.8965
19555SOL    HW170319   7.317   5.088   3.827 -0.6075  1.4416  0.3419
19555SOL    HW270320   7.421   5.141   3.713  0.4780  0.5011  0.8955
19556SOL     OW70321   5.538   8.048   5.543 -0.4505  0.3015 -0.1212
19556SOL    HW170322   5.442   8.025   5.527 -1.3603  2.1941  2.1798
19556SOL    HW270323   5.579   7.980   5.604 -0.7582  0.3009  0.0858
19557SOL     OW70324   6.832   6.771   7.283 -0.3059  0.1457 -0.3458
19557SOL    HW170325   6.790   6.854   7.320  0.9496  1.1705 -1.1645
19557SOL    HW270326   6.901   6.738   7.348  0.5784  0.8778 -0.8987
19558SOL     OW70327   0.550   8.962   5.823  0.7510  0.2346 -0.3716
19558SOL    HW170328   0.499   8.907   5.757 -0.7897  1.1197  0.0550
19558SOL    HW270329   0.647   8.937   5.819 -0.1064 -3.6299  0.9385
19559SOL     OW70330   4.022   6.118   3.920 -0.0545  0.0859 -0.1124
19559SOL    HW170331   4.032   6.145   3.824 -0.9909  2.5921  0.4559
19559SOL    HW270332   4.020   6.019   3.927 -2.2669 -0.1187 -2.9259
19560SOL     OW70333   7.758   3.776   1.678 -0.8650  0.3490  0.5556
19560SOL    HW170334   7.822   3.796   1.604 -0.3821 -0.7066  0.6672
19560SOL    HW270335   7.721   3.684   1.665 -1.7837  0.6712  0.9053
19561SOL     OW70336   2.028   4.632   3.506 -0.4759 -0.2661  0.2398
19561SOL    HW170337   1.933   4.654   3.486 -0.6345 -0.4017  0.8199
19561SOL    HW270338   2.084   4.650   3.426 -0.9690 -0.0500 -0.0600
19562SOL     OW70339   1.747   3.626   4.049  0.1563 -0.2716 -0.0206
19562SOL    HW170340   1.739   3.725   4.051 -0.3110 -0.3097  0.1045
19562SOL    HW270341   1.710   3.591   3.963  4.7447  0.0320 -2.2400
19563SOL     OW70342   3.482   9.450   5.264  0.1786 -0.1662  0.1167
19563SOL    HW170343   3.526   9.491   5.183  0.1667 -0.3852 -0.0011
19563SOL    HW270344   3.537   9.373   5.296 -0.1830 -0.5099 -0.0960
19564SOL     OW70345   6.383   1.500   7.225 -0.4767 -0.5489 -0.0053
19564SOL    HW170346   6.298   1.553   7.230 -1.4814 -2.1411  0.0694
19564SOL    HW270347   6.381   1.426   7.292 -0.2065 -2.2675 -1.8379
19565SOL     OW70348   3.442   1.278   3.191 -0.7580 -0.5028 -0.3596
19565SOL    HW170349   3.369   1.338   3.225 -1.1159 -0.6327 -0.8838
19565SOL    HW270350   3.420   1.183   3.215 -1.1158 -0.6167 -1.1267
19566SOL     OW70351   9.238   0.470   0.480 -0.3366  0.4073 -0.1264
19566SOL    HW170352   9.220   0.458   0.577  0.7651  0.1862  0.0593
19566SOL    HW270353   9.234   0.382   0.434 -0.7668  0.4990 -0.2643
19567SOL     OW70354   7.760   7.057   6.922  0.2446 -0.3850 -0.5741
19567SOL    HW170355   7.701   7.097   6.853  1.2190 -1.7869 -2.2523
19567SOL    HW270356   7.826   6.996   6.879  0.5125 -1.7270  1.6534
19568SOL     OW70357   1.088   2.550   4.990  0.1820  0.1548  0.2613
19568SOL    HW170358   1.056   2.640   5.017 -0.6338  0.3382 -1.3081
19568SOL    HW270359   1.108   2.549   4.892  1.3761 -1.0175  0.5023
19569SOL     OW70360   8.742   7.456   5.482  0.3964 -0.5969  0.1137
19569SOL    HW170361   8.646   7.452   5.509  0.8944 -2.3000  1.7582
19569SOL    HW270362   8.795   7.503   5.553  1.1733 -2.0377  0.5177
19570SOL     OW70363   6.865   8.281   6.215 -0.3606  0.2643 -0.1615
19570SOL    HW170364   6.838   8.236   6.130  0.1631 -1.3112  0.4850
19570SOL    HW270365   6.786   8.329   6.254 -1.5751 -2.1015  0.3590
19571SOL     OW70366   6.753   1.589   1.105  0.0168 -0.4187  0.4464
19571SOL    HW170367   6.745   1.622   1.199 -1.1190  1.4326 -0.2576
19571SOL    HW270368   6.838   1.623   1.065 -0.1876 -0.0000  0.3612
19572SOL     OW70369   8.194   0.358   1.416 -0.4539 -0.8102  0.2392
19572SOL    HW170370   8.130   0.409   1.472  0.2066 -0.8418  1.0338
19572SOL    HW270371   8.182   0.260   1.431 -0.1525 -0.8134  0.4752
19573SOL     OW70372   3.006   2.068   0.878 -0.1028  0.4201 -0.2446
19573SOL    HW170373   3.039   1.983   0.920 -0.3002  0.1554 -0.6186
19573SOL    HW270374   3.018   2.063   0.779  1.7793  1.6735 -0.0951
19574SOL     OW70375   0.559   6.489   7.179 -0.0154 -0.5643  0.0523
19574SOL    HW170376   0.564   6.398   7.220  0.8245 -0.3134  0.5282
19574SOL    HW270377   0.597   6.557   7.242 -2.6335  0.4504  0.6056
19575SOL     OW70378   9.500   1.604   3.536  0.0528  0.2582 -0.1050
19575SOL    HW170379   9.573   1.664   3.568  0.0318  0.7448 -0.9381
19575SOL    HW270380   9.535   1.511   3.525  0.0702  0.0958  1.2563
19576SOL     OW70381   7.564   0.050   7.555  0.3335 -0.3373  0.1360
19576SOL    HW170382   7.537   0.123   7.492 -2.1494 -0.5598  0.8728
19576SOL    HW270383   7.627  -0.012   7.509  0.1658  0.6382 -1.4649
19577SOL     OW70384   2.368   2.707   2.711  0.9558 -0.4606  0.5340
19577SOL    HW170385   2.437   2.779   2.704  0.6065 -0.1868 -0.0718
19577SOL    HW270386   2.286   2.744   2.754  0.1501 -0.0498 -1.3402
19578SOL     OW70387   7.965   3.691   4.293 -0.3040 -0.1145  0.2995
19578SOL    HW170388   7.891   3.751   4.264 -0.1505 -0.1839 -0.2431
19578SOL    HW270389   7.999   3.720   4.382 -0.5506  0.3076  0.2557
19579SOL     OW70390   4.663   8.660   1.502 -0.0702 -0.0338 -0.2558
19579SOL    HW170391   4.762   8.659   1.513 -0.0533 -0.4614 -0.4125
19579SOL    HW270392   4.632   8.753   1.482 -0.0547  0.7239  2.8869
19580SOL     OW70393   0.196   6.474   1.362 -0.5888  0.1973 -0.0011
19580SOL    HW170394   0.265   6.534   1.322 -0.2798 -0.1379  0.0344
19580SOL    HW270395   0.235   6.384   1.380 -1.0018  0.0400  0.1238
19581SOL     OW70396   4.369   2.030   0.033 -0.5969  0.2756  0.1874
19581SOL    HW170397   4.406   1.976   0.109 -2.5782  0.6464  1.4561
19581SOL    HW270398   4.345   1.970  -0.043  0.7574 -0.1826  0.1203
19582SOL     OW70399   8.641   0.322   1.243 -0.2126 -0.2498  0.4238
19582SOL    HW170400   8.678   0.398   1.191  1.8909 -0.0652  2.1314
19582SOL    HW270401   8.659   0.236   1.195 -3.8946  0.3534 -2.2510
19583SOL     OW70402   0.486   2.651   0.354 -0.4753 -0.0463 -0.4269
19583SOL    HW170403   0.567   2.642   0.297 -0.0183  1.2135 -0.0034
19583SOL    HW270404   0.500   2.725   0.419 -1.2731 -0.9862  0.8393
19584SOL     OW70405   8.338   6.941   7.729  0.0114 -0.5384  0.2166
19584SOL    HW170406   8.254   6.902   7.767 -1.0843 -0.9029 -2.4601
19584SOL    HW270407   8.409   6.871   7.727 -0.6344 -1.1762 -0.5665
19585SOL     OW70408   0.856   8.457   7.214 -0.1827  0.8434  0.1419
19585SOL    HW170409   0.908   8.427   7.294 -1.1532 -0.4745  0.2808
19585SOL    HW270410   0.825   8.551   7.228  1.9753  1.5771  0.1426
19586SOL     OW70411   1.726   8.031   5.264  0.2246 -0.1130 -0.1211
19586SOL    HW170412   1.732   8.124   5.226 -1.0003 -0.3182 -0.8269
19586SOL    HW270413   1.637   8.019   5.308 -0.1127 -1.3612 -1.1269
19587SOL     OW70414   2.199   6.964   4.264  0.1073 -0.8106  0.7141
19587SOL    HW170415   2.156   6.943   4.176  2.1431  0.2691 -0.5690
19587SOL    HW270416   2.192   7.062   4.282  1.0166 -0.8083  1.0546
19588SOL     OW70417   7.292   0.646   3.957  0.0599  0.1554 -0.4753
19588SOL    HW170418   7.385   0.608   3.963 -0.6044 -1.2927  1.0956
19588SOL    HW270419   7.292   0.740   3.992  0.9924  0.2413 -0.7054
19589SOL     OW70420   7.044   8.469   6.149  0.2533  0.2472 -0.0795
19589SOL    HW170421   6.981   8.406   6.194 -1.1473  2.7598  1.6073
19589SOL    HW270422   7.010   8.490   6.057 -0.4374  0.2089  0.1622
19590SOL     OW70423   5.290   9.153   7.483 -0.0394  0.4793  0.3627
19590SOL    HW170424   5.260   9.235   7.435 -0.3548 -0.3796 -0.9392
19590SOL    HW270425   5.210   9.099   7.510 -0.0071  2.2446  4.2367
19591SOL     OW70426   6.488   7.143   6.852 -0.5846  0.0758 -1.2406
19591SOL    HW170427   6.406   7.158   6.907 -0.7714  1.2893 -1.8283
19591SOL    HW270428   6.568   7.176   6.902 -0.4215 -1.1990 -0.6247
19592SOL     OW70429   7.226   4.983   2.983  0.3710 -0.2104  0.4128
19592SOL    HW170430   7.287   4.908   2.961  0.6880  0.4010 -0.8759
19592SOL    HW270431   7.131   4.951   2.983  0.4672 -0.5099 -0.6179
19593SOL     OW70432   0.265   2.621   2.089 -0.0213 -0.0954  0.1499
19593SOL    HW170433   0.187   2.621   2.026 -0.2695 -1.7648  0.4323
19593SOL    HW270434   0.347   2.592   2.041  0.1470  0.3727  0.1610
19594SOL     OW70435   7.861   3.201   5.454 -0.0115  0.2798  0.6892
19594SOL    HW170436   7.790   3.254   5.499  0.2537  0.2187  1.1770
19594SOL    HW270437   7.940   3.260   5.436  0.7068 -0.2069  2.2031
19595SOL     OW70438   0.742   8.002   3.331  0.0283  0.2483  0.1151
19595SOL    HW170439   0.779   8.087   3.368 -0.2162 -0.1743  1.3679
19595SOL    HW270440   0.792   7.977   3.248  1.9017  0.2031  1.2363
19596SOL     OW70441   9.682   2.366   5.982  0.4872  0.0068  0.6904
19596SOL    HW170442   9.617   2.333   6.051 -0.5082  1.6815  0.5965
19596SOL    HW270443   9.731   2.446   6.019  0.4088  0.5150 -0.2980
19597SOL     OW70444   2.178   9.020   0.799 -0.2138  0.1067 -0.2317
19597SOL    HW170445   2.248   9.088   0.778 -0.3036  0.5336  0.8431
19597SOL    HW270446   2.142   8.983   0.713 -0.0160  1.2521 -0.8256
19598SOL     OW70447   0.196   3.658   2.034  0.7812  0.1256 -0.5384
19598SOL    HW170448   0.161   3.718   1.961 -0.7021  0.1737  0.1934
19598SOL    HW270449   0.278   3.699   2.074  0.2825  1.2563 -0.6380
19599SOL     OW70450   5.677   0.371   1.334 -0.2757 -0.2419  0.4708
19599SOL    HW170451   5.776   0.365   1.325 -0.3026  0.6692 -0.5558
19599SOL    HW270452   5.652   0.453   1.386 -0.5658  0.8463 -1.3460
19600SOL     OW70453   2.300   3.012   2.543 -0.7814  0.5149  0.0023
19600SOL    HW170454   2.249   3.095   2.523 -1.0245  0.3072 -0.2410
19600SOL    HW270455   2.341   2.977   2.458 -0.5862  0.4473  0.1238
19601SOL     OW70456   2.162   3.509   6.987 -0.4004  0.0739 -0.0972
19601SOL    HW170457   2.120   3.593   6.954  0.2077 -0.2066 -1.6507
19601SOL    HW270458   2.094   3.456   7.039 -1.0188  1.1135  0.1782
19602SOL     OW70459   2.732   8.785   1.945  0.4434 -0.1110 -0.3523
19602SOL    HW170460   2.750   8.785   1.847 -0.4921  2.3907 -0.5447
19602SOL    HW270461   2.649   8.836   1.964  0.7594 -0.3389  1.7894
19603SOL     OW70462   9.604   2.460   7.180 -0.2311  0.3361 -0.1785
19603SOL    HW170463   9.674   2.531   7.168 -0.5063  1.1054  2.4157
19603SOL    HW270464   9.588   2.445   7.278 -1.0119 -2.5178 -0.6880
19604SOL     OW70465   9.730   4.216   3.366 -0.1432  0.1006  0.8382
19604SOL    HW170466   9.636   4.232   3.334  0.1237  0.7466  0.3603
19604SOL    HW270467   9.790   4.287   3.329  1.2089 -2.3249 -1.8187
19605SOL     OW70468   0.038   7.247   1.994 -0.0669 -0.3100 -0.4695
19605SOL    HW170469  -0.035   7.273   1.931 -1.0328 -1.3188  0.2200
19605SOL    HW270470   0.013   7.162   2.040  0.8343  0.1830  0.9462
19606SOL     OW70471   3.479   1.152   2.146  0.3249  0.0880  0.0320
19606SOL    HW170472   3.515   1.070   2.102  0.9788 -1.3076  3.0122
19606SOL    HW270473   3.553   1.217   2.161  1.2088 -1.6021  3.6000
19607SOL     OW70474   7.637   4.921   0.644 -0.0878  0.4161 -0.4013
19607SOL    HW170475   7.700   4.880   0.710  0.1438  1.1993 -0.1349
19607SOL    HW270476   7.684   4.937   0.557 -0.4528 -0.8241 -0.8453
19608SOL     OW70477   4.692   2.478   5.091  0.2591  0.0752  0.2233
19608SOL    HW170478   4.655   2.498   5.000 -0.3651 -1.9123  0.0220
19608SOL    HW270479   4.698   2.563   5.143 -4.1701  0.6050  0.0882
19609SOL     OW70480   1.083   2.489   3.959  0.0958  0.8754 -0.4315
19609SOL    HW170481   1.022   2.414   3.935  0.5771  0.3524 -0.0386
19609SOL    HW270482   1.098   2.547   3.879 -1.0666  1.1191 -0.4746
19610SOL     OW70483   7.466   8.455   8.250  0.0737  0.4946  0.0530
19610SOL    HW170484   7.510   8.438   8.162 -0.6452  1.0926 -0.4235
19610SOL    HW270485   7.506   8.537   8.291  0.5278  0.1202  0.3714
19611SOL     OW70486   4.361   0.082   4.993  1.0691 -0.1586  0.1555
19611SOL    HW170487   4.291   0.046   4.932  0.8346  0.9666 -0.2471
19611SOL    HW270488   4.441   0.022   4.992 -0.1953 -1.9071  1.2543
19612SOL     OW70489   4.266   0.781   5.012  0.3065 -0.2563  0.6705
19612SOL    HW170490   4.334   0.827   5.069  2.5087 -3.5493  0.8705
19612SOL    HW270491   4.302   0.692   4.984 -3.1304 -1.1931 -0.9857
19613SOL     OW70492   8.380   6.955   0.524  0.5346 -0.2017 -0.4190
19613SOL    HW170493   8.316   7.032   0.515  0.9283  0.1829  0.0903
19613SOL    HW270494   8.449   6.976   0.593  0.4537 -1.1439 -0.0420
19614SOL     OW70495   4.150   5.023   1.266  0.1738  0.0078  0.1602
19614SOL    HW170496   4.147   4.955   1.340 -0.2527 -1.6449 -1.3497
19614SOL    HW270497   4.057   5.055   1.247 -0.0380 -1.5301 -1.4359
19615SOL     OW70498   3.617   5.105   6.864  0.4532 -0.0908  0.1786
19615SOL    HW170499   3.582   5.016   6.834 -0.4611  0.0142  0.9167
19615SOL    HW270500   3.684   5.091   6.938  0.8053 -0.1981 -0.1569
19616SOL     OW70501   4.600   9.715   6.673 -0.3742  0.1485  0.0128
19616SOL    HW170502   4.571   9.709   6.768 -1.3499 -0.4167 -0.3114
19616SOL    HW270503   4.534   9.770   6.621 -0.5044 -0.5621 -0.5875
19617SOL     OW70504   9.333   2.402   1.376  0.1659  0.0489 -0.4436
19617SOL    HW170505   9.426   2.407   1.412  0.3154  0.8109 -0.9232
19617SOL    HW270506   9.276   2.347   1.438  1.0445 -0.8098 -0.3991
19618SOL     OW70507   7.961   7.352   3.057  0.0844  0.4208 -0.0819
19618SOL    HW170508   8.007   7.263   3.054 -0.5049  0.0896  0.5782
19618SOL    HW270509   7.879   7.349   3.000  0.0514  0.5247 -0.0391
19619SOL     OW70510   6.772   7.156   4.109  0.3207 -0.0279  0.1847
19619SOL    HW170511   6.838   7.148   4.033  1.9399 -1.4535  1.7038
19619SOL    HW270512   6.820   7.142   4.196 -1.8354 -0.0892  1.3775
19620SOL     OW70513   1.820   7.872   4.939 -0.1695  0.0532 -0.4637
19620SOL    HW170514   1.892   7.927   4.982  0.8172 -0.7449 -1.0895
19620SOL    HW270515   1.753   7.846   5.009 -0.7077  2.0978 -0.1609
19621SOL     OW70516   3.798   6.103   3.413 -0.0564 -0.6682 -0.7347
19621SOL    HW170517   3.857   6.065   3.483 -2.2306 -0.9324  1.0134
19621SOL    HW270518   3.712   6.052   3.410 -1.8808  2.2314 -0.3001
19622SOL     OW70519   8.493   7.639   4.533  0.1272  0.2041  0.1062
19622SOL    HW170520   8.466   7.592   4.448  0.9965  0.3587 -0.2595
19622SOL    HW270521   8.415   7.642   4.595 -1.4227  2.6912 -1.8537
19623SOL     OW70522   9.185   6.818   1.701 -0.2823  0.0049  0.4069
19623SOL    HW170523   9.249   6.839   1.626 -2.0558  0.0492 -1.1440
19623SOL    HW270524   9.099   6.867   1.685 -1.5206 -1.8700  1.2003
19624SOL     OW70525   1.848   6.638   1.795  0.6197  0.2242 -0.1124
19624SOL    HW170526   1.881   6.652   1.702  0.1062  0.0777 -0.3200
19624SOL    HW270527   1.783   6.562   1.796  0.7665  0.1038  0.3990
19625SOL     OW70528   8.371   2.059   4.632 -0.1796 -0.3531 -0.3961
19625SOL    HW170529   8.387   2.095   4.724  1.6660  1.5459 -1.4108
19625SOL    HW270530   8.279   2.022   4.626 -0.6011  0.2536  1.9933
19626SOL     OW70531   4.187   5.170   3.608 -0.5175  0.5298 -0.1755
19626SOL    HW170532   4.150   5.079   3.624 -0.5099  0.6068  0.2866
19626SOL    HW270533   4.211   5.180   3.512  1.4083 -0.6834  0.1551
19627SOL     OW70534   0.988   9.662   4.715  0.5405  0.2752  0.3633
19627SOL    HW170535   0.891   9.645   4.699  0.4139  1.7107 -0.4832
19627SOL    HW270536   1.029   9.703   4.634  1.3267  1.7865  1.4875
19628SOL     OW70537   1.276   9.226   1.706 -0.3658  0.2508 -0.4245
19628SOL    HW170538   1.240   9.249   1.615 -0.3714  0.8557 -0.2757
19628SOL    HW270539   1.263   9.129   1.724 -1.8979  0.4336 -0.4074
19629SOL     OW70540   2.819   0.844   5.997  1.0253  0.4618  0.0071
19629SOL    HW170541   2.764   0.762   5.979  0.4970  0.3795  1.8711
19629SOL    HW270542   2.776   0.897   6.070  1.0119  2.7542 -1.5981
19630SOL     OW70543   0.475   5.429   0.746 -0.4245 -0.0144  0.0693
19630SOL    HW170544   0.552   5.365   0.750 -0.2292  0.1832 -0.4138
19630SOL    HW270545   0.389   5.379   0.753 -0.2514 -0.2441  0.5453
19631SOL     OW70546   6.196   4.616   1.853  0.2205  0.0656  0.1320
19631SOL    HW170547   6.172   4.713   1.859  4.1696  1.3551 -3.1262
19631SOL    HW270548   6.173   4.581   1.763 -0.0261 -1.7543  0.8713
19632SOL     OW70549   3.935   8.832   4.073 -0.1260  0.2814  0.7330
19632SOL    HW170550   3.876   8.855   3.996 -0.9705 -1.5432  0.8272
19632SOL    HW270551   3.889   8.766   4.132  1.3061  0.1757  1.7477
19633SOL     OW70552   3.375   0.699   5.944  0.1023 -0.4371  0.7133
19633SOL    HW170553   3.315   0.771   5.980  1.2829 -0.2830  2.4319
19633SOL    HW270554   3.363   0.616   5.997  0.4703 -0.8010  0.2355
19634SOL     OW70555   3.369   7.962   5.395 -0.0373 -0.5584 -0.5376
19634SOL    HW170556   3.435   7.894   5.425 -0.6355 -0.9245 -0.0234
19634SOL    HW270557   3.412   8.026   5.332  0.8145 -0.7551 -0.1534
19635SOL     OW70558   9.958   2.274   4.111  0.0095  0.1349 -0.0619
19635SOL    HW170559   9.874   2.312   4.073  0.9805  2.4980  0.0375
19635SOL    HW270560   9.937   2.225   4.196 -1.8352 -3.1176 -2.2827
19636SOL     OW70561   5.848   8.027   6.076 -0.2298  0.5860  0.1670
19636SOL    HW170562   5.815   7.933   6.075 -1.0140  0.8666 -0.8623
19636SOL    HW270563   5.948   8.028   6.088 -0.2253 -0.3619  0.2121
19637SOL     OW70564   9.297   3.193   1.097 -0.0725 -0.0881 -0.5587
19637SOL    HW170565   9.241   3.194   1.180  2.0209  0.5107  0.8819
19637SOL    HW270566   9.284   3.106   1.048 -0.5805 -0.8533  0.9186
19638SOL     OW70567   1.034   9.837   0.587  0.2917  0.0113  0.1534
19638SOL    HW170568   1.043   9.747   0.544 -2.7479  0.6245 -1.8292
19638SOL    HW270569   1.040   9.909   0.518  1.9571  1.3656  1.6327
19639SOL     OW70570   8.714   7.764   3.888 -0.8465  0.0108 -0.1686
19639SOL    HW170571   8.655   7.704   3.834 -1.9082  1.7967 -1.0296
19639SOL    HW270572   8.758   7.831   3.828  1.5345 -0.8506  0.5629
19640SOL     OW70573   4.827   3.158   0.129  0.0116  0.2728 -0.1249
19640SOL    HW170574   4.736   3.199   0.143 -0.7778 -1.2629 -0.5938
19640SOL    HW270575   4.850   3.162   0.032  0.0018 -0.2521 -0.1478
19641SOL     OW70576   3.818   0.164   2.720  0.0471  0.5631 -0.3469
19641SOL    HW170577   3.881   0.087   2.729  0.9002  1.3670  0.6565
19641SOL    HW270578   3.870   0.250   2.717 -0.8662  1.0954 -1.8179
19642SOL     OW70579   9.254   8.114   8.045  0.4089  0.0647  0.2172
19642SOL    HW170580   9.314   8.037   8.064  2.1162  0.9677 -1.3459
19642SOL    HW270581   9.183   8.087   7.980 -0.1508 -0.6738  1.1271
19643SOL     OW70582   7.156   7.509   7.495  0.2106  0.2328  0.3062
19643SOL    HW170583   7.133   7.591   7.443  0.6584 -0.0849 -0.4060
19643SOL    HW270584   7.089   7.437   7.474  0.8321 -0.1361 -0.4182
19644SOL     OW70585   5.870   9.870   5.640  0.2731  0.8281 -0.3222
19644SOL    HW170586   5.865   9.860   5.541  1.6248 -0.1023 -0.3150
19644SOL    HW270587   5.860   9.967   5.665 -1.7439  0.8814 -1.2298
19645SOL     OW70588   9.399   1.975   6.031  0.1969  0.4886 -0.6035
19645SOL    HW170589   9.414   1.960   5.933  1.1523  3.4980 -0.9495
19645SOL    HW270590   9.486   1.973   6.079  0.0593  1.9805 -0.2669
19646SOL     OW70591   4.792   9.497   5.521  0.7763  0.5429 -0.0711
19646SOL    HW170592   4.693   9.484   5.514  1.0409 -1.4772 -0.2776
19646SOL    HW270593   4.822   9.563   5.451 -0.3497  0.8515 -0.2778
19647SOL     OW70594   6.856   7.965   2.805 -0.2654  0.1655 -0.3166
19647SOL    HW170595   6.821   7.934   2.894 -0.5012  0.6838 -0.2238
19647SOL    HW270596   6.954   7.983   2.812 -0.3771  0.6877 -0.0212
19648SOL     OW70597   4.939   8.149   5.127 -0.1159  0.0660  0.0431
19648SOL    HW170598   4.993   8.185   5.051 -0.6106 -0.6016 -0.6448
19648SOL    HW270599   4.999   8.121   5.201  0.3835  0.6095 -0.1563
19649SOL     OW70600   7.768   5.694   3.446  0.5895  0.1933 -0.2718
19649SOL    HW170601   7.781   5.605   3.491  1.3462  0.8434  0.7965
19649SOL    HW270602   7.704   5.749   3.499 -1.6150 -0.5157 -2.0791
19650SOL     OW70603   9.145   9.587   0.656  0.0677 -0.2503  0.6894
19650SOL    HW170604   9.109   9.547   0.741  0.3000 -0.5726  0.6344
19650SOL    HW270605   9.132   9.686   0.659 -0.3001 -0.3014  0.9255
19651SOL     OW70606   9.707   9.561   6.652  0.2952  0.7634 -0.6261
19651SOL    HW170607   9.618   9.587   6.614  0.1262 -0.7220 -1.2873
19651SOL    HW270608   9.694   9.515   6.739  0.4928  1.3848 -0.2606
19652SOL     OW70609   7.468   8.627   6.127  0.4867  0.4299 -0.0127
19652SOL    HW170610   7.379   8.666   6.105  0.3005 -0.5003 -0.9615
19652SOL    HW270611   7.531   8.642   6.050 -0.2569 -3.1413 -1.4282
19653SOL     OW70612   7.020   1.536   1.432  0.0055 -0.0003  0.0416
19653SOL    HW170613   7.013   1.592   1.350  0.4907 -1.3140 -0.9215
19653SOL    HW270614   7.027   1.440   1.406 -0.2618 -0.4736  1.6409
19654SOL     OW70615   9.224   3.397   0.303 -0.0147  0.2390  0.6539
19654SOL    HW170616   9.156   3.329   0.276 -1.1789  1.0032  1.5983
19654SOL    HW270617   9.246   3.455   0.225  1.3773 -1.5326 -0.2916
19655SOL     OW70618   1.247   5.512   0.724 -0.4759 -0.2589  0.1749
19655SOL    HW170619   1.176   5.582   0.732  0.1031  0.2310  1.1357
19655SOL    HW270620   1.229   5.439   0.790 -0.4797 -0.4895 -0.0797
19656SOL     OW70621   4.705   3.932   5.143 -0.6676  0.4079 -0.5385
19656SOL    HW170622   4.777   3.905   5.207 -0.3560 -2.3543 -1.9584
19656SOL    HW270623   4.694   4.031   5.144  0.4925  0.5399  2.5082
19657SOL     OW70624   0.587   3.268   0.668 -0.3111  0.4183 -0.5507
19657SOL    HW170625   0.495   3.241   0.697  0.1600 -1.2348 -0.4933
19657SOL    HW270626   0.651   3.256   0.744  0.2310 -0.0643 -1.0703
19658SOL     OW70627   4.654   1.485   5.154  0.1285 -0.2298 -0.0835
19658SOL    HW170628   4.600   1.467   5.236 -0.0030  1.0231  0.1021
19658SOL    HW270629   4.748   1.453   5.168  0.4965  1.3634  1.1074
19659SOL     OW70630   4.127   5.388   3.803 -0.1257  0.0444 -0.4015
19659SOL    HW170631   4.050   5.380   3.866  0.9914  0.8700  1.1084
19659SOL    HW270632   4.131   5.307   3.745 -0.0151 -1.6752  1.9443
19660SOL     OW70633   1.144   3.664   4.203  0.5807 -0.0288 -0.0990
19660SOL    HW170634   1.219   3.682   4.139 -0.0536 -0.0616 -0.8630
19660SOL    HW270635   1.137   3.739   4.268  0.0292  0.9127 -1.2430
19661SOL     OW70636   9.058   1.681   0.744  0.5386 -0.0267  0.9536
19661SOL    HW170637   8.963   1.669   0.716  0.7944 -1.5041  0.6960
19661SOL    HW270638   9.073   1.638   0.833  1.4014 -1.4161  0.1481
19662SOL     OW70639   7.606   1.585   5.644  0.4408  0.1120  0.1376
19662SOL    HW170640   7.540   1.525   5.689  1.1512 -0.4907  0.3981
19662SOL    HW270641   7.645   1.647   5.712  2.0906 -1.3231  0.5432
19663SOL     OW70642   6.760   2.004   4.064 -0.3280 -0.3654  0.4774
19663SOL    HW170643   6.779   1.917   4.110 -0.3296 -0.2951  0.6103
19663SOL    HW270644   6.799   2.079   4.117 -1.0047 -0.2208  0.7753
19664SOL     OW70645   9.192   4.190   0.469 -0.0780  0.2134  0.2049
19664SOL    HW170646   9.218   4.286   0.476  0.1409  0.1626  0.1041
19664SOL    HW270647   9.238   4.138   0.541 -0.0221  0.1480  0.1214
19665SOL     OW70648   2.181   4.331   4.747  0.0585  0.0518  0.0557
19665SOL    HW170649   2.102   4.331   4.686  1.0237 -0.0440 -1.2167
19665SOL    HW270650   2.150   4.332   4.842 -1.4628  0.3381 -0.4316
19666SOL     OW70651   2.619   3.382   0.099  0.0739  0.7405 -0.2173
19666SOL    HW170652   2.683   3.455   0.074 -0.1456  1.1641  0.4499
19666SOL    HW270653   2.591   3.333   0.017  1.1609  0.6322 -0.5317
19667SOL     OW70654   4.262   2.799   1.380 -0.1777  0.3904  0.2827
19667SOL    HW170655   4.233   2.852   1.300  1.4473  2.2415  0.9078
19667SOL    HW270656   4.330   2.731   1.352 -0.6790  0.0586 -0.1465
19668SOL     OW70657   2.879   9.998   3.200 -0.2004  0.4047  0.5750
19668SOL    HW170658   2.917   9.936   3.131  0.7157  1.8577 -0.2677
19668SOL    HW270659   2.949  10.018   3.269 -0.0161  1.5577  0.0809
19669SOL     OW70660   2.952   6.893   1.245 -0.6047 -0.4571 -0.6965
19669SOL    HW170661   2.958   6.809   1.191  1.1234  0.9784 -2.8185
19669SOL    HW270662   2.921   6.968   1.187  0.2903  0.9148  0.5582
19670SOL     OW70663   4.769   0.570   2.155 -0.2820  0.3957 -0.5214
19670SOL    HW170664   4.741   0.656   2.112 -1.1706  0.7432  0.7421
19670SOL    HW270665   4.713   0.495   2.119 -0.2454  0.5045 -0.8086
19671SOL     OW70666   9.600   3.049   6.001  0.3451 -0.4594 -0.0177
19671SOL    HW170667   9.590   3.033   6.099 -0.2909 -3.1923 -0.4757
19671SOL    HW270668   9.513   3.033   5.955  0.5497  1.1390 -1.0026
19672SOL     OW70669   9.618   9.653   0.722 -0.1801 -0.2819  0.2767
19672SOL    HW170670   9.716   9.653   0.702 -0.0868  1.6000  0.5840
19672SOL    HW270671   9.568   9.682   0.641 -0.5798 -2.2021 -0.1857
19673SOL     OW70672   6.503   7.250   4.088 -0.1078 -0.2683  0.2421
19673SOL    HW170673   6.601   7.253   4.110 -0.1490 -1.4798  0.6174
19673SOL    HW270674   6.492   7.249   3.988  0.3431 -1.9334  0.1910
19674SOL     OW70675   2.634   3.542   4.004 -0.2641 -0.2619  0.0118
19674SOL    HW170676   2.733   3.548   4.018 -0.3654  0.5422  0.3896
19674SOL    HW270677   2.603   3.449   4.027  0.3161 -0.3640  0.4050
19675SOL     OW70678   8.828   4.064   6.990 -0.0611  0.6495  0.0033
19675SOL    HW170679   8.912   4.090   6.943 -0.1163  0.0873 -0.4209
19675SOL    HW270680   8.767   4.143   6.996  0.3164  0.9494 -0.0733
19676SOL     OW70681   1.509   8.766   1.648  0.4447 -1.0124  0.0380
19676SOL    HW170682   1.576   8.778   1.574 -0.8358 -0.4278 -1.0388
19676SOL    HW270683   1.482   8.670   1.653  1.7159 -1.3373  0.7901
19677SOL     OW70684   3.210   0.414   1.611 -0.0591 -0.0597  0.0799
19677SOL    HW170685   3.303   0.451   1.603  0.4368 -1.6604 -2.1175
19677SOL    HW270686   3.145   0.478   1.570  0.7186 -1.1991 -3.1112
19678SOL     OW70687   3.500   6.793   2.265 -0.0471  0.0874  0.4785
19678SOL    HW170688   3.448   6.739   2.331 -1.5652 -0.3710 -1.0501
19678SOL    HW270689   3.598   6.781   2.281 -0.3542 -2.7131  0.5139
19679SOL     OW70690   9.823   7.163   5.595 -0.1906 -0.2518  0.5467
19679SOL    HW170691   9.915   7.164   5.554 -0.8950 -1.1949 -1.1150
19679SOL    HW270692   9.817   7.085   5.657  0.1013 -0.2469  0.5863
19680SOL     OW70693   1.201   1.807   1.876  0.1413 -0.1623  0.2637
19680SOL    HW170694   1.169   1.779   1.786  0.9649 -1.9772  0.5182
19680SOL    HW270695   1.127   1.853   1.925 -0.6086 -0.0604 -0.9552
19681SOL     OW70696   9.492   1.601   4.616  0.3193 -0.0503  0.1098
19681SOL    HW170697   9.480   1.683   4.671 -1.9205 -1.1826  1.3920
19681SOL    HW270698   9.405   1.577   4.572  1.3311 -0.8519 -1.5108
19682SOL     OW70699   7.204   9.674   4.348  0.5140 -0.3398 -0.3876
19682SOL    HW170700   7.248   9.763   4.362 -0.2792  0.2492 -1.5676
19682SOL    HW270701   7.228   9.638   4.258  0.8935 -1.3696  0.1160
19683SOL     OW70702   6.322   1.241   3.600  0.0900  0.0813  0.2107
19683SOL    HW170703   6.315   1.274   3.506 -0.4448  0.2075  0.2976
19683SOL    HW270704   6.418   1.218   3.619 -0.3108 -3.6515 -1.6183
19684SOL     OW70705   5.924   2.004   4.197  0.0659  0.1840  0.0889
19684SOL    HW170706   6.002   1.942   4.186  0.4188  0.3405  1.5079
19684SOL    HW270707   5.952   2.083   4.251 -0.8834  0.6236 -0.0473
19685SOL     OW70708   9.751   1.469   2.342 -0.1395  0.2030  0.2957
19685SOL    HW170709   9.653   1.462   2.328 -0.3844  0.1848  1.9810
19685SOL    HW270710   9.777   1.564   2.356 -0.1198  0.0529  1.2988
19686SOL     OW70711   1.506   1.618   5.265 -0.5519  0.1208 -0.0896
19686SOL    HW170712   1.506   1.710   5.228  2.1667 -0.2009 -1.0022
19686SOL    HW270713   1.587   1.605   5.323 -0.6670 -1.8146 -0.3263
19687SOL     OW70714   2.963   4.632   4.938 -0.1568  0.1505 -0.1499
19687SOL    HW170715   3.037   4.676   4.990  0.1458  0.5417 -0.8873
19687SOL    HW270716   2.887   4.697   4.927 -0.5812 -0.2276  0.5483
19688SOL     OW70717   4.648   7.067   0.055  0.0461 -0.3389 -0.3200
19688SOL    HW170718   4.730   7.034   0.102  0.9808  1.3869 -0.6864
19688SOL    HW270719   4.606   7.140   0.108 -1.1687 -1.0843 -0.2292
19689SOL     OW70720   1.746   6.556   6.676 -0.1696  0.0778 -0.4304
19689SOL    HW170721   1.700   6.476   6.639  0.1963 -0.3968  0.1324
19689SOL    HW270722   1.678   6.616   6.719 -0.2861 -0.5616  0.2958
19690SOL     OW70723   0.139   3.575   7.787 -0.1140  0.2270 -0.2833
19690SOL    HW170724   0.166   3.671   7.792 -0.9799  0.4553 -0.0282
19690SOL    HW270725   0.183   3.532   7.708  1.3532  0.4842  0.3778
19691SOL     OW70726   3.801   7.904   6.351 -0.4268  0.3106 -0.1171
19691SOL    HW170727   3.771   7.838   6.419 -1.9106  0.9825 -0.0978
19691SOL    HW270728   3.804   7.995   6.393  1.9968  0.2220 -0.0236
19692SOL     OW70729   7.626   6.120   0.705 -0.3150  0.1905  0.2340
19692SOL    HW170730   7.707   6.075   0.745  1.2192  0.0204 -2.9468
19692SOL    HW270731   7.563   6.050   0.671 -0.8859  0.3717  0.9018
19693SOL     OW70732   0.245   3.411   6.832 -0.3818  0.1399 -0.1646
19693SOL    HW170733   0.146   3.398   6.841 -0.1671 -0.7235  0.9707
19693SOL    HW270734   0.263   3.479   6.761 -1.8144  0.8824  0.1701
19694SOL     OW70735   5.414   8.474   4.417  0.1736  0.0657  0.3246
19694SOL    HW170736   5.461   8.453   4.503 -0.3258  1.2966  0.9070
19694SOL    HW270737   5.323   8.433   4.418  0.4115 -0.4843  0.0931
19695SOL     OW70738   3.788   6.015   5.427 -0.2288 -0.0036  0.4160
19695SOL    HW170739   3.718   5.949   5.453 -0.4336  0.5897  1.3857
19695SOL    HW270740   3.827   6.057   5.510  0.6636  0.2967 -0.1449
19696SOL     OW70741   1.476   2.577   1.417 -0.3930  0.6824  0.0958
19696SOL    HW170742   1.561   2.630   1.407  1.7317 -3.0174 -2.3308
19696SOL    HW270743   1.457   2.565   1.515  2.7698  0.2168  0.7249
19697SOL     OW70744   9.787   4.196   4.491  0.3682 -0.3329 -1.1699
19697SOL    HW170745   9.883   4.178   4.513  0.0621  2.2030  2.5687
19697SOL    HW270746   9.730   4.124   4.531  0.4715 -0.1875 -0.7623
19698SOL     OW70747   2.686   3.246   2.883  0.0049 -0.1886  0.4235
19698SOL    HW170748   2.604   3.207   2.926 -1.4212  0.0136 -2.0586
19698SOL    HW270749   2.703   3.337   2.921 -0.1189 -0.7572  1.8997
19699SOL     OW70750   3.760   0.150   0.883  0.2219 -0.4313 -0.1933
19699SOL    HW170751   3.820   0.226   0.859 -0.7135  0.1223 -0.7635
19699SOL    HW270752   3.815   0.078   0.927  1.3153  0.0397 -0.7642
19700SOL     OW70753   4.301   8.941   5.511  0.1183  0.1351 -0.0256
19700SOL    HW170754   4.280   9.037   5.532  1.7455  0.0766  1.9631
19700SOL    HW270755   4.349   8.936   5.423 -0.5258  1.0620 -0.4424
19701SOL     OW70756   8.759   6.878   3.051  0.6442  0.3133 -0.8494
19701SOL    HW170757   8.856   6.870   3.074  0.1769  1.0274  1.4801
19701SOL    HW270758   8.746   6.958   2.992  1.2857  1.0073 -0.0578
19702SOL     OW70759   8.187   7.445   7.366  0.0689  0.4762 -0.0582
19702SOL    HW170760   8.266   7.411   7.315  0.1250  1.2265 -0.4745
19702SOL    HW270761   8.126   7.494   7.303 -1.2127 -0.9350  0.0618
19703SOL     OW70762   1.997   3.728   7.433 -0.3019  0.5461 -0.2440
19703SOL    HW170763   2.002   3.651   7.369  2.0504  0.0872  0.4506
19703SOL    HW270764   1.972   3.694   7.524  1.7586  0.4147  0.3032
19704SOL     OW70765   7.374   5.164   7.655 -0.6492 -0.1399 -1.1727
19704SOL    HW170766   7.316   5.225   7.710  1.0413  1.4206 -1.0857
19704SOL    HW270767   7.395   5.208   7.567  0.7886 -0.4967 -1.0186
19705SOL     OW70768   5.010   0.678   7.582 -0.5637  0.2904  0.2377
19705SOL    HW170769   5.067   0.636   7.653 -1.7625 -1.0147  0.4554
19705SOL    HW270770   5.068   0.715   7.509  0.6269  0.7317  1.4012
19706SOL     OW70771   1.985   9.054   5.447 -0.2202 -0.4061  0.2615
19706SOL    HW170772   1.927   9.108   5.387  1.3853  1.9418  0.7350
19706SOL    HW270773   2.041   9.116   5.503  0.0523 -2.5536  2.4331
19707SOL     OW70774   7.620   3.115   1.774 -0.5566 -0.3932  0.1279
19707SOL    HW170775   7.634   3.021   1.805 -2.4421 -0.7990 -0.1765
19707SOL    HW270776   7.697   3.143   1.717  1.3167 -0.8137  2.3366
19708SOL     OW70777   3.139   5.125   7.658  0.2403 -0.8243  0.2335
19708SOL    HW170778   3.170   5.218   7.678  0.6932 -0.7035 -0.9868
19708SOL    HW270779   3.211   5.060   7.683  0.8590 -0.6642 -1.0800
19709SOL     OW70780   2.493   9.959   4.523  0.0721  0.3216 -0.4419
19709SOL    HW170781   2.485   9.891   4.450  0.9658 -1.9619  1.5311
19709SOL    HW270782   2.589   9.970   4.549 -0.3526  0.1341  1.2765
19710SOL     OW70783   7.799   0.527   3.636 -0.2990 -0.5561  0.2750
19710SOL    HW170784   7.831   0.432   3.648  0.6517 -0.4113 -0.9087
19710SOL    HW270785   7.845   0.586   3.701 -0.3236 -0.7939  0.5106
19711SOL     OW70786   4.504   9.819   7.117 -0.1757  0.4741 -0.3673
19711SOL    HW170787   4.465   9.884   7.051  1.4541  2.0060  0.1314
19711SOL    HW270788   4.581   9.771   7.075  0.3210  0.8260  0.1366
19712SOL     OW70789   7.736   0.480   2.764 -0.3194 -0.2746  0.0742
19712SOL    HW170790   7.797   0.402   2.781 -0.4717 -0.6388 -1.0165
19712SOL    HW270791   7.748   0.548   2.837  0.8701 -0.6637  0.2586
19713SOL     OW70792   0.104   4.135   0.933  0.3128  0.0124 -0.6811
19713SOL    HW170793   0.164   4.202   0.979  1.2264 -1.3787  0.2048
19713SOL    HW270794   0.160   4.071   0.880 -0.3247 -1.5826  0.5162
19714SOL     OW70795   7.090   5.467   2.180 -0.1348 -0.2034 -0.2737
19714SOL    HW170796   7.184   5.499   2.190  0.1841 -1.4140  0.7204
19714SOL    HW270797   7.079   5.424   2.090  0.6241 -1.2070  0.0971
19715SOL     OW70798   9.541   5.446   2.609  0.0497  0.4752 -0.5947
19715SOL    HW170799   9.515   5.515   2.677 -1.7594  0.1853 -0.9592
19715SOL    HW270800   9.603   5.380   2.651 -0.9973  0.3289  0.7785
19716SOL     OW70801   2.128   8.586   6.328  0.6230  0.1196  0.3047
19716SOL    HW170802   2.215   8.629   6.304  2.0624 -2.3167  0.9314
19716SOL    HW270803   2.098   8.527   6.253  0.4175 -0.4034  0.7903
19717SOL     OW70804   1.896   2.289   1.374 -0.0795  0.0732  0.1636
19717SOL    HW170805   1.923   2.317   1.466 -0.1305  0.7537 -0.0237
19717SOL    HW270806   1.796   2.289   1.366 -0.0951 -0.8265  0.3647
19718SOL     OW70807   1.600   1.367   2.032 -0.0273 -0.2894 -0.3618
19718SOL    HW170808   1.604   1.391   1.935  1.7176  1.1654  0.0392
19718SOL    HW270809   1.693   1.351   2.066 -0.3883  1.6861  1.6397
19719SOL     OW70810   8.879   9.367   0.434  0.2691  0.1568 -0.1668
19719SOL    HW170811   8.845   9.286   0.482  0.3654 -0.1829 -0.6688
19719SOL    HW270812   8.975   9.381   0.458  0.2968  0.0301 -0.2002
19720SOL     OW70813   2.384   2.305   3.431 -0.1413  0.8380 -0.0166
19720SOL    HW170814   2.414   2.374   3.366 -2.6035 -0.1472 -2.2739
19720SOL    HW270815   2.452   2.232   3.437  0.9188  1.8094 -0.1013
19721SOL     OW70816   7.764   0.617   1.960  0.0742  0.5339  0.4567
19721SOL    HW170817   7.858   0.636   1.932  0.2092  0.0594  0.5776
19721SOL    HW270818   7.721   0.701   1.993  0.7984  0.5462  1.3845
19722SOL     OW70819   2.651   3.555   9.892 -0.2375 -0.3184 -0.7045
19722SOL    HW170820   2.614   3.600   9.973  0.2983 -0.0018 -0.6340
19722SOL    HW270821   2.659   3.622   9.818  0.7168 -0.2545 -0.5501
19723SOL     OW70822   3.852   1.403   1.308  0.0405  0.0570 -0.4138
19723SOL    HW170823   3.871   1.434   1.401 -0.0449  1.1106 -0.7416
19723SOL    HW270824   3.761   1.434   1.281 -0.9069 -2.2947  0.0116
19724SOL     OW70825   1.858   9.383   1.294  0.5725 -0.4542 -0.1240
19724SOL    HW170826   1.897   9.323   1.364  1.4870 -1.5487 -1.5333
19724SOL    HW270827   1.896   9.475   1.305  1.0379 -0.7209  0.5503
19725SOL     OW70828   1.176   9.710   3.135  0.4799  0.1347  0.6343
19725SOL    HW170829   1.183   9.788   3.074  0.6600 -0.0608  0.4009
19725SOL    HW270830   1.206   9.736   3.227 -0.2997  0.5713  0.7648
19726SOL     OW70831   9.051   9.948   6.341  0.3689 -0.2111  0.2522
19726SOL    HW170832   9.075  10.040   6.310 -1.6759  0.5732  0.9223
19726SOL    HW270833   9.040   9.948   6.441  1.4732 -1.4552  0.3862
19727SOL     OW70834   8.655   9.874   6.623  0.2565 -0.3837  0.0569
19727SOL    HW170835   8.625   9.906   6.534  1.9226  0.8121 -0.1069
19727SOL    HW270836   8.609   9.927   6.695  0.3754 -0.0225 -0.1348
19728SOL     OW70837   2.407   3.305   1.802  0.2434 -0.2764  0.3964
19728SOL    HW170838   2.418   3.328   1.706  2.1800 -1.2519  0.3614
19728SOL    HW270839   2.348   3.225   1.811 -1.5337  0.9951  0.1497
19729SOL     OW70840   9.659   8.749   5.224 -0.0922 -0.0095 -0.0608
19729SOL    HW170841   9.740   8.779   5.275 -1.1738  0.9018  1.1702
19729SOL    HW270842   9.578   8.756   5.283 -0.9977 -1.3848 -1.1101
19730SOL     OW70843   8.250   3.760   3.189 -0.4416 -0.1314  0.3180
19730SOL    HW170844   8.322   3.692   3.175 -1.4435 -1.0135 -0.6950
19730SOL    HW270845   8.267   3.810   3.274  1.9734  0.4472 -0.4465
19731SOL     OW70846   7.381   1.150   5.895  0.3964  0.6299  0.0086
19731SOL    HW170847   7.426   1.105   5.819 -0.6773 -0.3843 -0.0422
19731SOL    HW270848   7.286   1.171   5.869 -0.9545 -2.5183  2.0976
19732SOL     OW70849   3.860   0.302   4.753 -0.3978  0.1458  0.3284
19732SOL    HW170850   3.956   0.329   4.759  0.0330 -0.4797 -2.7178
19732SOL    HW270851   3.803   0.383   4.766  0.4973  0.3938  2.8921
19733SOL     OW70852   2.027   9.366   4.616 -0.1802  0.0163  0.3962
19733SOL    HW170853   1.996   9.313   4.537  0.5758 -0.0771  0.1580
19733SOL    HW270854   2.125   9.355   4.627 -0.2348  0.2690  1.1790
19734SOL     OW70855   3.466   4.353   0.679  0.1740  0.7886 -0.4286
19734SOL    HW170856   3.491   4.443   0.643  0.2705  0.7678 -0.4131
19734SOL    HW270857   3.376   4.358   0.722  0.0695  0.8207 -0.6468
19735SOL     OW70858   2.519   8.283   5.651  0.1851 -0.3432 -0.2596
19735SOL    HW170859   2.569   8.321   5.573 -0.1195 -0.6868 -0.6221
19735SOL    HW270860   2.582   8.272   5.728  0.4015  0.3508 -0.3338
19736SOL     OW70861   4.043   0.606   0.986 -0.3638  0.8782 -0.0992
19736SOL    HW170862   4.034   0.694   1.033  2.4158  1.4225 -0.5317
19736SOL    HW270863   4.072   0.536   1.051 -0.5689  0.7235 -0.1729
19737SOL     OW70864   9.323   9.004   3.667  0.4616 -0.4771 -0.4888
19737SOL    HW170865   9.393   8.947   3.624  0.4662 -0.4268 -0.5468
19737SOL    HW270866   9.352   9.099   3.666  0.7074 -0.5439  0.1222
19738SOL     OW70867   7.801   3.500   4.653 -0.2666 -0.3209  0.0699
19738SOL    HW170868   7.764   3.446   4.728 -0.2917  1.1952  1.1892
19738SOL    HW270869   7.765   3.594   4.659  0.3131  0.0127 -1.4028
19739SOL     OW70870   3.588   3.937   4.387 -0.0421 -0.4626  0.2736
19739SOL    HW170871   3.546   4.002   4.450  2.1695 -0.9228  2.3164
19739SOL    HW270872   3.664   3.981   4.339  0.4936 -1.0642  0.5468
19740SOL     OW70873   0.390   0.152   4.407 -0.4207 -0.5349  0.4784
19740SOL    HW170874   0.485   0.141   4.378 -0.6502 -2.4626  0.4015
19740SOL    HW270875   0.339   0.203   4.338  0.4684  0.2036  0.3644
19741SOL     OW70876   2.878   7.489   4.502 -0.1689  0.0360 -0.3490
19741SOL    HW170877   2.878   7.586   4.527  1.0587  0.2242 -1.0193
19741SOL    HW270878   2.814   7.439   4.560 -0.6337  1.2071  0.1614
19742SOL     OW70879   7.553   5.713   3.637 -0.3724 -0.9879  0.0438
19742SOL    HW170880   7.536   5.660   3.554 -1.3049 -0.5411 -0.0555
19742SOL    HW270881   7.472   5.768   3.659  0.5556  0.3595  0.1762
19743SOL     OW70882   9.188   1.764   4.470  0.1544  0.4218  0.1981
19743SOL    HW170883   9.159   1.702   4.397  0.3244 -1.1389  1.4354
19743SOL    HW270884   9.261   1.824   4.436  1.3737 -1.4005 -0.4398
19744SOL     OW70885   9.984   0.268   5.971  0.0371  0.0268 -0.1623
19744SOL    HW170886  10.072   0.256   6.017 -0.0627 -0.5338 -0.1135
19744SOL    HW270887   9.997   0.262   5.872  0.0367 -0.1639 -0.1506
19745SOL     OW70888   9.053   0.840   1.518 -0.6063 -0.0476 -0.2317
19745SOL    HW170889   9.098   0.852   1.429 -0.4135  5.5441  0.4589
19745SOL    HW270890   8.954   0.851   1.507 -0.4542  2.1224  0.4223
19746SOL     OW70891   0.011   8.981   7.110  0.3030  0.2434 -0.5664
19746SOL    HW170892   0.047   9.074   7.104 -0.6519  0.6104 -0.7420
19746SOL    HW270893   0.071   8.925   7.166  0.4724  1.1692  0.1837
19747SOL     OW70894   7.017   8.186   8.059  0.4308 -0.0480 -0.1074
19747SOL    HW170895   7.096   8.208   8.117  0.8784 -0.1160 -0.6806
19747SOL    HW270896   6.984   8.095   8.082 -0.2945  0.4906  1.0232
19748SOL     OW70897   9.599   2.317   1.462 -0.2372  0.0708  0.2488
19748SOL    HW170898   9.543   2.359   1.533 -0.5139  3.5202 -1.8949
19748SOL    HW270899   9.684   2.369   1.451  0.0693 -0.7532 -1.5341
19749SOL     OW70900   3.497   1.572   4.374 -0.0865  0.0405 -0.5114
19749SOL    HW170901   3.453   1.557   4.286  0.0751  3.6039 -1.2843
19749SOL    HW270902   3.437   1.628   4.431  1.5789  1.2871  0.0548
19750SOL     OW70903   0.700   5.051   4.753  0.0670  0.3050 -0.7438
19750SOL    HW170904   0.687   4.954   4.775 -0.1243  0.4201 -0.3281
19750SOL    HW270905   0.615   5.101   4.772  0.1443  0.5409 -1.0182
19751SOL     OW70906   7.463   3.447   2.246 -0.4173  0.5132  0.7642
19751SOL    HW170907   7.387   3.494   2.292  0.6418  1.7929  1.2337
19751SOL    HW270908   7.541   3.440   2.308  0.2787  0.3224 -0.1184
19752SOL     OW70909   8.883   0.066   6.120  0.0447  0.2418 -0.0504
19752SOL    HW170910   8.831   0.115   6.191  1.1388  0.4263  0.6407
19752SOL    HW270911   8.885  -0.031   6.142 -0.7485  0.1151 -0.5434
19753SOL     OW70912   8.418   2.637   1.916 -0.3859 -0.1604  0.7848
19753SOL    HW170913   8.343   2.664   1.856 -0.1658  1.1380  1.0870
19753SOL    HW270914   8.433   2.539   1.907  0.5433  0.2174 -2.2780
19754SOL     OW70915   2.061   5.637   7.125 -0.3372 -1.1852 -0.4684
19754SOL    HW170916   2.116   5.627   7.208 -1.2963 -2.1085  0.0678
19754SOL    HW270917   1.967   5.659   7.149  0.1643  2.4501 -1.4389
19755SOL     OW70918   2.123   1.646   0.349 -0.1506  0.2188 -0.8241
19755SOL    HW170919   2.218   1.638   0.379 -0.9608 -0.8616  1.5297
19755SOL    HW270920   2.102   1.574   0.283  0.0096 -1.0202  0.4548
19756SOL     OW70921   7.774   6.257   0.508  0.4676 -0.1774 -0.3842
19756SOL    HW170922   7.842   6.258   0.581  0.2891  1.2401 -0.2274
19756SOL    HW270923   7.686   6.226   0.545  0.8732 -1.4821 -0.4693
19757SOL     OW70924   9.253   0.395   4.891  0.1749 -0.3917  0.0481
19757SOL    HW170925   9.205   0.482   4.880  0.4582 -0.1566  0.6639
19757SOL    HW270926   9.273   0.357   4.801 -0.8040 -0.2918 -0.2228
19758SOL     OW70927   2.500   6.151   9.976 -0.1958 -0.1259  0.2911
19758SOL    HW170928   2.569   6.105   9.919 -0.6593  0.0066 -0.3833
19758SOL    HW270929   2.546   6.217  10.036  0.1892  0.5578 -0.7374
19759SOL     OW70930   2.170   2.511   1.631 -0.0560 -0.1641  0.4245
19759SOL    HW170931   2.072   2.533   1.630  0.0656  0.3950  0.8671
19759SOL    HW270932   2.182   2.412   1.621 -0.6593 -0.2073  0.1056
19760SOL     OW70933   7.026   4.908   1.453 -0.1005  0.1740 -0.3716
19760SOL    HW170934   6.997   4.899   1.548 -0.2053 -0.2579 -0.4418
19760SOL    HW270935   7.120   4.876   1.443 -0.3314 -0.4597 -0.5449
19761SOL     OW70936   1.830   5.137   6.450  0.3890 -0.2639  0.5722
19761SOL    HW170937   1.796   5.057   6.399 -2.2529  0.0064  1.7958
19761SOL    HW270938   1.866   5.107   6.538  0.6382 -0.2433  0.4775
19762SOL     OW70939   4.122   2.063   0.639  0.6716  0.1168 -0.0855
19762SOL    HW170940   4.184   2.106   0.573  0.0408  0.9796 -0.1127
19762SOL    HW270941   4.036   2.114   0.643  0.1277 -0.8185  0.2850
19763SOL     OW70942   8.356   8.819   4.502 -0.0446  0.7864  0.0825
19763SOL    HW170943   8.303   8.738   4.475  0.1242  0.8459 -0.4348
19763SOL    HW270944   8.377   8.814   4.600  0.4120 -0.0480 -0.0579
19764SOL     OW70945   9.590   9.187   1.679 -0.0530  0.2252  0.1334
19764SOL    HW170946   9.583   9.108   1.739  0.5742  1.1869  1.5127
19764SOL    HW270947   9.636   9.161   1.594  2.2432 -0.4164  1.5102
19765SOL     OW70948   5.423   7.739   3.566 -0.0541 -0.0787  0.2038
19765SOL    HW170949   5.452   7.830   3.595 -1.0035 -0.3449  2.0518
19765SOL    HW270950   5.328   7.724   3.592  0.1256 -1.6422 -0.0020
19766SOL     OW70951   8.557   6.278   6.101  0.7674  0.2237 -0.4597
19766SOL    HW170952   8.569   6.337   6.021 -0.1724 -0.3472 -1.0375
19766SOL    HW270953   8.509   6.195   6.073  1.5609 -0.5565  0.4590
19767SOL     OW70954   3.014   7.962   7.055 -0.0560  0.0132 -0.2327
19767SOL    HW170955   3.038   7.937   6.961 -0.3907  2.4236 -0.9801
19767SOL    HW270956   2.934   8.022   7.054 -1.1665 -1.3877  1.7266
19768SOL     OW70957   4.810   3.356   6.528 -0.5984 -0.1499  0.4888
19768SOL    HW170958   4.899   3.310   6.525 -0.3130  0.4182  0.3225
19768SOL    HW270959   4.742   3.298   6.482 -0.3283 -0.6003  0.6469
19769SOL     OW70960   2.035   1.484   6.680 -0.0315 -0.8846  0.4372
19769SOL    HW170961   2.062   1.505   6.586  0.6724 -1.7868  0.4298
19769SOL    HW270962   2.022   1.385   6.689 -0.6749 -0.7359  1.1365
19770SOL     OW70963   4.138   2.554   3.915  0.3463  0.5303  0.2399
19770SOL    HW170964   4.050   2.549   3.867  0.3077  0.1349  0.3536
19770SOL    HW270965   4.146   2.645   3.958  0.2252  0.7547 -0.2075
19771SOL     OW70966   3.592   8.830   4.101  0.4452 -0.3501 -0.1146
19771SOL    HW170967   3.616   8.810   4.006  0.7639 -1.5417  0.2145
19771SOL    HW270968   3.646   8.773   4.162 -1.7948 -1.6693  0.6973
19772SOL     OW70969   5.973   5.563  10.013  0.8319  1.0287  0.2082
19772SOL    HW170970   6.003   5.532  10.103  3.4590  2.9672  0.0445
19772SOL    HW270971   5.938   5.485   9.961 -0.5812 -0.1442  2.8080
19773SOL     OW70972   7.472   8.129   6.354 -0.0580  0.0878  0.0968
19773SOL    HW170973   7.529   8.204   6.389 -0.4543 -0.4824  2.0199
19773SOL    HW270974   7.376   8.154   6.360 -0.1249  0.1325 -0.9901
19774SOL     OW70975   3.249   0.547   4.007 -0.1521 -0.3371 -0.3734
19774SOL    HW170976   3.342   0.542   3.971  0.1888 -0.9453  0.5732
19774SOL    HW270977   3.230   0.465   4.062 -1.2371 -0.2078 -0.5378
19775SOL     OW70978   9.789   3.826   2.920  0.0849 -0.1898  0.1769
19775SOL    HW170979   9.729   3.763   2.969 -0.1589 -0.6770 -0.7277
19775SOL    HW270980   9.875   3.835   2.970 -0.6491  0.3513  1.3709
19776SOL     OW70981   0.094   6.191   5.176 -0.0250  0.0018 -0.1618
19776SOL    HW170982   0.131   6.100   5.194  2.7389  1.0532 -0.2363
19776SOL    HW270983   0.096   6.245   5.260 -2.0040 -0.1064 -0.0329
19777SOL     OW70984   2.270   4.594   4.110 -0.0096 -0.5730 -0.1817
19777SOL    HW170985   2.281   4.629   4.017  0.2460  0.9935  0.4366
19777SOL    HW270986   2.214   4.511   4.107  1.1444 -1.3171 -1.8766
19778SOL     OW70987   7.756   7.193   3.310 -0.1248 -0.0814 -0.4880
19778SOL    HW170988   7.811   7.276   3.299  1.3944 -1.0001  0.0233
19778SOL    HW270989   7.816   7.114   3.320 -1.5555 -1.2387 -0.8189
19779SOL     OW70990   2.442   4.577   6.267 -0.3017  0.0359  0.4392
19779SOL    HW170991   2.492   4.494   6.293  0.3200  0.8308  1.9115
19779SOL    HW270992   2.461   4.649   6.334  1.0790  2.1226 -2.1064
19780SOL     OW70993   2.189   2.401   5.634  0.4455  0.2369 -0.5792
19780SOL    HW170994   2.234   2.477   5.586 -1.4216  0.3244 -2.2383
19780SOL    HW270995   2.214   2.314   5.590  0.6376  0.1002 -0.2046
19781SOL     OW70996   4.501   4.204   6.311 -0.0416  0.0528  0.1774
19781SOL    HW170997   4.555   4.122   6.331  1.7856  1.0939 -0.3731
19781SOL    HW270998   4.554   4.265   6.252 -1.6773  1.2970 -0.0354
19782SOL     OW70999   6.336   5.668   1.294  0.0983 -0.0796  0.1643
19782SOL    HW171000   6.262   5.666   1.226  1.1113 -1.1062 -0.9296
19782SOL    HW271001   6.309   5.726   1.371 -1.9291 -0.6093 -0.1236
19783SOL     OW71002   9.494   2.828   2.672  0.2808 -0.7618  0.2471
19783SOL    HW171003   9.483   2.830   2.573  0.7085 -0.7723  0.1975
19783SOL    HW271004   9.417   2.780   2.714 -0.5296  0.2901  0.0089
19784SOL     OW71005   4.688   3.868   7.233  0.6356 -0.4442  0.3743
19784SOL    HW171006   4.782   3.883   7.265  0.6397  0.8440 -0.2180
19784SOL    HW271007   4.689   3.840   7.137  0.3288  1.6336 -0.2593
19785SOL     OW71008   7.102   0.666   6.938 -0.1529 -0.0222 -0.2005
19785SOL    HW171009   7.070   0.576   6.967 -0.5173  0.2239  0.1547
19785SOL    HW271010   7.041   0.701   6.867 -0.4955  0.3150  0.2623
19786SOL     OW71011   9.519   3.041   3.540  0.3350 -0.0032 -0.2438
19786SOL    HW171012   9.595   3.085   3.587 -0.9211  0.9924  0.8774
19786SOL    HW271013   9.499   3.090   3.455  0.6089  0.0249 -0.2930
19787SOL     OW71014   7.154   3.337   2.197  0.1870  0.2292 -0.0463
19787SOL    HW171015   7.192   3.401   2.264  0.3653  0.4721 -0.3790
19787SOL    HW271016   7.061   3.311   2.224  0.5833 -0.3716  0.7741
19788SOL     OW71017   9.081   7.240   2.091 -0.8817 -0.0071  0.3280
19788SOL    HW171018   9.103   7.330   2.054 -0.5183 -0.2658 -0.0945
19788SOL    HW271019   8.991   7.242   2.135  0.3641  1.3376  2.9311
19789SOL     OW71020   4.063   7.523   3.464 -0.5971  0.7292  0.4615
19789SOL    HW171021   4.094   7.618   3.456 -0.4021  0.7887  1.8089
19789SOL    HW271022   4.076   7.492   3.558 -1.2368 -0.4360  0.1686
19790SOL     OW71023   3.453   9.457   1.079 -0.3542 -0.6158 -0.0667
19790SOL    HW171024   3.511   9.407   1.144 -0.0266 -1.5938 -1.0884
19790SOL    HW271025   3.362   9.469   1.117 -0.0783 -0.9272  0.6941
19791SOL     OW71026   6.333   3.340   0.613  0.3911 -0.1114  0.3663
19791SOL    HW171027   6.315   3.252   0.657  0.2526  1.1971  3.0109
19791SOL    HW271028   6.349   3.326   0.515  1.2032 -3.1636  0.8999
19792SOL     OW71029   5.160   9.497   7.586 -0.4559 -0.0499  0.0711
19792SOL    HW171030   5.126   9.431   7.654 -1.9500 -0.3289 -0.9288
19792SOL    HW271031   5.259   9.486   7.577 -0.6650 -2.1512 -0.0445
19793SOL     OW71032   7.023   2.431   5.856 -0.1548  0.5774  0.3857
19793SOL    HW171033   7.054   2.387   5.940  0.9642 -2.1439 -1.3587
19793SOL    HW271034   7.047   2.528   5.858  0.5815  0.3839  2.8353
19794SOL     OW71035   1.919   6.002   4.899 -0.2426 -0.2655 -0.2948
19794SOL    HW171036   1.892   6.009   4.995  0.0917  0.8405 -0.2735
19794SOL    HW271037   1.846   5.959   4.847 -0.4213 -0.8828  0.4538
19795SOL     OW71038   3.549   1.070   0.414  0.7263  0.1404 -0.4960
19795SOL    HW171039   3.551   1.099   0.510 -2.3572  0.3566 -0.4373
19795SOL    HW271040   3.590   0.979   0.406 -0.9695 -0.8378  1.4158
19796SOL     OW71041   7.177   7.266   5.386 -0.1639  0.4432  0.4045
19796SOL    HW171042   7.103   7.202   5.405 -0.2292  1.0005  2.0994
19796SOL    HW271043   7.259   7.216   5.358 -0.5755 -0.3051  0.5409
19797SOL     OW71044   4.044   2.754   6.377 -0.0150  0.1746  0.2288
19797SOL    HW171045   4.035   2.656   6.393  1.3723  0.2521  1.6373
19797SOL    HW271046   4.141   2.777   6.361 -0.1671  1.4500  1.0186
19798SOL     OW71047   9.493   8.786   7.528 -0.3650 -0.2363  0.1609
19798SOL    HW171048   9.441   8.870   7.540  1.0293  0.6724 -0.1203
19798SOL    HW271049   9.444   8.726   7.464 -1.5861  0.1474  0.7090
19799SOL     OW71050   5.340   2.498   1.134 -0.2092 -0.1673  0.2188
19799SOL    HW171051   5.403   2.565   1.094  0.8353 -1.5103 -0.4472
19799SOL    HW271052   5.328   2.519   1.231  1.7639 -0.2160  0.5086
19800SOL     OW71053   3.294   5.615   2.427 -0.5303 -0.1820  0.2109
19800SOL    HW171054   3.292   5.541   2.494 -2.4451 -0.4466 -0.0927
19800SOL    HW271055   3.310   5.577   2.336  1.9109  0.1588  0.4754
19801SOL     OW71056   8.529   7.495   7.879  0.1493 -0.4077  0.0817
19801SOL    HW171057   8.518   7.579   7.827 -1.8432 -0.3096  0.6097
19801SOL    HW271058   8.458   7.429   7.853 -0.0853 -0.8330  1.7199
19802SOL     OW71059   2.439   7.417   5.851 -0.4460  0.1336  0.7092
19802SOL    HW171060   2.520   7.436   5.907  0.9989  2.0824 -1.9544
19802SOL    HW271061   2.442   7.322   5.819  0.6745  0.1259  0.8212
19803SOL     OW71062   7.108   0.086   4.327 -0.2457 -0.5003 -0.0796
19803SOL    HW171063   7.167   0.022   4.376  0.6448  0.6791  0.4133
19803SOL    HW271064   7.151   0.176   4.325 -0.7882 -0.2673 -2.1002
19804SOL     OW71065   6.797   8.340   2.436 -0.4057 -0.2294  0.2341
19804SOL    HW171066   6.781   8.354   2.534 -0.9813 -0.2374  0.1457
19804SOL    HW271067   6.807   8.429   2.391 -1.4456 -0.1824  0.0919
19805SOL     OW71068   4.147   4.128   3.406 -0.5655 -0.2452  0.0659
19805SOL    HW171069   4.131   4.206   3.346 -2.2127 -0.1636  0.5847
19805SOL    HW271070   4.187   4.159   3.492  1.0939 -0.2784 -0.6631
19806SOL     OW71071   5.650   0.641   2.223 -0.0153  0.3883 -0.3403
19806SOL    HW171072   5.674   0.643   2.320  0.1606  0.5069 -0.3860
19806SOL    HW271073   5.732   0.618   2.169  0.3353  2.2139 -0.6124
19807SOL     OW71074   2.362   8.096   3.256 -0.1013 -0.2688  0.5422
19807SOL    HW171075   2.392   8.011   3.212  0.3975  0.2041 -0.0445
19807SOL    HW271076   2.285   8.077   3.317 -1.7778 -0.6892 -1.6828
19808SOL     OW71077   4.827   3.206   7.348 -0.1815  0.6251 -0.0618
19808SOL    HW171078   4.846   3.292   7.300 -0.1151 -0.2299 -1.5971
19808SOL    HW271079   4.910   3.150   7.351 -0.8330 -0.4360 -1.2665
19809SOL     OW71080   7.490   2.761   3.389 -0.1244  0.1777  0.4683
19809SOL    HW171081   7.566   2.724   3.335  0.6024  1.3248  0.7012
19809SOL    HW271082   7.436   2.685   3.425  0.7743 -0.6439  0.1165
19810SOL     OW71083   9.243   0.399   6.445  0.1818 -0.4717 -0.7659
19810SOL    HW171084   9.260   0.456   6.526 -0.8450 -1.2466  0.0095
19810SOL    HW271085   9.241   0.457   6.364 -2.2401  0.8452  0.1772
19811SOL     OW71086   6.496   2.882   2.426 -0.2543  0.4890  0.0634
19811SOL    HW171087   6.473   2.931   2.342 -1.8844 -2.7787 -1.4918
19811SOL    HW271088   6.423   2.896   2.494 -0.6557  0.2963 -0.3297
19812SOL     OW71089   7.957   9.857   1.673  0.6035 -0.3828  0.3845
19812SOL    HW171090   8.043   9.868   1.723  1.2191  0.5591 -0.8675
19812SOL    HW271091   7.909   9.944   1.668 -0.0950 -0.7566  0.4629
19813SOL     OW71092   6.893   9.089   2.929  0.3195 -0.0313  0.3358
19813SOL    HW171093   6.968   9.032   2.962 -1.3221 -2.5916 -0.2324
19813SOL    HW271094   6.813   9.077   2.988 -0.1740  1.4137 -0.0088
19814SOL     OW71095   9.494   8.511   3.894  0.5090  0.1773  0.2267
19814SOL    HW171096   9.474   8.523   3.991  1.9415 -2.3480  0.8897
19814SOL    HW271097   9.512   8.600   3.852 -0.7106  1.3442  2.1317
19815SOL     OW71098   3.251   4.049   2.950 -0.7792  0.6243  0.0210
19815SOL    HW171099   3.195   4.115   2.901  0.3545  1.1385 -0.6188
19815SOL    HW271100   3.344   4.051   2.913 -0.5542 -0.8043  0.5001
19816SOL     OW71101   8.417   6.691   6.446 -0.9553  0.1189 -0.1637
19816SOL    HW171102   8.500   6.736   6.478 -1.0732 -0.3186  0.7588
19816SOL    HW271103   8.398   6.610   6.502 -2.7389  0.9733  0.5174
19817SOL     OW71104   7.489   6.031   2.080 -0.1941 -0.1352 -0.1157
19817SOL    HW171105   7.586   6.007   2.088 -0.4695 -0.3366  3.4048
19817SOL    HW271106   7.437   5.951   2.051  0.3344 -0.8356  0.8239
19818SOL     OW71107   8.267   8.192   2.276 -0.1404  0.2706 -0.1554
19818SOL    HW171108   8.304   8.205   2.368 -0.3037  0.3395 -0.0995
19818SOL    HW271109   8.181   8.141   2.281 -0.8220  1.3966 -0.1521
19819SOL     OW71110   1.401   2.635   3.440 -0.0963  0.2547 -0.1360
19819SOL    HW171111   1.493   2.622   3.476 -0.1696 -2.5898 -0.8641
19819SOL    HW271112   1.337   2.577   3.489 -1.3288  1.3736 -0.3826
19820SOL     OW71113   9.891   5.105   1.487 -0.1268 -0.0351  0.1931
19820SOL    HW171114   9.903   5.024   1.544 -0.0090  0.1193  0.3903
19820SOL    HW271115   9.852   5.079   1.399  1.9515 -0.6122 -0.5957
19821SOL     OW71116   1.903   0.159   2.856  0.1910  0.3132  0.7174
19821SOL    HW171117   1.806   0.165   2.832  0.2980  2.7848  0.7664
19821SOL    HW271118   1.941   0.074   2.819 -2.1744 -1.0988  1.4352
19822SOL     OW71119   5.710   7.615   4.006  0.0447 -0.2482  0.2851
19822SOL    HW171120   5.656   7.577   3.931  3.0079 -2.2312 -0.9590
19822SOL    HW271121   5.751   7.701   3.978  0.3034 -0.4712 -0.0336
19823SOL     OW71122   6.958   8.434   2.002  0.0144  0.0044  0.0408
19823SOL    HW171123   6.890   8.506   1.986 -0.9379 -0.8016  0.4425
19823SOL    HW271124   6.937   8.355   1.946  0.9906 -0.0166 -0.3007
19824SOL     OW71125   3.514   5.510   7.188 -0.6970 -0.6777  0.0552
19824SOL    HW171126   3.558   5.494   7.100 -1.9253  1.6439 -1.0162
19824SOL    HW271127   3.423   5.468   7.187 -0.1119 -2.0245  0.8350
19825SOL     OW71128   8.066   6.249   5.669  0.2449 -0.3041 -0.0569
19825SOL    HW171129   8.047   6.327   5.610  0.9431 -1.2727 -1.5821
19825SOL    HW271130   8.163   6.247   5.692  0.1012 -0.3187  0.5529
19826SOL     OW71131   8.820   7.973   0.542 -0.3936 -0.5076  0.9015
19826SOL    HW171132   8.800   7.914   0.621  0.6598 -1.2061  0.6537
19826SOL    HW271133   8.886   7.927   0.482 -0.1889  0.5807  0.2856
19827SOL     OW71134   1.334   8.707   0.843  0.4144  0.0535  0.1070
19827SOL    HW171135   1.275   8.777   0.885  0.1320  0.4494 -0.9408
19827SOL    HW271136   1.397   8.672   0.912  1.6048  2.4592  0.3069
19828SOL     OW71137   4.063   9.501   2.290 -0.0933  0.4398  0.3694
19828SOL    HW171138   4.020   9.468   2.374 -0.9362  0.6580  0.0381
19828SOL    HW271139   4.051   9.433   2.217 -0.2477  0.6850  0.1642
19829SOL     OW71140   2.848   7.098   5.616 -0.1766 -0.5826 -0.1225
19829SOL    HW171141   2.882   7.175   5.670  0.1529 -0.4616 -0.4953
19829SOL    HW271142   2.771   7.055   5.663  0.6835 -1.0482  0.8895
19830SOL     OW71143   9.405   4.496   2.329 -0.7477  0.4123 -1.2051
19830SOL    HW171144   9.374   4.522   2.238 -2.5266 -1.7344 -1.2406
19830SOL    HW271145   9.366   4.559   2.397  0.2260  1.7416 -1.8344
19831SOL     OW71146   1.307   8.129   3.798  0.1105 -0.0765 -0.1385
19831SOL    HW171147   1.298   8.040   3.843 -0.9958  1.1938  2.2303
19831SOL    HW271148   1.385   8.178   3.837 -0.1064  0.5576 -0.4977
19832SOL     OW71149   7.129   1.197   5.567 -0.0437 -0.0512 -0.1214
19832SOL    HW171150   7.201   1.265   5.577 -1.7094  1.6658  0.3617
19832SOL    HW271151   7.113   1.179   5.470 -0.9483  1.7169 -0.3098
19833SOL     OW71152   7.823   5.968   3.933 -0.5633  0.7418 -0.1062
19833SOL    HW171153   7.875   5.936   3.854 -1.0069  0.7407 -0.4020
19833SOL    HW271154   7.742   6.018   3.901 -0.5242  1.0941  0.3476
19834SOL     OW71155   9.444   0.270   1.954 -0.1189 -0.2048  0.1126
19834SOL    HW171156   9.384   0.213   2.010 -1.0192 -0.9831 -1.5877
19834SOL    HW271157   9.512   0.315   2.012 -0.4344 -1.7183  1.6805
19835SOL     OW71158   9.753   6.153   4.898 -0.8321  0.0563  0.0760
19835SOL    HW171159   9.749   6.119   4.804 -0.4001 -2.1565  0.8220
19835SOL    HW271160   9.824   6.222   4.905 -1.7180  1.1798 -1.4883
19836SOL     OW71161   9.726   1.116   2.224 -0.5749 -0.0449  0.8449
19836SOL    HW171162   9.800   1.163   2.273 -0.3302  1.7104 -1.1277
19836SOL    HW271163   9.646   1.109   2.284  0.0114  1.2648  1.8097
19837SOL     OW71164   8.182   7.484   1.069  0.2830  0.2532 -0.0668
19837SOL    HW171165   8.201   7.553   1.139  0.6591  0.4310 -0.3445
19837SOL    HW271166   8.084   7.462   1.069  0.4796 -0.6677  1.3548
19838SOL     OW71167   7.706   1.146   5.626 -0.1729  0.2605 -0.7410
19838SOL    HW171168   7.775   1.089   5.582  1.1377 -0.3611  1.9991
19838SOL    HW271169   7.730   1.242   5.614  1.1853  0.0544  0.1088
19839SOL     OW71170   0.990   6.232   1.812  0.3228  0.2312  0.0181
19839SOL    HW171171   1.081   6.255   1.844  0.3753 -0.6761  0.5476
19839SOL    HW271172   0.986   6.134   1.789 -0.4763  0.2855 -0.0959
19840SOL     OW71173   0.591   2.781   4.643  0.0010  0.5965  0.0791
19840SOL    HW171174   0.541   2.861   4.675 -0.7463  0.3651 -0.4810
19840SOL    HW271175   0.526   2.714   4.607  0.8242  0.8820 -1.9852
19841SOL     OW71176   9.393   2.875   0.321  0.2196  0.1911  0.1499
19841SOL    HW171177   9.318   2.885   0.386  1.0092  2.1268  0.7899
19841SOL    HW271178   9.465   2.941   0.343  2.0163 -1.5115 -0.5886
19842SOL     OW71179   6.943   7.199   3.891 -0.1848 -0.5179  0.6248
19842SOL    HW171180   7.043   7.193   3.886 -0.1311  0.5798  0.1008
19842SOL    HW271181   6.904   7.168   3.804 -0.2581 -0.1822  0.5376
19843SOL     OW71182   9.994   9.025   3.125 -0.0728 -0.1807  0.0952
19843SOL    HW171183   9.983   9.009   3.027 -0.6811  0.6172  0.0339
19843SOL    HW271184  10.083   9.067   3.142  0.2257 -0.7411 -0.0621
19844SOL     OW71185   0.061   2.964   1.494  0.1108  0.5014 -0.1915
19844SOL    HW171186  -0.028   2.960   1.448 -0.0493 -0.5143  0.1883
19844SOL    HW271187   0.090   2.871   1.518  1.8640  0.7138 -1.4237
19845SOL     OW71188   7.257   1.522   6.492  0.5121 -0.3513 -0.0150
19845SOL    HW171189   7.209   1.516   6.404 -0.2557 -2.2425  0.4950
19845SOL    HW271190   7.356   1.520   6.476  0.3831 -0.7070 -0.8499
19846SOL     OW71191   6.934   4.877   2.125  0.4547  0.2274 -0.1348
19846SOL    HW171192   7.025   4.919   2.124  0.5756 -0.0614 -1.6543
19846SOL    HW271193   6.865   4.947   2.106  0.3238  0.4951  1.2526
19847SOL     OW71194   1.620   9.722   4.452 -0.3620  0.3259 -0.0200
19847SOL    HW171195   1.589   9.815   4.471 -0.0513  0.6940 -1.2929
19847SOL    HW271196   1.558   9.679   4.386  1.1896  0.6996 -1.7654
19848SOL     OW71197   0.218   4.275   5.154  0.5415 -0.7154 -0.5412
19848SOL    HW171198   0.136   4.224   5.181 -0.9597  0.8970 -1.8988
19848SOL    HW271199   0.214   4.295   5.057  1.8575  0.6192 -0.3348
19849SOL     OW71200   5.406   9.556   7.293  0.1438 -0.1430  0.0495
19849SOL    HW171201   5.358   9.612   7.226  1.9561  0.0264 -1.1381
19849SOL    HW271202   5.388   9.459   7.275  0.4353 -0.0889 -0.5600
19850SOL     OW71203   2.042   4.670   1.135 -0.1040 -0.3358  0.1658
19850SOL    HW171204   2.051   4.672   1.234  0.9023 -1.6321  0.1212
19850SOL    HW271205   1.962   4.615   1.109  0.3934 -1.1012  0.2371
19851SOL     OW71206   5.809   0.540   5.996  0.6442 -0.1590 -0.6102
19851SOL    HW171207   5.897   0.535   6.042  0.2597  0.8557  0.2620
19851SOL    HW271208   5.812   0.487   5.911  1.8976 -0.6156 -0.2871
19852SOL     OW71209   5.532   8.548   2.078 -0.3359  0.0042 -0.1430
19852SOL    HW171210   5.580   8.482   2.019 -0.0879 -0.3898  0.4932
19852SOL    HW271211   5.591   8.571   2.156 -1.2144 -0.5404  0.6878
19853SOL     OW71212   0.040   7.710   1.657  0.1264  0.1876  0.3139
19853SOL    HW171213   0.070   7.616   1.671  1.0682  0.4870  0.3327
19853SOL    HW271214   0.090   7.750   1.580  0.0922  0.8269  0.6224
19854SOL     OW71215   2.084   0.324   6.379  0.6268 -0.0251  0.4751
19854SOL    HW171216   2.031   0.278   6.450  1.6780  0.1374  1.3925
19854SOL    HW271217   2.159   0.265   6.350 -0.6692 -0.7038 -1.6103
19855SOL     OW71218   8.978   6.032   1.495 -0.5106  0.1310  0.1525
19855SOL    HW171219   9.032   6.108   1.531  1.4701 -0.3429 -1.6872
19855SOL    HW271220   8.905   6.067   1.436 -0.9163  0.6759  0.9664
19856SOL     OW71221   5.230   9.330   7.232  0.0447  0.4380  0.1235
19856SOL    HW171222   5.146   9.361   7.187  0.2587 -1.0958 -1.3863
19856SOL    HW271223   5.276   9.263   7.174  0.4717 -1.4127  2.5223
19857SOL     OW71224   6.057   4.169   1.866 -0.4167 -0.3390  0.0265
19857SOL    HW171225   5.987   4.241   1.870  0.8703  0.9073  0.6670
19857SOL    HW271226   6.105   4.165   1.953  0.0807 -1.4197 -0.2926
19858SOL     OW71227   6.975   7.366   7.858 -0.6512 -0.3656 -0.7543
19858SOL    HW171228   6.998   7.277   7.819 -1.8358 -0.5870 -0.9466
19858SOL    HW271229   7.009   7.439   7.798  1.7637 -0.6358  0.1921
19859SOL     OW71230   7.854   6.420   4.122  0.4696  0.0017  0.0798
19859SOL    HW171231   7.861   6.512   4.162 -0.2896  0.0727  0.0513
19859SOL    HW271232   7.946   6.386   4.101  1.0421 -0.7486  3.5173
19860SOL     OW71233   2.565   5.949   6.816  0.2989  0.4211 -0.1045
19860SOL    HW171234   2.637   5.915   6.877  0.2547 -0.4206 -0.5154
19860SOL    HW271235   2.534   5.875   6.757 -2.0859  0.3393  1.1857
19861SOL     OW71236   1.728   1.942   7.095 -0.1495 -1.1570  0.4670
19861SOL    HW171237   1.778   1.923   7.179  1.1511  0.8827  0.1777
19861SOL    HW271238   1.643   1.989   7.118  0.8949  0.7133  0.5599
19862SOL     OW71239   2.745   8.310   1.929  0.4050  0.0808  0.0967
19862SOL    HW171240   2.698   8.375   1.989  1.5609  0.0790  1.0352
19862SOL    HW271241   2.827   8.353   1.891 -0.2151  0.0081 -1.3251
19863SOL     OW71242   3.245   4.437   7.527  0.6426  0.1142  0.0647
19863SOL    HW171243   3.177   4.363   7.525  1.6603 -0.8362 -0.1772
19863SOL    HW271244   3.201   4.522   7.556 -1.0071 -0.0886 -1.7091
19864SOL     OW71245   6.572   0.385   7.559 -0.7713  0.0289 -0.6142
19864SOL    HW171246   6.535   0.394   7.651  0.2890  0.5986 -0.2404
19864SOL    HW271247   6.672   0.378   7.563 -0.7081  0.2106 -1.7175
19865SOL     OW71248   7.230   8.680   7.315  0.1553 -0.7949 -0.0388
19865SOL    HW171249   7.294   8.628   7.258  0.2790  0.4281 -1.0507
19865SOL    HW271250   7.138   8.643   7.304  0.0446 -0.0834 -1.6684
19866SOL     OW71251   2.007   3.908   0.906  0.2590  0.4995  0.7277
19866SOL    HW171252   1.970   3.832   0.852 -2.2071  2.5561 -0.5883
19866SOL    HW271253   1.984   3.896   1.002 -0.3446 -0.2950  0.4842
19867SOL     OW71254   2.672   0.169   6.840 -0.5272  0.3313  0.2096
19867SOL    HW171255   2.702   0.074   6.827 -2.0368 -0.3700  1.7047
19867SOL    HW271256   2.661   0.213   6.751  0.1455 -0.9037 -0.4973
19868SOL     OW71257   3.667   2.834   4.568 -0.0599  0.6279 -0.3010
19868SOL    HW171258   3.571   2.829   4.541  0.2837  2.2856 -1.9198
19868SOL    HW271259   3.672   2.863   4.664 -1.1969 -1.9041  0.5818
19869SOL     OW71260   4.471   4.993   3.498 -0.0370  0.3815 -0.7275
19869SOL    HW171261   4.453   4.990   3.596 -1.0287 -0.8121 -0.9387
19869SOL    HW271262   4.485   5.088   3.469  0.5579  0.7084  0.6122
19870SOL     OW71263   9.057   3.092   1.786  0.1391 -0.0142 -0.8418
19870SOL    HW171264   9.097   3.170   1.740 -1.1569  0.6527 -0.8647
19870SOL    HW271265   9.107   3.073   1.871  1.7520 -0.4740 -1.8797
19871SOL     OW71266   3.576   9.765   0.738 -0.6750  0.0462 -0.0959
19871SOL    HW171267   3.604   9.798   0.828 -0.1765  0.4486 -0.3937
19871SOL    HW271268   3.551   9.668   0.744 -1.3756  0.2714  0.6221
19872SOL     OW71269   9.998   0.878   4.358 -0.3549 -1.0720 -0.0658
19872SOL    HW171270   9.981   0.803   4.293  1.3738 -0.2323 -1.5061
19872SOL    HW271271  10.037   0.841   4.442 -2.2905 -2.1312  0.3933
19873SOL     OW71272   6.242   1.197   7.296  0.3943 -0.1542  0.4271
19873SOL    HW171273   6.301   1.254   7.352  1.9319 -2.3843  1.1514
19873SOL    HW271274   6.154   1.185   7.342  0.2713  1.1260  0.5412
19874SOL     OW71275   6.414   7.509   2.806 -0.1507  0.4365 -0.4515
19874SOL    HW171276   6.368   7.421   2.800  1.3824 -0.2788 -1.8631
19874SOL    HW271277   6.348   7.579   2.835 -1.4349 -1.0999  0.3884
19875SOL     OW71278   4.548   8.785   2.523 -0.3095  0.8539 -0.7719
19875SOL    HW171279   4.639   8.818   2.548 -0.4548  1.0409 -0.4827
19875SOL    HW271280   4.554   8.730   2.440  0.2177  0.0918 -0.2376
19876SOL     OW71281   5.025   2.087   6.671  0.6119  0.3203 -0.3192
19876SOL    HW171282   4.939   2.139   6.670  0.2166 -0.2349  1.8231
19876SOL    HW271283   5.040   2.046   6.581 -1.7409 -0.1722 -0.5098
19877SOL     OW71284   2.021   6.798   0.575  0.0926  0.0224 -0.2837
19877SOL    HW171285   1.936   6.849   0.577 -0.7749 -1.4073  0.1814
19877SOL    HW271286   2.085   6.836   0.642 -1.5402 -1.1903  2.0146
19878SOL     OW71287   1.098   1.634   4.056 -0.0773  0.0501  0.0183
19878SOL    HW171288   1.156   1.626   3.976 -2.4887  0.5638 -1.8562
19878SOL    HW271289   1.038   1.554   4.063 -1.9986  1.3902 -0.5048
19879SOL     OW71290   4.178   5.990   1.794  0.5610 -0.2839 -0.7036
19879SOL    HW171291   4.209   5.959   1.703  0.2213 -0.6773 -0.6859
19879SOL    HW271292   4.255   6.034   1.841  0.7588 -0.1368 -1.1543
19880SOL     OW71293   9.673   7.859   1.347  0.5963 -0.5164 -0.0994
19880SOL    HW171294   9.616   7.935   1.379 -2.3499 -1.5909 -2.6327
19880SOL    HW271295   9.635   7.773   1.380  1.1032 -1.2119 -1.3456
19881SOL     OW71296   3.467   1.699   3.040 -0.2204  0.7804 -0.3149
19881SOL    HW171297   3.368   1.682   3.043 -0.5290  2.3695 -1.0847
19881SOL    HW271298   3.511   1.652   3.117 -1.1744 -2.3720 -1.6441
19882SOL     OW71299   8.773   4.537   2.388 -0.1242 -0.4543 -0.1622
19882SOL    HW171300   8.712   4.610   2.359  0.0301  0.0218  0.7013
19882SOL    HW271301   8.732   4.487   2.464  0.3773 -0.3977  0.1505
19883SOL     OW71302   9.907   2.580   3.045  0.4376  0.1114 -0.7053
19883SOL    HW171303   9.912   2.509   2.975 -0.6388 -0.0460 -0.6383
19883SOL    HW271304   9.814   2.584   3.082  0.2534  2.1619 -1.3422
19884SOL     OW71305   6.425   6.883   5.314  0.0056 -0.7752  0.1950
19884SOL    HW171306   6.419   6.881   5.414  0.7295 -0.3589  0.2448
19884SOL    HW271307   6.512   6.923   5.286 -0.0472 -1.2034 -0.6012
19885SOL     OW71308   7.522   1.545   6.376  0.2042 -0.2339 -0.7671
19885SOL    HW171309   7.615   1.580   6.371  0.2340 -0.3796 -1.2612
19885SOL    HW271310   7.474   1.566   6.291 -0.1115 -0.4452 -0.6415
19886SOL     OW71311   8.260   1.052   6.791 -0.0532 -0.0660  0.3534
19886SOL    HW171312   8.167   1.058   6.754 -1.3552 -0.7584  3.3194
19886SOL    HW271313   8.283   0.956   6.808 -0.4747  0.3171  3.4743
19887SOL     OW71314   0.531   1.771   6.685  0.7389  0.3662  0.2859
19887SOL    HW171315   0.597   1.802   6.753 -0.5032 -0.7327  2.0330
19887SOL    HW271316   0.524   1.671   6.690  0.3361  0.3188 -1.1902
19888SOL     OW71317   9.439   2.062   0.505  0.1515  0.0588  0.0549
19888SOL    HW171318   9.531   2.050   0.467  0.4528 -1.0950  1.1073
19888SOL    HW271319   9.372   2.048   0.432  0.8077  1.9273 -0.9557
19889SOL     OW71320   2.234   1.709   5.108  0.4294  0.5825  0.3287
19889SOL    HW171321   2.261   1.752   5.194  0.0867  0.1296  0.6687
19889SOL    HW271322   2.316   1.687   5.054  0.7630 -0.7688  1.3472
19890SOL     OW71323   8.802   1.210   6.276  0.4424  0.1861  0.4551
19890SOL    HW171324   8.811   1.294   6.222 -0.4075  0.5329  0.8563
19890SOL    HW271325   8.706   1.191   6.292  0.6108 -1.2748 -0.2612
19891SOL     OW71326   0.579   7.209   6.796 -0.0117  0.0170 -0.4312
19891SOL    HW171327   0.622   7.132   6.748 -1.3625 -1.0609  0.0476
19891SOL    HW271328   0.645   7.284   6.805  2.0769 -1.9100  1.0619
19892SOL     OW71329   2.947   4.218  10.046  0.1850 -0.2822 -0.3751
19892SOL    HW171330   2.937   4.127  10.006  1.4765 -0.0068 -1.3958
19892SOL    HW271331   3.044   4.245  10.043 -0.2954  1.4705 -0.8751
19893SOL     OW71332   9.911   9.208   4.455  0.2971  0.0742 -0.1394
19893SOL    HW171333  10.000   9.181   4.418 -0.7732 -1.7514 -1.4562
19893SOL    HW271334   9.847   9.224   4.379 -0.5761  1.1176  0.7992
19894SOL     OW71335   4.212   4.860   1.485 -0.5126 -0.1098 -0.5140
19894SOL    HW171336   4.164   4.793   1.541 -0.0669 -0.1204 -0.1466
19894SOL    HW271337   4.258   4.813   1.409  0.6361 -0.3399  0.3190
19895SOL     OW71338   2.419   0.158   0.005  0.2921 -0.3858 -0.6729
19895SOL    HW171339   2.378   0.232   0.058  0.5825 -1.0648  0.5338
19895SOL    HW271340   2.519   0.165   0.011  0.3213 -1.4802  0.3476
19896SOL     OW71341   9.236   9.073   6.086  0.4768  0.1458  0.4327
19896SOL    HW171342   9.200   9.098   5.996 -0.0434  0.4877  0.7338
19896SOL    HW271343   9.326   9.031   6.075 -0.8650 -2.6227 -0.4932
19897SOL     OW71344   7.029   6.800   6.549  0.6096  0.3256 -0.6829
19897SOL    HW171345   6.975   6.718   6.565 -0.1159  1.0855  0.8303
19897SOL    HW271346   7.003   6.841   6.462 -1.4518  0.8184  0.1331
19898SOL     OW71347   9.256   1.838   1.782 -0.2426  0.1787  0.2972
19898SOL    HW171348   9.318   1.759   1.786  0.1361  0.4572 -0.0235
19898SOL    HW271349   9.252   1.872   1.689  0.7141  1.4241  0.6919
19899SOL     OW71350   7.875   2.432   1.620  0.1161  0.2356  0.1899
19899SOL    HW171351   7.824   2.393   1.543 -0.7825  0.8221  0.4781
19899SOL    HW271352   7.957   2.378   1.636 -0.5244 -0.8522 -0.1458
19900SOL     OW71353   1.570   4.566   3.676  0.1346  0.4941  0.5626
19900SOL    HW171354   1.571   4.666   3.675  1.7460  0.5025 -1.1095
19900SOL    HW271355   1.551   4.532   3.584  2.0098 -0.7014  0.5749
19901SOL     OW71356   7.447   2.456   0.419  0.0544  0.2989  0.7870
19901SOL    HW171357   7.534   2.428   0.459 -0.3132  0.0776  1.4406
19901SOL    HW271358   7.428   2.402   0.337  0.4334  0.2083  0.7621
19902SOL     OW71359   7.151   1.378   1.732  0.0566  0.0242 -0.0926
19902SOL    HW171360   7.067   1.381   1.678  0.9705 -0.5184 -1.5729
19902SOL    HW271361   7.213   1.310   1.693  1.2570  0.5461  0.8835
19903SOL     OW71362   6.823   7.840   3.936  0.4050  0.1489 -0.9379
19903SOL    HW171363   6.854   7.918   3.881 -2.4939  1.3822 -0.9362
19903SOL    HW271364   6.860   7.755   3.898  0.8695  1.2293 -2.9783
19904SOL     OW71365   4.424   6.815   3.668  0.1826 -0.2268  0.0339
19904SOL    HW171366   4.393   6.759   3.745  0.7332 -0.2419  0.2445
19904SOL    HW271367   4.517   6.847   3.685  0.2400 -0.0792 -0.5449
19905SOL     OW71368   6.384   2.428   2.370  0.0154  0.2516  0.2661
19905SOL    HW171369   6.373   2.441   2.272 -0.2447  0.3887  0.3110
19905SOL    HW271370   6.324   2.492   2.419  0.5915  0.5964  0.5210
19906SOL     OW71371   1.038   6.392   2.378  0.3015 -0.0165  0.2110
19906SOL    HW171372   0.975   6.433   2.445  0.0263  2.7521 -1.6639
19906SOL    HW271373   1.085   6.465   2.328 -0.8591 -1.9769 -3.9088
19907SOL     OW71374   4.200   6.688   4.454  0.6698  0.3450  0.2581
19907SOL    HW171375   4.164   6.749   4.524 -0.3492 -0.6286  0.5985
19907SOL    HW271376   4.137   6.612   4.440  1.1453  0.2237 -1.3169
19908SOL     OW71377   2.656   7.252   6.171  0.0710  0.0115  0.1010
19908SOL    HW171378   2.625   7.324   6.110  0.3460  1.5309  1.7287
19908SOL    HW271379   2.588   7.179   6.174  0.0201 -0.0323 -1.9256
19909SOL     OW71380   8.201   2.240   6.722 -0.0591  0.3933 -0.2740
19909SOL    HW171381   8.183   2.243   6.821 -1.7080 -2.6082 -0.4127
19909SOL    HW271382   8.116   2.224   6.674  1.3606 -2.9889 -1.8173
19910SOL     OW71383   6.648   1.513   4.259 -0.2873  0.1411 -0.1416
19910SOL    HW171384   6.569   1.451   4.260  0.0941 -0.3817 -1.2878
19910SOL    HW271385   6.617   1.606   4.236 -0.5593 -0.0922 -0.7278
19911SOL     OW71386   7.573   8.983   2.768  0.5813 -0.1515  0.8089
19911SOL    HW171387   7.545   9.049   2.838  0.3366 -2.0727  2.5793
19911SOL    HW271388   7.496   8.923   2.746  1.0505 -0.4164 -0.1449
19912SOL     OW71389   7.984   9.832   2.753 -0.4654 -0.3286 -0.2963
19912SOL    HW171390   7.916   9.856   2.822 -0.7415 -2.0436  0.0508
19912SOL    HW271391   8.050   9.768   2.792  0.7255  0.4725 -0.9585
19913SOL     OW71392   1.870   9.732   2.351 -0.2210  0.9373  0.1764
19913SOL    HW171393   1.892   9.820   2.308 -2.1274  1.2366 -0.2362
19913SOL    HW271394   1.871   9.660   2.282  0.3173  0.8077  0.3192
19914SOL     OW71395   6.916   8.919   4.168  0.4820  0.0578 -0.1225
19914SOL    HW171396   6.922   8.849   4.239  1.3094  1.7855  1.5830
19914SOL    HW271397   6.895   8.877   4.080  0.5118 -2.2498  0.9489
19915SOL     OW71398   2.521   1.855   1.499 -0.3264 -0.0361  0.1645
19915SOL    HW171399   2.546   1.934   1.444 -0.1173 -0.1061  0.1579
19915SOL    HW271400   2.570   1.774   1.465 -1.9716 -0.5556 -1.0475
19916SOL     OW71401   1.563   2.836   2.334 -0.1889 -0.2485  0.4329
19916SOL    HW171402   1.538   2.742   2.359  1.0928 -0.5679  0.5052
19916SOL    HW271403   1.615   2.836   2.249 -1.9790  0.5894 -0.6909
19917SOL     OW71404   5.528   7.186   2.218  0.1721  0.2240 -0.3050
19917SOL    HW171405   5.469   7.218   2.144 -0.5872 -1.4364 -0.4414
19917SOL    HW271406   5.471   7.148   2.291  0.9381  1.4175  0.9507
19918SOL     OW71407   8.723   5.508   6.782 -0.2361  0.1130 -0.5392
19918SOL    HW171408   8.718   5.432   6.716  1.3433 -0.6628  0.1971
19918SOL    HW271409   8.744   5.592   6.733  1.4728 -0.5577 -1.0074
19919SOL     OW71410   7.075   7.262   1.858  0.0272  0.5024  0.1341
19919SOL    HW171411   7.147   7.270   1.790 -1.0789 -0.5935 -1.2134
19919SOL    HW271412   6.997   7.318   1.830 -1.4555 -1.9795 -0.9299
19920SOL     OW71413   3.004   8.233   6.349  0.2360 -0.1891 -0.6340
19920SOL    HW171414   3.091   8.261   6.391  0.5541  1.4286 -2.3212
19920SOL    HW271415   2.980   8.141   6.381  1.7038  0.0203  1.1680
19921SOL     OW71416   6.600   2.586   2.443 -0.2363  0.1969 -0.3915
19921SOL    HW171417   6.537   2.523   2.397 -2.1222  1.6658  0.1010
19921SOL    HW271418   6.568   2.680   2.431  1.7142  0.9549  0.1472
19922SOL     OW71419   0.479   8.104   2.408  0.3312 -0.5630  0.5475
19922SOL    HW171420   0.386   8.071   2.392  0.1690  0.1726 -0.0802
19922SOL    HW271421   0.520   8.053   2.483 -0.3819 -1.2749  0.4625
19923SOL     OW71422   2.995   0.750   7.440 -0.0220  0.0956 -0.4053
19923SOL    HW171423   2.947   0.733   7.525 -1.7088  1.4173 -1.0729
19923SOL    HW271424   3.026   0.663   7.401 -1.2652 -0.7042  0.3638
19924SOL     OW71425   3.783   9.784   7.332  0.4841  0.1591  0.1949
19924SOL    HW171426   3.833   9.742   7.408 -0.5037 -0.4845  0.5005
19924SOL    HW271427   3.827   9.760   7.245  1.2102  0.3193  0.5207
19925SOL     OW71428   4.957   5.435   2.744 -0.2002  0.0005 -0.2497
19925SOL    HW171429   4.881   5.375   2.721 -0.9896  0.9658 -0.1870
19925SOL    HW271430   4.926   5.504   2.810  0.8458  0.1162  0.1319
19926SOL     OW71431   2.993   0.194   0.137  0.0612 -0.2185 -0.4100
19926SOL    HW171432   3.068   0.128   0.138 -0.8484 -1.2942 -1.3055
19926SOL    HW271433   2.936   0.181   0.218 -0.1078 -0.5379 -0.5777
19927SOL     OW71434   9.280   3.959   7.591 -0.5490  0.2596  0.2597
19927SOL    HW171435   9.362   3.943   7.647  1.3157 -3.2384 -3.2046
19927SOL    HW271436   9.201   3.918   7.635  0.6502 -1.3514  0.9892
19928SOL     OW71437   2.166   2.264   9.984  0.2538 -0.1193  0.0850
19928SOL    HW171438   2.080   2.275  10.034  0.0203  1.8338 -0.6874
19928SOL    HW271439   2.236   2.322  10.025  0.5082  0.2128 -0.8044
19929SOL     OW71440   6.707   3.209   1.840  0.5945  0.1438  0.0055
19929SOL    HW171441   6.642   3.171   1.906 -1.1392 -0.3954 -1.9399
19929SOL    HW271442   6.690   3.307   1.830 -0.6905 -0.1823 -1.2782
19930SOL     OW71443   8.430   6.401   1.994  0.6219  0.0001 -0.2950
19930SOL    HW171444   8.506   6.337   2.008  0.2918 -0.6248 -1.3303
19930SOL    HW271445   8.438   6.442   1.903  0.3587  0.8109  0.0416
19931SOL     OW71446   7.117   0.394   0.696  0.0769  0.4686  0.0762
19931SOL    HW171447   7.109   0.443   0.609  0.8795 -0.2270 -0.3900
19931SOL    HW271448   7.093   0.298   0.682 -1.0999  0.6312  0.9074
19932SOL     OW71449   5.307   7.045   0.825 -0.2560 -0.2513 -0.0340
19932SOL    HW171450   5.371   7.073   0.896 -1.6264  0.9994  0.7386
19932SOL    HW271451   5.218   7.086   0.843 -0.6462  0.0299 -2.4456
19933SOL     OW71452   2.544   6.378   5.436  0.0036 -1.5321  0.5317
19933SOL    HW171453   2.619   6.314   5.420  0.5815 -0.7607  0.1153
19933SOL    HW271454   2.479   6.374   5.360  0.5912 -0.8604 -0.0074
19934SOL     OW71455   9.326   2.234   1.659 -0.1589 -0.0175 -1.0700
19934SOL    HW171456   9.390   2.311   1.652 -0.4146  0.0221 -3.3393
19934SOL    HW271457   9.372   2.156   1.701  1.8317 -0.4237 -3.8976
19935SOL     OW71458   3.098   7.083   2.532 -0.0007 -0.7591 -0.2736
19935SOL    HW171459   3.178   7.129   2.493 -0.5049  0.3330 -0.0425
19935SOL    HW271460   3.097   7.096   2.631 -1.9656  1.6898 -0.5687
19936SOL     OW71461   2.598   5.481   4.052  0.2820  0.1220  0.1838
19936SOL    HW171462   2.676   5.520   4.004 -0.7624 -1.1662 -2.6564
19936SOL    HW271463   2.533   5.554   4.075  0.6234  0.7017 -0.6806
19937SOL     OW71464   8.469   7.175   2.010 -0.5959  0.3350  0.4484
19937SOL    HW171465   8.435   7.087   1.976  0.0517  0.4318 -0.4489
19937SOL    HW271466   8.564   7.165   2.038 -0.8384  0.4921  1.3430
19938SOL     OW71467   0.780   6.028   5.675 -0.1109 -0.5751 -0.1938
19938SOL    HW171468   0.879   6.022   5.663 -0.0136 -0.3341  0.4898
19938SOL    HW271469   0.739   5.938   5.659  0.1680 -0.5759 -0.9190
19939SOL     OW71470   2.328   8.719   7.087 -0.0056 -0.3041  0.0768
19939SOL    HW171471   2.410   8.692   7.139  0.2717 -2.1150 -1.2517
19939SOL    HW271472   2.320   8.818   7.087  2.2404 -0.1018  0.1765
19940SOL     OW71473   8.265   7.387   3.017 -0.6941  0.0179  0.3980
19940SOL    HW171474   8.345   7.424   3.064 -0.2418 -0.5490  0.0837
19940SOL    HW271475   8.193   7.366   3.084  0.3512 -1.8088  0.9618
19941SOL     OW71476   2.455   8.056   7.227 -0.0801  0.8833  0.1953
19941SOL    HW171477   2.443   8.057   7.128 -2.4148  0.0905  0.4514
19941SOL    HW271478   2.489   7.966   7.255 -1.5176  0.3660  0.3231
19942SOL     OW71479   0.860   5.671   2.243 -0.2960 -0.1852 -0.3591
19942SOL    HW171480   0.956   5.698   2.233 -0.3078  1.0872  2.4504
19942SOL    HW271481   0.805   5.750   2.271 -1.4100 -1.7351  2.0266
19943SOL     OW71482   0.118   4.911   3.734 -0.6533 -0.2700 -0.2315
19943SOL    HW171483   0.163   4.821   3.732 -1.6677 -0.7620 -1.2246
19943SOL    HW271484   0.180   4.978   3.775  0.4818 -1.2297 -0.3497
19944SOL     OW71485   7.973   7.843   1.944 -0.2094 -0.5330  0.1588
19944SOL    HW171486   8.061   7.838   1.992 -0.3620  0.4288  0.5386
19944SOL    HW271487   7.898   7.832   2.010 -0.3711 -2.2827 -0.2861
19945SOL     OW71488   1.599   7.001   7.113  0.3129 -0.2694 -0.1989
19945SOL    HW171489   1.685   7.051   7.125  0.2115 -0.4090  1.2445
19945SOL    HW271490   1.601   6.919   7.171 -1.9816  1.2684  2.1497
19946SOL     OW71491   6.805   9.915   6.291 -0.5405  0.0502  0.4072
19946SOL    HW171492   6.835   9.987   6.229  1.3813  0.7395  2.0602
19946SOL    HW271493   6.823   9.825   6.250 -1.9853  0.4909 -1.2197
19947SOL     OW71494   0.523   1.734   7.044  0.0533  0.4190 -0.6786
19947SOL    HW171495   0.581   1.653   7.040 -1.1614 -0.6517  2.2595
19947SOL    HW271496   0.498   1.762   6.951  0.2942 -2.7269 -1.7450
19948SOL     OW71497   9.994   8.991   0.641  0.2172 -0.2180  0.0445
19948SOL    HW171498   9.902   8.978   0.678 -0.3203 -2.0912 -1.8688
19948SOL    HW271499   9.987   9.023   0.546  1.5097 -2.0381 -0.6826
19949SOL     OW71500   8.112   8.095   4.206  0.3466  0.2334 -0.2818
19949SOL    HW171501   8.157   8.026   4.150 -3.3170 -1.4015 -1.3546
19949SOL    HW271502   8.089   8.174   4.150  1.2467  0.8050  0.1321
19950SOL     OW71503   4.322   2.875   1.631  0.3768  0.1437 -0.1606
19950SOL    HW171504   4.303   2.860   1.534  1.1638  2.2505 -0.6663
19950SOL    HW271505   4.255   2.825   1.686 -0.9668  0.0935 -1.7928
19951SOL     OW71506   0.697   1.160   0.722 -0.2823 -0.0574 -0.5051
19951SOL    HW171507   0.782   1.189   0.679 -1.3946  1.1786 -1.9315
19951SOL    HW271508   0.678   1.218   0.801 -0.5569  0.6749 -1.0966
19952SOL     OW71509   9.201   7.451   5.443 -0.1267 -0.2132  0.3036
19952SOL    HW171510   9.202   7.435   5.541  0.5256 -1.6070  0.0823
19952SOL    HW271511   9.275   7.399   5.400 -1.1474 -0.5607 -1.0621
19953SOL     OW71512   6.257   2.311   6.003  0.5705  0.2058 -0.1809
19953SOL    HW171513   6.263   2.306   5.903 -0.4391 -1.2253 -0.1913
19953SOL    HW271514   6.181   2.370   6.028  0.2008 -0.2268 -0.2745
19954SOL     OW71515   5.206   7.330   1.301 -0.0328 -0.8875 -0.5449
19954SOL    HW171516   5.192   7.351   1.205 -1.3132 -0.8181 -0.3432
19954SOL    HW271517   5.296   7.288   1.313 -0.5518 -2.4498 -2.0037
19955SOL     OW71518   5.574   3.704   0.283  0.2281  0.2548  0.2833
19955SOL    HW171519   5.588   3.747   0.194  0.1679 -1.5320 -0.6174
19955SOL    HW271520   5.661   3.693   0.330  0.1184  2.3418  1.0030
19956SOL     OW71521   8.790   0.820   3.330  0.1761  0.7290 -0.4332
19956SOL    HW171522   8.856   0.848   3.260  1.2912 -2.5073 -0.7563
19956SOL    HW271523   8.712   0.777   3.285  0.1992 -0.0184  0.2441
19957SOL     OW71524   9.528   3.767   6.179 -0.9419 -0.0196 -0.2066
19957SOL    HW171525   9.554   3.700   6.249 -1.9411  1.3093  1.4759
19957SOL    HW271526   9.584   3.849   6.189 -1.8370  0.6038 -0.2699
19958SOL     OW71527   0.183   8.822   0.856 -0.2435  0.7439  0.5520
19958SOL    HW171528   0.191   8.746   0.791  0.1807  0.2288  1.2073
19958SOL    HW271529   0.135   8.898   0.812  2.5466  1.4947 -1.3390
19959SOL     OW71530   3.187   8.814   4.701 -0.1710 -0.4877  0.5532
19959SOL    HW171531   3.241   8.861   4.631  0.2002 -2.5420 -0.6051
19959SOL    HW271532   3.091   8.811   4.672  0.2088 -2.6139 -0.6624
19960SOL     OW71533   6.888   7.482   2.135  0.1488 -0.1419 -0.6239
19960SOL    HW171534   6.820   7.553   2.155  0.7871  0.1456  0.5367
19960SOL    HW271535   6.949   7.515   2.062  1.1135  0.9571  0.6522
19961SOL     OW71536   5.549   1.723   6.955 -0.7243  0.3113 -0.4958
19961SOL    HW171537   5.579   1.688   7.044 -0.7694  0.4812 -0.4141
19961SOL    HW271538   5.599   1.807   6.934 -0.5827  0.1767 -0.7143
19962SOL     OW71539   0.349   3.928   1.048 -0.0907 -0.1068 -0.0307
19962SOL    HW171540   0.381   3.835   1.065  1.0366  0.4181  0.8513
19962SOL    HW271541   0.322   3.938   0.952 -0.0550 -1.2900 -0.1624
19963SOL     OW71542   3.198   6.800   3.428  0.0768  0.3007 -0.2163
19963SOL    HW171543   3.213   6.712   3.382 -0.0460 -0.6116  1.4593
19963SOL    HW271544   3.110   6.799   3.475 -0.0606  1.4439 -0.4232
19964SOL     OW71545   1.530   5.037   6.545  0.0892  0.2910 -0.6102
19964SOL    HW171546   1.531   5.088   6.459  1.1814  0.7315 -0.3430
19964SOL    HW271547   1.475   5.086   6.612  0.1344  0.4934 -0.7215
19965SOL     OW71548   4.525   2.860   1.141 -0.2776  0.5802 -0.3106
19965SOL    HW171549   4.495   2.837   1.234 -2.7987  2.8102 -0.5035
19965SOL    HW271550   4.610   2.912   1.146  0.3429 -0.5094  0.6569
19966SOL     OW71551   1.749   3.069   3.983  0.2059  0.4656  0.1210
19966SOL    HW171552   1.740   3.167   4.001  0.6482  0.3457  1.0499
19966SOL    HW271553   1.845   3.047   3.969  0.0353  0.2694 -0.7379
19967SOL     OW71554   2.688   2.025   0.748 -0.6339  0.3286 -0.3245
19967SOL    HW171555   2.769   2.040   0.692 -0.8981 -0.9688 -1.0728
19967SOL    HW271556   2.680   2.098   0.816  0.9036  0.7080 -0.5390
19968SOL     OW71557   1.312   3.510   3.098 -0.1659 -0.5180  0.3536
19968SOL    HW171558   1.365   3.558   3.028  0.3084 -2.2430 -0.4955
19968SOL    HW271559   1.306   3.567   3.180  1.2484  0.5545 -0.2719
19969SOL     OW71560   9.853   8.724   5.427  0.4093  0.2538  0.0486
19969SOL    HW171561   9.943   8.757   5.452 -0.4810  1.2262  2.0878
19969SOL    HW271562   9.797   8.713   5.509 -0.8966 -1.6445 -1.0441
19970SOL     OW71563   9.330   7.535   3.128 -0.0217 -0.1155 -0.0312
19970SOL    HW171564   9.418   7.495   3.153 -0.5387 -0.3165  1.5432
19970SOL    HW271565   9.342   7.633   3.110  0.7699 -0.4336 -1.2403
19971SOL     OW71566   9.611   1.658   7.573  0.1535  0.6222 -0.4641
19971SOL    HW171567   9.535   1.675   7.510  0.2858 -2.1297 -1.4197
19971SOL    HW271568   9.695   1.698   7.535 -0.2956  1.3390 -0.7089
19972SOL     OW71569   1.503   7.952   2.552 -0.2760 -0.0569  0.3198
19972SOL    HW171570   1.518   8.043   2.591 -0.8184 -0.5037  1.5974
19972SOL    HW271571   1.511   7.883   2.624 -3.0875 -0.7514  0.0178
19973SOL     OW71572   2.236   4.450   7.670  0.2593 -0.1143  0.3551
19973SOL    HW171573   2.170   4.526   7.667 -2.0132 -2.0956 -1.7548
19973SOL    HW271574   2.291   4.450   7.587  0.5784 -0.5188  0.5662
19974SOL     OW71575   9.925   8.192   3.328 -0.2428  0.1884  0.3804
19974SOL    HW171576   9.994   8.177   3.258 -0.1121  0.5654  0.4255
19974SOL    HW271577   9.835   8.199   3.284 -0.5449 -2.4092  0.5136
19975SOL     OW71578   8.826   3.780   2.131  0.2481  0.4421 -0.2847
19975SOL    HW171579   8.862   3.869   2.158  0.6208 -0.3293  1.8430
19975SOL    HW271580   8.820   3.720   2.211 -1.8141 -0.8272 -1.3410
19976SOL     OW71581   8.231   6.561   3.857 -0.3861 -0.3948  0.3611
19976SOL    HW171582   8.279   6.500   3.919 -0.7333 -1.2975 -0.2469
19976SOL    HW271583   8.215   6.514   3.770  0.8024  1.1153 -0.7002
19977SOL     OW71584   9.059   9.496   2.252  0.1786 -0.2601  0.3983
19977SOL    HW171585   9.123   9.504   2.175  1.0199 -1.1675  1.0026
19977SOL    HW271586   9.044   9.400   2.272 -2.1664 -0.0844 -0.3817
19978SOL     OW71587   6.509   8.670   3.396 -0.1677 -0.2787  0.0609
19978SOL    HW171588   6.453   8.747   3.366 -0.1939 -0.5421 -0.5773
19978SOL    HW271589   6.584   8.703   3.453 -1.9586 -0.0701  2.3747
19979SOL     OW71590   4.315   2.162   3.856  0.0745 -0.2668  0.1904
19979SOL    HW171591   4.350   2.190   3.766  0.2833 -1.4726 -0.1186
19979SOL    HW271592   4.326   2.237   3.921  0.1241  0.5431 -0.7403
19980SOL     OW71593   9.144   3.176   0.172  0.0900 -0.0471 -0.1049
19980SOL    HW171594   9.212   3.125   0.120  1.3714  0.9097  0.5708
19980SOL    HW271595   9.127   3.130   0.259 -0.5151 -0.5570 -0.4901
19981SOL     OW71596   9.190   4.473   0.473 -0.6829  0.2930  0.1797
19981SOL    HW171597   9.115   4.515   0.524 -0.2069  0.8672  0.4217
19981SOL    HW271598   9.277   4.508   0.509 -0.3132 -0.2027 -0.2404
19982SOL     OW71599   3.101   5.809   6.750 -0.0054 -0.0694  0.4742
19982SOL    HW171600   3.049   5.894   6.758 -0.5265 -0.2369 -1.0271
19982SOL    HW271601   3.110   5.767   6.840 -2.5200 -0.0605  0.7569
19983SOL     OW71602   7.940   1.649   0.366  0.3194  0.5547 -0.2585
19983SOL    HW171603   7.884   1.655   0.449  0.4006  0.8538 -0.2272
19983SOL    HW271604   7.974   1.555   0.357 -1.4363 -0.0341 -1.0970
19984SOL     OW71605   0.591   3.580   0.970  0.5448  0.1180  0.3578
19984SOL    HW171606   0.634   3.670   0.962  0.9502 -0.2735 -2.3452
19984SOL    HW271607   0.497   3.591   1.001  0.7153  1.4365  0.4466
19985SOL     OW71608   0.807   9.231   1.184  0.0871 -0.0878  0.6789
19985SOL    HW171609   0.833   9.262   1.275 -0.6682 -0.8269  1.1482
19985SOL    HW271610   0.760   9.143   1.190  0.0112 -0.1355 -0.4205
19986SOL     OW71611   8.957   3.532   6.167  0.5172 -0.1000  0.0797
19986SOL    HW171612   8.872   3.482   6.153 -0.0499  0.8582  0.0812
19986SOL    HW271613   8.955   3.576   6.257  0.8982  0.1570 -0.0362
19987SOL     OW71614   0.593   6.531   0.342  0.6688  0.1419 -0.5355
19987SOL    HW171615   0.616   6.485   0.427  1.5519  0.8457 -0.3918
19987SOL    HW271616   0.648   6.493   0.268 -0.6891 -1.0522 -0.9659
19988SOL     OW71617   5.758   8.681   4.822 -0.3256 -0.4219 -0.5475
19988SOL    HW171618   5.749   8.662   4.920  0.5442  3.4370  0.3402
19988SOL    HW271619   5.688   8.630   4.772 -1.9103 -1.0729  2.2454
19989SOL     OW71620   8.734   6.537   5.060 -0.5291 -0.1023  0.6940
19989SOL    HW171621   8.636   6.545   5.073 -0.2758  0.1897  2.5062
19989SOL    HW271622   8.774   6.629   5.051 -0.4974 -0.2390 -0.7720
19990SOL     OW71623   6.762   8.063   5.757 -0.3517  0.2771 -0.8683
19990SOL    HW171624   6.700   8.039   5.683 -2.0994 -0.5390  0.8162
19990SOL    HW271625   6.776   7.983   5.816 -0.4908  1.4025  0.7269
19991SOL     OW71626   8.509   7.251   5.009  0.3012 -0.5323  0.0945
19991SOL    HW171627   8.557   7.194   5.076 -0.2061  0.0757  0.9928
19991SOL    HW271628   8.441   7.307   5.056  1.6735  1.7683 -0.5864
19992SOL     OW71629   6.889   9.292   8.317 -0.4098  0.0091  0.3724
19992SOL    HW171630   6.961   9.360   8.330 -0.8000  0.2975  1.0774
19992SOL    HW271631   6.799   9.336   8.326 -0.6713 -0.3968 -0.2307
19993SOL     OW71632   0.818   4.728   2.625  0.4849  0.3174 -0.3358
19993SOL    HW171633   0.739   4.789   2.632  1.3193  1.2917  0.8703
19993SOL    HW271634   0.788   4.638   2.593 -0.9985  0.8885 -0.6044
19994SOL     OW71635   2.780   9.539   9.954  0.3151  0.2440  0.0196
19994SOL    HW171636   2.870   9.542   9.996 -0.5019  1.7628  1.7482
19994SOL    HW271637   2.741   9.631   9.952 -0.7961 -0.2431 -1.6018
19995SOL     OW71638   0.475   3.518   7.271 -0.0039  0.0915 -0.3301
19995SOL    HW171639   0.435   3.447   7.329 -0.2874  0.9858  0.5918
19995SOL    HW271640   0.476   3.605   7.321  0.2824  0.7523 -1.4678
19996SOL     OW71641   1.925   7.371   5.237 -0.1825 -0.1472 -0.7153
19996SOL    HW171642   1.991   7.312   5.192  0.6258 -0.2332  0.5492
19996SOL    HW271643   1.963   7.463   5.247 -0.6796  0.0861 -0.9597
19997SOL     OW71644   5.910   5.750   0.676  0.1741 -0.0271  0.2851
19997SOL    HW171645   5.954   5.839   0.662 -2.0284  1.4596  2.4646
19997SOL    HW271646   5.850   5.730   0.599  0.8439  0.2674 -0.3213
19998SOL     OW71647   4.875   8.982   1.528  0.0938  0.2067  0.0521
19998SOL    HW171648   4.842   9.026   1.444 -0.0505 -2.1431 -1.1590
19998SOL    HW271649   4.859   8.883   1.522  0.0570  0.0198  2.8750
19999SOL     OW71650   3.274   3.855   7.546  0.0288 -0.3094  0.5721
19999SOL    HW171651   3.318   3.868   7.457 -0.3267  1.7402  0.6683
19999SOL    HW271652   3.174   3.853   7.534 -0.0132 -0.2358  0.9046
20000SOL     OW71653   6.787   0.967   2.839  0.5682 -0.6125  0.2135
20000SOL    HW171654   6.781   1.019   2.924 -0.3460  0.8456 -0.7121
20000SOL    HW271655   6.859   1.006   2.781 -0.9989  0.5159 -1.0411
20001SOL     OW71656   3.152   1.163   6.168  0.0886 -0.1658  0.2251
20001SOL    HW171657   3.121   1.107   6.245  2.5474  0.1018  1.4860
20001SOL    HW271658   3.109   1.253   6.172 -0.4546 -0.4475  0.7803
20002SOL     OW71659   8.392   7.352   7.208 -0.0616 -0.3149 -0.2665
20002SOL    HW171660   8.354   7.344   7.116  1.5645 -1.3752 -0.8816
20002SOL    HW271661   8.459   7.426   7.210 -0.6997  0.2564  0.2943
20003SOL     OW71662   0.570   2.531   7.678  0.4632 -0.5028  0.3369
20003SOL    HW171663   0.664   2.497   7.682  0.5748 -0.3364 -0.7919
20003SOL    HW271664   0.552   2.569   7.588 -0.5833 -0.2088  0.6619
20004SOL     OW71665   6.589   1.544   1.372 -0.2027 -0.5074  0.2516
20004SOL    HW171666   6.550   1.622   1.323  0.3993 -0.3311  0.0426
20004SOL    HW271667   6.573   1.553   1.470  0.1283  0.0247  0.2537
20005SOL     OW71668   8.086   0.871   3.520 -0.5146  0.2808 -0.6054
20005SOL    HW171669   8.119   0.920   3.440  0.5961  0.9370  0.2322
20005SOL    HW271670   8.143   0.790   3.536 -0.9679 -0.0590 -0.6953
20006SOL     OW71671   3.896   4.064   3.003  0.6538  0.1779  0.2523
20006SOL    HW171672   3.974   4.124   2.985  0.7143 -0.0979 -0.4403
20006SOL    HW271673   3.857   4.085   3.092  1.3417  0.5183  0.4758
20007SOL     OW71674   3.003   6.929   2.040 -0.2498 -1.3501  0.4698
20007SOL    HW171675   3.046   6.993   2.103  0.5378  0.2253 -1.6145
20007SOL    HW271676   2.909   6.911   2.069 -0.4386  0.6891  1.1421
20008SOL     OW71677   0.561   8.277   2.793  0.9639  0.2898 -0.1145
20008SOL    HW171678   0.554   8.253   2.889  1.2629  0.1426 -0.1301
20008SOL    HW271679   0.473   8.261   2.748  1.2726 -1.1201 -0.2150
20009SOL     OW71680   5.023   4.687   3.174  0.3933 -0.1754  0.4561
20009SOL    HW171681   4.978   4.642   3.252 -0.6157  0.0268  0.0018
20009SOL    HW271682   5.029   4.785   3.191  1.0611 -0.2602  0.7068
20010SOL     OW71683   9.509   1.134   7.530 -0.4774  0.0539  0.4940
20010SOL    HW171684   9.453   1.134   7.613 -1.4360  0.7301 -0.1451
20010SOL    HW271685   9.561   1.219   7.525  0.9195 -0.7283  1.2761
20011SOL     OW71686   9.212   3.753   1.591 -0.0479  0.0844  0.4866
20011SOL    HW171687   9.266   3.684   1.639 -0.8272 -0.2984  0.8259
20011SOL    HW271688   9.160   3.710   1.518 -0.9457  0.2210  1.0412
20012SOL     OW71689   7.951   3.456   5.371  0.0728  0.4416 -0.1986
20012SOL    HW171690   7.892   3.516   5.424 -1.3647  0.1127 -1.3890
20012SOL    HW271691   7.955   3.489   5.276  0.3123 -0.5999 -0.5573
20013SOL     OW71692   9.599   5.256   3.325 -0.1478 -0.5708 -0.1388
20013SOL    HW171693   9.676   5.315   3.348 -0.9613  0.4337  0.0446
20013SOL    HW271694   9.552   5.228   3.409  0.5175 -1.8841 -0.1868
20014SOL     OW71695   4.275   4.419   3.989  0.4027  0.1084 -0.6963
20014SOL    HW171696   4.281   4.470   4.075  0.5374 -1.5139  0.2860
20014SOL    HW271697   4.359   4.366   3.977 -0.7653 -1.8770 -0.3880
20015SOL     OW71698   7.825   5.997   5.467  0.2894  0.6611 -0.3859
20015SOL    HW171699   7.890   6.040   5.404 -1.6530  0.3183 -2.6690
20015SOL    HW271700   7.798   5.908   5.431 -1.4403  0.7944  0.5319
20016SOL     OW71701   0.052   2.991   2.113  0.1866  0.2268  0.1634
20016SOL    HW171702   0.015   3.083   2.129  1.2582  0.2755  2.6297
20016SOL    HW271703   0.149   2.998   2.090  0.5104 -0.3498  1.3493
20017SOL     OW71704   7.749   6.191   4.847  0.7001 -0.6942 -1.2158
20017SOL    HW171705   7.809   6.177   4.926 -0.2941  1.1117 -0.1306
20017SOL    HW271706   7.662   6.144   4.863  0.5498 -0.4393 -1.2884
20018SOL     OW71707   0.241   6.994   6.166 -0.6808 -0.0193  0.5127
20018SOL    HW171708   0.229   7.054   6.087 -2.3581 -0.2417  0.5819
20018SOL    HW271709   0.337   6.966   6.173 -0.0905  1.7921 -0.1359
20019SOL     OW71710   7.416   1.882   1.639 -0.3608 -0.3896  0.0838
20019SOL    HW171711   7.400   1.913   1.733  2.4687 -0.2444  0.5609
20019SOL    HW271712   7.355   1.805   1.618  0.6133 -1.9928  2.8871
20020SOL     OW71713   1.955   5.313   3.329  0.3481  1.0383  0.1381
20020SOL    HW171714   1.983   5.348   3.419  0.2853 -0.4725  0.7622
20020SOL    HW271715   1.991   5.220   3.317 -2.2736  0.0174 -0.0953
20021SOL     OW71716   2.495   3.243   0.351  0.1436  0.1324  0.0603
20021SOL    HW171717   2.554   3.280   0.279  0.0270  1.6300  0.7200
20021SOL    HW271718   2.506   3.297   0.434  0.4707 -1.7344  1.2584
20022SOL     OW71719   3.240   6.376   4.302 -0.1587  0.0063  0.2648
20022SOL    HW171720   3.160   6.340   4.350 -1.2252 -0.0502 -1.5047
20022SOL    HW271721   3.318   6.317   4.320 -0.9207 -0.8933  0.6877
20023SOL     OW71722   4.000   1.387   6.361 -0.3426 -0.1361 -0.3564
20023SOL    HW171723   4.050   1.473   6.366 -0.9238  0.1752  0.2315
20023SOL    HW271724   3.999   1.344   6.451 -0.3620 -0.5808 -0.5687
20024SOL     OW71725   8.913   7.100   4.928  0.3351 -0.4529  0.3333
20024SOL    HW171726   9.006   7.119   4.895  0.0040  1.3341  0.4050
20024SOL    HW271727   8.847   7.141   4.866 -0.3816 -0.6163  0.9849
20025SOL     OW71728   7.440   2.411   4.932 -0.2839  0.5496  0.3549
20025SOL    HW171729   7.356   2.465   4.927 -1.4703 -1.3687 -1.3636
20025SOL    HW271730   7.416   2.315   4.952  1.4622 -0.0902 -0.5946
20026SOL     OW71731   5.348   1.956   7.308  0.1034  0.5145  0.2547
20026SOL    HW171732   5.359   1.969   7.210 -1.0681 -0.8428 -0.0741
20026SOL    HW271733   5.264   2.001   7.338  0.1172  0.3571  0.5278
20027SOL     OW71734   4.156   1.109   6.249  0.6494  0.0007  0.5579
20027SOL    HW171735   4.142   1.206   6.270  1.8640  0.7519 -1.9222
20027SOL    HW271736   4.070   1.068   6.222  0.2917  0.5936  0.7892
20028SOL     OW71737   6.016   7.651   4.072  0.3002  0.0793 -0.3712
20028SOL    HW171738   6.083   7.700   4.129  1.3137  0.1747 -1.6169
20028SOL    HW271739   5.961   7.590   4.130  1.1160  0.3874  0.7469
20029SOL     OW71740   8.405   9.167   7.838  0.4715  0.3175  0.3805
20029SOL    HW171741   8.425   9.127   7.927  2.3702  1.7493  0.6322
20029SOL    HW271742   8.375   9.262   7.850  0.1668  0.3353 -0.4786
20030SOL     OW71743   4.999   0.277   5.373 -0.2069  0.2004  0.0294
20030SOL    HW171744   4.959   0.266   5.464  0.4645 -0.6265  0.2341
20030SOL    HW271745   5.080   0.335   5.378 -0.0144 -0.0654  0.0042
20031SOL     OW71746   5.449   7.494   2.934 -0.8001  0.1487 -0.9180
20031SOL    HW171747   5.459   7.452   2.844 -1.0168 -1.4535 -0.2114
20031SOL    HW271748   5.352   7.503   2.956 -0.7464 -1.0636 -0.1287
20032SOL     OW71749   4.107   8.303   1.847  0.0893  0.3167  0.1065
20032SOL    HW171750   4.108   8.402   1.834 -1.3283  0.4211  0.7075
20032SOL    HW271751   4.171   8.261   1.782 -0.6791  1.4848 -1.4654
20033SOL     OW71752   9.773   5.500   2.433  0.1401  0.1645  0.1030
20033SOL    HW171753   9.692   5.488   2.376  0.2505  1.0408 -0.2660
20033SOL    HW271754   9.807   5.411   2.463 -1.1308 -0.1914  0.5203
20034SOL     OW71755   8.110   0.762   3.042  0.0313 -0.0186  0.4875
20034SOL    HW171756   8.030   0.739   3.097 -0.3059  0.2364  0.1081
20034SOL    HW271757   8.102   0.721   2.952 -0.3580  1.1792 -0.0402
20035SOL     OW71758   7.837   5.395   5.228 -0.6671  0.5900 -0.2125
20035SOL    HW171759   7.756   5.359   5.274 -0.4459 -0.4418 -0.6102
20035SOL    HW271760   7.903   5.321   5.214  0.0291  1.2677 -0.5555
20036SOL     OW71761   5.507   7.430   4.128  0.3168  0.2426  0.6831
20036SOL    HW171762   5.498   7.495   4.052 -3.4377 -0.0846  0.7303
20036SOL    HW271763   5.566   7.469   4.198  3.4293  0.7818 -2.1038
20037SOL     OW71764   3.150   9.907   6.609  0.2757 -0.2270  0.1608
20037SOL    HW171765   3.103   9.851   6.677  0.4253 -0.4519  0.0791
20037SOL    HW271766   3.242   9.870   6.593  0.0400 -0.5086 -0.5693
20038SOL     OW71767   4.580   4.952   4.194  0.0320  0.3523  1.0913
20038SOL    HW171768   4.546   5.029   4.248 -1.6516 -0.3873  1.1309
20038SOL    HW271769   4.536   4.953   4.104  0.8652  0.0916  0.6796
20039SOL     OW71770   4.575   3.452   5.298  0.5503  0.1364 -0.2256
20039SOL    HW171771   4.660   3.493   5.267  1.8991 -2.4717 -0.1191
20039SOL    HW271772   4.531   3.404   5.222 -0.5263  0.9485 -0.1313
20040SOL     OW71773   1.178   5.726   3.424 -0.0041 -0.2432  0.1485
20040SOL    HW171774   1.105   5.774   3.375  2.1769 -1.2809 -4.3818
20040SOL    HW271775   1.227   5.790   3.483 -1.9659  1.3199  0.1241
20041SOL     OW71776   1.108   6.344   0.814  0.7041  0.1768  0.6918
20041SOL    HW171777   1.114   6.286   0.895 -0.0314 -1.5882 -0.4918
20041SOL    HW271778   1.200   6.362   0.779  0.9197 -0.5783  0.8569
20042SOL     OW71779   0.508   9.948   2.550  0.3847  0.4259  0.1932
20042SOL    HW171780   0.558  10.030   2.579  2.2647 -0.2063 -1.1808
20042SOL    HW271781   0.477   9.898   2.631  1.8874  0.8955  1.0877
20043SOL     OW71782   0.191   9.064   7.332  0.2203 -0.1094 -0.1662
20043SOL    HW171783   0.125   9.116   7.386  1.0445  1.5699 -0.7308
20043SOL    HW271784   0.212   8.978   7.378 -1.1009  0.0977  0.8422
20044SOL     OW71785   3.330   2.068   5.152  0.1646 -0.2339 -0.0461
20044SOL    HW171786   3.265   1.996   5.129 -0.0963  0.2516 -0.8277
20044SOL    HW271787   3.330   2.082   5.251 -0.2897 -0.8206  0.0438
20045SOL     OW71788   4.659   7.506   0.493 -0.2321  0.1446  0.0826
20045SOL    HW171789   4.631   7.496   0.397  0.7515  0.1986 -0.2116
20045SOL    HW271790   4.724   7.435   0.517  0.2662  0.7142  0.4325
20046SOL     OW71791   0.764   5.884   2.370  0.0353 -0.2816 -0.2072
20046SOL    HW171792   0.812   5.935   2.442  1.0422 -1.4751 -0.0195
20046SOL    HW271793   0.672   5.862   2.402 -0.4906  1.5380 -0.3589
20047SOL     OW71794   9.455   3.063   4.082 -0.3846 -0.0373 -0.4876
20047SOL    HW171795   9.454   2.963   4.082 -0.0301 -0.0582  1.3075
20047SOL    HW271796   9.522   3.096   4.148 -1.8188  1.3796  0.2929
20048SOL     OW71797   9.550   0.465   5.357  0.0048  0.0957  0.0214
20048SOL    HW171798   9.479   0.427   5.298 -1.0614  0.0757  1.3009
20048SOL    HW271799   9.528   0.560   5.378  1.3924  0.7099 -1.1683
20049SOL     OW71800   7.184   4.995   0.912  0.2057  0.4085 -0.0736
20049SOL    HW171801   7.174   5.005   1.011  0.0227  0.1082 -0.0606
20049SOL    HW271802   7.104   5.035   0.866 -0.3899 -0.6864 -0.0338
20050SOL     OW71803   7.378   9.590   8.682  0.3038 -0.7413 -0.0795
20050SOL    HW171804   7.459   9.638   8.717  0.9246  0.1422 -2.6251
20050SOL    HW271805   7.308   9.656   8.655 -1.0294 -1.4864  1.5196
20051SOL     OW71806   1.239   3.801   3.854  0.3474 -0.5273 -0.1230
20051SOL    HW171807   1.139   3.810   3.851  0.0655 -2.9778  0.7130
20051SOL    HW271808   1.275   3.801   3.760 -0.2547  1.8321 -0.3923
20052SOL     OW71809   0.752   0.115   3.816  0.2154  0.1802 -0.0947
20052SOL    HW171810   0.778   0.111   3.912 -0.5422  2.4985  0.2415
20052SOL    HW271811   0.708   0.029   3.789 -0.4805 -0.0968  1.8971
20053SOL     OW71812   4.431   9.389   2.184  0.0908 -0.0965  0.2179
20053SOL    HW171813   4.390   9.392   2.275  0.1974 -1.0617  0.2956
20053SOL    HW271814   4.530   9.402   2.192  0.0591  0.1535  0.2100
20054SOL     OW71815   8.798   9.731   1.453  0.6738  0.7848 -0.5191
20054SOL    HW171816   8.744   9.647   1.462 -1.2208  2.2667  2.5057
20054SOL    HW271817   8.808   9.753   1.356 -0.1970 -2.0237 -1.3019
20055SOL     OW71818   8.480   4.215   5.268 -0.1612 -0.3031  0.3302
20055SOL    HW171819   8.441   4.189   5.357 -3.2455 -1.6620 -1.3359
20055SOL    HW271820   8.509   4.132   5.220  0.9584  0.3763 -0.1745
20056SOL     OW71821   1.741   1.032   5.508  0.8603  0.8873  0.8861
20056SOL    HW171822   1.734   1.125   5.542  2.1708  1.4608 -0.3514
20056SOL    HW271823   1.726   1.032   5.409 -0.3061 -0.3822  1.0478
20057SOL     OW71824   8.792   9.012   3.674  0.6618 -0.5112 -0.4119
20057SOL    HW171825   8.819   9.071   3.750  0.6400 -0.6853 -0.2687
20057SOL    HW271826   8.874   8.975   3.630  0.7180  0.6951 -1.3523
20058SOL     OW71827   5.693   4.889   0.309 -0.5246 -0.7360 -0.0476
20058SOL    HW171828   5.767   4.867   0.372 -0.8834 -2.0072 -0.0558
20058SOL    HW271829   5.667   4.985   0.321 -0.8881 -1.0668  2.0701
20059SOL     OW71830   3.285   8.554   9.797  0.6660 -0.3130  0.5286
20059SOL    HW171831   3.299   8.603   9.711 -0.3617 -1.3782 -0.2624
20059SOL    HW271832   3.259   8.618   9.869  2.5284  0.7285  0.2977
20060SOL     OW71833   1.861   9.448   3.352 -0.0209 -0.1678 -0.3399
20060SOL    HW171834   1.794   9.374   3.361  0.8819 -0.9648  0.0325
20060SOL    HW271835   1.886   9.458   3.256  0.7857 -1.2176 -0.2552
20061SOL     OW71836   1.355   2.698   7.307  0.1372 -0.4225  0.3039
20061SOL    HW171837   1.415   2.775   7.284  1.5138 -0.8949  2.2016
20061SOL    HW271838   1.327   2.705   7.402 -0.5668 -1.7299  0.1974
20062SOL     OW71839   9.691   3.944   3.337 -0.2080  0.5035 -0.6198
20062SOL    HW171840   9.776   3.892   3.334 -0.0397  0.6636  1.0069
20062SOL    HW271841   9.711   4.040   3.357 -0.8508  0.2697  1.2524
20063SOL     OW71842   1.993   2.503   5.306  0.3479 -0.5509 -0.2303
20063SOL    HW171843   1.927   2.571   5.273  1.0999  0.3495  0.1015
20063SOL    HW271844   2.029   2.531   5.395 -1.7343 -3.0247  1.4711
20064SOL     OW71845   6.456   3.536   2.519 -0.0705 -0.3728  0.2419
20064SOL    HW171846   6.493   3.613   2.572 -0.9229 -1.1937  2.0696
20064SOL    HW271847   6.372   3.503   2.562 -0.2604 -1.6941 -1.0938
20065SOL     OW71848   8.527   7.858   2.299 -0.4434 -0.0432 -0.3461
20065SOL    HW171849   8.559   7.892   2.387  0.6221 -0.2731 -0.6262
20065SOL    HW271850   8.443   7.806   2.311  0.9508 -2.0835  0.8776
20066SOL     OW71851   9.850   6.376   2.293  0.0661 -0.3258 -0.1891
20066SOL    HW171852   9.943   6.410   2.279 -0.0031  0.4740  1.1608
20066SOL    HW271853   9.785   6.452   2.283 -0.0687  0.0502  3.1359
20067SOL     OW71854   4.037   7.358   5.431 -0.0597 -0.4715 -0.2487
20067SOL    HW171855   4.011   7.436   5.374  1.0707  0.2771  0.2430
20067SOL    HW271856   4.095   7.296   5.377 -0.5953 -0.7450 -0.5060
20068SOL     OW71857   3.326   3.031   5.281 -0.0014 -0.1804  0.2970
20068SOL    HW171858   3.236   3.007   5.315  0.9975 -2.6212  1.2645
20068SOL    HW271859   3.332   3.008   5.184  0.1389 -1.6020  0.6384
20069SOL     OW71860   9.738   0.249   4.511 -0.5037 -0.0893  0.3942
20069SOL    HW171861   9.690   0.179   4.565 -1.7988  2.3856  2.5980
20069SOL    HW271862   9.834   0.223   4.501 -0.3592 -0.9881  3.4191
20070SOL     OW71863   3.037   6.268   0.469  0.0122 -0.3745 -0.0652
20070SOL    HW171864   2.968   6.245   0.537  1.1880  0.9784  1.6236
20070SOL    HW271865   2.996   6.268   0.378 -2.0333 -0.2387  0.8463
20071SOL     OW71866   7.231   7.894   6.990  0.0330 -0.2749  0.1448
20071SOL    HW171867   7.308   7.887   6.926  0.3912 -1.7273  0.7259
20071SOL    HW271868   7.255   7.957   7.064  0.4372 -0.2709  0.0137
20072SOL     OW71869   9.608   6.966   0.832 -0.7472 -0.1903  0.2994
20072SOL    HW171870   9.669   7.025   0.780 -3.2619  2.3271  0.1424
20072SOL    HW271871   9.658   6.883   0.859  2.1827  0.9626 -1.3465
20073SOL     OW71872   1.223   7.340   5.571  0.1681 -0.4532 -0.9954
20073SOL    HW171873   1.241   7.359   5.474  2.9158  1.1237 -0.2583
20073SOL    HW271874   1.254   7.248   5.593  0.7819 -0.3424 -1.3612
20074SOL     OW71875   1.334   1.049   1.716  0.0976  0.0242  0.0854
20074SOL    HW171876   1.353   0.958   1.752  1.3578  0.2740  0.0462
20074SOL    HW271877   1.323   1.045   1.617 -2.4954 -0.5161  0.3591
20075SOL     OW71878   4.433   6.844   4.413  0.1409 -0.1640 -0.3654
20075SOL    HW171879   4.364   6.879   4.350  0.0188 -0.3842 -0.3580
20075SOL    HW271880   4.401   6.757   4.452 -1.1367  1.4545  2.3103
20076SOL     OW71881   9.383   7.778   3.016  0.4532 -0.4439  0.4207
20076SOL    HW171882   9.324   7.843   2.968  4.0226  2.6219 -0.1310
20076SOL    HW271883   9.407   7.814   3.106  1.6908 -1.4225  0.5045
20077SOL     OW71884   1.648   4.003   7.111  0.2381 -0.0754  0.7155
20077SOL    HW171885   1.748   4.003   7.113  0.2685 -0.1774 -0.4142
20077SOL    HW271886   1.616   3.923   7.060 -0.3934  0.6950 -0.1004
20078SOL     OW71887   7.386   4.883   7.562  0.2274 -0.2619 -0.1040
20078SOL    HW171888   7.387   4.971   7.610 -0.2636 -0.4660  0.2795
20078SOL    HW271889   7.300   4.836   7.581  0.8683 -1.2259  0.4054
20079SOL     OW71890   9.465   5.939   3.509 -0.3421 -0.4195  0.3053
20079SOL    HW171891   9.402   6.017   3.501 -1.0152 -0.8564  1.2233
20079SOL    HW271892   9.467   5.889   3.422 -2.7165 -1.4768  0.8214
20080SOL     OW71893   6.604   9.931   3.611 -0.2424  0.2344  0.0355
20080SOL    HW171894   6.645  10.000   3.671  1.3162 -0.3323 -0.3720
20080SOL    HW271895   6.529   9.972   3.560 -1.6306  0.7302  2.3692
20081SOL     OW71896   8.123   1.434   0.356  0.1079  0.0073 -0.5733
20081SOL    HW171897   8.190   1.409   0.425 -0.0736  0.7734 -0.1211
20081SOL    HW271898   8.066   1.354   0.334  0.5261 -0.3781 -0.2472
20082SOL     OW71899   1.173   1.633   3.782  0.1746  0.2167  0.3299
20082SOL    HW171900   1.228   1.592   3.709 -0.6468 -2.4073  1.1349
20082SOL    HW271901   1.078   1.638   3.753  0.3067  1.8801  0.1335
20083SOL     OW71902   9.111   6.480   7.675  0.1834 -0.2871  0.4809
20083SOL    HW171903   9.014   6.470   7.696  0.0617  0.7727  0.4224
20083SOL    HW271904   9.140   6.574   7.692  0.6423  0.0288 -1.8378
20084SOL     OW71905   2.605   2.587   5.507  0.0676 -0.1322 -0.0169
20084SOL    HW171906   2.513   2.568   5.473 -0.1839 -0.4001  0.7922
20084SOL    HW271907   2.656   2.639   5.439 -0.9967  0.8575 -0.0695
20085SOL     OW71908   4.206   9.792   7.515 -0.0194  0.5131 -0.2704
20085SOL    HW171909   4.178   9.883   7.545 -0.4601  0.2908  0.0187
20085SOL    HW271910   4.285   9.798   7.455  1.4374  0.9211  1.6367
20086SOL     OW71911   7.062   1.526   4.347  0.2690 -0.2091 -0.0323
20086SOL    HW171912   7.149   1.490   4.379 -0.2736 -0.3250  1.3692
20086SOL    HW271913   6.991   1.456   4.359 -0.5136  0.7932  1.3654
20087SOL     OW71914   8.901   2.132   3.754  0.6902  0.2619 -0.4201
20087SOL    HW171915   8.926   2.083   3.837  0.2145  2.8103  1.2791
20087SOL    HW271916   8.851   2.215   3.778  0.0535  0.7685 -3.2943
20088SOL     OW71917   5.773   9.971   3.569  0.4143 -0.3604  0.6646
20088SOL    HW171918   5.779   9.882   3.525  1.6736 -1.6543  3.2837
20088SOL    HW271919   5.865  10.004   3.590 -0.0528  1.4193  0.0329
20089SOL     OW71920   2.812   1.052   1.509 -0.2453  0.1415  0.5340
20089SOL    HW171921   2.866   1.053   1.593  1.5231  0.2534 -0.5859
20089SOL    HW271922   2.803   0.957   1.477 -2.2914 -0.1031  1.6651
20090SOL     OW71923   9.839   4.983   1.240  0.2450 -0.2383  0.5214
20090SOL    HW171924   9.880   5.048   1.177 -1.7810 -0.1079 -0.7142
20090SOL    HW271925   9.901   4.906   1.253  2.3222  1.5473  1.3938
20091SOL     OW71926   6.143   2.530   0.675 -0.0345 -0.1768  0.6230
20091SOL    HW171927   6.215   2.494   0.735  0.4515  1.8789  1.3238
20091SOL    HW271928   6.176   2.614   0.632 -1.3810 -0.1898 -0.4300
20092SOL     OW71929   4.742   9.713   4.353  0.0611  0.1382  0.2154
20092SOL    HW171930   4.777   9.774   4.282 -0.0282  0.3166  0.3278
20092SOL    HW271931   4.807   9.638   4.367  1.5023  1.6848  2.0373
20093SOL     OW71932   8.778   2.490   2.363 -0.3026 -0.2517 -0.1588
20093SOL    HW171933   8.721   2.423   2.316 -0.5299  0.8680 -1.5235
20093SOL    HW271934   8.763   2.581   2.323 -0.6431  0.7669  2.2278
20094SOL     OW71935   8.213   4.419   0.999  0.2353  0.0758 -0.0904
20094SOL    HW171936   8.134   4.361   0.982  2.1021 -2.5420 -0.0430
20094SOL    HW271937   8.257   4.442   0.912  0.4941  0.0019  0.0218
20095SOL     OW71938   7.326   6.004   2.971  0.2447  0.0892 -0.0513
20095SOL    HW171939   7.341   5.911   3.004  2.3227  0.9765  1.6090
20095SOL    HW271940   7.372   6.016   2.882 -0.0620 -0.4612 -0.2873
20096SOL     OW71941   6.939   5.576   7.196 -0.7941  0.4651 -0.0859
20096SOL    HW171942   6.882   5.654   7.220  0.3595  0.8921  1.3617
20096SOL    HW271943   6.941   5.565   7.096 -4.3893 -0.3503 -0.1146
20097SOL     OW71944   5.086   7.018   3.948 -0.3293  0.0042  0.5988
20097SOL    HW171945   5.163   7.082   3.947  0.8047 -1.3579  0.9280
20097SOL    HW271946   5.076   6.979   4.040 -0.9619 -0.3650  0.3754
20098SOL     OW71947   7.388   7.647   4.415  0.1371 -0.0337  0.8751
20098SOL    HW171948   7.430   7.738   4.423  0.2875  0.2252 -2.3130
20098SOL    HW271949   7.330   7.631   4.495 -0.8634  3.3978  0.9356
20099SOL     OW71950   2.897   5.196   5.135 -0.5375  0.1052  0.6350
20099SOL    HW171951   2.826   5.133   5.166 -1.4161  1.3167  1.1102
20099SOL    HW271952   2.987   5.155   5.151 -1.1122 -1.5216 -0.1528
20100SOL     OW71953   8.366   4.014   0.275 -0.0272 -0.1806  0.3439
20100SOL    HW171954   8.356   3.962   0.359  1.7609  1.8609  1.8573
20100SOL    HW271955   8.282   4.065   0.257 -0.0261  0.1894  1.4218
20101SOL     OW71956   7.113   0.555   6.025 -0.0394  0.5313 -0.7228
20101SOL    HW171957   7.097   0.619   5.949  2.8247  0.3588 -1.5358
20101SOL    HW271958   7.160   0.474   5.990  0.5474  0.0696  1.1196
20102SOL     OW71959   8.860   0.091   4.256  0.0908 -0.0492  0.1861
20102SOL    HW171960   8.947   0.140   4.252  0.1466  0.0263  1.9933
20102SOL    HW271961   8.785   0.157   4.251  0.1176 -0.1216 -1.4722
20103SOL     OW71962   1.283   4.820   3.042  0.6085  0.3145 -0.3972
20103SOL    HW171963   1.230   4.902   3.065 -1.6885 -0.6350 -1.9976
20103SOL    HW271964   1.341   4.840   2.963  1.1215  0.7957  0.0974
20104SOL     OW71965   2.352   9.370   1.758  0.0373 -0.3978 -0.1408
20104SOL    HW171966   2.291   9.357   1.836  0.6335 -0.7532  0.2618
20104SOL    HW271967   2.434   9.420   1.787  0.3937 -0.7804 -0.4812
20105SOL     OW71968   1.010   6.913   4.979  0.1093 -0.1058 -0.3949
20105SOL    HW171969   0.992   7.009   4.999  0.2678 -0.1937  0.1725
20105SOL    HW271970   0.951   6.883   4.903 -1.9796 -0.3334  1.2636
20106SOL     OW71971   1.024   2.851   6.615 -0.0584 -0.0210 -0.1031
20106SOL    HW171972   1.059   2.919   6.551 -1.8489  0.2817 -0.7977
20106SOL    HW271973   1.096   2.786   6.638  0.8609  0.3914 -1.7551
20107SOL     OW71974   3.119   6.963   5.607 -0.4283 -0.1511 -0.0861
20107SOL    HW171975   3.027   6.991   5.636 -0.1696 -0.0380  0.6392
20107SOL    HW271976   3.171   6.931   5.687  0.7610  1.4846 -0.1795
20108SOL     OW71977   0.544   1.318   6.903  0.0485  0.2083  1.1192
20108SOL    HW171978   0.527   1.383   6.829 -0.3665 -1.7121 -0.5228
20108SOL    HW271979   0.560   1.368   6.988 -0.0805  2.4460 -0.1245
20109SOL     OW71980   9.050   2.328   5.764  0.3832  0.2799  0.3467
20109SOL    HW171981   9.148   2.345   5.761  0.5485 -0.2340  2.0805
20109SOL    HW271982   9.009   2.380   5.839 -0.9103  1.5716 -1.2093
20110SOL     OW71983   0.580   7.075   6.063  0.3236  0.6958 -0.3205
20110SOL    HW171984   0.664   7.128   6.069 -0.6363  2.1503  0.6319
20110SOL    HW271985   0.602   6.977   6.062  1.9825  1.0384  0.7068
20111SOL     OW71986   0.560   4.213   2.192  0.4303 -0.0676  0.1747
20111SOL    HW171987   0.634   4.255   2.243  0.4608  2.4513 -1.8306
20111SOL    HW271988   0.473   4.227   2.240  0.3540  2.9477 -0.7629
20112SOL     OW71989   8.666   3.520   4.893  0.6721 -0.3137  0.8517
20112SOL    HW171990   8.671   3.498   4.990  0.6678 -1.4884  0.5916
20112SOL    HW271991   8.732   3.465   4.842  0.0223 -0.3836  0.0726
20113SOL     OW71992   9.044   3.595   3.468 -0.1407 -0.1638 -0.0761
20113SOL    HW171993   9.080   3.521   3.525 -1.3451 -0.5228  0.2346
20113SOL    HW271994   9.013   3.558   3.380 -0.1977  0.0534 -0.1486
20114SOL     OW71995   6.535   8.145   6.829 -0.1207 -0.2131  0.3048
20114SOL    HW171996   6.469   8.123   6.757  0.5006  2.5601 -1.1635
20114SOL    HW271997   6.486   8.166   6.914 -1.2384  2.4503 -0.9371
20115SOL     OW71998   5.416   2.934   6.045 -0.1041  0.6539  0.4846
20115SOL    HW171999   5.374   2.844   6.036 -0.7831  0.9575  0.6107
20115SOL    HW272000   5.516   2.924   6.042 -0.1858 -0.0065 -0.3270
20116SOL     OW72001   6.625   1.004   4.070 -0.1918  0.1760  0.5846
20116SOL    HW172002   6.557   1.034   4.003 -0.8453 -1.1937  0.6403
20116SOL    HW272003   6.580   0.977   4.155  0.3065 -1.9423  0.1907
20117SOL     OW72004   9.060   1.094   2.073  0.1091 -0.1616  0.0677
20117SOL    HW172005   9.110   1.026   2.020 -2.0325 -1.7203 -0.0243
20117SOL    HW272006   9.091   1.093   2.168 -0.1078 -1.4818  0.1289
20118SOL     OW72007   3.549   2.662   4.315 -0.1007  0.3793  0.1735
20118SOL    HW172008   3.480   2.711   4.367  0.0689  0.9367 -0.1164
20118SOL    HW272009   3.509   2.627   4.230  0.0802  1.1063 -0.2181
20119SOL     OW72010   0.275   3.973   2.519 -0.1964 -0.3851 -0.3303
20119SOL    HW172011   0.283   4.051   2.456  1.6284  1.9886  2.7356
20119SOL    HW272012   0.182   3.970   2.557 -0.4015 -0.0068 -0.8008
20120SOL     OW72013   1.058   6.241   4.891 -0.3599  0.1850 -0.8584
20120SOL    HW172014   0.971   6.192   4.892 -0.5124  0.3585  3.0381
20120SOL    HW272015   1.132   6.177   4.867 -1.2644 -0.4809 -1.9155
20121SOL     OW72016   6.900   1.001   1.687 -0.5007  0.2188 -0.6816
20121SOL    HW172017   6.997   0.978   1.689 -0.2659  0.8798 -2.9267
20121SOL    HW272018   6.846   0.917   1.697  0.2652 -0.0637  1.3728
20122SOL     OW72019   8.133   2.063   6.260  0.1591  0.1534 -0.1346
20122SOL    HW172020   8.109   2.160   6.265 -0.6516  0.0594 -1.9306
20122SOL    HW272021   8.180   2.045   6.174  1.6463 -0.7725  0.8591
20123SOL     OW72022   4.457   3.380   1.524  0.1420  0.2991  0.0850
20123SOL    HW172023   4.516   3.448   1.481  2.6504 -1.1332  1.1063
20123SOL    HW272024   4.501   3.347   1.608 -2.4506 -0.3583  1.2249
20124SOL     OW72025   7.354   8.010   1.990 -0.6717  0.4141  0.3753
20124SOL    HW172026   7.341   8.083   2.057 -1.1386 -0.6964  1.5089
20124SOL    HW272027   7.451   7.989   1.981 -0.5600  0.9925  0.2397
20125SOL     OW72028   9.214   9.784   5.847 -0.3658 -0.0585 -0.2843
20125SOL    HW172029   9.265   9.725   5.784 -0.3740 -1.6956  1.1794
20125SOL    HW272030   9.234   9.756   5.941  2.1147  4.3304  0.6077
20126SOL     OW72031   4.053   4.702   3.824  0.0412 -0.0729  0.0544
20126SOL    HW172032   4.149   4.694   3.849  0.3380  0.1661 -0.9680
20126SOL    HW272033   4.008   4.770   3.882  0.7920  0.7250 -0.2855
20127SOL     OW72034   4.837   2.741   0.149 -0.0263  0.3104  0.7758
20127SOL    HW172035   4.738   2.730   0.140  0.1507 -1.2219  0.6180
20127SOL    HW272036   4.875   2.661   0.195  1.5220 -0.4017 -1.6993
20128SOL     OW72037   8.220   5.756   2.952  0.6729 -0.1118  0.5144
20128SOL    HW172038   8.238   5.814   2.873 -1.8099 -0.2952 -0.2519
20128SOL    HW272039   8.254   5.664   2.934 -1.2336 -0.5580 -1.0436
20129SOL     OW72040   1.727   7.475   6.535 -0.4687  0.1659  0.3766
20129SOL    HW172041   1.810   7.419   6.534 -0.6836 -0.1565  0.5624
20129SOL    HW272042   1.686   7.473   6.626 -1.2290 -0.4913  0.0336
20130SOL     OW72043   5.740   9.631   1.629  0.2529  0.3277  0.2103
20130SOL    HW172044   5.658   9.673   1.589 -0.4795 -1.9004 -0.7237
20130SOL    HW272045   5.781   9.570   1.562  2.4837  1.1385  0.8228
20131SOL     OW72046   6.507   9.711   4.650  0.0772 -0.2307 -0.2819
20131SOL    HW172047   6.527   9.632   4.708  1.5108 -0.5838 -1.2215
20131SOL    HW272048   6.575   9.782   4.667  0.1323 -0.0931 -1.0708
20132SOL     OW72049   7.625   5.303   2.589  0.1764 -0.1820  0.0407
20132SOL    HW172050   7.545   5.244   2.574 -1.2448  1.7781 -0.3611
20132SOL    HW272051   7.604   5.369   2.661  2.3708 -1.2379  1.7021
20133SOL     OW72052   5.869   8.320   6.807 -0.2643 -0.1658 -0.0484
20133SOL    HW172053   5.868   8.417   6.781 -1.6137 -0.7248 -2.2188
20133SOL    HW272054   5.819   8.309   6.893 -3.1556  0.6342 -1.5668
20134SOL     OW72055   1.122   0.935   0.884 -0.8063 -0.1208  0.6849
20134SOL    HW172056   1.160   0.924   0.977 -1.0360  1.1638  0.9343
20134SOL    HW272057   1.078   1.024   0.876 -1.7380 -0.6645 -0.3412
20135SOL     OW72058   7.050   1.928   5.257 -0.4111 -0.0455 -0.4456
20135SOL    HW172059   6.980   1.913   5.326 -1.4922  0.7360 -1.3510
20135SOL    HW272060   7.103   2.010   5.281  0.0431 -0.4990  0.1116
20136SOL     OW72061   5.577   5.962   1.124  0.1322  0.0194  0.0144
20136SOL    HW172062   5.650   5.990   1.188 -0.8843 -0.3569  1.3557
20136SOL    HW272063   5.599   5.872   1.087 -0.0082 -0.4323  1.0010
20137SOL     OW72064   1.189   9.592   4.885  0.2202 -0.3498  0.4618
20137SOL    HW172065   1.108   9.603   4.828  1.4452  0.8122 -1.0761
20137SOL    HW272066   1.270   9.583   4.827  1.5747  1.5173  1.9987
20138SOL     OW72067   4.529   1.564   4.909  0.3023  0.5243  0.0127
20138SOL    HW172068   4.511   1.506   4.829 -2.7143  0.6957  0.5131
20138SOL    HW272069   4.590   1.516   4.972 -0.0577 -1.0528 -0.8195
20139SOL     OW72070   7.822   2.274   3.835 -0.0615 -0.0540  0.2641
20139SOL    HW172071   7.740   2.293   3.890 -0.5872 -1.1295 -0.1320
20139SOL    HW272072   7.903   2.303   3.886 -0.5937 -0.3119  1.2835
20140SOL     OW72073   7.885   9.794   4.024  0.3631  0.1120 -0.2167
20140SOL    HW172074   7.818   9.754   3.962 -0.6306 -0.4897  1.2157
20140SOL    HW272075   7.887   9.893   4.012  1.3379 -0.1287 -2.3089
20141SOL     OW72076   4.001   9.045   5.522  0.4444  0.2197 -0.1588
20141SOL    HW172077   4.024   9.004   5.610  0.1482  0.5373  0.0652
20141SOL    HW272078   3.919   9.101   5.531 -2.1180 -3.1110 -1.5247
20142SOL     OW72079   6.664   9.641   7.564  0.2059  0.3476 -0.8955
20142SOL    HW172080   6.618   9.702   7.500 -2.3317 -0.2410  0.3074
20142SOL    HW272081   6.712   9.695   7.633  0.2940  0.9804 -1.4455
20143SOL     OW72082   3.242   9.628   7.102 -0.2240  0.3305 -0.1277
20143SOL    HW172083   3.232   9.724   7.074  1.6627  0.8661  0.9241
20143SOL    HW272084   3.316   9.621   7.169 -2.1133 -1.4830  1.8114
20144SOL     OW72085   2.867   7.666   2.021 -0.0323 -0.2522  0.4482
20144SOL    HW172086   2.884   7.664   1.923  0.7203  0.9232  0.5459
20144SOL    HW272087   2.826   7.753   2.046  0.9800 -0.0294  1.3687
20145SOL     OW72088   0.777   3.125   6.121  0.7139  0.1453  0.0166
20145SOL    HW172089   0.690   3.170   6.143  0.9843  0.2968  0.7881
20145SOL    HW272090   0.852   3.174   6.165  1.2610  0.4141 -1.2097
20146SOL     OW72091   0.787   5.377   0.141  0.4054 -0.3834  0.0923
20146SOL    HW172092   0.743   5.464   0.165 -0.2486 -0.8969  0.8012
20146SOL    HW272093   0.830   5.384   0.051 -0.7597  0.2830 -0.4217
20147SOL     OW72094   3.021   6.068   6.797 -0.2416  0.3351 -0.6224
20147SOL    HW172095   3.064   6.091   6.885 -0.9850 -2.4972  0.5159
20147SOL    HW272096   3.016   6.151   6.741  2.8982  1.6140  0.8198
20148SOL     OW72097   2.800   6.354   5.308  0.2294 -0.0371  0.5978
20148SOL    HW172098   2.797   6.278   5.374 -1.3282  0.5170  1.1984
20148SOL    HW272099   2.889   6.399   5.313  0.5784 -0.7957  1.4357
20149SOL     OW72100   8.329   9.455   6.978 -0.2647 -0.1908  0.2258
20149SOL    HW172101   8.303   9.510   6.898  1.9390 -0.3196 -0.6214
20149SOL    HW272102   8.318   9.510   7.061 -1.3846  0.3569 -0.2668
20150SOL     OW72103   8.548   5.104   7.275  0.5892  0.2042  0.2800
20150SOL    HW172104   8.583   5.177   7.334 -0.0236  1.2754 -0.6606
20150SOL    HW272105   8.603   5.099   7.192 -0.2190  0.5316 -0.2857
20151SOL     OW72106   3.449   7.362   5.896 -0.1305 -0.6232 -0.3570
20151SOL    HW172107   3.495   7.423   5.831 -0.9063  0.1087 -0.2335
20151SOL    HW272108   3.384   7.304   5.848  1.3084 -2.0732 -0.6162
20152SOL     OW72109   1.253   8.534   5.166  0.3402 -0.7984 -0.1902
20152SOL    HW172110   1.297   8.506   5.081 -0.3313 -0.4141 -0.6620
20152SOL    HW272111   1.179   8.597   5.147  1.1518  0.4893  0.7895
20153SOL     OW72112   2.672   2.723   0.001  0.0356  0.0830  1.0051
20153SOL    HW172113   2.770   2.722   0.018 -0.0450 -0.6480  1.4512
20153SOL    HW272114   2.644   2.814  -0.030  0.4202  1.0575  3.4510
20154SOL     OW72115   0.416   4.862   1.047 -0.2614  0.0085 -0.3380
20154SOL    HW172116   0.407   4.960   1.033 -0.0556  0.2726  1.2343
20154SOL    HW272117   0.505   4.831   1.014  0.6878  0.8080  1.3964
20155SOL     OW72118   8.093   5.564   6.436  0.0961  0.8772 -0.1039
20155SOL    HW172119   8.002   5.567   6.396 -0.5898 -0.4730  1.2922
20155SOL    HW272120   8.093   5.612   6.523  0.9521  1.6203 -0.5013
20156SOL     OW72121   9.470   9.100   5.401  0.3109  0.3682  0.3819
20156SOL    HW172122   9.482   9.113   5.303 -0.1412  1.6108  0.4774
20156SOL    HW272123   9.546   9.048   5.438 -0.2028 -1.3040 -0.8650
20157SOL     OW72124   7.453   6.573   6.674 -0.3884 -0.2639  0.0763
20157SOL    HW172125   7.385   6.605   6.608 -1.4421  0.0015  1.2787
20157SOL    HW272126   7.442   6.622   6.761  2.3536  0.9366 -0.1837
20158SOL     OW72127   4.558   1.067   1.020 -0.2747 -0.2272 -0.2468
20158SOL    HW172128   4.564   1.010   1.102  0.2140 -2.1481 -1.5852
20158SOL    HW272129   4.535   1.009   0.941  2.6420  1.0073 -2.0968
20159SOL     OW72130   7.099   4.450   0.128 -0.5483 -0.1175 -0.5633
20159SOL    HW172131   7.128   4.536   0.170 -1.9463  0.5805 -1.0143
20159SOL    HW272132   7.079   4.465   0.032 -0.9777 -0.9052 -0.5984
20160SOL     OW72133   2.091   3.199   5.691 -0.1666  0.1998 -0.5329
20160SOL    HW172134   2.081   3.154   5.780 -0.1993  0.6487 -0.3103
20160SOL    HW272135   2.029   3.277   5.686 -0.3641  0.0163 -1.0545
20161SOL     OW72136   6.851   9.722   6.022  0.2578 -0.1652  0.5190
20161SOL    HW172137   6.834   9.644   6.084 -0.6209 -1.6716 -1.5503
20161SOL    HW272138   6.763   9.756   5.988  0.8301 -0.8588 -1.6967
20162SOL     OW72139   3.797   0.295   1.327 -0.0274  0.3809 -0.4477
20162SOL    HW172140   3.827   0.272   1.234  1.1783  1.2008 -0.2642
20162SOL    HW272141   3.873   0.334   1.378 -1.6652  3.5629 -0.3352
20163SOL     OW72142   9.746   3.324   2.850 -0.2064  0.0550  0.4503
20163SOL    HW172143   9.811   3.388   2.808 -0.2079 -0.2023  0.0519
20163SOL    HW272144   9.790   3.276   2.926  0.8709 -1.9473 -1.3880
20164SOL     OW72145   1.942   4.276   4.291  0.8642 -0.2897  0.0600
20164SOL    HW172146   2.006   4.200   4.299  1.8662  0.7108  1.8486
20164SOL    HW272147   1.849   4.242   4.306  1.2163 -1.3266 -0.0637
20165SOL     OW72148   7.091   0.407   4.717 -0.4579  0.4933 -0.0258
20165SOL    HW172149   6.996   0.377   4.711 -0.7277  1.2888  0.3049
20165SOL    HW272150   7.151   0.336   4.678 -1.2770  0.5765 -1.4740
20166SOL     OW72151   3.257   9.304   0.923 -0.0404  0.8248 -0.3830
20166SOL    HW172152   3.347   9.318   0.964 -0.4365 -2.5302  1.7477
20166SOL    HW272153   3.268   9.261   0.833  0.4327 -1.3271  0.6894
20167SOL     OW72154   1.222   9.666   2.110  0.6253 -0.7630  0.0672
20167SOL    HW172155   1.182   9.753   2.136  1.0272 -0.3669 -0.6202
20167SOL    HW272156   1.176   9.631   2.028  1.0580 -0.7541 -0.1830
20168SOL     OW72157   9.582   9.928   4.384  0.5876 -0.2317  0.6295
20168SOL    HW172158   9.552   9.834   4.366  0.2318 -0.0848  0.4342
20168SOL    HW272159   9.630   9.931   4.472  0.1715 -0.5094  0.8717
20169SOL     OW72160   0.367   9.247   2.590  0.2169 -0.1076  0.3479
20169SOL    HW172161   0.462   9.247   2.621  0.1759  0.7998  0.4776
20169SOL    HW272162   0.349   9.330   2.537 -1.2630  1.1200  2.6879
20170SOL     OW72163   7.958   9.515   3.167 -0.8389  0.1032 -0.4592
20170SOL    HW172164   7.956   9.421   3.131  0.6340 -0.2074  0.2326
20170SOL    HW272165   8.036   9.563   3.128  0.0281  0.1628  1.3387
20171SOL     OW72166   5.672   9.151   7.084 -0.4629  0.3890 -0.7438
20171SOL    HW172167   5.593   9.176   7.140 -1.3135 -0.5067 -1.5355
20171SOL    HW272168   5.669   9.053   7.062  1.1685  0.2276 -0.3080
20172SOL     OW72169   3.948   3.631   5.342 -0.6747  0.1436  0.1495
20172SOL    HW172170   3.872   3.639   5.278 -0.8463 -1.5600  0.1087
20172SOL    HW272171   3.928   3.559   5.408  2.2586 -2.6650 -1.8439
20173SOL     OW72172   1.222   5.279   1.636 -0.0441  0.0600  0.0296
20173SOL    HW172173   1.228   5.193   1.685 -0.0481 -0.1778 -0.3867
20173SOL    HW272174   1.127   5.294   1.607 -0.2699  0.7540  1.0918
20174SOL     OW72175   0.394   7.433   4.968  0.6306  0.2784 -0.7319
20174SOL    HW172176   0.332   7.511   4.973 -1.8557 -1.5719 -1.4602
20174SOL    HW272177   0.430   7.412   5.059 -2.0185 -0.3102  0.2099
20175SOL     OW72178   9.152   0.164   1.114 -0.8412  0.0469 -0.6711
20175SOL    HW172179   9.232   0.182   1.057  0.2277 -0.7088  0.5841
20175SOL    HW272180   9.181   0.125   1.201 -2.4222  1.6828  0.6179
20176SOL     OW72181   9.538   6.094   2.592 -0.5650  0.0126 -0.1942
20176SOL    HW172182   9.498   6.167   2.536 -2.1631 -1.2785 -0.7429
20176SOL    HW272183   9.636   6.114   2.606 -1.1815  2.7946  0.5432
20177SOL     OW72184   2.810   7.154   4.917 -0.2159 -0.0719 -0.1302
20177SOL    HW172185   2.732   7.157   4.979 -0.5630 -0.9487 -0.5107
20177SOL    HW272186   2.809   7.233   4.857 -1.6777 -0.8751 -1.1671
20178SOL     OW72187   3.433   2.600   1.932  0.1977  0.1219 -0.1917
20178SOL    HW172188   3.495   2.677   1.948 -0.0693  0.7821 -2.1949
20178SOL    HW272189   3.415   2.592   1.834 -0.6839 -1.7973  0.1152
20179SOL     OW72190   2.354   0.436   2.252 -0.4220  0.1062 -0.7151
20179SOL    HW172191   2.371   0.534   2.247  1.2363 -0.1053  0.4191
20179SOL    HW272192   2.400   0.389   2.177 -0.2829  0.0703 -0.6064
20180SOL     OW72193   9.590   9.336   7.510 -0.1155  0.1162 -0.1908
20180SOL    HW172194   9.506   9.336   7.563  1.3270  1.6146  2.1901
20180SOL    HW272195   9.573   9.377   7.420 -1.8244  0.8105  0.4228
20181SOL     OW72196   3.556   9.517   0.837 -0.3520 -0.0214 -0.1943
20181SOL    HW172197   3.471   9.483   0.797 -0.4679 -0.5003  0.4641
20181SOL    HW272198   3.570   9.476   0.926 -0.9230  2.3049  1.0060
20182SOL     OW72199   8.745   4.911   5.628  0.3632 -0.2044 -0.3209
20182SOL    HW172200   8.746   4.947   5.721 -0.3924  2.7732 -1.4147
20182SOL    HW272201   8.669   4.846   5.619 -0.3476  0.4383  0.8163
20183SOL     OW72202   8.444   8.282   6.043  0.1228  0.1848 -0.0072
20183SOL    HW172203   8.444   8.262   5.945 -0.5828  0.2178 -0.0215
20183SOL    HW272204   8.412   8.376   6.057  2.9875  1.1720  0.0826
20184SOL     OW72205   2.306   4.661   3.803 -0.4352  0.4040 -0.0959
20184SOL    HW172206   2.213   4.660   3.840 -0.6119  1.0730 -0.5253
20184SOL    HW272207   2.303   4.687   3.707  0.1598  0.0283 -0.2154
20185SOL     OW72208   6.544   9.435   8.150 -0.3627 -0.1643  0.2970
20185SOL    HW172209   6.637   9.469   8.135 -0.6566  0.5646  0.1152
20185SOL    HW272210   6.480   9.485   8.092 -0.7347 -1.4525 -0.4326
20186SOL     OW72211   7.358   1.659   2.078 -0.1167  0.1247 -0.2987
20186SOL    HW172212   7.455   1.682   2.073  0.0635 -0.6973 -0.6834
20186SOL    HW272213   7.306   1.719   2.018  0.2557  0.0283 -0.7194
20187SOL     OW72214   6.994   5.654   0.816 -0.2376 -0.2815  0.2777
20187SOL    HW172215   6.942   5.714   0.876  0.0333  0.4671 -0.2358
20187SOL    HW272216   6.936   5.625   0.739 -0.5202 -1.0737  0.7813
20188SOL     OW72217   9.029   5.874   3.492 -0.2225  0.8142 -0.3794
20188SOL    HW172218   8.981   5.867   3.579  0.5021  0.1354 -0.0375
20188SOL    HW272219   9.028   5.970   3.461 -3.0866  0.5950 -1.1093
20189SOL     OW72220   0.048   4.974   6.298 -0.0520  0.4650  0.2448
20189SOL    HW172221  -0.023   4.955   6.230 -0.9741  1.5272  0.9063
20189SOL    HW272222   0.137   4.978   6.252 -0.2746 -1.8117 -0.4396
20190SOL     OW72223   2.511   2.837   0.552  0.2239  0.3477  0.0320
20190SOL    HW172224   2.611   2.846   0.558  0.3377  0.7905 -2.2110
20190SOL    HW272225   2.470   2.859   0.641  2.1114  0.2369  0.9521
20191SOL     OW72226   0.784   0.627   1.966 -0.0037  0.0294  0.0171
20191SOL    HW172227   0.699   0.621   2.020 -0.4567  0.3426 -0.6481
20191SOL    HW272228   0.821   0.535   1.952  0.4356 -0.0043  1.3584
20192SOL     OW72229   2.599   9.436   0.053 -0.3040 -0.1911  0.2586
20192SOL    HW172230   2.626   9.344   0.082 -0.5535 -0.2048  0.4542
20192SOL    HW272231   2.674   9.479   0.003 -0.4445 -0.7757 -0.4622
20193SOL     OW72232   4.357   2.016   6.475 -0.5143 -0.1984  0.2958
20193SOL    HW172233   4.313   2.014   6.386  1.4771  0.5999 -0.7486
20193SOL    HW272234   4.309   2.079   6.535 -2.7938 -1.8824  0.3213
20194SOL     OW72235   8.406   5.587   2.361 -0.0738 -0.6472 -0.1444
20194SOL    HW172236   8.314   5.556   2.385 -0.2679  1.5725  2.2034
20194SOL    HW272237   8.472   5.546   2.423  0.0289  1.0631  0.8887
20195SOL     OW72238   4.908   7.571   3.023 -0.2186  0.0413 -0.3304
20195SOL    HW172239   4.830   7.567   3.085  1.3073 -0.4849  1.6582
20195SOL    HW272240   4.941   7.478   3.006 -0.2753  0.2282 -1.4833
20196SOL     OW72241   0.997   4.534   6.961  0.2394 -0.1961 -0.2690
20196SOL    HW172242   0.950   4.620   6.941 -1.8414 -0.9408  1.2547
20196SOL    HW272243   0.942   4.458   6.927  0.2578 -1.0984  1.6455
20197SOL     OW72244   1.194   3.166   5.703 -0.1385 -0.5068 -0.2777
20197SOL    HW172245   1.154   3.230   5.637 -1.8283  0.2255  1.4026
20197SOL    HW272246   1.125   3.098   5.730  0.2641 -0.3009  1.3365
20198SOL     OW72247   2.646   9.921   6.691  0.6474  0.2761  0.0969
20198SOL    HW172248   2.734   9.874   6.694  0.3674 -0.2809 -0.4111
20198SOL    HW272249   2.584   9.873   6.628 -0.4772 -0.1152  1.4765
20199SOL     OW72250   3.902   2.988   6.358  0.0002 -0.4815  0.2019
20199SOL    HW172251   3.965   2.911   6.368 -0.7403 -0.9619  1.2468
20199SOL    HW272252   3.808   2.954   6.358 -0.3179  0.3897  0.2725
20200SOL     OW72253   3.856   1.916   3.968 -0.2307 -0.3832 -0.2007
20200SOL    HW172254   3.852   1.939   3.871  1.5006 -1.4604 -0.5419
20200SOL    HW272255   3.919   1.977   4.015  0.2108 -0.9350 -0.0729
20201SOL     OW72256   1.152   2.086   5.674  0.3238  0.0281 -0.6342
20201SOL    HW172257   1.106   2.026   5.608 -0.0654 -0.6643  0.2508
20201SOL    HW272258   1.187   2.030   5.750 -1.5126  1.1154  1.0447
20202SOL     OW72259   9.023   5.745   2.625 -0.1949  0.1864  0.3933
20202SOL    HW172260   8.949   5.803   2.660  0.3925  0.3672  1.3316
20202SOL    HW272261   9.104   5.801   2.608  0.0700 -0.1947  0.3946
20203SOL     OW72262   6.160   0.831   0.918  0.2792  0.2195 -0.3565
20203SOL    HW172263   6.105   0.759   0.960  1.2638  0.4497  1.3884
20203SOL    HW272264   6.187   0.803   0.826  0.6754 -1.6712  0.2999
20204SOL     OW72265   3.787   4.943   5.889  0.4436 -0.1742  0.6251
20204SOL    HW172266   3.811   4.857   5.935 -0.2078 -0.6655  0.0554
20204SOL    HW272267   3.725   4.924   5.813  0.8259  0.7298  0.0772
20205SOL     OW72268   0.713   9.760   6.154  0.4194  0.0947 -0.2744
20205SOL    HW172269   0.769   9.708   6.090  0.5500 -0.2864  0.1483
20205SOL    HW272270   0.756   9.760   6.244  0.4158  0.9229 -0.2691
20206SOL     OW72271   1.336   3.047   4.779 -0.2132 -0.3069 -0.2325
20206SOL    HW172272   1.379   2.961   4.805 -0.0226 -0.2991 -0.5181
20206SOL    HW272273   1.373   3.121   4.834 -0.0674 -0.3442 -0.2806
20207SOL     OW72274   3.503   1.297   4.459  0.7263  0.5599  0.1123
20207SOL    HW172275   3.491   1.295   4.559 -0.3384  0.8852 -0.0028
20207SOL    HW272276   3.489   1.390   4.426  0.5188  0.3433 -0.4094
20208SOL     OW72277   7.714   8.238   7.925  0.8590  0.5862 -0.5138
20208SOL    HW172278   7.759   8.265   7.840 -1.8100 -1.6966 -2.7420
20208SOL    HW272279   7.707   8.138   7.929  1.6443  0.6017  2.8060
20209SOL     OW72280   9.104   9.312   1.935  0.5811 -0.2439  0.2102
20209SOL    HW172281   9.031   9.299   2.002  0.6689  0.5528  0.4665
20209SOL    HW272282   9.176   9.370   1.974 -0.6890  2.6505 -1.5089
20210SOL     OW72283   5.491   8.839   3.726  0.0621 -0.1700  0.4709
20210SOL    HW172284   5.431   8.859   3.648  0.3187  0.3132  0.3972
20210SOL    HW272285   5.500   8.920   3.783  0.3922 -0.3367  0.6593
20211SOL     OW72286   0.883   7.166   0.986 -0.2544  0.1821 -0.4615
20211SOL    HW172287   0.806   7.229   0.992 -0.0102  0.4028  0.3610
20211SOL    HW272288   0.966   7.217   0.961 -0.0856  0.1618  0.0616
20212SOL     OW72289   5.231   9.195   8.413  0.2762 -0.2033  0.0021
20212SOL    HW172290   5.166   9.129   8.450  1.3370 -0.4100  1.5361
20212SOL    HW272291   5.271   9.159   8.329  0.8277 -1.5131  0.8133
20213SOL     OW72292   1.595   8.609   7.028 -0.2299 -0.1274 -0.5929
20213SOL    HW172293   1.624   8.540   7.094  0.7314  0.8616  0.0315
20213SOL    HW272294   1.531   8.568   6.963 -1.2315 -1.0970  0.9736
20214SOL     OW72295   5.158   5.923   1.015  0.0489  0.2517  0.2068
20214SOL    HW172296   5.193   5.831   1.035 -0.0702  0.2173  0.2557
20214SOL    HW272297   5.061   5.917   0.989 -0.1649  0.4469  0.9500
20215SOL     OW72298   0.883   5.766   0.367  0.4374 -0.4480  0.1318
20215SOL    HW172299   0.845   5.686   0.415 -1.5385  0.8130  0.7233
20215SOL    HW272300   0.855   5.762   0.271  2.1527 -1.5645 -0.3523
20216SOL     OW72301   5.093   4.897   0.553  0.2417  0.4422  0.7832
20216SOL    HW172302   5.063   4.983   0.595 -0.4237  1.0235 -0.8360
20216SOL    HW272303   5.157   4.916   0.479 -1.0857 -0.3524 -0.5870
20217SOL     OW72304   3.649   5.534   1.428 -0.1379  0.2582  0.6231
20217SOL    HW172305   3.594   5.594   1.371  0.5609 -1.7810 -2.3609
20217SOL    HW272306   3.710   5.588   1.486 -1.2137  2.4069 -0.2157
20218SOL     OW72307   9.202   2.513   4.703  0.0925  0.0931  0.4902
20218SOL    HW172308   9.247   2.511   4.793 -0.2381 -0.8872  0.6389
20218SOL    HW272309   9.140   2.435   4.695 -0.2319  0.4390 -0.4130
20219SOL     OW72310   4.462   5.550   1.236 -0.6421  0.4213 -0.1854
20219SOL    HW172311   4.438   5.456   1.260  0.7054 -0.2053 -1.2349
20219SOL    HW272312   4.498   5.597   1.317 -0.9395 -0.0945  0.2467
20220SOL     OW72313   4.182   2.605   1.027 -0.1267 -0.3158  0.4800
20220SOL    HW172314   4.257   2.545   1.055  0.2109  0.4114  1.1308
20220SOL    HW272315   4.106   2.596   1.092 -0.0052  0.0954  0.6795
20221SOL     OW72316   3.010   3.868   4.582 -0.3145 -0.7525 -0.1550
20221SOL    HW172317   2.914   3.863   4.555 -0.8541  1.6305  1.1740
20221SOL    HW272318   3.016   3.903   4.675  1.8103 -2.2691  0.3223
20222SOL     OW72319   0.355   2.324   6.832 -0.5025 -0.3584 -0.0269
20222SOL    HW172320   0.335   2.284   6.743  0.4702  1.1987 -0.9816
20222SOL    HW272321   0.411   2.407   6.819  1.2213 -1.1302  2.1171
20223SOL     OW72322   1.198   0.751   4.200 -0.0343  0.5162 -0.2223
20223SOL    HW172323   1.190   0.815   4.123  0.4849  1.4025  0.4488
20223SOL    HW272324   1.208   0.803   4.285  2.2840 -0.4609  0.1403
20224SOL     OW72325   2.131   2.479   4.477  0.1793 -0.5053 -0.6658
20224SOL    HW172326   2.209   2.488   4.415 -2.2817  1.4627 -3.6115
20224SOL    HW272327   2.081   2.396   4.456  1.0451 -1.4457  0.8239
20225SOL     OW72328   0.177   2.869   4.731  0.0639 -0.1514 -0.1687
20225SOL    HW172329   0.091   2.855   4.681  1.1156 -1.7144 -1.5837
20225SOL    HW272330   0.158   2.885   4.827 -1.7082 -2.3597 -0.1362
20226SOL     OW72331   3.200   7.882   1.635  0.0014 -0.0174  0.4143
20226SOL    HW172332   3.254   7.909   1.555 -1.5612 -0.7343 -0.9183
20226SOL    HW272333   3.251   7.815   1.688 -0.4976 -2.5456 -2.1446
20227SOL     OW72334   9.058   0.982   7.580  0.1119  0.9237 -0.3857
20227SOL    HW172335   9.026   1.066   7.537  1.0656  1.2884 -0.4046
20227SOL    HW272336   9.113   0.930   7.514  1.2933  1.3177  0.2780
20228SOL     OW72337   2.211   0.460   6.581 -0.1136  0.0010 -0.1288
20228SOL    HW172338   2.183   0.397   6.509  0.2552 -0.8209  0.4445
20228SOL    HW272339   2.130   0.500   6.623 -0.4058 -1.3564  0.6259
20229SOL     OW72340   1.772   0.290   4.218  0.3945 -0.3723 -0.2260
20229SOL    HW172341   1.749   0.268   4.123  3.0085 -0.2702 -0.9096
20229SOL    HW272342   1.809   0.208   4.263  0.4416 -0.0546  0.3138
20230SOL     OW72343   1.957   8.946   1.147 -0.0921  0.8275 -1.1088
20230SOL    HW172344   1.938   8.908   1.238 -0.6755  2.5030 -0.5155
20230SOL    HW272345   2.015   8.882   1.096  0.5037  0.0067  0.5509
20231SOL     OW72346   2.404   3.822   1.273  0.1097 -0.1022  0.4696
20231SOL    HW172347   2.461   3.895   1.235  0.9199 -0.6362  0.6384
20231SOL    HW272348   2.459   3.767   1.335  0.1341 -2.2137 -1.3579
20232SOL     OW72349   0.320   9.838   1.750 -0.1879 -0.7256  0.1823
20232SOL    HW172350   0.220   9.837   1.748 -0.2225 -1.5519  1.6636
20232SOL    HW272351   0.352   9.829   1.844  1.2865  0.1707 -0.2130
20233SOL     OW72352   9.702   1.555   4.808 -0.4089  0.1152 -0.7295
20233SOL    HW172353   9.622   1.556   4.747 -0.6744 -2.7533 -0.5247
20233SOL    HW272354   9.702   1.637   4.864 -1.9487  1.2639 -2.3348
20234SOL     OW72355   7.476   6.657   2.565  0.1742  1.0310  0.3074
20234SOL    HW172356   7.376   6.651   2.576  0.2278  0.4808  0.5015
20234SOL    HW272357   7.501   6.626   2.473  0.2419  0.3982  0.5383
20235SOL     OW72358   0.860   1.360   6.818 -0.4335 -0.1930 -0.1566
20235SOL    HW172359   0.903   1.440   6.861 -0.8184  0.4538 -0.9463
20235SOL    HW272360   0.772   1.342   6.861 -0.6679  0.2499 -0.4451
20236SOL     OW72361   4.612   0.903   0.266 -0.0665 -0.0967  0.3295
20236SOL    HW172362   4.677   0.970   0.301  0.3628 -0.0300 -0.5850
20236SOL    HW272363   4.615   0.821   0.323 -0.5652  0.6283  1.4326
20237SOL     OW72364   9.065   7.060   8.054  0.5845 -0.5062  0.4893
20237SOL    HW172365   8.984   7.035   8.107  1.1587 -1.8195  0.7455
20237SOL    HW272366   9.074   6.999   7.976  1.6778 -0.7608  0.8057
20238SOL     OW72367   2.166   6.683   6.947 -0.7767 -0.0682 -0.2555
20238SOL    HW172368   2.109   6.640   6.877  0.2525 -2.6489  0.4618
20238SOL    HW272369   2.112   6.752   6.995 -2.5288 -0.6889 -1.2635
20239SOL     OW72370   1.237   3.768   7.733  0.0631 -0.1314  0.1704
20239SOL    HW172371   1.330   3.776   7.697 -0.1971  1.7119 -0.1486
20239SOL    HW272372   1.236   3.793   7.830  0.1763 -1.7954  0.6167
20240SOL     OW72373   1.240   5.012   2.091  0.5114  0.2996  0.0294
20240SOL    HW172374   1.303   5.029   2.167 -0.3166 -1.4247  1.1255
20240SOL    HW272375   1.188   4.928   2.108 -1.6584  1.3482 -1.1332
20241SOL     OW72376   6.491   7.379   4.791 -0.2131 -1.3282 -0.4628
20241SOL    HW172377   6.532   7.309   4.732  0.3822  0.0513 -1.7434
20241SOL    HW272378   6.564   7.432   4.835 -0.5771  0.5373 -2.0266
20242SOL     OW72379   3.113   7.046   3.752 -0.3480 -0.5864 -0.0290
20242SOL    HW172380   3.189   7.081   3.698 -0.2762 -1.6973 -0.6551
20242SOL    HW272381   3.030   7.045   3.697 -0.5509 -0.5379  0.2733
20243SOL     OW72382   6.263   9.894   7.744  0.2922  0.1628 -0.1189
20243SOL    HW172383   6.208   9.884   7.827  0.7406  1.2534  0.3282
20243SOL    HW272384   6.317   9.811   7.729 -0.4029 -0.3518  0.2280
20244SOL     OW72385   8.262   8.307   7.443  0.0766  0.5594  0.3513
20244SOL    HW172386   8.238   8.359   7.525 -0.0984 -0.7287  1.1373
20244SOL    HW272387   8.360   8.285   7.445 -0.5101 -2.1418  1.8091
20245SOL     OW72388   5.756   6.384   0.087 -0.0301  0.0094  0.5331
20245SOL    HW172389   5.747   6.468   0.142  1.9659  0.2070  0.6053
20245SOL    HW272390   5.844   6.341   0.107  1.2000  0.6372 -3.2593
20246SOL     OW72391   4.299   8.993   7.778  0.2101  1.0543 -0.2901
20246SOL    HW172392   4.293   8.932   7.856  0.4239 -0.4359 -1.4152
20246SOL    HW272393   4.395   9.007   7.754  0.1610  1.8172 -0.0590
20247SOL     OW72394   6.170   0.574   7.352  0.3280  0.3673 -0.0447
20247SOL    HW172395   6.259   0.592   7.394  1.2733 -3.3137 -0.3813
20247SOL    HW272396   6.177   0.585   7.253 -0.1938  2.2589  0.1037
20248SOL     OW72397   0.245   6.504   2.004 -0.6629 -0.4799 -0.1606
20248SOL    HW172398   0.222   6.539   1.914 -0.7784 -0.5896 -0.1751
20248SOL    HW272399   0.216   6.569   2.074  1.1006  0.4537 -0.2825
20249SOL     OW72400   0.491   9.338   5.187  0.2358 -0.3625  0.0195
20249SOL    HW172401   0.435   9.289   5.253 -0.4511  1.5553  0.8883
20249SOL    HW272402   0.580   9.359   5.226  0.2187 -0.1643 -0.0460
20250SOL     OW72403   1.838   3.234   1.112  0.1474  0.0273  0.0668
20250SOL    HW172404   1.756   3.287   1.093 -0.0369 -0.4773 -0.6013
20250SOL    HW272405   1.903   3.245   1.037 -0.3273 -1.5043 -0.6018
20251SOL     OW72406   2.187   0.247   2.010 -0.2799 -0.0947 -0.2182
20251SOL    HW172407   2.264   0.310   2.021  0.2772 -1.1356  2.1431
20251SOL    HW272408   2.109   0.282   2.061 -0.5864 -0.3360 -0.5200
20252SOL     OW72409   9.969   4.893   1.633  0.0988 -0.3174  0.2852
20252SOL    HW172410   9.926   4.915   1.720 -1.0257 -3.2349  0.5220
20252SOL    HW272411  10.050   4.836   1.650  1.6040  1.5865 -0.4123
20253SOL     OW72412   2.100   0.889   3.925 -0.4930  1.3602 -0.4308
20253SOL    HW172413   2.059   0.809   3.971  1.1474 -0.1590 -1.5633
20253SOL    HW272414   2.148   0.945   3.993 -0.8952  0.9168  0.2319
20254SOL     OW72415   5.026   8.356   2.056  0.1118 -0.2822  0.2271
20254SOL    HW172416   5.000   8.451   2.037  0.2622  0.0655  1.6674
20254SOL    HW272417   5.106   8.332   2.001  0.8242  0.8287  0.7387
20255SOL     OW72418   9.247   7.807   2.603 -0.3395 -0.6104  0.2872
20255SOL    HW172419   9.345   7.785   2.593  0.0816  0.9566  0.9025
20255SOL    HW272420   9.228   7.894   2.558 -1.2301 -0.3528  1.1498
20256SOL     OW72421   4.509   8.292   5.347  0.0247 -0.2055  0.6113
20256SOL    HW172422   4.443   8.339   5.288 -0.4810 -1.0821  0.4652
20256SOL    HW272423   4.483   8.306   5.443  0.4419  0.6350  0.5980
20257SOL     OW72424   3.872   4.541   4.787  0.1169 -0.1212  0.0348
20257SOL    HW172425   3.936   4.502   4.721 -0.0335 -0.0663 -0.1451
20257SOL    HW272426   3.899   4.515   4.879 -0.7605 -1.8044 -0.1593
20258SOL     OW72427   0.941   2.945   0.919 -0.0885 -0.4870  0.1650
20258SOL    HW172428   0.950   2.886   0.999 -0.0182  0.3281  0.7543
20258SOL    HW272429   0.948   3.041   0.946 -1.2545 -0.1523 -0.6394
20259SOL     OW72430   0.877   4.779   0.366 -0.7201  0.4934 -0.4051
20259SOL    HW172431   0.859   4.721   0.446 -0.5943  1.5046  0.3641
20259SOL    HW272432   0.907   4.722   0.290 -2.6478 -0.7124 -0.3084
20260SOL     OW72433   7.445   0.241   6.458  0.0815  0.1851  0.5133
20260SOL    HW172434   7.354   0.209   6.430 -0.2483 -0.2746  2.0313
20260SOL    HW272435   7.514   0.196   6.402 -0.6775  1.7000 -1.6909
20261SOL     OW72436   7.629   0.141   2.774 -0.7812 -0.5906  0.2993
20261SOL    HW172437   7.568   0.072   2.813 -1.2429 -0.6904 -0.5835
20261SOL    HW272438   7.580   0.227   2.761 -0.4389 -0.3478  0.5968
20262SOL     OW72439   4.297   7.902   6.313  0.0498 -0.1455  0.1447
20262SOL    HW172440   4.354   7.958   6.372  0.1691 -0.7872  0.6490
20262SOL    HW272441   4.344   7.885   6.227  1.2291 -1.8300  1.0962
20263SOL     OW72442   6.263   2.095   4.289 -0.3074  0.3716 -0.8759
20263SOL    HW172443   6.350   2.139   4.264  0.3182 -0.2939  0.0906
20263SOL    HW272444   6.237   2.030   4.217  1.2726 -1.2365 -0.0174
20264SOL     OW72445   7.210   5.748   7.025  0.1516  0.4099 -0.6483
20264SOL    HW172446   7.153   5.666   7.019 -0.4564  0.9288 -2.0949
20264SOL    HW272447   7.247   5.771   6.935  1.2433  1.0813 -0.0494
20265SOL     OW72448   4.470   5.674  10.010 -0.4888 -0.0505  0.0719
20265SOL    HW172449   4.390   5.651  10.064  0.2528  0.5899  1.4696
20265SOL    HW272450   4.444   5.733   9.934 -1.3540  0.0578  0.4549
20266SOL     OW72451   0.433   7.092   2.744  0.2299 -0.3263 -0.1749
20266SOL    HW172452   0.417   7.078   2.841 -3.1119 -2.1578 -0.9202
20266SOL    HW272453   0.405   7.184   2.718  0.4741 -0.0793  0.4269
20267SOL     OW72454   1.445   0.195   1.209 -0.2142 -0.2477 -0.3152
20267SOL    HW172455   1.443   0.291   1.239  2.4661 -0.1054 -0.4620
20267SOL    HW272456   1.429   0.191   1.111  0.1176  0.0994 -0.3878
20268SOL     OW72457   9.216   4.954   6.660  0.4294  0.5289  0.1788
20268SOL    HW172458   9.282   4.880   6.667  1.3651  1.2364 -1.0458
20268SOL    HW272459   9.145   4.942   6.730  0.4353 -1.6421 -0.1460
20269SOL     OW72460   8.918   2.635   7.112 -0.4009 -0.0512 -0.2203
20269SOL    HW172461   8.907   2.587   7.199 -0.1555 -1.2318 -0.8334
20269SOL    HW272462   8.935   2.732   7.130 -1.5425 -0.0534  1.0177
20270SOL     OW72463   9.580   9.865   5.753  0.0038  0.5500 -0.2162
20270SOL    HW172464   9.530   9.914   5.824 -0.7496 -0.6351  0.0915
20270SOL    HW272465   9.672   9.844   5.785 -0.2295  0.2977  0.3097
20271SOL     OW72466   1.083   1.776   7.361 -0.1262 -0.4414 -0.5317
20271SOL    HW172467   1.062   1.830   7.279  1.5158 -0.7830 -1.1903
20271SOL    HW272468   1.144   1.829   7.420  0.5420 -1.1059 -0.6269
20272SOL     OW72469   2.923   1.459   4.231  0.2700 -0.1909 -0.2708
20272SOL    HW172470   3.007   1.406   4.221 -0.1424 -1.2839  1.7808
20272SOL    HW272471   2.848   1.398   4.256 -0.8538  0.9740 -0.7326
20273SOL     OW72472   9.958   8.688  10.010  0.1018  0.1741 -0.4585
20273SOL    HW172473   9.904   8.616  10.053  2.2617 -0.4972  1.2373
20273SOL    HW272474   9.987   8.660   9.919  0.3904 -0.8417 -0.0544
20274SOL     OW72475   1.506   6.713   0.161 -0.1651  0.3601 -0.5756
20274SOL    HW172476   1.572   6.638   0.158 -0.0786  0.3092  1.6499
20274SOL    HW272477   1.488   6.746   0.068  1.8314 -0.6241 -1.3383
20275SOL     OW72478   5.650   0.058   4.101 -0.1982  0.5078  0.1976
20275SOL    HW172479   5.657  -0.012   4.031  1.9220  1.5740 -0.6875
20275SOL    HW272480   5.713   0.038   4.176 -0.0476  1.1205  0.2394
20276SOL     OW72481   3.357   8.875   0.711  0.1136  0.0886  0.1646
20276SOL    HW172482   3.397   8.880   0.802 -0.5564  4.8675  0.3349
20276SOL    HW272483   3.261   8.847   0.718 -0.7902  3.1759  1.3691
20277SOL     OW72484   0.122   2.259   4.841 -0.0863  0.0610  0.3432
20277SOL    HW172485   0.181   2.291   4.767 -0.0720 -0.3800  0.1665
20277SOL    HW272486   0.171   2.191   4.896 -0.1136  0.3491  0.7311
20278SOL     OW72487   6.886   0.129   1.090 -0.5841  0.5584  0.0732
20278SOL    HW172488   6.844   0.145   1.179  0.9521  1.1389  0.7284
20278SOL    HW272489   6.983   0.109   1.103 -0.1728  1.4356 -1.5119
20279SOL     OW72490   2.609   0.993   3.403 -0.0523  0.1698  0.0370
20279SOL    HW172491   2.547   0.915   3.405  1.0768 -0.7141  0.5654
20279SOL    HW272492   2.601   1.044   3.489 -0.4430  0.3827 -0.1210
20280SOL     OW72493   7.308   6.618   5.161  0.5264 -0.5711 -0.0767
20280SOL    HW172494   7.209   6.627   5.167  0.8286  3.2030  0.7987
20280SOL    HW272495   7.337   6.630   5.066  0.3173  0.9426  0.0423
20281SOL     OW72496   4.833   8.902   1.039 -0.0382  0.3602 -0.0457
20281SOL    HW172497   4.905   8.832   1.045 -0.1002  0.3175  0.2037
20281SOL    HW272498   4.868   8.981   0.989  0.6191  0.8861  1.2163
20282SOL     OW72499   2.415   7.117   6.212 -0.3571  0.2861 -0.2427
20282SOL    HW172500   2.415   7.047   6.284 -1.8201  2.9987  2.5177
20282SOL    HW272501   2.335   7.105   6.153 -0.9788  0.0323  0.6398
20283SOL     OW72502   7.488   9.483   3.341  0.1716  0.1495  0.0991
20283SOL    HW172503   7.521   9.396   3.305 -0.0850  0.4010 -0.7665
20283SOL    HW272504   7.430   9.528   3.272 -0.3836  0.6088  0.8587
20284SOL     OW72505   9.583   0.357   4.765 -0.1181 -0.4387 -0.3070
20284SOL    HW172506   9.682   0.346   4.762  0.1045  1.3407 -0.4371
20284SOL    HW272507   9.549   0.380   4.674 -0.6301 -0.8394 -0.2220
20285SOL     OW72508   0.547   8.612   2.741  0.1021 -0.4395  0.7559
20285SOL    HW172509   0.610   8.689   2.740 -1.2233  0.6468 -0.6856
20285SOL    HW272510   0.593   8.532   2.780  2.2261  0.4310  0.0977
20286SOL     OW72511   9.239   1.881   1.488  0.2257 -0.2307 -0.2790
20286SOL    HW172512   9.224   1.978   1.469  2.2896 -0.0840 -1.3293
20286SOL    HW272513   9.156   1.830   1.466 -0.0485  0.9731 -2.1801
20287SOL     OW72514   3.997   8.283   3.627 -0.0654  0.0785  0.4659
20287SOL    HW172515   4.071   8.338   3.588  0.2281 -1.6307 -1.4236
20287SOL    HW272516   4.034   8.223   3.697  0.5693 -1.6192 -1.2962
20288SOL     OW72517   0.659   8.641   4.150 -0.1329 -0.1967 -0.9041
20288SOL    HW172518   0.758   8.623   4.150  0.0100  0.5530 -1.0888
20288SOL    HW272519   0.626   8.642   4.056 -0.6316 -2.0828 -0.7581
20289SOL     OW72520   9.386   8.890   7.815 -0.0590  0.4583 -0.1730
20289SOL    HW172521   9.485   8.901   7.822 -0.0135 -0.1319  0.1101
20289SOL    HW272522   9.356   8.920   7.725  0.3504  0.8391 -0.1854
20290SOL     OW72523   3.829   6.383   4.012  0.0423  0.1319  0.4037
20290SOL    HW172524   3.772   6.303   4.029 -0.6732  0.9199  1.8027
20290SOL    HW272525   3.924   6.363   4.035 -0.2921 -0.0196  1.6678
20291SOL     OW72526   7.142   1.048   4.987 -0.2969 -0.2513  0.7842
20291SOL    HW172527   7.225   1.012   4.946 -0.8577  0.6759 -1.2046
20291SOL    HW272528   7.139   1.147   4.976 -1.1960 -0.1610  1.7360
20292SOL     OW72529   0.761   6.035   7.059 -0.6595  0.2026  0.2517
20292SOL    HW172530   0.750   6.095   7.138 -0.3642 -0.9605  1.1900
20292SOL    HW272531   0.707   6.070   6.982 -0.8991  1.3730  0.9455
20293SOL     OW72532   2.913   3.950   9.988 -0.3854 -0.4474 -0.1655
20293SOL    HW172533   2.894   3.907   9.900 -0.0351 -1.1048  0.0774
20293SOL    HW272534   2.959   3.884  10.048  0.0965  0.2448  0.2302
20294SOL     OW72535   1.500   1.519   3.362 -0.9326 -0.2449 -0.5481
20294SOL    HW172536   1.596   1.494   3.373 -1.0500  0.1511  1.4920
20294SOL    HW272537   1.485   1.550   3.268  1.5269  2.2193 -0.1862
20295SOL     OW72538   7.371   1.905   5.995  0.1906 -0.5258  0.1218
20295SOL    HW172539   7.442   1.941   6.055 -0.6952  0.9693  0.3114
20295SOL    HW272540   7.411   1.879   5.908  1.5477 -3.0080  1.4299
20296SOL     OW72541   3.740   3.832   6.566  0.0908 -0.8181  0.5604
20296SOL    HW172542   3.710   3.786   6.483  1.0302 -1.6419  0.6699
20296SOL    HW272543   3.804   3.905   6.542  1.0750 -1.6518  0.6190
20297SOL     OW72544   2.327   2.278   2.758  0.0579 -0.1083 -0.0784
20297SOL    HW172545   2.378   2.356   2.793 -0.7026 -0.8228  2.8184
20297SOL    HW272546   2.294   2.297   2.666 -0.3072  3.0757  0.6545
20298SOL     OW72547   7.841   8.321   1.612  0.0419  0.7099  0.2624
20298SOL    HW172548   7.880   8.266   1.537  1.1158 -1.1089  2.0923
20298SOL    HW272549   7.910   8.385   1.646  0.6324 -0.6558  1.7333
20299SOL     OW72550   6.154   9.785   5.696  0.3918 -0.6337  0.3390
20299SOL    HW172551   6.149   9.721   5.772  1.3358 -0.2782  0.7117
20299SOL    HW272552   6.062   9.817   5.673 -0.0327 -1.7485  0.4545
20300SOL     OW72553   3.346   8.781   7.070 -0.1880  0.2271  0.5856
20300SOL    HW172554   3.426   8.833   7.040  0.1525 -0.1658  0.8146
20300SOL    HW272555   3.311   8.726   6.994 -0.9821  1.3363  0.1374
20301SOL     OW72556   5.338   8.866   1.821  0.2157  0.2199  0.1355
20301SOL    HW172557   5.407   8.867   1.893 -0.5949 -2.3287  0.9984
20301SOL    HW272558   5.357   8.940   1.756  1.8589  1.5731  2.0883
20302SOL     OW72559   8.011   7.570   3.205  0.3776 -0.6150  0.1204
20302SOL    HW172560   7.985   7.498   3.140  1.1971 -1.2315  0.4537
20302SOL    HW272561   7.993   7.537   3.298 -0.1459 -0.0061  0.2351
20303SOL     OW72562   7.717   9.502   1.163 -0.1092  0.0140 -0.1752
20303SOL    HW172563   7.731   9.583   1.220  0.7973 -0.0206 -0.3532
20303SOL    HW272564   7.640   9.449   1.200 -0.0466  0.4122  0.5414
20304SOL     OW72565   2.649   1.935   7.776 -0.3777 -0.1796  0.3664
20304SOL    HW172566   2.720   1.865   7.791 -0.4545  0.0622  1.8885
20304SOL    HW272567   2.560   1.890   7.765 -0.4139 -0.3285  1.2558
20305SOL     OW72568   9.397   5.727   7.857  0.3412 -0.0879  0.2014
20305SOL    HW172569   9.340   5.774   7.789 -1.5492  0.2883  2.0011
20305SOL    HW272570   9.399   5.630   7.836 -2.3572 -0.3542  1.0553
20306SOL     OW72571   0.530   3.573   7.878  0.5092 -0.0813  0.0028
20306SOL    HW172572   0.610   3.526   7.916  0.0082 -0.1267  1.0300
20306SOL    HW272573   0.450   3.551   7.933  0.4679  2.9145  1.2338
20307SOL     OW72574   5.382   4.884   1.960 -0.4096 -0.1429 -0.2820
20307SOL    HW172575   5.377   4.807   2.023  1.1418 -1.4622 -1.6812
20307SOL    HW272576   5.326   4.959   1.993 -0.4405 -1.1835  2.0985
20308SOL     OW72577   8.652   5.375   7.011 -0.1850 -0.3159 -0.2714
20308SOL    HW172578   8.675   5.438   6.937 -1.8701  0.0258 -0.5214
20308SOL    HW272579   8.632   5.428   7.094  0.1142 -0.6057 -0.0178
20309SOL     OW72580   6.624   8.243   5.916 -0.6497  0.3891  0.1939
20309SOL    HW172581   6.687   8.174   5.881  0.1968  1.2252  0.0408
20309SOL    HW272582   6.595   8.303   5.841  0.4074  1.5929  0.7349
20310SOL     OW72583   9.049   1.135   1.349  0.1700 -0.1696 -0.0698
20310SOL    HW172584   9.087   1.143   1.441 -1.5292 -0.8486  0.7037
20310SOL    HW272585   9.106   1.075   1.294  2.7925  2.4765 -0.3445
20311SOL     OW72586   7.103   1.831   7.009  0.0283  0.3999 -0.5446
20311SOL    HW172587   7.037   1.797   7.076  0.9085  0.4412  0.3440
20311SOL    HW272588   7.055   1.889   6.942 -0.8592  0.3004 -0.0044
20312SOL     OW72589   4.285   0.483   5.267 -0.1513 -0.1313  0.3848
20312SOL    HW172590   4.365   0.526   5.310 -0.4443 -0.6317  1.4403
20312SOL    HW272591   4.226   0.445   5.338  0.9320 -3.7368 -0.5524
20313SOL     OW72592   3.422   0.589   6.224  0.0307  0.0137  0.1950
20313SOL    HW172593   3.325   0.566   6.232 -0.1328  1.1367  1.6365
20313SOL    HW272594   3.476   0.505   6.216 -0.7027 -0.8546  3.5803
20314SOL     OW72595   8.968   7.954   1.151 -0.0272  0.1739 -0.1269
20314SOL    HW172596   8.931   8.036   1.195 -0.3186  0.1932 -0.4122
20314SOL    HW272597   8.908   7.876   1.172  0.1991  0.0515  0.0648
20315SOL     OW72598   1.794   6.342   7.095 -0.3169  1.0202  0.0268
20315SOL    HW172599   1.851   6.340   7.177 -0.3782 -1.3839  0.0378
20315SOL    HW272600   1.850   6.326   7.014 -0.6978  0.3539 -0.1128
20316SOL     OW72601   5.023   3.614   7.095  0.3440  0.1299  0.0607
20316SOL    HW172602   5.049   3.555   7.020  1.7357  1.2159 -0.3463
20316SOL    HW272603   5.082   3.695   7.095  0.8584 -0.2028  2.7466
20317SOL     OW72604   2.090   9.043   0.290 -0.1018 -0.3672  0.2156
20317SOL    HW172605   2.151   9.122   0.297 -1.0502  0.4009 -0.0031
20317SOL    HW272606   2.143   8.959   0.291  0.9191  0.2768  0.5234
20318SOL     OW72607   1.553   9.415   7.130  0.5216  0.1768  0.2857
20318SOL    HW172608   1.618   9.399   7.204 -0.1034  0.4117  0.8915
20318SOL    HW272609   1.474   9.356   7.142 -1.0478  2.4585  1.6123
20319SOL     OW72610   1.214   5.280   2.146 -0.0582 -0.3882  0.2464
20319SOL    HW172611   1.214   5.181   2.134 -0.8034 -0.4161  0.4842
20319SOL    HW272612   1.259   5.323   2.068 -0.4322 -0.8639 -0.2282
20320SOL     OW72613   9.224   9.482   6.415 -0.5188 -0.5074  0.5090
20320SOL    HW172614   9.166   9.547   6.366  0.0223  0.2360  0.8424
20320SOL    HW272615   9.280   9.432   6.349 -0.2163  0.0776  0.3140
20321SOL     OW72616   6.974   3.757   1.975 -0.6687  0.1873  0.2480
20321SOL    HW172617   6.925   3.678   2.011 -0.4173  0.8952  2.2519
20321SOL    HW272618   7.065   3.761   2.017  0.6791 -0.4458 -2.5179
20322SOL     OW72619   3.924   7.235   4.317 -0.2522  0.5938 -0.1364
20322SOL    HW172620   3.939   7.198   4.409 -2.4757  3.0291  1.2653
20322SOL    HW272621   3.901   7.160   4.255  0.2791 -0.9758  1.4969
20323SOL     OW72622   3.691   6.046   0.686  0.0688  0.3504  0.3261
20323SOL    HW172623   3.709   6.142   0.661 -1.1168  0.5515  0.2006
20323SOL    HW272624   3.695   5.990   0.604  0.4004  0.3519  0.3416
20324SOL     OW72625   1.727   9.256   0.104 -0.2832 -0.6181 -0.2261
20324SOL    HW172626   1.773   9.252   0.192 -1.2102 -1.0139  0.2396
20324SOL    HW272627   1.706   9.164   0.073  1.0393 -0.5526 -1.4037
20325SOL     OW72628   0.978   8.268   3.362 -0.1731  0.2181 -0.3567
20325SOL    HW172629   1.067   8.313   3.371  0.1357 -0.0767 -1.8199
20325SOL    HW272630   0.982   8.177   3.402  1.3422 -1.2850 -3.6982
20326SOL     OW72631   9.210   5.571   5.103 -0.2023 -0.2012 -0.5666
20326SOL    HW172632   9.297   5.586   5.056  2.6448  0.6742  4.6078
20326SOL    HW272633   9.156   5.654   5.101  1.0246  0.6194 -0.1138
20327SOL     OW72634   3.860   9.980   5.516  0.3805  0.4138  0.0438
20327SOL    HW172635   3.811   9.974   5.603  1.1294  1.1065  0.5255
20327SOL    HW272636   3.795  10.002   5.443 -0.1612  0.4304  0.5248
20328SOL     OW72637   6.175   8.764   4.701 -0.0998  0.3262 -0.0193
20328SOL    HW172638   6.151   8.812   4.616  1.2526 -0.7832 -1.0639
20328SOL    HW272639   6.110   8.689   4.717  0.4051 -0.2807 -0.7853
20329SOL     OW72640   2.652   5.825   1.559 -0.3811  0.2478 -0.0980
20329SOL    HW172641   2.561   5.814   1.519  0.3904  0.9002 -2.0941
20329SOL    HW272642   2.706   5.887   1.502  2.6227 -3.1794 -1.1405
20330SOL     OW72643   3.690   1.349   3.293 -0.6059  0.1680  0.1738
20330SOL    HW172644   3.592   1.339   3.274 -0.3618 -0.4655 -0.7795
20330SOL    HW272645   3.721   1.272   3.348 -1.0557  1.3912  2.1994
20331SOL     OW72646   9.064   5.586   1.090  0.0510 -0.3408 -0.2855
20331SOL    HW172647   9.056   5.670   1.143  3.1878 -0.4432  0.4613
20331SOL    HW272648   9.020   5.598   1.001 -1.2708  1.3888  0.5844
20332SOL     OW72649   1.546   4.882   7.221 -0.6169 -0.0586 -0.5396
20332SOL    HW172650   1.484   4.936   7.278  0.5682 -0.4683  1.1644
20332SOL    HW272651   1.543   4.787   7.250 -0.5856 -0.4144 -1.6885
20333SOL     OW72652   2.392   6.905   6.434 -0.1551 -0.2080 -0.5094
20333SOL    HW172653   2.295   6.886   6.448  0.2604 -1.7336  0.4418
20333SOL    HW272654   2.436   6.923   6.522  0.5465 -0.0725 -0.8801
20334SOL     OW72655   3.696   7.842   5.792  0.0460  0.2204 -0.0599
20334SOL    HW172656   3.691   7.752   5.835 -1.1555 -0.8640 -2.3446
20334SOL    HW272657   3.608   7.888   5.802  0.0577  0.3430 -0.4877
20335SOL     OW72658   7.328   9.942   2.560  0.4944 -0.5536 -0.3527
20335SOL    HW172659   7.368   9.856   2.591  1.7694  0.0875 -0.1863
20335SOL    HW272660   7.400  10.002   2.526 -0.4788  0.1483 -1.2080
20336SOL     OW72661   5.053   1.965   5.360  0.7988 -0.2197  0.4085
20336SOL    HW172662   5.010   2.014   5.436  0.4239  0.3084 -0.1407
20336SOL    HW272663   4.998   1.884   5.339  1.0770 -0.5377  0.9094
20337SOL     OW72664   1.495   4.852   0.101 -0.0619 -0.8971  0.0622
20337SOL    HW172665   1.552   4.800   0.164  0.4677  0.2527  0.5505
20337SOL    HW272666   1.494   4.948   0.128 -0.0311 -0.4274 -1.5417
20338SOL     OW72667   3.916   6.768   9.602 -0.1892  0.0801 -0.5088
20338SOL    HW172668   3.876   6.677   9.614 -0.8281  0.3516 -0.5323
20338SOL    HW272669   3.974   6.790   9.681 -0.0088 -0.3596 -0.5188
20339SOL     OW72670   4.919   3.761   5.293 -0.5240  0.1746 -0.2020
20339SOL    HW172671   4.881   3.785   5.382  0.9745 -1.6181  0.9803
20339SOL    HW272672   4.909   3.663   5.278  3.1719 -0.3313  0.0184
20340SOL     OW72673   6.680   0.638   3.424  0.1929  0.4889 -0.1387
20340SOL    HW172674   6.690   0.710   3.356  1.3896  1.4775  1.0659
20340SOL    HW272675   6.769   0.595   3.441 -0.1443  0.0719  0.6011
20341SOL     OW72676   1.156   0.892   0.240  0.4663  0.2513  0.2977
20341SOL    HW172677   1.098   0.879   0.320 -0.0152 -0.4120 -0.1538
20341SOL    HW272678   1.244   0.930   0.269 -0.0735  0.9580  1.0143
20342SOL     OW72679   2.608   2.902   3.574 -0.4132 -0.6662 -0.1960
20342SOL    HW172680   2.553   2.832   3.530 -1.3597 -0.8147  1.1667
20342SOL    HW272681   2.611   2.884   3.673  0.9612  0.1041 -0.0888
20343SOL     OW72682   2.161   4.946   1.019  0.2009  0.5754  0.5668
20343SOL    HW172683   2.227   5.014   0.987 -0.5757  0.7133 -0.7987
20343SOL    HW272684   2.205   4.857   1.024  0.3323  0.5494 -0.9527
20344SOL     OW72685   1.799   4.161   4.754 -0.4998  0.0277 -1.0750
20344SOL    HW172686   1.840   4.076   4.721  0.1885 -0.6266  1.3712
20344SOL    HW272687   1.699   4.150   4.759 -0.2600 -1.5147  1.4524
20345SOL     OW72688   6.426   9.542   3.056 -0.2144  0.0358  0.2369
20345SOL    HW172689   6.397   9.638   3.059  1.8375  0.7009 -0.7049
20345SOL    HW272690   6.430   9.507   3.150  0.7381  1.4015  0.7283
20346SOL     OW72691   6.723   6.756   4.494 -0.3946  0.1704 -0.5525
20346SOL    HW172692   6.775   6.686   4.445 -1.8455 -0.6508 -0.9668
20346SOL    HW272693   6.634   6.767   4.450 -1.2359  0.3039  1.1725
20347SOL     OW72694   8.574   2.117   2.654 -0.0604 -0.2975  0.4683
20347SOL    HW172695   8.632   2.177   2.708 -1.1347 -0.0903  1.4113
20347SOL    HW272696   8.547   2.163   2.570  0.0326  0.1106  0.6615
20348SOL     OW72697   9.020   1.546   5.992  0.1336  0.2103 -0.0256
20348SOL    HW172698   9.023   1.622   5.926  2.5022  0.3172  0.1432
20348SOL    HW272699   9.052   1.579   6.081  0.7238 -0.8798  0.1653
20349SOL     OW72700   5.473   0.080   8.016  0.1864  0.1947 -0.3560
20349SOL    HW172701   5.479   0.177   7.990 -1.2207  0.4337  0.2173
20349SOL    HW272702   5.382   0.060   8.051  0.9594 -0.9749  1.0339
20350SOL     OW72703   5.052   9.830   1.445  0.6306 -0.4132 -0.3197
20350SOL    HW172704   5.070   9.742   1.403 -0.9305 -0.5457 -0.7306
20350SOL    HW272705   5.030   9.897   1.374  2.4639  0.4971 -0.0732
20351SOL     OW72706   6.179   2.107   4.552  0.3195  0.1462 -0.3595
20351SOL    HW172707   6.253   2.101   4.486  0.0359 -0.6393 -0.6118
20351SOL    HW272708   6.165   2.017   4.595 -0.3568  0.3349 -0.1762
20352SOL     OW72709   3.494   4.471   2.248  0.6929 -0.3320  0.1786
20352SOL    HW172710   3.581   4.508   2.278  0.1349 -0.0263  1.4730
20352SOL    HW272711   3.420   4.535   2.270  0.2089 -0.2728 -1.5354
20353SOL     OW72712   8.805   7.049   2.708 -0.0052 -0.2389 -0.3022
20353SOL    HW172713   8.709   7.029   2.728  0.8770 -2.0170  2.4464
20353SOL    HW272714   8.856   6.963   2.702  1.1552  0.5983 -3.5018
20354SOL     OW72715   4.310   6.477   1.780  0.0285 -0.2575 -0.3800
20354SOL    HW172716   4.235   6.438   1.833  0.6760  2.3239  2.6203
20354SOL    HW272717   4.392   6.420   1.791 -0.0687 -0.1905  0.7577
20355SOL     OW72718   4.269   6.789   4.063 -0.1139  0.3039  0.1053
20355SOL    HW172719   4.353   6.826   4.103  0.1367  0.8145 -0.8849
20355SOL    HW272720   4.291   6.746   3.975 -0.6507 -0.8666  0.5327
20356SOL     OW72721   1.881   2.518   0.623  0.1794 -0.0744  0.0557
20356SOL    HW172722   1.979   2.500   0.628  0.0295 -0.8675  0.0890
20356SOL    HW272723   1.831   2.433   0.606 -0.5626  0.2122  0.7563
20357SOL     OW72724   6.664   3.132   0.443  0.4012  0.1141 -0.4169
20357SOL    HW172725   6.598   3.106   0.373 -1.2896  0.1787  1.1204
20357SOL    HW272726   6.724   3.204   0.407 -1.2965  1.0782 -1.3542
20358SOL     OW72727   5.900   0.234   2.473 -0.0005  0.0143 -0.1067
20358SOL    HW172728   5.859   0.325   2.477 -1.7501 -0.7509 -0.2508
20358SOL    HW272729   5.836   0.166   2.509  0.2169 -1.5197 -2.4797
20359SOL     OW72730   7.978   4.740   1.107 -0.0589 -0.1058  0.0795
20359SOL    HW172731   7.919   4.788   1.042  0.2848  0.7952  0.4325
20359SOL    HW272732   8.073   4.751   1.079 -0.0792 -2.0425 -0.8192
20360SOL     OW72733   6.814   7.095   2.318  0.2795 -0.1165  0.1959
20360SOL    HW172734   6.750   7.157   2.273  0.8014  1.0821  1.0690
20360SOL    HW272735   6.763   7.027   2.371 -0.2855  0.1628  0.0078
20361SOL     OW72736   8.398   2.856   2.131 -0.0555 -0.2432 -0.5625
20361SOL    HW172737   8.365   2.844   2.225  1.9903 -0.2852  0.1852
20361SOL    HW272738   8.397   2.768   2.084  0.1379 -0.4579 -0.1619
20362SOL     OW72739   8.144   9.310   0.670  0.1557 -0.5825 -0.1614
20362SOL    HW172740   8.157   9.242   0.742  1.0919 -0.2705 -0.0238
20362SOL    HW272741   8.200   9.286   0.591  0.0212 -0.2976 -0.3459
20363SOL     OW72742   8.879   6.435   0.243 -0.4540  0.2398 -0.4773
20363SOL    HW172743   8.901   6.529   0.221 -0.8551  0.3719 -0.3301
20363SOL    HW272744   8.780   6.426   0.255 -0.2638  0.1601  1.1840
20364SOL     OW72745   0.681   5.168   2.475  0.2417  0.5097 -0.5305
20364SOL    HW172746   0.778   5.174   2.449  0.6677  1.5990  1.2049
20364SOL    HW272747   0.624   5.183   2.395  1.5088  0.9143 -1.3719
20365SOL     OW72748   3.882   3.333   2.613  0.2288  0.3852  0.0863
20365SOL    HW172749   3.968   3.334   2.662  1.6478 -1.8341 -2.2467
20365SOL    HW272750   3.888   3.393   2.533 -0.4678  0.3391 -0.0073
20366SOL     OW72751   3.152   5.680   7.021  0.3596  0.1773 -0.2727
20366SOL    HW172752   3.156   5.739   7.101 -0.0835  1.5689 -1.2551
20366SOL    HW272753   3.196   5.593   7.042  0.1513  0.4787  1.5092
20367SOL     OW72754   0.553   8.506   4.378 -0.6350 -0.4277  0.3640
20367SOL    HW172755   0.506   8.417   4.375  1.2569 -1.4464  0.3504
20367SOL    HW272756   0.592   8.525   4.288 -0.2743  0.0091  0.6167
20368SOL     OW72757   0.657   6.467   5.347 -0.5802 -0.2147  0.1803
20368SOL    HW172758   0.746   6.428   5.321 -0.4423 -0.7426  1.3763
20368SOL    HW272759   0.585   6.421   5.296 -0.3677 -1.6961  1.1735
20369SOL     OW72760   9.695   5.944   6.693  0.0914 -0.1955  0.8040
20369SOL    HW172761   9.784   5.976   6.727  0.0834  0.8899 -0.1654
20369SOL    HW272762   9.638   6.023   6.669 -0.0449 -0.9189 -1.3460
20370SOL     OW72763   4.252   7.156   0.984 -0.1860 -0.2643  0.6037
20370SOL    HW172764   4.170   7.154   1.040 -0.7616  0.1513 -0.2190
20370SOL    HW272765   4.314   7.227   1.018 -0.3296 -0.3253  0.9912
20371SOL     OW72766   3.347   6.778   5.705  0.1712  0.4416  0.7936
20371SOL    HW172767   3.417   6.767   5.636 -0.8689  0.3406 -0.2644
20371SOL    HW272768   3.338   6.693   5.758 -0.1059 -0.0170  0.0173
20372SOL     OW72769   9.156   4.753   2.177  1.1153  0.1998 -0.0745
20372SOL    HW172770   9.222   4.705   2.119  0.8371 -0.4164  0.1108
20372SOL    HW272771   9.065   4.744   2.137  0.6288 -1.8216  1.4176
20373SOL     OW72772   7.437   6.353   3.872  0.4536  0.3446 -0.0573
20373SOL    HW172773   7.392   6.336   3.784  0.3861  2.8401 -0.5353
20373SOL    HW272774   7.369   6.358   3.945  0.3261  0.2132 -0.1680
20374SOL     OW72775   6.877   7.956   3.101 -0.6998 -0.1477  0.3939
20374SOL    HW172776   6.815   7.895   3.052  0.2026 -0.7700  0.0336
20374SOL    HW272777   6.858   7.950   3.199 -1.4872 -0.0229  0.2574
20375SOL     OW72778   3.119   5.071   0.590 -0.1537  0.0807 -0.6228
20375SOL    HW172779   3.029   5.043   0.557 -0.6857 -0.0563  0.9145
20375SOL    HW272780   3.110   5.118   0.677  1.0621  2.1908 -1.5974
20376SOL     OW72781   2.332   1.445   5.180  0.8425  0.5130  0.2387
20376SOL    HW172782   2.426   1.454   5.147  0.2241 -0.2622 -1.7940
20376SOL    HW272783   2.282   1.529   5.161  0.2543 -0.2404 -1.5937
20377SOL     OW72784   1.263   0.776   2.095  0.2559 -0.4041 -0.2401
20377SOL    HW172785   1.196   0.851   2.095  1.5378  0.7835  0.9911
20377SOL    HW272786   1.229   0.701   2.039 -0.6923  1.4302 -2.1854
20378SOL     OW72787   5.210   0.054   8.081  0.3451 -0.4080  0.5639
20378SOL    HW172788   5.131  -0.004   8.100  1.5132 -1.7211  1.4820
20378SOL    HW272789   5.212   0.131   8.145 -0.1718 -0.3945  0.5623
20379SOL     OW72790   1.742   0.336   6.615  0.2029 -0.4008  0.3268
20379SOL    HW172791   1.647   0.314   6.641  0.0106 -1.5393 -1.2857
20379SOL    HW272792   1.757   0.434   6.626 -0.7326 -0.4170  1.9654
20380SOL     OW72793   1.609   6.430   2.314 -0.3528  0.5446  0.1893
20380SOL    HW172794   1.555   6.413   2.396  0.3152 -0.2754  0.4644
20380SOL    HW272795   1.692   6.374   2.316 -0.3836  0.4256 -1.0904
20381SOL     OW72796   3.568   2.451   6.768 -0.2003 -1.0725 -0.1158
20381SOL    HW172797   3.479   2.405   6.770 -0.4918 -0.5619 -0.8776
20381SOL    HW272798   3.639   2.387   6.741 -0.0838 -1.8759  2.0208
20382SOL     OW72799   8.158   7.158   5.160 -0.2294 -0.2332  0.2599
20382SOL    HW172800   8.104   7.194   5.235  0.7488  0.9933  0.4105
20382SOL    HW272801   8.247   7.127   5.194  0.9505  2.0487 -0.6165
20383SOL     OW72802   8.942   0.273   6.521 -0.1779  0.5714 -0.3936
20383SOL    HW172803   8.909   0.331   6.595  0.4915 -2.6349  2.5131
20383SOL    HW272804   9.041   0.280   6.515 -0.2622  1.0921 -1.2371
20384SOL     OW72805   2.943   4.604   3.340 -0.1600 -0.2354 -0.0032
20384SOL    HW172806   2.868   4.583   3.277 -1.7170  1.5964  1.1976
20384SOL    HW272807   2.974   4.520   3.384 -1.0628 -1.1104 -1.0241
20385SOL     OW72808   2.215   5.612   1.089  0.7384 -0.0787 -0.0288
20385SOL    HW172809   2.118   5.634   1.083  1.2423  2.2698  0.0106
20385SOL    HW272810   2.262   5.648   1.009  1.8120  0.1478  0.6924
20386SOL     OW72811   7.771   0.453   8.014  0.4059  0.2908 -0.0927
20386SOL    HW172812   7.698   0.491   8.070  1.8260  1.0557  1.2782
20386SOL    HW272813   7.735   0.380   7.957 -0.7820 -1.5041  2.8894
20387SOL     OW72814   0.202   7.985   7.286 -0.2140 -0.1462  0.2415
20387SOL    HW172815   0.279   8.034   7.327 -1.5863  1.4358  0.9771
20387SOL    HW272816   0.206   7.995   7.187 -0.6241  1.6944  0.3969
20388SOL     OW72817   8.614   2.648   0.039  0.2580 -0.0807 -0.6598
20388SOL    HW172818   8.553   2.727   0.044 -0.6770 -0.8737  0.9405
20388SOL    HW272819   8.705   2.674   0.072 -0.7988 -0.3493  2.7107
20389SOL     OW72820   0.129   7.456   5.928 -0.0148  0.3335 -0.2106
20389SOL    HW172821   0.137   7.456   6.028  0.9052 -3.1225 -0.2143
20389SOL    HW272822   0.221   7.450   5.888 -0.4774 -0.0281 -1.2248
20390SOL     OW72823   6.573   0.070   3.118  0.9416  0.3404  0.4676
20390SOL    HW172824   6.660   0.045   3.161  0.1823 -0.9875  1.2688
20390SOL    HW272825   6.525   0.136   3.176  0.8459  0.1084  0.6543
20391SOL     OW72826   7.324   2.492   3.253 -1.0572  0.0409  0.4987
20391SOL    HW172827   7.363   2.516   3.342 -1.5923 -3.4612  1.7549
20391SOL    HW272828   7.238   2.540   3.240 -1.0673  0.4449  1.9434
20392SOL     OW72829   1.930   2.640   2.581  0.4306  1.3979 -0.0441
20392SOL    HW172830   1.996   2.635   2.506 -0.1993  1.8301 -0.6443
20392SOL    HW272831   1.936   2.728   2.626  1.1741  0.9362  0.7603
20393SOL     OW72832   5.420   8.761   8.160 -0.3044  0.3201  0.1126
20393SOL    HW172833   5.454   8.766   8.254  0.4276 -1.2159 -0.0558
20393SOL    HW272834   5.478   8.817   8.100 -1.7157  2.5944  0.8094
20394SOL     OW72835   5.354   9.083   2.218 -0.2067 -0.8353  0.0486
20394SOL    HW172836   5.296   9.013   2.177  0.0606 -0.8592 -0.2980
20394SOL    HW272837   5.416   9.040   2.284  0.4692 -1.0416 -0.7103
20395SOL     OW72838   8.678   7.348   0.947  0.1421 -0.3976 -0.5190
20395SOL    HW172839   8.669   7.369   0.850  1.8194 -0.6763 -0.7465
20395SOL    HW272840   8.590   7.361   0.993 -0.5494  0.1297 -1.9963
20396SOL     OW72841   8.342   6.805   2.547 -0.1022 -0.4584 -0.9274
20396SOL    HW172842   8.274   6.780   2.615 -0.5575 -0.7097 -1.4707
20396SOL    HW272843   8.433   6.780   2.581 -0.3246 -0.5683 -0.4079
20397SOL     OW72844   0.794   8.473   0.217 -0.1733 -0.5279  0.0223
20397SOL    HW172845   0.846   8.395   0.182  1.8292  1.1483 -0.8337
20397SOL    HW272846   0.818   8.490   0.312 -1.5007 -1.6577  0.5803
20398SOL     OW72847   7.583   7.577   1.736  0.2202  0.4755  0.3427
20398SOL    HW172848   7.560   7.505   1.670 -0.7510 -0.3331  1.5396
20398SOL    HW272849   7.681   7.597   1.731  0.7145 -1.7400  0.8061
20399SOL     OW72850   6.875   7.701   6.569 -0.4630  0.1909 -0.0977
20399SOL    HW172851   6.870   7.801   6.560 -1.4616  0.0871 -0.6832
20399SOL    HW272852   6.897   7.678   6.664 -1.5909  0.9351  0.3523
20400SOL     OW72853   1.661   4.595   9.905 -0.1983  0.4157 -0.4178
20400SOL    HW172854   1.611   4.514   9.938  0.8561 -0.2805 -0.5043
20400SOL    HW272855   1.598   4.673   9.900 -0.8032  0.0908  1.4912
20401SOL     OW72856   1.097   5.407   5.293  0.2435 -0.0112 -0.0385
20401SOL    HW172857   1.047   5.493   5.285 -1.5891 -0.9912  0.6648
20401SOL    HW272858   1.041   5.340   5.342  2.5960 -0.8616  1.5891
20402SOL     OW72859   9.920   3.655   2.074  0.0705 -0.2346  0.3385
20402SOL    HW172860  10.020   3.655   2.080  0.1598 -3.3612  0.1590
20402SOL    HW272861   9.890   3.724   2.009  2.0952  1.0030  0.6873
20403SOL     OW72862   0.506   4.112   8.287 -0.2651 -0.2814 -0.1438
20403SOL    HW172863   0.436   4.078   8.350 -1.3679 -0.7211 -1.5839
20403SOL    HW272864   0.465   4.130   8.198  0.5325  3.7139  0.2109
20404SOL     OW72865   4.936   0.861   1.299  0.0940  0.2853 -0.1068
20404SOL    HW172866   4.878   0.932   1.339  1.2128  1.0539  0.1610
20404SOL    HW272867   4.936   0.781   1.358 -1.7339 -0.2247 -0.7534
20405SOL     OW72868   3.141   0.884   1.585 -0.3751 -0.0926  0.0766
20405SOL    HW172869   3.085   0.803   1.568 -1.0764  0.2683  0.6799
20405SOL    HW272870   3.085   0.956   1.627  0.6657  0.0697  1.2113
20406SOL     OW72871   5.824   3.981   0.555  0.0069 -0.4662 -0.7962
20406SOL    HW172872   5.824   3.943   0.648  2.6580 -0.9372 -0.9460
20406SOL    HW272873   5.763   3.927   0.497  0.6890 -2.0767 -0.0401
20407SOL     OW72874   3.711   3.605   5.181 -0.0699 -0.4605 -0.4337
20407SOL    HW172875   3.689   3.545   5.104  0.2213 -0.8326 -0.2300
20407SOL    HW272876   3.656   3.688   5.176 -2.0767 -1.7061  0.4961
20408SOL     OW72877   7.301   2.986   3.332 -0.6225  0.4877 -0.1235
20408SOL    HW172878   7.373   2.919   3.349  0.2036  1.6131  0.8915
20408SOL    HW272879   7.287   2.994   3.233 -0.3466 -0.7693 -0.2728
20409SOL     OW72880   9.287   5.076   5.346 -0.0735 -0.3641  0.0768
20409SOL    HW172881   9.381   5.046   5.329  0.7454  1.9724  0.3216
20409SOL    HW272882   9.242   5.093   5.258 -0.3851 -1.7579 -0.0488
20410SOL     OW72883   4.216   3.584   7.542 -0.6264  0.1775  0.3699
20410SOL    HW172884   4.271   3.667   7.537  1.3086 -1.1447 -0.7268
20410SOL    HW272885   4.141   3.590   7.475  0.3637  0.4466 -0.7314
20411SOL     OW72886   3.257   5.298   1.786 -0.5510 -0.7994 -0.0201
20411SOL    HW172887   3.200   5.362   1.838 -0.9571 -0.3276 -1.0316
20411SOL    HW272888   3.311   5.243   1.849  0.3449  1.0348  0.8623
20412SOL     OW72889   3.167   3.952   4.325  0.4291 -0.0392 -0.0690
20412SOL    HW172890   3.114   3.910   4.398  0.2260  1.1959  0.5110
20412SOL    HW272891   3.207   4.037   4.358  0.3384  0.5312 -1.3872
20413SOL     OW72892   8.306   4.918   4.877  0.1118  0.6483  0.1780
20413SOL    HW172893   8.362   4.886   4.800 -0.1144 -0.1312  0.3435
20413SOL    HW272894   8.363   4.974   4.937  0.8248 -0.4689  0.5601
20414SOL     OW72895   3.243   9.692   3.122 -0.2769 -0.3897  0.2503
20414SOL    HW172896   3.311   9.684   3.195 -0.7918 -2.2949  0.5561
20414SOL    HW272897   3.288   9.683   3.033  0.3084  1.6395  0.3107
20415SOL     OW72898   1.670   7.564   6.276  0.8969 -0.0429 -0.4907
20415SOL    HW172899   1.582   7.520   6.258  0.1005  0.6600  1.5153
20415SOL    HW272900   1.702   7.540   6.368  1.3245  2.0419 -0.0535
20416SOL     OW72901   9.716   9.714   7.741 -0.0301  0.2241  0.1580
20416SOL    HW172902   9.738   9.803   7.699  1.0836  0.3451  0.9737
20416SOL    HW272903   9.723   9.642   7.672 -0.7127  0.7376 -0.4575
20417SOL     OW72904   7.896   6.831   2.561 -0.4978 -0.1498  0.2000
20417SOL    HW172905   7.812   6.805   2.608 -0.9663 -2.0995 -1.6206
20417SOL    HW272906   7.880   6.833   2.462  1.7291 -1.0602 -0.2138
20418SOL     OW72907   0.341   2.071   3.376 -0.5789  0.2211  0.0030
20418SOL    HW172908   0.291   2.151   3.342  0.1019  0.9613  0.7409
20418SOL    HW272909   0.439   2.083   3.360 -0.5901 -1.1436 -1.2669
20419SOL     OW72910   0.939   1.935   3.375  0.4791  0.4409 -0.0167
20419SOL    HW172911   0.961   2.025   3.337 -0.0147  1.4027  1.9249
20419SOL    HW272912   0.887   1.946   3.459 -0.7815 -1.7001 -0.4765
20420SOL     OW72913   6.168   5.938   0.931  0.2410 -0.2246 -0.3589
20420SOL    HW172914   6.233   5.866   0.958 -0.0411 -0.2668  0.2230
20420SOL    HW272915   6.105   5.903   0.862 -0.3175 -0.7462  0.4078
20421SOL     OW72916   2.694   4.383   3.082 -0.7115  0.5865  0.5530
20421SOL    HW172917   2.671   4.332   3.165 -0.0400 -2.5672 -1.1117
20421SOL    HW272918   2.620   4.372   3.015  0.5230 -0.1645 -0.6930
20422SOL     OW72919   3.598   0.534   4.293  0.1101 -0.4798  0.5453
20422SOL    HW172920   3.691   0.539   4.330  0.3392  2.0113 -0.2503
20422SOL    HW272921   3.548   0.617   4.319 -1.2633 -0.9098 -0.6786
20423SOL     OW72922   2.677   4.243   7.366  0.1359 -0.0234  0.2412
20423SOL    HW172923   2.643   4.151   7.350 -0.1495 -0.0060  0.7249
20423SOL    HW272924   2.658   4.270   7.461 -1.3754  1.2122 -0.3874
20424SOL     OW72925   7.358   8.982   8.416  0.2427  0.4391 -0.1985
20424SOL    HW172926   7.445   8.944   8.449 -0.2758 -1.1380 -0.6007
20424SOL    HW272927   7.288   8.911   8.419 -1.1300  1.8048  0.4658
20425SOL     OW72928   2.202   8.701   3.915  0.4903 -0.3168  0.1132
20425SOL    HW172929   2.272   8.752   3.865  1.3481 -1.4256  0.1645
20425SOL    HW272930   2.221   8.603   3.908 -0.1807 -0.5478  1.4332
20426SOL     OW72931   0.111   2.256   2.551 -0.1566  0.4525  0.2642
20426SOL    HW172932   0.043   2.246   2.479  0.1023  0.2725  0.0429
20426SOL    HW272933   0.185   2.191   2.536  0.5918  1.3745 -0.0988
20427SOL     OW72934   8.000   5.119   1.945 -0.1859  0.3986  0.1407
20427SOL    HW172935   7.942   5.062   2.002  0.3458 -1.4895 -1.1853
20427SOL    HW272936   7.944   5.183   1.892 -0.9252 -0.2500  0.1431
20428SOL     OW72937   0.234   8.076   0.668 -1.0810 -0.2620  0.9150
20428SOL    HW172938   0.206   7.992   0.716  1.0287 -0.6323  1.5763
20428SOL    HW272939   0.334   8.079   0.663 -1.1961  1.0678 -1.2064
20429SOL     OW72940   0.241   2.848   1.284  0.4577 -0.1016 -0.0344
20429SOL    HW172941   0.321   2.867   1.341  0.1477 -2.1398  1.1500
20429SOL    HW272942   0.166   2.817   1.343 -1.0510  1.2593 -1.1896
20430SOL     OW72943   3.103   0.380   6.908  0.2843 -0.5371  0.3027
20430SOL    HW172944   3.111   0.305   6.843 -1.2771 -0.9288  0.5477
20430SOL    HW272945   3.171   0.369   6.980 -0.4908 -2.2101  0.8139
20431SOL     OW72946   6.033   0.058   6.768  0.2378  0.7468  0.3296
20431SOL    HW172947   6.097   0.135   6.760  0.8979  0.0847 -0.7871
20431SOL    HW272948   6.085  -0.027   6.780 -0.4753  0.3779  0.8134
20432SOL     OW72949   0.709   6.238   1.238  0.0462  0.7725 -0.1242
20432SOL    HW172950   0.749   6.224   1.328  2.0318  1.4146 -0.8655
20432SOL    HW272951   0.652   6.320   1.238  1.1020  1.5141  0.2201
20433SOL     OW72952   4.719   3.558   0.233  0.0463  0.1065 -0.2369
20433SOL    HW172953   4.693   3.500   0.156  0.4953  0.6296 -0.7885
20433SOL    HW272954   4.667   3.531   0.314  0.0915 -0.9195 -0.5373
20434SOL     OW72955   4.635   8.936   8.428 -0.1790 -0.0079  0.6648
20434SOL    HW172956   4.697   8.858   8.426 -0.6281 -0.3571  0.4289
20434SOL    HW272957   4.540   8.904   8.421 -0.2912  0.6597 -1.1542
20435SOL     OW72958   6.646   4.002   0.932 -0.0135  0.1139 -0.1314
20435SOL    HW172959   6.645   3.907   0.962  0.2263  0.3285  0.5673
20435SOL    HW272960   6.552   4.032   0.915 -0.3079  0.4608  1.9541
20436SOL     OW72961   0.644   1.129   5.695 -0.1059  0.7222  0.6884
20436SOL    HW172962   0.658   1.159   5.600  0.1197  1.4971  0.9653
20436SOL    HW272963   0.563   1.174   5.732 -0.1172  0.5205  0.9104
20437SOL     OW72964   2.108   8.456   0.369 -0.1672 -0.4581 -0.3875
20437SOL    HW172965   2.194   8.428   0.325  0.4685 -1.6522  1.5500
20437SOL    HW272966   2.043   8.486   0.299  0.9741 -1.8575 -2.0936
20438SOL     OW72967   9.206   6.942   6.873 -0.4861  0.1227 -0.1292
20438SOL    HW172968   9.149   6.875   6.922 -0.2222 -0.9648 -1.2687
20438SOL    HW272969   9.152   7.024   6.854 -1.4166 -0.5382 -0.4103
20439SOL     OW72970   0.561   4.916   5.760  0.4477 -0.0358  0.3198
20439SOL    HW172971   0.643   4.958   5.721  1.4255 -0.3003  2.0524
20439SOL    HW272972   0.495   4.898   5.687  2.1265 -0.2971 -1.1659
20440SOL     OW72973   7.806   8.549   5.173 -0.1788  0.3377 -0.0596
20440SOL    HW172974   7.743   8.472   5.180 -0.0073  0.3285  1.4993
20440SOL    HW272975   7.849   8.566   5.261 -0.5123  2.4635 -0.2633
20441SOL     OW72976   8.904   7.584   7.468 -0.4540 -0.1791 -0.0646
20441SOL    HW172977   8.889   7.673   7.424 -0.5196  1.2348  2.7408
20441SOL    HW272978   8.966   7.594   7.546 -2.0836 -2.1954  1.5617
20442SOL     OW72979   2.151   7.288   1.867  0.3366 -0.2976  0.7458
20442SOL    HW172980   2.221   7.226   1.831  1.7204  0.4745  2.0680
20442SOL    HW272981   2.061   7.261   1.830  1.2838 -1.3868 -0.8536
20443SOL     OW72982   0.271   1.722   0.095  0.2022 -0.1926  0.3497
20443SOL    HW172983   0.294   1.788   0.023  0.0020 -1.5798 -1.0096
20443SOL    HW272984   0.344   1.654   0.104  1.1525  1.0801  2.8453
20444SOL     OW72985   2.757   2.761   4.033 -0.1054  0.0230 -0.1797
20444SOL    HW172986   2.785   2.761   4.129  2.0731 -0.0225 -0.7902
20444SOL    HW272987   2.838   2.772   3.975 -1.1508 -2.0281 -2.0900
20445SOL     OW72988   7.371   6.178   1.816 -0.9050  0.2808  0.0388
20445SOL    HW172989   7.433   6.143   1.886  1.4881  1.4217 -1.4430
20445SOL    HW272990   7.299   6.233   1.860 -0.0475  0.1213  1.6774
20446SOL     OW72991   1.716   0.149   3.566  0.3208  0.4133 -0.1384
20446SOL    HW172992   1.658   0.069   3.549  0.3108  0.2379  0.7220
20446SOL    HW272993   1.757   0.179   3.479  1.1049 -1.1356 -0.3298
20447SOL     OW72994   1.610   3.558   3.228 -0.3581  0.2276 -0.1158
20447SOL    HW172995   1.585   3.643   3.181 -0.8822  0.2877  0.2630
20447SOL    HW272996   1.633   3.488   3.161 -2.7028 -0.1890 -0.5266
20448SOL     OW72997   0.893   1.159   2.332 -0.3389 -0.0163 -0.1642
20448SOL    HW172998   0.858   1.121   2.246 -0.7882  0.5368 -0.2308
20448SOL    HW272999   0.847   1.114   2.409  2.0530 -2.5223 -0.0944
20449SOL     OW73000   0.914   6.762   3.219 -0.3062 -0.3240 -0.1969
20449SOL    HW173001   0.878   6.853   3.239  0.0982 -0.3424  0.6151
20449SOL    HW273002   0.999   6.770   3.168 -0.8643 -0.2651 -1.1281
20450SOL     OW73003   0.565   7.576   3.753  0.3840 -0.1798 -0.2015
20450SOL    HW173004   0.625   7.655   3.762 -0.6348  0.5856  0.0383
20450SOL    HW273005   0.600   7.515   3.682  1.3811  0.3058 -0.1260
20451SOL     OW73006   2.853   8.424   9.827  0.3914 -0.3983 -0.6663
20451SOL    HW173007   2.952   8.408   9.831  0.5437  0.2760 -1.5868
20451SOL    HW273008   2.805   8.340   9.851  1.1934 -1.3732 -2.4075
20452SOL     OW73009   4.087   8.115   3.857  0.3832 -0.2700  0.1872
20452SOL    HW173010   4.126   8.154   3.940 -3.2805 -1.7371  2.7193
20452SOL    HW273011   4.119   8.020   3.847  1.0656  0.0053 -0.2410
20453SOL     OW73012   2.843   4.114   0.842  0.2638  0.4660  0.0390
20453SOL    HW173013   2.851   4.032   0.898 -0.6998  0.9998  0.9929
20453SOL    HW273014   2.886   4.099   0.753 -0.0195 -1.1115  0.1581
20454SOL     OW73015   8.152   6.771   7.850  0.2536  0.7132  0.7471
20454SOL    HW173016   8.154   6.671   7.850  0.8642  0.7196  0.5889
20454SOL    HW273017   8.058   6.803   7.840  0.2004  0.1541 -0.6382
20455SOL     OW73018   9.295   3.912   2.678  0.1812 -0.2928 -0.4488
20455SOL    HW173019   9.310   4.009   2.697  1.8942 -0.5483 -0.3864
20455SOL    HW273020   9.212   3.901   2.623 -0.2886  1.1644 -0.0495
20456SOL     OW73021   3.575   6.436   2.446  0.0413  0.5216 -0.0289
20456SOL    HW173022   3.659   6.459   2.397 -0.1411  0.1335 -0.5291
20456SOL    HW273023   3.582   6.343   2.483 -0.5606  0.1080 -0.9355
20457SOL     OW73024   1.605   9.554   5.080 -0.1755  0.3220 -0.0964
20457SOL    HW173025   1.513   9.524   5.104  0.4351 -0.2930  1.5272
20457SOL    HW273026   1.651   9.590   5.161  1.7004 -1.2011 -0.4458
20458SOL     OW73027   2.660   6.331   2.133  0.4155 -0.1544 -0.2824
20458SOL    HW173028   2.563   6.349   2.116  0.0590 -2.3293 -0.7312
20458SOL    HW273029   2.669   6.275   2.215  1.4295  1.3036  0.6355
20459SOL     OW73030   3.787   3.311   3.388 -0.2016 -0.0475  0.3466
20459SOL    HW173031   3.818   3.376   3.457 -0.7866  0.2182  0.3635
20459SOL    HW273032   3.842   3.321   3.305  2.0855 -1.9799  1.5632
20460SOL     OW73033   8.500   0.361   2.863  0.0307  0.1776  0.1333
20460SOL    HW173034   8.439   0.439   2.853 -0.7344 -0.4700 -0.3057
20460SOL    HW273035   8.472   0.289   2.800  0.1698 -0.8059  1.1817
20461SOL     OW73036   2.370   8.992   7.097 -0.0216 -0.2791  0.4965
20461SOL    HW173037   2.424   9.013   7.015 -0.1706  0.4308  0.5734
20461SOL    HW273038   2.423   9.017   7.178 -0.5099  0.5426  0.5694
20462SOL     OW73039   0.723   1.592   5.382  0.0229  0.6863 -0.9552
20462SOL    HW173040   0.722   1.493   5.371  1.5233  0.4959  0.3014
20462SOL    HW273041   0.807   1.619   5.430 -0.7881  2.4705 -0.4780
20463SOL     OW73042   5.727   4.440   0.228 -0.3868 -0.1708  0.2950
20463SOL    HW173043   5.718   4.505   0.304 -0.0598  0.9396 -0.6108
20463SOL    HW273044   5.676   4.474   0.149 -1.6500 -1.8566  0.3358
20464SOL     OW73045   7.743   4.053   5.693  0.4506 -0.8173  0.1031
20464SOL    HW173046   7.698   4.142   5.694 -1.2730 -1.6005 -3.0972
20464SOL    HW273047   7.808   4.048   5.770 -0.3884  2.6418  1.1283
20465SOL     OW73048   5.012   7.502   3.756  0.1934  0.0992  0.7556
20465SOL    HW173049   4.950   7.558   3.701 -0.9262 -2.2867 -0.4733
20465SOL    HW273050   4.959   7.445   3.819  1.1218 -1.5391  0.0981
20466SOL     OW73051   8.807   5.185   5.022  0.2558 -0.8496 -0.0732
20466SOL    HW173052   8.896   5.173   4.978  1.0586  0.0758  1.2155
20466SOL    HW273053   8.738   5.206   4.954  1.4708  0.5709 -0.8974
20467SOL     OW73054   4.467   6.933   1.421 -0.1634 -0.0114  0.2669
20467SOL    HW173055   4.433   7.027   1.415 -0.0813  0.1737  2.2558
20467SOL    HW273056   4.421   6.876   1.353 -3.1521  0.6246  1.6638
20468SOL     OW73057   2.947   5.588   7.206  0.0160  0.3332  0.4561
20468SOL    HW173058   2.991   5.580   7.117 -1.4081  1.4621 -0.3619
20468SOL    HW273059   2.887   5.509   7.220 -0.7554  0.8121 -0.1447
20469SOL     OW73060   9.157   1.589   0.503  0.3047  0.2528 -0.0372
20469SOL    HW173061   9.119   1.611   0.593 -1.6640 -0.8940 -0.5602
20469SOL    HW273062   9.084   1.588   0.435  1.7198  0.6898 -1.5790
20470SOL     OW73063   2.766   8.971   0.392 -0.2418 -0.0381  0.2051
20470SOL    HW173064   2.700   8.896   0.390 -0.7082  0.3652  0.1348
20470SOL    HW273065   2.827   8.965   0.313 -1.1078  0.3849 -0.5101
20471SOL     OW73066   0.321   9.819   5.313 -0.0147 -0.6834  0.5227
20471SOL    HW173067   0.257   9.742   5.320 -0.9441 -0.0311 -0.7206
20471SOL    HW273068   0.285   9.897   5.364 -1.4401  0.4874 -2.1863
20472SOL     OW73069   3.147   3.066   0.984  0.2877  0.4740  0.0085
20472SOL    HW173070   3.175   2.997   0.917  0.9561  0.3860  0.3745
20472SOL    HW273071   3.166   3.032   1.076  0.1376  0.9383  0.2110
20473SOL     OW73072   0.323   5.782   5.816 -0.0188 -0.3803 -0.1552
20473SOL    HW173073   0.355   5.874   5.837 -0.4126 -0.6714  1.8740
20473SOL    HW273074   0.234   5.767   5.859  0.1648 -1.8039 -0.2356
20474SOL     OW73075   1.161   2.034   5.307  0.6653 -0.4478 -0.0915
20474SOL    HW173076   1.090   1.981   5.355 -0.1919  1.6566  1.0099
20474SOL    HW273077   1.139   2.038   5.209  0.2558 -1.3316 -0.0431
20475SOL     OW73078   5.378   4.333   2.141  0.1568  0.3690 -0.4698
20475SOL    HW173079   5.342   4.427   2.139  2.0355  1.0913 -1.1805
20475SOL    HW273080   5.401   4.308   2.235 -0.7900  0.4403 -0.2132
20476SOL     OW73081   9.310   9.557   7.229 -0.3688 -0.2563 -0.0114
20476SOL    HW173082   9.271   9.537   7.139 -0.4695  0.3092 -0.0915
20476SOL    HW273083   9.408   9.534   7.228 -0.3490 -0.1676 -0.2869
20477SOL     OW73084   8.256   3.290   5.133 -0.2540 -0.0547 -0.3901
20477SOL    HW173085   8.249   3.223   5.207  1.5102  0.9747  0.7610
20477SOL    HW273086   8.167   3.301   5.089 -1.1727 -1.1896  1.1395
20478SOL     OW73087   2.101   2.594  10.081  0.1427 -0.2679 -0.2736
20478SOL    HW173088   2.061   2.502  10.080  1.4522 -0.8438 -1.1685
20478SOL    HW273089   2.072   2.642  10.163 -1.0060 -1.2883 -0.0749
20479SOL     OW73090   1.620   4.447   5.938 -0.1062  0.7341 -0.3380
20479SOL    HW173091   1.558   4.456   6.016  1.5975 -2.3966  1.5122
20479SOL    HW273092   1.714   4.466   5.968  0.9581 -3.2079 -0.8247
20480SOL     OW73093   1.554   5.128   2.121  0.2451 -0.2817 -0.7297
20480SOL    HW173094   1.488   5.084   2.182 -0.0480 -0.1193 -0.9285
20480SOL    HW273095   1.640   5.078   2.124 -0.5835 -1.8544 -2.1917
20481SOL     OW73096   0.916   9.472   6.511 -0.2239  0.2046 -0.0566
20481SOL    HW173097   0.904   9.374   6.494 -0.3483  0.2700 -0.3495
20481SOL    HW273098   1.009   9.488   6.546 -0.0415  0.0406 -0.4599
20482SOL     OW73099   6.926   8.552   5.905 -0.5984 -0.7197 -1.5346
20482SOL    HW173100   6.975   8.554   5.818  1.6026  2.0110 -0.3008
20482SOL    HW273101   6.851   8.618   5.904  0.4782  0.5271 -0.7892
20483SOL     OW73102   6.107   0.033   7.511 -0.1237  0.0485  0.0723
20483SOL    HW173103   6.085   0.002   7.418 -0.4900  0.5292 -0.0036
20483SOL    HW273104   6.173  -0.030   7.552 -0.2649 -0.3912 -0.3666
20484SOL     OW73105   4.378   3.026   0.178 -0.6949 -0.2473 -0.4542
20484SOL    HW173106   4.419   2.971   0.251  0.0481  3.7515  2.2895
20484SOL    HW273107   4.279   3.017   0.180 -0.8196  1.1806  2.2985
20485SOL     OW73108   0.893   7.648   2.998 -0.5476  0.2819 -0.0024
20485SOL    HW173109   0.917   7.572   3.059 -2.7290  0.3646  1.0078
20485SOL    HW273110   0.823   7.617   2.933  0.5532  0.6736 -1.4107
20486SOL     OW73111   3.012   3.816   4.038  0.3623  0.2151  0.1264
20486SOL    HW173112   2.978   3.910   4.038 -0.3222 -0.0263  0.3411
20486SOL    HW273113   2.985   3.772   4.123  1.4378  0.0899  0.4108
20487SOL     OW73114   5.194   6.544   2.703 -0.0571 -0.1657  0.3061
20487SOL    HW173115   5.117   6.482   2.719 -0.4348 -0.2794 -1.7512
20487SOL    HW273116   5.160   6.635   2.682  0.3949 -0.0286  0.1543
20488SOL     OW73117   4.646   6.819   0.686 -0.1141  0.5663 -0.0508
20488SOL    HW173118   4.550   6.793   0.690 -0.3365  1.4847  0.9997
20488SOL    HW273119   4.679   6.813   0.592 -1.6246  1.7472 -0.6618
20489SOL     OW73120   2.915   1.943   2.828 -0.0719  0.0141  1.0874
20489SOL    HW173121   2.923   1.921   2.926 -0.7407 -2.1977  0.6847
20489SOL    HW273122   2.824   1.915   2.796  0.9593 -1.4009 -0.6661
20490SOL     OW73123   7.884   9.392   7.993 -0.1276  0.2962  0.0568
20490SOL    HW173124   7.836   9.345   7.919  1.7440  1.4430 -1.9877
20490SOL    HW273125   7.818   9.438   8.052 -1.7181 -1.4742 -0.2985
20491SOL     OW73126   6.779   3.014   0.827  0.5351  0.6790  0.1151
20491SOL    HW173127   6.702   3.078   0.831 -1.5700 -1.8561  1.7239
20491SOL    HW273128   6.793   2.983   0.733 -2.1924 -0.8570  0.1635
20492SOL     OW73129   4.702   9.619   3.165 -0.7672  0.1308  0.1458
20492SOL    HW173130   4.732   9.696   3.222 -0.6856 -0.2243  0.5880
20492SOL    HW273131   4.727   9.533   3.210 -0.0374 -0.1527 -0.7787
20493SOL     OW73132   3.301   4.001   1.961 -0.1278  0.1214 -0.2415
20493SOL    HW173133   3.315   3.948   2.045 -0.0947 -1.9376 -1.5352
20493SOL    HW273134   3.386   4.047   1.936  0.3264 -0.6378 -0.0963
20494SOL     OW73135   8.390   7.640   1.666 -0.3444  1.2268 -0.3053
20494SOL    HW173136   8.423   7.581   1.739  0.0251  2.2948  0.4067
20494SOL    HW273137   8.426   7.608   1.578  0.0836  0.5726  0.1053
20495SOL     OW73138   9.562   7.698   0.260  0.1284 -0.0516  0.1232
20495SOL    HW173139   9.499   7.641   0.207 -0.1175  0.4724 -0.1527
20495SOL    HW273140   9.533   7.794   0.255  0.1937  0.0198  1.0802
20496SOL     OW73141   2.793   8.981   7.395 -0.1864 -0.1394 -0.2343
20496SOL    HW173142   2.775   8.885   7.417 -0.9018  0.1830  0.6226
20496SOL    HW273143   2.804   8.991   7.296  0.7332 -1.2378 -0.2576
20497SOL     OW73144   3.291   5.388   3.069  0.4549 -0.2845 -0.2884
20497SOL    HW173145   3.386   5.378   3.101  0.5565 -0.8087 -0.7587
20497SOL    HW273146   3.235   5.314   3.105  0.5246 -0.7641 -1.1560
20498SOL     OW73147   0.913   1.149   7.399  0.4097  0.1293 -0.1195
20498SOL    HW173148   0.860   1.212   7.456 -0.8434 -0.5785 -0.4732
20498SOL    HW273149   0.851   1.102   7.335  1.6265  0.0354 -1.2412
20499SOL     OW73150   2.752   9.295   3.778 -0.8506  0.7883  0.2783
20499SOL    HW173151   2.702   9.350   3.711 -1.3272 -1.7719 -1.5240
20499SOL    HW273152   2.815   9.234   3.730  1.2356  1.2516  2.3537
20500SOL     OW73153   3.315   1.004   1.400 -0.1950  0.3367  0.0649
20500SOL    HW173154   3.246   0.970   1.465  0.2848  1.8094  1.3793
20500SOL    HW273155   3.275   1.077   1.345 -0.2691 -0.1547 -0.5322
20501SOL     OW73156   1.743   6.330   1.271 -0.2128 -0.0153  0.8133
20501SOL    HW173157   1.731   6.261   1.200 -0.6277  0.0649  0.8028
20501SOL    HW273158   1.702   6.416   1.241  1.6290  0.6635  0.1982
20502SOL     OW73159   1.234   7.619   2.613  0.2510  0.4233  0.6472
20502SOL    HW173160   1.249   7.547   2.682  0.5178  0.7835  0.9665
20502SOL    HW273161   1.297   7.695   2.630  1.6221 -0.2847 -1.1332
20503SOL     OW73162   7.541   5.351   3.671  0.0123  0.3261  0.2356
20503SOL    HW173163   7.505   5.276   3.725 -2.4400  1.0155 -0.3785
20503SOL    HW273164   7.537   5.436   3.724 -0.3271  0.5966 -0.2098
20504SOL     OW73165   6.532   9.782   2.612 -0.0107  0.2576 -0.2411
20504SOL    HW173166   6.518   9.703   2.552  0.3117  0.3297 -0.4127
20504SOL    HW273167   6.444   9.815   2.644 -0.1245 -0.4232  0.1522
20505SOL     OW73168   8.440   7.821   6.936  0.0291 -0.4348  0.3834
20505SOL    HW173169   8.502   7.798   6.861  0.4074  0.0771  0.5380
20505SOL    HW273170   8.352   7.850   6.899  0.8820  1.8436  0.0633
20506SOL     OW73171   7.216   6.914   4.998 -0.1551 -0.2987 -0.2989
20506SOL    HW173172   7.207   6.830   4.944 -1.1149  0.0236 -0.6631
20506SOL    HW273173   7.312   6.939   5.006  0.1112 -1.2781 -0.4343
20507SOL     OW73174   0.708   7.476   2.300 -0.5335 -0.1796  0.3030
20507SOL    HW173175   0.755   7.430   2.376 -0.7186 -2.5998 -0.9863
20507SOL    HW273176   0.623   7.516   2.332 -1.2150 -2.2443  1.1668
20508SOL     OW73177   4.058   2.755   2.401  0.5060 -0.2997  0.0393
20508SOL    HW173178   4.058   2.851   2.429 -0.0817 -0.3837  0.3483
20508SOL    HW273179   3.964   2.720   2.406  0.6738 -0.8031 -0.3642
20509SOL     OW73180   5.631   4.888   0.044  0.1372 -0.1837  0.5597
20509SOL    HW173181   5.661   4.810  -0.011 -0.9279 -0.3706  0.2253
20509SOL    HW273182   5.642   4.866   0.141  2.1431  0.1944  0.4256
20510SOL     OW73183   2.596   6.669   3.363  0.6558  0.1927  0.0124
20510SOL    HW173184   2.617   6.766   3.354 -0.1438  0.3722  0.0312
20510SOL    HW273185   2.498   6.655   3.349  1.0142 -0.8166 -1.6292
20511SOL     OW73186   0.297   5.618   4.960  0.2647 -0.2770 -0.1764
20511SOL    HW173187   0.394   5.637   4.947  0.1296 -0.1082 -0.9304
20511SOL    HW273188   0.277   5.613   5.058  1.0374 -0.3445 -0.0216
20512SOL     OW73189   5.252   7.968   2.994  0.4980  0.0726  0.0665
20512SOL    HW173190   5.248   8.029   3.073  2.3876  0.1311  0.1385
20512SOL    HW273191   5.167   7.915   2.988  0.1902  0.3438  1.8933
20513SOL     OW73192   9.403   9.270   2.831  0.3362  0.5959  0.1313
20513SOL    HW173193   9.479   9.213   2.797  0.4084  1.6496 -1.5015
20513SOL    HW273194   9.360   9.318   2.755 -1.4060  0.7291  1.1694
20514SOL     OW73195   5.618   8.789   4.508 -0.2756 -0.4654  0.1598
20514SOL    HW173196   5.546   8.853   4.537 -1.0612 -1.2284 -0.0945
20514SOL    HW273197   5.603   8.700   4.551 -0.2033 -0.9857 -0.8867
20515SOL     OW73198   8.289   8.114   0.562  0.4373 -0.4083 -0.2713
20515SOL    HW173199   8.287   8.049   0.486 -0.1516 -1.2542  0.4593
20515SOL    HW273200   8.202   8.111   0.611  1.2726 -0.7790  1.2050
20516SOL     OW73201   2.224   5.392   6.772 -0.1756  0.0602  0.7001
20516SOL    HW173202   2.185   5.373   6.682  1.9174 -1.5988  0.0802
20516SOL    HW273203   2.184   5.330   6.840 -0.3381 -0.0418  0.5108
20517SOL     OW73204   2.803   1.226   3.755 -0.6457 -0.1150  0.4885
20517SOL    HW173205   2.814   1.167   3.835 -0.6234  0.3546  0.8340
20517SOL    HW273206   2.767   1.315   3.784  0.6248  0.5161  0.1278
20518SOL     OW73207   5.942   1.488   5.894 -0.0050 -0.1297  0.2647
20518SOL    HW173208   5.848   1.516   5.873  0.4274  0.3174 -1.0795
20518SOL    HW273209   5.961   1.399   5.853  0.1278 -0.2742  0.6332
20519SOL     OW73210   2.831   3.301   0.674  0.1585 -0.0575 -0.2387
20519SOL    HW173211   2.893   3.333   0.746 -0.4672  1.6628 -0.4554
20519SOL    HW273212   2.743   3.277   0.715  0.5399 -1.3006 -0.1155
20520SOL     OW73213   4.380   7.227   0.714  0.1596  0.2056  0.0955
20520SOL    HW173214   4.429   7.202   0.631  1.4925  2.2492  0.2402
20520SOL    HW273215   4.406   7.164   0.788  0.8208 -0.1231 -0.4141
20521SOL     OW73216   6.160   7.271   5.654 -0.0358  0.4324  0.6340
20521SOL    HW173217   6.080   7.222   5.690  0.5697  0.5829  2.1973
20521SOL    HW273218   6.196   7.220   5.576  0.0718 -1.1907  1.7012
20522SOL     OW73219   8.319   5.049   4.196  0.1884 -0.5180 -0.3032
20522SOL    HW173220   8.220   5.057   4.214  0.1775 -0.9043 -0.1875
20522SOL    HW273221   8.356   4.972   4.249  0.4636 -0.6651 -0.7095
20523SOL     OW73222   9.356   6.011   3.002  0.1378  0.3718 -0.2499
20523SOL    HW173223   9.376   6.076   2.929  1.4323  1.1951  0.8039
20523SOL    HW273224   9.430   6.013   3.069  0.4622 -2.6330 -0.4768
20524SOL     OW73225   9.190   1.361   6.873  0.2872 -0.0184 -0.6600
20524SOL    HW173226   9.183   1.455   6.904  1.7383  0.1980 -0.9502
20524SOL    HW273227   9.275   1.348   6.823 -0.6537 -1.0896 -2.0417
20525SOL     OW73228   9.223   0.568   4.012  0.0115 -0.4813 -0.1354
20525SOL    HW173229   9.134   0.552   4.054 -0.0994  0.6257  0.0467
20525SOL    HW273230   9.294   0.526   4.070 -0.2400  0.1025  0.5984
20526SOL     OW73231   2.755   6.679   2.191 -0.8556  0.4398  0.4648
20526SOL    HW173232   2.741   6.611   2.119 -3.5514  1.6387 -0.2170
20526SOL    HW273233   2.703   6.653   2.273 -1.1745  1.2011  0.5119
20527SOL     OW73234   7.976   5.776   2.107 -0.2986  0.5575 -0.1417
20527SOL    HW173235   8.018   5.850   2.161  1.1449 -0.7002  0.4963
20527SOL    HW273236   7.935   5.709   2.169  1.3362 -0.8798 -0.5767
20528SOL     OW73237   9.204   2.441   3.227 -0.2190  0.6150 -0.0076
20528SOL    HW173238   9.206   2.480   3.135 -0.9727  1.3596  0.2903
20528SOL    HW273239   9.110   2.433   3.258  0.0405  0.5462  0.7769
20529SOL     OW73240   7.806   3.446   2.110 -0.1462 -0.5631 -0.5355
20529SOL    HW173241   7.893   3.490   2.086  0.0579 -0.8629 -0.3444
20529SOL    HW273242   7.732   3.486   2.055 -0.1293  0.7237  0.3607
20530SOL     OW73243   8.383   2.017   7.583  0.1240 -0.2696  0.3881
20530SOL    HW173244   8.309   1.950   7.589  0.0187 -0.4484 -2.5053
20530SOL    HW273245   8.469   1.970   7.563  0.4244  0.2602  0.4328
20531SOL     OW73246   7.290   3.215   1.704 -0.4995  0.1802  0.1111
20531SOL    HW173247   7.295   3.115   1.702  1.0708  0.2035  1.2693
20531SOL    HW273248   7.292   3.245   1.800  1.6071  1.4139 -0.3040
20532SOL     OW73249   9.804   5.377   5.917  0.1207  0.5878  0.9993
20532SOL    HW173250   9.896   5.338   5.922 -0.1797 -0.1473  0.8845
20532SOL    HW273251   9.773   5.400   6.009  0.9820  2.2020  0.9226
20533SOL     OW73252   4.759   0.506   7.608  0.4679  0.1836  0.0150
20533SOL    HW173253   4.844   0.559   7.614  0.0573  0.6142  2.5531
20533SOL    HW273254   4.727   0.484   7.700 -2.6322  0.7136 -0.8807
20534SOL     OW73255   1.218   5.304   0.888 -0.5645  0.0116 -0.0526
20534SOL    HW173256   1.133   5.257   0.866 -0.7339 -0.2540  1.1432
20534SOL    HW273257   1.235   5.298   0.987  1.3876 -0.8790 -0.4236
20535SOL     OW73258   0.361   3.902   0.324  0.6438  0.1204  0.9031
20535SOL    HW173259   0.381   3.987   0.373 -0.5518  1.2761 -0.5479
20535SOL    HW273260   0.446   3.854   0.304  1.6442  2.5313 -0.9574
20536SOL     OW73261   0.921   0.104   1.859 -0.3180  0.0872 -0.2856
20536SOL    HW173262   0.842   0.061   1.905 -0.7785  0.3708 -0.8021
20536SOL    HW273263   0.978   0.033   1.819 -0.1000 -0.1436  0.4314
20537SOL     OW73264   1.961   3.875   0.508  0.0855 -0.3536 -0.6660
20537SOL    HW173265   2.003   3.949   0.560 -0.1677 -0.3660 -0.4464
20537SOL    HW273266   1.956   3.793   0.565 -2.4081  0.3070  0.1012
20538SOL     OW73267   5.798   0.803   0.953 -0.3634  0.4042  0.2451
20538SOL    HW173268   5.752   0.724   0.995 -2.7751  2.1356  0.9509
20538SOL    HW273269   5.829   0.778   0.861 -0.9931 -1.3913  0.4937
20539SOL     OW73270   2.245   2.082   6.977  0.1211  0.3003 -0.3156
20539SOL    HW173271   2.292   1.993   6.981 -0.1763  0.0789 -1.6460
20539SOL    HW273272   2.280   2.134   6.900 -0.6691  0.7945 -0.3391
20540SOL     OW73273   7.230   0.550   4.266 -0.0086 -0.6076  0.1231
20540SOL    HW173274   7.237   0.591   4.357  1.1922  0.0086 -0.2348
20540SOL    HW273275   7.138   0.564   4.229  0.0846  0.8616  0.4355
20541SOL     OW73276   8.513   2.082   2.014 -0.1500  0.2804  0.7381
20541SOL    HW173277   8.571   2.006   1.985 -2.3711 -1.5002  0.9190
20541SOL    HW273278   8.561   2.135   2.084  1.0901 -1.4088  1.1977
20542SOL     OW73279   7.950   2.997   5.901 -0.1679 -0.1567  0.4112
20542SOL    HW173280   8.023   3.040   5.849 -1.0066  1.6436  0.6972
20542SOL    HW273281   7.972   2.900   5.916  1.2725 -0.0735 -1.0674
20543SOL     OW73282   1.609   9.691   2.769  0.7064  0.0084  0.0341
20543SOL    HW173283   1.682   9.708   2.703 -0.3741  1.4683 -0.8326
20543SOL    HW273284   1.542   9.629   2.728  0.3814  0.3791 -0.0053
20544SOL     OW73285   0.478   5.889   3.503 -1.0566  0.1144 -0.2156
20544SOL    HW173286   0.527   5.830   3.439 -2.2924  0.2560 -1.3124
20544SOL    HW273287   0.534   5.969   3.523 -0.8283  0.2802 -1.4728
20545SOL     OW73288   0.231   4.217   2.013 -0.0782  0.0521 -0.2038
20545SOL    HW173289   0.315   4.269   2.028 -0.3519  0.8751 -1.4179
20545SOL    HW273290   0.161   4.277   1.974 -0.4218 -1.2002 -1.5671
20546SOL     OW73291   4.572   7.793   3.124  0.4793  0.3009 -0.3872
20546SOL    HW173292   4.535   7.700   3.123  0.5001  0.2982 -1.7022
20546SOL    HW273293   4.578   7.827   3.031  1.7900  1.1013 -0.0244
20547SOL     OW73294   0.213   0.964   4.125 -0.3013  0.2521  0.0284
20547SOL    HW173295   0.126   0.992   4.166 -1.2762 -1.6337 -0.7110
20547SOL    HW273296   0.269   0.917   4.193 -0.3804  0.3472  0.1589
20548SOL     OW73297   7.788   0.554   4.570 -0.3375  0.0379 -0.2160
20548SOL    HW173298   7.755   0.597   4.654 -0.1275  0.7913 -0.5111
20548SOL    HW273299   7.737   0.590   4.492  0.8947  0.9392 -0.6359
20549SOL     OW73300   3.989   4.398   7.248 -0.4312 -0.5980  0.4379
20549SOL    HW173301   4.016   4.402   7.151  2.5118  0.7953  1.2610
20549SOL    HW273302   4.025   4.314   7.289 -1.2685 -0.9537  0.4470
20550SOL     OW73303   9.142   4.922   6.384 -0.0349  0.6825 -0.1164
20550SOL    HW173304   9.051   4.949   6.353  0.1879  0.1727 -1.2294
20550SOL    HW273305   9.157   4.957   6.476 -2.0636 -0.8424  0.8219
20551SOL     OW73306   7.113   3.013   2.011  0.4415  0.2419  0.3005
20551SOL    HW173307   7.102   3.032   2.109 -1.8827 -0.7456  0.2540
20551SOL    HW273308   7.062   3.081   1.958  1.1035  0.3419 -0.2226
20552SOL     OW73309   9.920   0.718   4.924 -0.1667  0.0759 -0.2522
20552SOL    HW173310   9.883   0.699   5.015  0.7263 -0.8095 -0.0647
20552SOL    HW273311   9.922   0.816   4.909 -0.4920  0.2207  0.6137
20553SOL     OW73312   4.375   5.272   5.311 -0.0835 -0.6937 -0.5618
20553SOL    HW173313   4.398   5.311   5.221 -1.9227 -2.9982 -2.0813
20553SOL    HW273314   4.276   5.259   5.318  0.1162 -1.3202  1.4960
20554SOL     OW73315   8.830   1.298   3.536  0.5401 -0.8046 -0.3851
20554SOL    HW173316   8.863   1.205   3.519 -0.3199 -1.5783  1.9719
20554SOL    HW273317   8.903   1.352   3.577 -0.0581 -1.5311  1.6753
20555SOL     OW73318   3.612   5.515   6.932  0.0436 -0.5147  0.4892
20555SOL    HW173319   3.660   5.493   6.847  1.3713  0.4779  0.9568
20555SOL    HW273320   3.521   5.551   6.910 -0.1938 -1.6673 -0.4451
20556SOL     OW73321   5.620   8.480   2.911  0.6577 -0.4359  0.1935
20556SOL    HW173322   5.603   8.457   2.815 -1.2895  1.8507 -0.0576
20556SOL    HW273323   5.706   8.530   2.918  1.1496 -1.1949 -0.2375
20557SOL     OW73324   1.247   6.658   2.549 -0.1423 -0.6030 -0.2774
20557SOL    HW173325   1.245   6.568   2.593 -2.6816 -0.4486 -0.0039
20557SOL    HW273326   1.267   6.728   2.617 -1.8957 -0.6005  0.2790
20558SOL     OW73327   9.439   9.269   6.840 -0.1934  0.7701 -0.0910
20558SOL    HW173328   9.438   9.210   6.921 -0.6301  1.4388  0.3945
20558SOL    HW273329   9.346   9.298   6.819 -0.1919 -0.0406 -1.3186
20559SOL     OW73330   1.145   8.907   4.159 -0.0777  0.5992  0.2982
20559SOL    HW173331   1.193   8.906   4.246 -0.2002 -0.3419  0.3565
20559SOL    HW273332   1.104   8.817   4.141  0.3335  0.6436 -0.9367
20560SOL     OW73333   2.135   9.328   0.937  0.1444  0.7077  0.1567
20560SOL    HW173334   2.072   9.250   0.929 -0.8163  1.4787  0.0507
20560SOL    HW273335   2.217   9.299   0.986 -0.5726 -0.1649  0.8899
20561SOL     OW73336   1.384   3.706   1.345 -0.2618 -0.0271  0.1849
20561SOL    HW173337   1.290   3.736   1.361 -0.9101 -1.9724  0.0154
20561SOL    HW273338   1.432   3.701   1.433 -0.9166 -1.0394  0.4843
20562SOL     OW73339   0.090   7.925   1.849  0.2531  0.3940 -0.0390
20562SOL    HW173340   0.127   7.982   1.775  2.5206  0.2778  0.9745
20562SOL    HW273341   0.065   7.835   1.813 -1.1358  1.2089 -1.1727
20563SOL     OW73342   1.449   7.236   6.818  0.4473  0.1807  0.0797
20563SOL    HW173343   1.399   7.203   6.898 -0.8794  0.6460 -0.5453
20563SOL    HW273344   1.393   7.302   6.768  0.9534 -0.6621 -1.6477
20564SOL     OW73345   0.226   1.780   4.591  0.3731  0.3549  0.1962
20564SOL    HW173346   0.286   1.720   4.643  0.6861  1.2173  0.8375
20564SOL    HW273347   0.261   1.790   4.498  1.9626  1.8958  0.9369
20565SOL     OW73348   6.789   4.710   0.593 -0.1664 -0.2399 -0.1776
20565SOL    HW173349   6.777   4.636   0.527  0.3963  0.9895 -1.7044
20565SOL    HW273350   6.752   4.795   0.555  4.1680  1.4836 -0.8540
20566SOL     OW73351   1.641   7.798   0.217 -0.4890 -0.2031  0.5036
20566SOL    HW173352   1.702   7.863   0.261  1.1574 -1.6887  0.4733
20566SOL    HW273353   1.546   7.820   0.241  0.1255  1.3850  1.5525
20567SOL     OW73354   8.143   3.318   5.608 -0.0505  0.3699  0.5809
20567SOL    HW173355   8.210   3.380   5.567 -0.0461 -0.5017 -0.7437
20567SOL    HW273356   8.084   3.370   5.671  0.4642  1.5558  0.1005
20568SOL     OW73357   9.186   0.536   6.212 -0.6885  0.2117  0.4373
20568SOL    HW173358   9.133   0.457   6.179  0.4896 -0.4433  0.1034
20568SOL    HW273359   9.125   0.615   6.220 -1.3658 -0.0712 -1.6071
20569SOL     OW73360   6.071   5.471   2.217  0.4746 -0.0094 -0.1879
20569SOL    HW173361   6.124   5.516   2.288  0.6574 -2.7763  1.4829
20569SOL    HW273362   5.974   5.473   2.241  0.2246  1.5973 -1.3036
20570SOL     OW73363   0.576   6.247   7.313 -0.5140 -0.6545  0.0587
20570SOL    HW173364   0.498   6.214   7.260  0.2608  0.1794 -1.6579
20570SOL    HW273365   0.611   6.173   7.371 -1.0135 -1.7750 -1.0424
20571SOL     OW73366   7.774   6.539   8.344 -0.2035 -0.3313  0.0122
20571SOL    HW173367   7.727   6.582   8.421  1.0544  0.4189  0.3796
20571SOL    HW273368   7.796   6.609   8.275 -0.6426 -0.8687 -0.6799
20572SOL     OW73369   2.175   2.399   0.460 -0.0235  0.0561 -0.3468
20572SOL    HW173370   2.106   2.435   0.397 -0.1360 -0.1836 -0.3617
20572SOL    HW273371   2.195   2.303   0.436  0.4282  0.1697 -0.4435
20573SOL     OW73372   1.555   8.073   7.215 -0.3628  0.0048  0.2351
20573SOL    HW173373   1.563   7.976   7.190  1.1932 -0.1455  1.2711
20573SOL    HW273374   1.608   8.128   7.151 -1.4568  0.2210 -0.5116
20574SOL     OW73375   1.505   7.635   3.259  0.6729 -0.1510  0.4257
20574SOL    HW173376   1.539   7.662   3.169  0.7323 -1.1363  0.1435
20574SOL    HW273377   1.405   7.636   3.259  0.6730 -0.1432  0.3436
20575SOL     OW73378   6.583   2.057   4.749  0.0029  0.0053 -0.1911
20575SOL    HW173379   6.634   2.087   4.830  1.1571  0.8449 -1.2060
20575SOL    HW273380   6.513   1.991   4.776  1.6599 -1.2197  1.2450
20576SOL     OW73381   3.106   2.433   1.939  0.2828  0.5923  0.3337
20576SOL    HW173382   3.204   2.413   1.937  0.0396 -0.5037 -1.2798
20576SOL    HW273383   3.063   2.376   2.009  0.0782 -2.4995 -2.1906
20577SOL     OW73384   8.526   5.754   5.248 -0.2245 -0.2286  0.3569
20577SOL    HW173385   8.462   5.799   5.311 -1.6519  1.8057 -2.4529
20577SOL    HW273386   8.584   5.824   5.205 -0.5099 -1.3871 -1.9462
20578SOL     OW73387   7.716   0.055   1.551 -0.4744 -0.3277  0.4318
20578SOL    HW173388   7.679   0.138   1.593 -1.2900 -0.7492  0.5460
20578SOL    HW273389   7.658  -0.023   1.573  0.4776 -1.0006  0.6232
20579SOL     OW73390   7.942   2.197   6.658 -0.1333  0.2275 -0.4376
20579SOL    HW173391   7.845   2.176   6.647 -0.2921 -0.3779  1.8938
20579SOL    HW273392   7.993   2.112   6.673  0.6332  0.6222 -0.7641
20580SOL     OW73393   1.513   8.962   3.491  0.1323  0.1608  0.0604
20580SOL    HW173394   1.595   8.915   3.524  0.3425  0.2612 -0.3061
20580SOL    HW273395   1.471   8.909   3.418 -0.3614 -0.0867  0.5215
20581SOL     OW73396   2.271   1.382   0.545 -0.6167 -0.3912  0.1657
20581SOL    HW173397   2.172   1.385   0.531 -0.2926 -0.3186 -2.4491
20581SOL    HW273398   2.306   1.474   0.559 -0.9654 -0.4617  1.5291
20582SOL     OW73399   0.106   9.251   1.058  0.0547  0.4529  0.3602
20582SOL    HW173400   0.167   9.328   1.079  0.7303 -0.2011  0.8070
20582SOL    HW273401   0.077   9.207   1.143 -0.9036  0.6427  0.1435
20583SOL     OW73402   2.827   4.675   9.935  0.4826  0.3252 -0.0668
20583SOL    HW173403   2.768   4.723   9.869 -1.0961 -0.0640  1.0213
20583SOL    HW273404   2.802   4.578   9.937 -0.0310  0.4835  1.6829
20584SOL     OW73405   8.656   4.957   2.447  0.2201  0.4488  0.2556
20584SOL    HW173406   8.726   4.973   2.378  0.1964 -0.1022  0.1046
20584SOL    HW273407   8.614   5.044   2.472  0.3716  0.6751 -0.2742
20585SOL     OW73408   8.524   6.710   4.303 -0.0064  0.7703  0.1898
20585SOL    HW173409   8.539   6.648   4.379  0.6898  0.7830  0.0653
20585SOL    HW273410   8.435   6.691   4.261 -1.0296  1.7074  1.8834
20586SOL     OW73411   4.115   2.202   0.937 -0.2766 -0.2501 -0.0290
20586SOL    HW173412   4.118   2.159   1.027 -0.4110 -1.6834 -0.7051
20586SOL    HW273413   4.023   2.238   0.920 -0.4523 -0.6435  0.0937
20587SOL     OW73414   9.475   1.272   5.608  0.4619 -0.3136 -0.5947
20587SOL    HW173415   9.451   1.369   5.617  1.5891 -0.0684 -0.1975
20587SOL    HW273416   9.433   1.221   5.683  1.5673  0.1903  0.3807
20588SOL     OW73417   1.233   8.985   3.006 -0.0322 -0.3364  0.2838
20588SOL    HW173418   1.186   8.921   3.067  1.1906 -0.5466  1.0140
20588SOL    HW273419   1.174   9.064   2.990  0.0634  0.2852  2.7018
20589SOL     OW73420   2.870   3.172   5.112  0.4003 -0.2875  0.2752
20589SOL    HW173421   2.839   3.142   5.022 -0.4317  1.0779  0.1042
20589SOL    HW273422   2.915   3.261   5.104 -0.1176  0.0692  1.2719
20590SOL     OW73423   3.508   5.004   1.569  0.5184 -0.0780  0.1329
20590SOL    HW173424   3.530   5.001   1.666  0.8650 -0.6991  0.0380
20590SOL    HW273425   3.536   4.918   1.526  0.2578  0.1481 -0.4903
20591SOL     OW73426   1.097   6.649   0.468 -0.2403  0.0467 -0.2497
20591SOL    HW173427   1.139   6.593   0.539  2.0602  0.0230 -1.6139
20591SOL    HW273428   1.025   6.705   0.509  0.4784 -0.5822  1.9396
20592SOL     OW73429   9.776   9.511   7.587  0.2589 -0.1170  0.0161
20592SOL    HW173430   9.704   9.448   7.559  0.2205 -0.2612  0.4309
20592SOL    HW273431   9.843   9.520   7.513 -0.7548  0.8737 -0.8011
20593SOL     OW73432   9.576   0.515   6.393  0.0535  0.8395  0.1521
20593SOL    HW173433   9.598   0.484   6.300  1.7677 -0.8239  1.0757
20593SOL    HW273434   9.661   0.543   6.439 -0.4600 -0.5317  1.9864
20594SOL     OW73435   5.776   1.465   5.557 -0.1719 -0.1716 -0.4296
20594SOL    HW173436   5.815   1.558   5.558 -0.3858 -0.0853  0.0516
20594SOL    HW273437   5.810   1.416   5.476  1.5085 -0.3451  0.3628
20595SOL     OW73438   5.276   7.684   6.291  0.0500  0.1901  0.2129
20595SOL    HW173439   5.206   7.633   6.341 -0.0650 -0.4968 -0.6365
20595SOL    HW273440   5.234   7.762   6.245 -0.0779  0.0509  0.0928
20596SOL     OW73441   7.810   3.925   5.438  0.0587 -0.2000  0.0610
20596SOL    HW173442   7.779   3.985   5.512  0.2660  1.3233 -1.0636
20596SOL    HW273443   7.861   3.979   5.370  0.7570 -1.7585 -0.6782
20597SOL     OW73444   3.212   9.106   4.996 -0.0889  0.2245 -0.5647
20597SOL    HW173445   3.203   9.178   4.928 -1.1653  0.7864  0.1538
20597SOL    HW273446   3.308   9.091   5.017  0.1371  1.5170 -0.6615
20598SOL     OW73447   6.974   2.026   3.878 -0.0755  0.3549  0.0921
20598SOL    HW173448   7.045   2.006   3.945 -1.2027  2.2589  1.9189
20598SOL    HW273449   6.889   2.049   3.926 -1.6896 -1.0048 -2.0375
20599SOL     OW73450   3.352   6.010   6.442 -0.6069  0.1063 -0.3905
20599SOL    HW173451   3.411   5.947   6.391 -0.2485 -0.1100  0.2849
20599SOL    HW273452   3.340   6.095   6.390  2.7476  1.3729  0.7727
20600SOL     OW73453   4.037   3.114   1.075  0.3481 -0.2342  0.1907
20600SOL    HW173454   4.045   3.159   1.164 -0.4986 -0.0336  0.1678
20600SOL    HW273455   4.107   3.042   1.068  1.4622  0.8250  0.3630
20601SOL     OW73456   0.863   2.908   7.605  1.1698 -0.7589  0.3612
20601SOL    HW173457   0.834   2.839   7.539  2.0326 -0.4837 -0.3250
20601SOL    HW273458   0.794   2.918   7.676 -0.6836  0.3036 -1.5345
20602SOL     OW73459   7.399   0.582   1.915  0.2729  0.1702 -0.4240
20602SOL    HW173460   7.458   0.659   1.938  0.2003 -0.2165  1.1512
20602SOL    HW273461   7.438   0.498   1.954 -1.6193  0.0098  1.2321
20603SOL     OW73462   4.504   2.654   4.789  0.1308  0.3757 -0.1872
20603SOL    HW173463   4.467   2.573   4.833  1.2815  0.3056  0.6884
20603SOL    HW273464   4.589   2.681   4.835  0.0550  1.7468 -0.8116
20604SOL     OW73465   1.527   1.558   4.749 -0.1879 -0.1296  0.6512
20604SOL    HW173466   1.474   1.642   4.739  1.3734  0.5792 -2.4370
20604SOL    HW273467   1.471   1.480   4.719 -0.0549  0.4300 -1.1345
20605SOL     OW73468   3.533   2.141   2.664  0.1243  0.6214 -0.1911
20605SOL    HW173469   3.600   2.146   2.590  0.3985 -0.0261  0.0115
20605SOL    HW273470   3.569   2.083   2.738 -0.4812  0.6144  0.0996
20606SOL     OW73471   4.361   2.757   7.518  0.3932 -0.0826  0.1497
20606SOL    HW173472   4.450   2.713   7.510 -0.0899 -0.7324 -2.3036
20606SOL    HW273473   4.300   2.699   7.573  0.6473 -1.0613 -0.5828
20607SOL     OW73474   3.885   9.029   7.112  0.1207  0.1497 -0.7351
20607SOL    HW173475   3.835   9.072   7.186 -0.5943 -1.1826 -0.4296
20607SOL    HW273476   3.959   8.972   7.149 -0.0919 -0.3373 -1.0476
20608SOL     OW73477   9.559   8.164   2.800  0.3801 -0.2624 -0.2204
20608SOL    HW173478   9.594   8.126   2.715  1.6238  0.8102 -0.2046
20608SOL    HW273479   9.571   8.097   2.874  1.3980 -0.3320 -0.4382
20609SOL     OW73480   6.063   8.574   5.642  0.1606  0.1356  0.4937
20609SOL    HW173481   6.007   8.632   5.700 -0.3630  0.7990 -0.6538
20609SOL    HW273482   6.088   8.624   5.559  2.2106 -0.2435  0.8521
20610SOL     OW73483   2.187   7.211   1.268  0.1169 -0.3639  0.1426
20610SOL    HW173484   2.148   7.272   1.198 -2.7476  0.3000  2.2057
20610SOL    HW273485   2.149   7.119   1.256 -1.1185 -0.0353  1.3137
20611SOL     OW73486   1.753   2.655   1.422 -0.7211  0.5829 -0.2246
20611SOL    HW173487   1.791   2.746   1.442 -1.4130  0.4876  1.5952
20611SOL    HW273488   1.793   2.588   1.484 -1.3757 -0.1044 -0.5411
20612SOL     OW73489   4.768   6.184   0.069  0.9985  0.2827  0.1876
20612SOL    HW173490   4.775   6.139  -0.020  1.6079 -0.7708  0.7629
20612SOL    HW273491   4.672   6.202   0.090  0.7046 -1.2463  0.1908
20613SOL     OW73492   1.971   8.641   5.159 -0.0200  0.4217 -0.6888
20613SOL    HW173493   1.871   8.650   5.154  0.0581  1.1210 -1.1220
20613SOL    HW273494   2.000   8.642   5.255 -0.6699 -2.7569 -0.4170
20614SOL     OW73495   2.220   2.343   5.892 -0.8504  0.7271  0.1378
20614SOL    HW173496   2.209   2.352   5.793 -2.1510  2.3194  0.4087
20614SOL    HW273497   2.155   2.274   5.927  0.3692 -0.6321 -0.2532
20615SOL     OW73498   9.832   5.996   0.844 -0.3957 -0.2618  0.0489
20615SOL    HW173499   9.896   5.933   0.889  0.1303 -0.3000 -0.7396
20615SOL    HW273500   9.839   6.086   0.887  1.2725  0.1274 -0.9676
20616SOL     OW73501   0.844   8.854   0.541  0.0359 -0.6738 -0.1463
20616SOL    HW173502   0.911   8.807   0.484 -2.6791 -2.8424 -1.7251
20616SOL    HW273503   0.802   8.928   0.488 -3.1931 -3.3143 -1.4682
20617SOL     OW73504   2.428   9.329   5.421  0.1851 -0.6414  0.7891
20617SOL    HW173505   2.453   9.280   5.337  1.7454 -0.9065  1.3892
20617SOL    HW273506   2.347   9.385   5.404  0.1327 -1.1527 -0.7280
20618SOL     OW73507   1.504   4.666   3.108  0.4159 -0.1002 -0.1050
20618SOL    HW173508   1.544   4.720   3.181 -2.5043 -1.4095  2.5770
20618SOL    HW273509   1.419   4.710   3.076 -0.5806 -1.6985  0.2876
20619SOL     OW73510   5.195   7.185   3.182  0.2471  0.2974  0.1642
20619SOL    HW173511   5.208   7.086   3.176  0.5963  0.4791 -2.7137
20619SOL    HW273512   5.272   7.226   3.231  0.7110 -0.7134  0.2951
20620SOL     OW73513   0.778   3.029   5.602 -0.0087  0.1219 -0.4649
20620SOL    HW173514   0.771   3.028   5.702 -2.2776  0.2878 -0.5783
20620SOL    HW273515   0.740   2.944   5.565  0.6346  0.1491 -1.2025
20621SOL     OW73516   5.285   8.723   5.795  0.0405 -0.0386 -0.0259
20621SOL    HW173517   5.319   8.811   5.764  1.3910  0.2840  2.1894
20621SOL    HW273518   5.362   8.660   5.805 -0.6159 -0.7572  0.5568
20622SOL     OW73519   9.594   1.357   3.509 -0.3816 -0.1587 -0.0421
20622SOL    HW173520   9.620   1.262   3.529  0.6719  0.0133 -0.5455
20622SOL    HW273521   9.604   1.374   3.411 -0.9187  0.3716 -0.0046
20623SOL     OW73522   7.397   0.398   1.562 -0.7414 -0.0580  0.4357
20623SOL    HW173523   7.318   0.442   1.604 -1.8769 -1.9460  0.3426
20623SOL    HW273524   7.381   0.299   1.555  1.2239 -0.3489 -0.4733
20624SOL     OW73525   1.164   0.599   1.829  0.1972 -0.0111 -0.0670
20624SOL    HW173526   1.073   0.627   1.858  0.1413 -0.5148  0.2422
20624SOL    HW273527   1.162   0.505   1.794  0.4508  0.2418 -0.7814
20625SOL     OW73528   5.009   1.108   3.911 -0.6896 -0.4226 -0.0900
20625SOL    HW173529   4.945   1.093   3.986 -0.3562  1.7964  0.6598
20625SOL    HW273530   4.959   1.109   3.824 -2.1014  3.7985  0.6798
20626SOL     OW73531   2.153   5.478   4.342 -0.2781 -0.6339  0.7502
20626SOL    HW173532   2.199   5.559   4.379  0.7760 -1.2076  0.7131
20626SOL    HW273533   2.202   5.445   4.261 -0.9526 -1.0530  0.5063
20627SOL     OW73534   0.765   5.042   0.570  0.0552 -1.2155  0.2119
20627SOL    HW173535   0.849   5.087   0.542 -0.0691 -1.0200  0.1504
20627SOL    HW273536   0.745   4.965   0.509  0.7820 -1.9607  0.8928
20628SOL     OW73537   5.893   0.754   1.342 -0.1189 -0.1565  0.0562
20628SOL    HW173538   5.929   0.805   1.264  0.6002 -1.7376 -0.6621
20628SOL    HW273539   5.831   0.683   1.309  1.1431 -1.6442  0.8015
20629SOL     OW73540   9.885   4.156   0.056 -0.8920 -0.6730 -0.0033
20629SOL    HW173541   9.892   4.221  -0.020  0.4739 -0.9567 -0.1301
20629SOL    HW273542   9.956   4.176   0.123 -1.8010 -0.7168  0.9788
20630SOL     OW73543   1.849   4.180   5.429  0.1585 -0.1353 -0.4470
20630SOL    HW173544   1.873   4.122   5.507  2.4696  0.0885 -0.9619
20630SOL    HW273545   1.750   4.178   5.415 -0.0396 -1.9817  1.0672
20631SOL     OW73546   2.166   3.708   3.568  0.4313 -0.2638  0.2363
20631SOL    HW173547   2.198   3.802   3.570 -0.4565  0.0484 -0.2671
20631SOL    HW273548   2.193   3.665   3.482  1.0021 -0.5368  0.5446
20632SOL     OW73549   2.330   1.943   3.559 -0.5652 -0.3301  0.0922
20632SOL    HW173550   2.415   1.977   3.521 -0.4768  0.4732  0.9751
20632SOL    HW273551   2.339   1.933   3.658 -2.2822  2.3278  0.5919
20633SOL     OW73552   4.404   5.641   3.109 -0.4101 -0.3499 -0.0936
20633SOL    HW173553   4.382   5.667   3.204 -0.1011 -1.3160  0.2484
20633SOL    HW273554   4.334   5.678   3.048 -0.1386  1.0378  0.4038
20634SOL     OW73555   5.804   0.716   4.778 -0.4700 -0.3228 -0.1605
20634SOL    HW173556   5.797   0.814   4.759  3.2779  0.8726  3.7814
20634SOL    HW273557   5.712   0.677   4.785 -2.0409  2.7075 -2.4779
20635SOL     OW73558   9.133   9.459   7.410  0.2603  0.2657  0.3025
20635SOL    HW173559   9.208   9.496   7.355  0.0276  1.2986  0.6702
20635SOL    HW273560   9.170   9.420   7.495  0.3369  1.3631  0.7899
20636SOL     OW73561   7.353   4.030   0.101  0.1692  0.6460  0.3206
20636SOL    HW173562   7.278   3.965   0.114 -0.5883  1.4486  0.0077
20636SOL    HW273563   7.397   4.012   0.013 -1.1644  1.6569 -0.5804
20637SOL     OW73564   8.841   5.117   3.579  0.5164 -0.4532  0.0524
20637SOL    HW173565   8.759   5.150   3.626  1.3419  0.7121  0.6937
20637SOL    HW273566   8.851   5.164   3.491  0.8939 -0.0665  0.3024
20638SOL     OW73567   0.362   4.270   7.460  0.6540  0.7382 -0.3820
20638SOL    HW173568   0.385   4.366   7.450  1.0984  0.8276  1.5130
20638SOL    HW273569   0.440   4.214   7.432  1.4910  0.9828  1.3929
20639SOL     OW73570   0.456   5.315  10.067 -0.2134 -0.5966  0.2543
20639SOL    HW173571   0.440   5.366  10.151  1.8005  0.4599  0.0471
20639SOL    HW273572   0.516   5.237  10.086  2.5420  1.2158 -0.5956
20640SOL     OW73573   5.365   9.106   5.040  0.1684 -0.0743  0.0925
20640SOL    HW173574   5.425   9.163   5.095  0.0823 -0.2501  0.3701
20640SOL    HW273575   5.406   9.016   5.028  1.1383  0.6104 -1.8565
20641SOL     OW73576   1.068   9.965   2.937  0.4342 -0.2921 -0.0889
20641SOL    HW173577   1.110   9.999   3.021  0.5876 -0.4007 -0.1211
20641SOL    HW273578   1.025  10.042   2.889  0.5599 -0.1870 -0.0346
20642SOL     OW73579   0.001   9.440   6.041  0.0357  0.3412  0.0448
20642SOL    HW173580  -0.097   9.459   6.041 -1.1141 -4.8458 -0.3629
20642SOL    HW273581   0.034   9.437   6.136 -0.8317 -0.6592  0.3229
20643SOL     OW73582   5.429   9.596   3.434 -0.3162  0.4492  0.4948
20643SOL    HW173583   5.422   9.499   3.454  0.2722  0.9156  3.1743
20643SOL    HW273584   5.384   9.649   3.506  0.8751  2.2115 -0.0029
20644SOL     OW73585   7.656   0.902   2.505 -0.3755 -0.1356  0.3339
20644SOL    HW173586   7.585   0.904   2.575 -1.8820  0.7493 -1.1949
20644SOL    HW273587   7.683   0.996   2.483 -0.2198 -0.3963 -0.6005
20645SOL     OW73588   5.490   9.181   4.633  0.1395  0.4214  0.4083
20645SOL    HW173589   5.576   9.197   4.682  0.9791 -0.8920 -0.5786
20645SOL    HW273590   5.506   9.193   4.534 -0.6996 -0.2251  0.1914
20646SOL     OW73591   0.929   0.967   6.180  0.4569  0.3565  0.0181
20646SOL    HW173592   0.848   1.024   6.170  0.6331  0.5648 -0.2489
20646SOL    HW273593   0.905   0.882   6.226  0.0973  0.4375 -0.0198
20647SOL     OW73594   7.649   8.544   1.880  0.1173  0.0453 -0.1314
20647SOL    HW173595   7.624   8.497   1.795  1.3338 -0.3308 -0.2854
20647SOL    HW273596   7.702   8.626   1.859 -0.0353  0.2381  0.2367
20648SOL     OW73597   0.908   7.431   3.184 -0.1650 -0.8356 -0.0375
20648SOL    HW173598   0.932   7.417   3.280  0.2370 -0.3952 -0.0736
20648SOL    HW273599   0.972   7.381   3.126 -0.0107 -0.5720 -0.0963
20649SOL     OW73600   3.253   1.565   5.333  0.1172  0.1141 -0.2515
20649SOL    HW173601   3.246   1.660   5.301 -1.0024  0.2322  0.3434
20649SOL    HW273602   3.163   1.534   5.364  1.1155 -0.1033  2.5073
20650SOL     OW73603   8.308   7.024   0.936  0.2673 -0.0042  0.0259
20650SOL    HW173604   8.345   7.073   0.857 -1.5372  0.5070 -0.5093
20650SOL    HW273605   8.327   7.076   1.019 -0.6486  1.0310 -0.4193
20651SOL     OW73606   7.418   1.288   5.276  0.0117 -0.6250  0.1160
20651SOL    HW173607   7.408   1.345   5.358 -0.4095  0.1977 -0.5073
20651SOL    HW273608   7.433   1.193   5.304 -1.5481 -0.5899  1.1480
20652SOL     OW73609   8.550   6.122   4.877  0.4214 -0.6518  0.2462
20652SOL    HW173610   8.616   6.063   4.924  0.4547 -0.0964  0.9146
20652SOL    HW273611   8.513   6.188   4.943  1.2888  0.8547 -0.7735
20653SOL     OW73612   1.155   5.685   7.519  0.5253 -0.2260 -0.0156
20653SOL    HW173613   1.157   5.649   7.426 -3.1301  3.2721 -1.6105
20653SOL    HW273614   1.071   5.656   7.565  1.4300 -0.4356  1.5557
20654SOL     OW73615   1.536   4.129   6.141  0.1114  0.2109 -0.0446
20654SOL    HW173616   1.618   4.185   6.148  0.5350 -0.1613 -1.9324
20654SOL    HW273617   1.502   4.110   6.233  1.3021  1.5680  0.7070
20655SOL     OW73618   3.786   9.250   5.678 -0.0093  0.2910  0.3512
20655SOL    HW173619   3.687   9.243   5.664 -0.3616  2.5493  1.4462
20655SOL    HW273620   3.816   9.343   5.657  1.9026 -0.3899 -0.0129
20656SOL     OW73621   1.639   8.017   3.362 -0.2199  0.7499  0.1896
20656SOL    HW173622   1.618   8.073   3.442  0.3419  0.6050  0.4446
20656SOL    HW273623   1.688   7.934   3.392  0.4954  0.9722 -0.3633
20657SOL     OW73624   5.509   4.572   1.240  0.1872  0.5441 -0.1662
20657SOL    HW173625   5.588   4.536   1.191  0.2728 -3.3069  2.5754
20657SOL    HW273626   5.441   4.500   1.251 -2.2879  2.8836  0.4578
20658SOL     OW73627   3.288   0.858   6.360  0.2761 -0.4695  0.1862
20658SOL    HW173628   3.341   0.789   6.409 -0.9659 -1.1868  0.5424
20658SOL    HW273629   3.349   0.908   6.298  1.3870 -1.1977  0.6595
20659SOL     OW73630   7.344   0.087   7.684  0.2806  0.4197  0.0097
20659SOL    HW173631   7.433   0.088   7.639  0.0970  2.0200 -0.3755
20659SOL    HW273632   7.351   0.134   7.772  0.0872 -0.5460  0.5459
20660SOL     OW73633   4.029   6.914   1.642  0.3503 -0.1988  0.0377
20660SOL    HW173634   4.053   6.958   1.728 -0.5518 -0.3334  0.3594
20660SOL    HW273635   4.069   6.965   1.566  1.6611 -0.4298  0.5665
20661SOL     OW73636   6.176   7.162   4.478 -0.1665 -0.5995 -0.0841
20661SOL    HW173637   6.271   7.168   4.450 -0.0818 -0.9416  0.1342
20661SOL    HW273638   6.122   7.229   4.426  0.5861  1.3294  1.5470
20662SOL     OW73639   7.185   0.465   1.769  0.1499 -0.3683  0.4313
20662SOL    HW173640   7.271   0.502   1.804  0.5410 -1.0066  0.1513
20662SOL    HW273641   7.132   0.427   1.845 -0.0461  0.3367  0.6539
20663SOL     OW73642   6.525   0.711   0.950 -0.2824 -0.1114  0.5854
20663SOL    HW173643   6.602   0.729   1.010 -0.9570  0.4217  1.3059
20663SOL    HW273644   6.487   0.621   0.971 -0.6775  0.1808  1.1435
20664SOL     OW73645   6.077   2.016   1.219  0.2603  0.1240 -0.0661
20664SOL    HW173646   6.025   1.978   1.295 -0.1511 -0.7444 -0.7598
20664SOL    HW273647   6.045   2.109   1.199  0.5581  0.4534  0.9856
20665SOL     OW73648   7.395   0.101   3.509 -0.0015  0.2210  0.2507
20665SOL    HW173649   7.444   0.177   3.552  0.8919  0.3205 -0.9243
20665SOL    HW273650   7.450   0.063   3.435 -0.7802 -1.0689  0.3071
20666SOL     OW73651   4.939   4.930   2.462  0.3783  0.4976 -0.7945
20666SOL    HW173652   4.899   4.841   2.440  0.3701  0.6540 -1.4381
20666SOL    HW273653   4.914   4.996   2.391  0.9018  0.8591 -0.6492
20667SOL     OW73654   3.065   0.413   1.847  0.1944 -0.0678 -0.4630
20667SOL    HW173655   3.127   0.410   1.768  2.1161 -0.9277  1.0323
20667SOL    HW273656   3.108   0.466   1.920 -1.9605  1.5025 -0.2941
20668SOL     OW73657   2.784   8.381   3.999  0.1968  0.2666  0.0373
20668SOL    HW173658   2.755   8.366   3.904  1.2756  2.0897 -0.6109
20668SOL    HW273659   2.730   8.456   4.038  2.1085  1.8692 -0.3019
20669SOL     OW73660   1.937   8.402   2.705  0.5675  0.2818 -0.5078
20669SOL    HW173661   1.865   8.363   2.763 -0.0628  0.6192 -1.0475
20669SOL    HW273662   1.915   8.384   2.609  2.0171 -0.9800 -0.6215
20670SOL     OW73663   1.100   3.643  10.060 -0.4058  0.2964  0.4836
20670SOL    HW173664   1.167   3.622  10.131 -0.0680  0.5826  0.2551
20670SOL    HW273665   1.093   3.566   9.997  0.1765  0.5155  0.1495
20671SOL     OW73666   2.324   5.679   0.840 -0.0304  0.0439 -0.7508
20671SOL    HW173667   2.417   5.700   0.810  1.1071 -1.0754  1.8007
20671SOL    HW273668   2.294   5.595   0.797  1.3582 -1.2382  0.6887
20672SOL     OW73669   8.309   9.715   7.526 -0.0215  0.4825  0.4472
20672SOL    HW173670   8.379   9.752   7.587 -1.1751  1.6165  1.1390
20672SOL    HW273671   8.265   9.791   7.477 -0.4660 -0.2496 -0.3020
20673SOL     OW73672   7.014   7.997   6.627  0.0277 -0.3879  0.0544
20673SOL    HW173673   6.954   8.017   6.705 -1.3849  0.5900 -1.2505
20673SOL    HW273674   7.018   8.077   6.567  0.6882 -1.3039 -1.1369
20674SOL     OW73675   9.446   5.651   2.786  0.0590 -0.3392  0.0493
20674SOL    HW173676   9.422   5.726   2.724  1.6111 -1.0859 -1.4824
20674SOL    HW273677   9.545   5.652   2.803 -0.4487  0.3752  3.2213
20675SOL     OW73678   8.699   4.000   4.473  0.6173 -0.3079  0.3046
20675SOL    HW173679   8.642   4.066   4.425  0.0871 -1.1815 -0.2959
20675SOL    HW273680   8.647   3.915   4.487  0.5657  0.1184  2.9231
20676SOL     OW73681   2.094   9.071   3.160  0.4182 -0.4548  0.2292
20676SOL    HW173682   2.057   9.089   3.251 -0.9895 -1.1073 -0.1930
20676SOL    HW273683   2.044   9.126   3.092  1.8277  0.4453 -0.0952
20677SOL     OW73684   4.257   5.315   1.311 -0.5437  0.5837 -0.8548
20677SOL    HW173685   4.226   5.224   1.283 -1.7416  0.7172 -0.0021
20677SOL    HW273686   4.301   5.309   1.400  1.0935  0.5434 -1.6549
20678SOL     OW73687   1.245   6.396   6.834  0.0524 -0.3770 -0.3984
20678SOL    HW173688   1.247   6.328   6.761 -1.0915  0.2969 -1.0561
20678SOL    HW273689   1.327   6.453   6.828  0.7797 -1.3598 -0.1335
20679SOL     OW73690   9.015   1.779   5.821  0.4564 -0.1242 -0.0728
20679SOL    HW173691   8.942   1.799   5.756  0.3258  0.3277  0.2088
20679SOL    HW273692   8.986   1.804   5.913  0.3192 -1.5709  0.2881
20680SOL     OW73693   9.099   8.709   5.568  0.2698 -0.1182 -0.2386
20680SOL    HW173694   9.036   8.764   5.623 -0.9301  0.8129 -2.4955
20680SOL    HW273695   9.193   8.729   5.596 -0.2325  1.7286  0.2161
20681SOL     OW73696   1.154   4.450   5.243 -0.0299 -0.1454 -1.1505
20681SOL    HW173697   1.078   4.512   5.261  0.9968  1.2332 -1.4226
20681SOL    HW273698   1.157   4.428   5.145 -0.5653 -0.8684 -1.0100
20682SOL     OW73699   6.308   4.726   0.268  0.4587 -0.3672 -0.0866
20682SOL    HW173700   6.280   4.664   0.341  0.7541 -0.2817  0.1028
20682SOL    HW273701   6.263   4.701   0.183  0.1758 -0.5197  0.1081
20683SOL     OW73702   7.114   0.553   1.147  0.0507 -0.4925  0.0080
20683SOL    HW173703   7.037   0.498   1.179  0.7506 -0.9684  0.8836
20683SOL    HW273704   7.145   0.519   1.058 -1.2876  0.2375 -0.7537
20684SOL     OW73705   9.174   5.938   0.707 -0.0301  0.1610  0.0257
20684SOL    HW173706   9.237   6.003   0.664  0.8612 -0.1846  0.8044
20684SOL    HW273707   9.222   5.853   0.727 -0.6548  0.0107  0.9177
20685SOL     OW73708   2.499   7.385   4.167 -0.2337  0.0461  0.3593
20685SOL    HW173709   2.571   7.422   4.108 -0.9548  0.3584 -0.3289
20685SOL    HW273710   2.410   7.416   4.135 -0.5552  1.6645  2.6320
20686SOL     OW73711   8.953   7.469   5.064  0.0177 -0.0235  0.2118
20686SOL    HW173712   8.967   7.567   5.081  0.5986 -0.2692  1.1949
20686SOL    HW273713   9.010   7.416   5.127  0.8774 -0.9908 -1.3559
20687SOL     OW73714   0.742   2.500   6.768  0.3983 -0.1480  0.6591
20687SOL    HW173715   0.797   2.517   6.849  0.0192  2.1436  0.4572
20687SOL    HW273716   0.796   2.520   6.686 -0.1487  0.3103  0.4120
20688SOL     OW73717   6.553   7.532   3.944  0.5260  0.2535 -0.3774
20688SOL    HW173718   6.518   7.598   3.878  0.7722  0.2500 -0.5137
20688SOL    HW273719   6.506   7.445   3.933  0.3463  0.3444 -0.3361
20689SOL     OW73720   3.581   4.739   7.600 -0.0596 -0.3316 -0.1548
20689SOL    HW173721   3.658   4.705   7.654  0.1073  0.5952  0.1998
20689SOL    HW273722   3.562   4.674   7.526 -0.1439 -1.4983  0.8653
20690SOL     OW73723   1.676   4.238   4.312  0.5439 -0.1825 -1.1293
20690SOL    HW173724   1.639   4.299   4.242 -1.1266 -0.1429 -0.2429
20690SOL    HW273725   1.603   4.179   4.346  1.4177 -0.4361  0.3338
20691SOL     OW73726   4.458   1.678   7.198  0.1620  0.1814 -0.2215
20691SOL    HW173727   4.450   1.658   7.101 -2.5314  1.3029 -0.2618
20691SOL    HW273728   4.509   1.763   7.211 -0.1842  0.4573 -0.6870
20692SOL     OW73729   1.533   4.827   3.749 -0.0230 -0.2829 -0.1660
20692SOL    HW173730   1.617   4.878   3.770  0.6050 -1.1400 -0.5533
20692SOL    HW273731   1.457   4.892   3.737  0.7774  0.5698 -0.7408
20693SOL     OW73732   7.536   5.733   2.715 -0.3672  0.1601 -0.0226
20693SOL    HW173733   7.594   5.811   2.742  0.7046 -0.1981 -1.2178
20693SOL    HW273734   7.586   5.648   2.732 -1.1459 -0.2176  0.3536
20694SOL     OW73735   1.778   2.830   4.401 -0.1327  0.2228 -0.4362
20694SOL    HW173736   1.846   2.867   4.465 -0.4728  1.8497 -0.9985
20694SOL    HW273737   1.814   2.836   4.308 -1.9136  3.2218 -0.9931
20695SOL     OW73738   3.480   1.924   7.118  0.1418 -0.1636  0.0505
20695SOL    HW173739   3.403   1.872   7.082  0.3200  0.9197 -1.9825
20695SOL    HW273740   3.475   2.018   7.085  1.7242  0.2042  0.8025
20696SOL     OW73741   8.496   3.753   2.898  0.0239  0.8497  0.4174
20696SOL    HW173742   8.528   3.753   2.993 -0.0589  0.5204  0.4443
20696SOL    HW273743   8.488   3.659   2.865 -0.9052  0.9329  0.4033
20697SOL     OW73744   5.603   9.890   7.602  0.4671 -0.3358 -0.7760
20697SOL    HW173745   5.696   9.852   7.600 -0.5715 -3.1099  0.8063
20697SOL    HW273746   5.548   9.846   7.531 -0.5131 -1.2101  0.4923
20698SOL     OW73747   7.285   1.690   0.999 -0.2853  0.1970 -0.3986
20698SOL    HW173748   7.342   1.629   0.943 -1.4767 -0.6590 -0.6812
20698SOL    HW273749   7.283   1.656   1.093 -0.0438  0.4325 -0.3068
20699SOL     OW73750   2.382   4.193   7.682  0.0516  0.2510  0.1237
20699SOL    HW173751   2.322   4.117   7.707  0.2680 -0.4775 -1.5402
20699SOL    HW273752   2.337   4.280   7.704 -0.9713 -0.3219  0.3171
20700SOL     OW73753   8.638   8.645   8.270 -0.0854  0.3262  0.3760
20700SOL    HW173754   8.646   8.546   8.255  0.3255  0.1540  1.7064
20700SOL    HW273755   8.713   8.692   8.225  0.6022 -0.1044  1.0673
20701SOL     OW73756   8.329   2.540   1.558 -0.1985 -0.3925 -0.0035
20701SOL    HW173757   8.280   2.587   1.632 -2.3484 -0.3597 -1.4022
20701SOL    HW273758   8.283   2.454   1.537 -0.2162  0.0688 -1.9821
20702SOL     OW73759   8.633   0.639   1.976 -0.5911 -0.1437 -0.5927
20702SOL    HW173760   8.632   0.733   2.009 -0.2452  0.2328 -1.6291
20702SOL    HW273761   8.681   0.581   2.042  0.0903  0.5955 -0.4288
20703SOL     OW73762   8.890   6.320   0.679 -0.2004 -0.0204 -0.3364
20703SOL    HW173763   8.846   6.271   0.604 -0.9524 -2.0306  1.3583
20703SOL    HW273764   8.922   6.254   0.747  0.5673  1.7556  1.0490
20704SOL     OW73765   2.056   0.164   0.853  0.0263  0.2073  0.0932
20704SOL    HW173766   2.074   0.206   0.941 -2.0148  0.9299  0.1897
20704SOL    HW273767   1.973   0.203   0.813 -0.7970 -2.2639 -0.7338
20705SOL     OW73768   8.308   5.504   2.937  0.1427  0.4629 -0.0600
20705SOL    HW173769   8.219   5.464   2.915 -0.7181  0.6243  2.9804
20705SOL    HW273770   8.370   5.434   2.971  0.0573  0.9175  1.0639
20706SOL     OW73771   0.744   0.722   6.647 -0.1312  0.3222  0.7764
20706SOL    HW173772   0.788   0.716   6.736 -0.8268 -0.4666  1.0689
20706SOL    HW273773   0.739   0.630   6.606  0.4182  0.7078 -0.1893
20707SOL     OW73774   0.925   2.767   1.121 -0.0489 -0.1780  0.4516
20707SOL    HW173775   0.886   2.756   1.213  0.3841 -0.1351  0.6411
20707SOL    HW273776   1.019   2.732   1.120 -0.0203 -0.0904  0.0495
20708SOL     OW73777   9.862   4.960   7.532 -0.8794  0.0192  0.4812
20708SOL    HW173778   9.780   4.909   7.557 -0.4865 -1.0672 -0.3792
20708SOL    HW273779   9.942   4.913   7.569 -0.3948 -0.9240 -1.6839
20709SOL     OW73780   1.475   9.141   7.881 -0.5212 -0.4428  0.1758
20709SOL    HW173781   1.481   9.062   7.820  2.5751  0.4827 -0.8498
20709SOL    HW273782   1.486   9.111   7.976  1.3245 -1.2275 -0.2543
20710SOL     OW73783   1.901   5.564   2.759 -0.1784  0.5448  0.1079
20710SOL    HW173784   1.926   5.493   2.693 -0.1695  0.1568  0.5320
20710SOL    HW273785   1.837   5.527   2.826  2.9575 -0.2512  2.7879
20711SOL     OW73786   6.024   7.287   3.325  1.1246 -0.0885 -0.4389
20711SOL    HW173787   6.058   7.323   3.412  0.6410 -1.0452  0.1522
20711SOL    HW273788   6.084   7.317   3.251  0.8830  1.7101  0.0628
20712SOL     OW73789   0.253   0.047   5.469 -0.1524 -0.0916  0.4017
20712SOL    HW173790   0.187   0.079   5.537 -0.8511 -1.2757  0.3057
20712SOL    HW273791   0.274   0.121   5.405  0.0104  0.8347  1.5096
20713SOL     OW73792   6.524   2.530   1.502 -0.5837 -0.0392 -0.4556
20713SOL    HW173793   6.578   2.586   1.439 -0.4327  0.2589 -0.0647
20713SOL    HW273794   6.585   2.483   1.566 -0.6941 -0.8677 -0.9579
20714SOL     OW73795   2.359   4.603   4.920 -1.0094 -0.4232  0.0869
20714SOL    HW173796   2.431   4.558   4.868 -0.6245 -0.8235  0.9591
20714SOL    HW273797   2.270   4.567   4.892 -0.7632 -1.0423  0.1071
20715SOL     OW73798   7.312   7.888   5.085 -0.1246  0.6672 -0.2823
20715SOL    HW173799   7.351   7.803   5.049  0.2937  1.7501 -2.4276
20715SOL    HW273800   7.230   7.912   5.034 -0.8315  1.0360  0.9960
20716SOL     OW73801   1.311   1.573   4.238  0.0101  0.2784  0.3177
20716SOL    HW173802   1.237   1.586   4.172  0.4009 -1.4885 -0.5046
20716SOL    HW273803   1.373   1.651   4.234 -1.5694  1.5726  0.7058
20717SOL     OW73804   0.422   2.781   6.404  0.7930  0.2474 -0.0789
20717SOL    HW173805   0.414   2.717   6.481  1.5981  0.3355  0.0836
20717SOL    HW273806   0.512   2.772   6.362 -0.4280 -1.3558 -2.4255
20718SOL     OW73807   5.330   5.536   0.193 -0.4536  0.0077  0.1907
20718SOL    HW173808   5.313   5.443   0.162  0.6675  0.1476 -0.8965
20718SOL    HW273809   5.322   5.541   0.293 -1.1570 -1.1029  0.1881
20719SOL     OW73810   0.756   4.365   5.666 -0.2550  0.2205 -0.2875
20719SOL    HW173811   0.781   4.322   5.579  0.3964 -0.0278  0.0104
20719SOL    HW273812   0.667   4.410   5.658 -1.2008 -1.6440 -0.4528
20720SOL     OW73813   8.933   9.178   7.060 -0.2856 -0.0203  0.1669
20720SOL    HW173814   8.873   9.131   7.124 -1.4048  0.2493 -0.6811
20720SOL    HW273815   8.880   9.239   7.002  0.9247  0.9579  0.0564
20721SOL     OW73816   3.651   3.399   3.917  0.5251 -0.0881 -0.5204
20721SOL    HW173817   3.608   3.379   3.829  0.0962 -1.2387 -0.0676
20721SOL    HW273818   3.746   3.370   3.915  0.8358  0.9613 -0.9887
20722SOL     OW73819   2.368   6.011   3.186 -0.8066  0.3871 -0.0934
20722SOL    HW173820   2.343   6.079   3.254 -1.6073 -0.5255  0.5466
20722SOL    HW273821   2.323   6.031   3.099 -0.1346  1.3022 -0.2419
20723SOL     OW73822   3.719   3.975   0.648  0.1477 -0.1740 -0.2774
20723SOL    HW173823   3.760   3.887   0.626 -0.8375 -0.6904 -0.0957
20723SOL    HW273824   3.713   3.985   0.748  1.0329  0.4707 -0.2802
20724SOL     OW73825   9.821   9.793   7.210 -0.1435 -0.3619  0.4713
20724SOL    HW173826   9.899   9.855   7.224  1.0015 -2.0937  1.9424
20724SOL    HW273827   9.756   9.836   7.147  2.0068  1.0901 -0.8385
20725SOL     OW73828   9.575   1.210   4.956  0.0728  0.6763 -0.1035
20725SOL    HW173829   9.475   1.199   4.955  0.2292 -0.8825 -1.6009
20725SOL    HW273830   9.615   1.151   4.886  1.9515  2.3842 -0.4934
20726SOL     OW73831   1.766   3.219   6.953  0.0813  0.5266  0.2235
20726SOL    HW173832   1.857   3.205   6.914 -0.4007  1.3955 -1.2946
20726SOL    HW273833   1.753   3.316   6.972 -0.1343  0.2599  1.4668
20727SOL     OW73834   8.031   6.624   4.273 -0.0201  0.1670  0.5669
20727SOL    HW173835   8.068   6.554   4.333  2.4964  0.7010 -0.2482
20727SOL    HW273836   8.029   6.712   4.322  0.7551  0.3319  0.3146
20728SOL     OW73837   9.650   1.713   5.344  0.1592 -0.0679  0.3173
20728SOL    HW173838   9.557   1.703   5.380  0.1101 -0.0147  0.2084
20728SOL    HW273839   9.673   1.810   5.338 -0.2301 -0.0307 -0.7934
20729SOL     OW73840   2.175   9.748   2.825  0.2785 -0.3453 -0.1666
20729SOL    HW173841   2.269   9.736   2.791 -0.3567 -0.3641 -1.9946
20729SOL    HW273842   2.119   9.671   2.794 -0.4255 -0.1413  0.6028
20730SOL     OW73843   8.464   6.399   3.557  0.5832  0.1788 -0.4785
20730SOL    HW173844   8.487   6.363   3.647 -0.9553 -0.9199 -0.5137
20730SOL    HW273845   8.396   6.341   3.514  2.0668  0.0690 -2.8029
20731SOL     OW73846   5.074   7.998   2.540 -0.1923  0.1855  0.1298
20731SOL    HW173847   5.136   8.049   2.600 -0.7822  1.4885 -0.3491
20731SOL    HW273848   5.057   7.908   2.580  0.4178  0.5632  1.2862
20732SOL     OW73849   0.198   0.838   3.267  0.1076 -0.0423 -0.1651
20732SOL    HW173850   0.109   0.821   3.309 -0.4337  1.4090 -0.7159
20732SOL    HW273851   0.222   0.935   3.277  1.3624 -0.3026 -0.5272
20733SOL     OW73852   2.255   7.134   3.027 -0.4743 -0.4743 -0.1191
20733SOL    HW173853   2.177   7.117   2.966  0.6220  1.2843 -2.0913
20733SOL    HW273854   2.263   7.233   3.044  0.6542 -0.7405  0.9887
20734SOL     OW73855   1.669   2.603   2.541 -0.5370  0.2425 -0.0045
20734SOL    HW173856   1.647   2.577   2.447  0.0125  1.3611 -0.4509
20734SOL    HW273857   1.768   2.606   2.553 -0.6036 -1.2985  1.0142
20735SOL     OW73858   6.087   0.052   2.590  0.2830 -0.1514 -0.0787
20735SOL    HW173859   6.143   0.025   2.512 -0.0695 -0.1395 -0.3324
20735SOL    HW273860   6.004   0.098   2.558  0.2818  0.1187  0.3088
20736SOL     OW73861   3.805   0.350   5.201  0.0029  0.3594 -0.0764
20736SOL    HW173862   3.771   0.256   5.197 -0.3332  0.4587  0.3919
20736SOL    HW273863   3.899   0.353   5.169  0.3218 -0.2793  0.7936
20737SOL     OW73864   3.955   8.255   6.938  0.0719 -0.1291 -0.1936
20737SOL    HW173865   4.055   8.249   6.933  0.1060  1.6381 -2.1776
20737SOL    HW273866   3.929   8.334   6.993 -0.2009  0.8228 -1.6642
20738SOL     OW73867   1.910   9.660   6.381 -0.1278 -0.0192  0.1227
20738SOL    HW173868   1.954   9.707   6.304 -0.3360  0.7265  0.4549
20738SOL    HW273869   1.970   9.663   6.460  0.7336 -2.0966 -0.4190
20739SOL     OW73870   9.902   0.141   1.213 -0.3812 -0.2870  0.3506
20739SOL    HW173871   9.951   0.150   1.299  0.4648  0.2901 -0.1821
20739SOL    HW273872   9.855   0.053   1.210  0.7111 -0.8953  0.8303
20740SOL     OW73873   3.784   9.043   5.862 -0.0032  0.1605 -0.3531
20740SOL    HW173874   3.775   9.075   5.957  1.2252  1.2678 -0.5984
20740SOL    HW273875   3.785   9.122   5.801 -0.2610 -0.5289 -1.2541
20741SOL     OW73876   6.851   8.182   8.378 -0.6547  0.4686 -0.2453
20741SOL    HW173877   6.930   8.130   8.409 -1.0781 -0.7249 -1.1378
20741SOL    HW273878   6.870   8.280   8.386 -0.0091  0.1934  1.8631
20742SOL     OW73879   4.633   7.230   3.800  0.2866 -0.4420 -0.3649
20742SOL    HW173880   4.703   7.302   3.805 -0.6583  0.5550 -1.4242
20742SOL    HW273881   4.564   7.247   3.870  1.7206 -2.1407  1.5524
20743SOL     OW73882   7.733   3.062   3.973 -0.6005 -0.0392 -0.1079
20743SOL    HW173883   7.663   3.023   4.032  0.7505  1.7070  2.7341
20743SOL    HW273884   7.698   3.145   3.929 -1.1531 -0.6043 -0.7501
20744SOL     OW73885   3.799   3.626   6.770 -0.2785 -0.1247 -0.4752
20744SOL    HW173886   3.716   3.654   6.818 -0.9611  1.2826 -2.4297
20744SOL    HW273887   3.794   3.655   6.674  1.9875 -0.9889 -0.8841
20745SOL     OW73888   7.746   9.036   4.505 -0.4892 -0.0101 -0.4712
20745SOL    HW173889   7.668   8.982   4.536 -0.8326 -0.0772 -1.4308
20745SOL    HW273890   7.831   8.989   4.530 -0.7395  0.3185  1.0331
20746SOL     OW73891   6.983   8.277   4.429 -0.0107  0.1635  0.2820
20746SOL    HW173892   6.886   8.287   4.451  0.1082  0.5450  0.6439
20746SOL    HW273893   6.993   8.221   4.347 -0.5528  0.4602  0.0147
20747SOL     OW73894   1.296   0.830   3.492 -0.3561  0.1165  0.0151
20747SOL    HW173895   1.234   0.842   3.569  0.4594  0.7825  0.5710
20747SOL    HW273896   1.246   0.845   3.407 -0.7348  1.6521  0.4973
20748SOL     OW73897   0.739   5.184   5.590 -0.4992  0.2077  0.2610
20748SOL    HW173898   0.723   5.247   5.514  0.1540  0.4622  0.3312
20748SOL    HW273899   0.768   5.235   5.671  0.6282 -0.2283  0.1423
20749SOL     OW73900   9.500   5.292   5.069 -0.1269 -0.1552 -0.4321
20749SOL    HW173901   9.480   5.273   4.973 -1.9551  0.5253 -0.1973
20749SOL    HW273902   9.417   5.323   5.116  0.4668 -1.5130  1.6296
20750SOL     OW73903   9.026   5.588   0.801  0.6191 -0.1314 -0.0455
20750SOL    HW173904   8.984   5.581   0.710  0.4946 -2.1065  0.1419
20750SOL    HW273905   9.124   5.602   0.791  1.0263 -2.9967 -0.5423
20751SOL     OW73906   2.767   1.115   5.577  0.1480  0.8485  0.4413
20751SOL    HW173907   2.798   1.068   5.494  2.3344  1.1674  1.0362
20751SOL    HW273908   2.791   1.060   5.657 -3.0991 -0.0854  0.8617
20752SOL     OW73909   1.313   8.833   1.212  0.2873  0.0149 -0.1850
20752SOL    HW173910   1.247   8.765   1.244 -0.2588 -0.0960 -1.4836
20752SOL    HW273911   1.404   8.810   1.244 -0.1088 -0.5825  0.5075
20753SOL     OW73912   8.045   0.913   0.274 -0.0704  0.7889 -0.1619
20753SOL    HW173913   7.982   0.835   0.276 -0.4685  1.1356  1.9400
20753SOL    HW273914   8.124   0.891   0.217 -0.2169 -1.1201  0.3535
20754SOL     OW73915   0.633   7.291   5.468  0.4204  0.0498  0.7940
20754SOL    HW173916   0.618   7.315   5.564 -1.6991 -0.9040  0.7223
20754SOL    HW273917   0.580   7.209   5.446  1.2454  0.0004 -1.0847
20755SOL     OW73918   0.362   7.222   1.332  0.0933 -0.5605 -0.3770
20755SOL    HW173919   0.404   7.184   1.249  1.7652  1.5377 -0.5248
20755SOL    HW273920   0.268   7.251   1.311 -0.2547 -2.0669 -0.9518
20756SOL     OW73921   4.246   0.146   3.361 -0.6223  0.0771 -0.7785
20756SOL    HW173922   4.268   0.094   3.278  0.6931  0.8399 -0.9208
20756SOL    HW273923   4.170   0.208   3.342  1.4511  2.2495 -2.2508
20757SOL     OW73924   9.873   7.452   4.541 -0.0615 -0.8573  0.1369
20757SOL    HW173925   9.912   7.395   4.468 -0.6201  1.4002 -1.9713
20757SOL    HW273926   9.923   7.538   4.547 -2.0731  0.3488  0.1793
20758SOL     OW73927   2.230   5.992   7.414  0.2703 -0.1872  0.4665
20758SOL    HW173928   2.149   5.960   7.463 -1.6534  1.3671 -1.6202
20758SOL    HW273929   2.265   6.075   7.458 -1.4604  1.2079 -0.6833
20759SOL     OW73930   0.391   6.013   3.764 -0.7176 -0.7604 -0.4727
20759SOL    HW173931   0.401   5.969   3.674 -1.4877  0.4025 -1.1404
20759SOL    HW273932   0.396   6.112   3.753 -0.2259 -0.6366  0.8575
20760SOL     OW73933   8.077   4.324   1.290  0.5500  0.4612 -0.1657
20760SOL    HW173934   8.059   4.375   1.206 -2.6731 -1.6779 -0.8410
20760SOL    HW273935   8.024   4.363   1.365  2.5722  1.6693  0.6832
20761SOL     OW73936   5.054   5.697   0.329 -0.4839 -0.4459 -0.4406
20761SOL    HW173937   4.964   5.655   0.333 -1.0398  0.8398  1.1977
20761SOL    HW273938   5.045   5.796   0.315  0.6847 -0.4068 -0.9911
20762SOL     OW73939   9.377   7.088   6.450  0.0482 -1.0573  0.1025
20762SOL    HW173940   9.443   7.029   6.498 -0.3796  0.0640  2.1412
20762SOL    HW273941   9.343   7.157   6.513 -0.2850  0.7062 -1.9697
20763SOL     OW73942   0.642   5.898   2.961  0.4043 -0.0638  1.0782
20763SOL    HW173943   0.560   5.856   2.922  1.7042 -1.0098 -0.7242
20763SOL    HW273944   0.651   5.991   2.923 -0.7770  0.7225  2.6622
20764SOL     OW73945   3.953   0.004   1.644  0.0794  0.0129 -0.3550
20764SOL    HW173946   3.983   0.065   1.571  0.7667 -0.4886 -0.4940
20764SOL    HW273947   3.964   0.049   1.732  0.9642 -0.0570 -0.4276
20765SOL     OW73948   6.729   5.467   2.461 -0.5382  0.3402 -0.2140
20765SOL    HW173949   6.667   5.449   2.384 -2.4148 -1.1742  1.5894
20765SOL    HW273950   6.791   5.542   2.438 -1.2380  0.0837 -3.0874
20766SOL     OW73951   8.599   0.482   0.611 -0.3556  0.2968  0.1290
20766SOL    HW173952   8.539   0.408   0.641 -0.8889  1.0423  0.9041
20766SOL    HW273953   8.606   0.481   0.511 -3.8532  1.8705 -0.1919
20767SOL     OW73954   9.007   3.371   2.695  0.3309  0.6521  0.4961
20767SOL    HW173955   9.076   3.300   2.679 -1.0398 -0.8972  1.2484
20767SOL    HW273956   9.037   3.430   2.770  0.6304 -0.3008  1.1404
20768SOL     OW73957   8.011   6.116   5.298 -0.3332 -0.0456  0.2026
20768SOL    HW173958   8.040   6.211   5.313 -1.4094  0.3761 -0.3249
20768SOL    HW273959   8.091   6.057   5.294  0.3433  0.8244  0.6507
20769SOL     OW73960   8.080   2.428   5.269  0.4780 -0.3818 -0.1976
20769SOL    HW173961   8.009   2.439   5.339 -1.2862  1.4114 -2.1837
20769SOL    HW273962   8.133   2.512   5.262  0.9848 -0.7364 -0.6558
20770SOL     OW73963   2.898   8.998   0.153 -0.2414 -0.1550 -0.3446
20770SOL    HW173964   2.987   9.022   0.114 -0.8863  1.1181 -1.0561
20770SOL    HW273965   2.835   8.974   0.079 -1.6134  2.7136 -0.1654
20771SOL     OW73966   8.532   1.387   5.911  0.8019  0.5247  0.6090
20771SOL    HW173967   8.476   1.432   5.980 -0.5279  0.6863 -0.5544
20771SOL    HW273968   8.547   1.449   5.835 -2.2475 -1.3666 -1.6808
20772SOL     OW73969   8.767   3.267   7.761 -0.3369  0.2114  0.1114
20772SOL    HW173970   8.801   3.264   7.855 -2.9805 -1.4688  1.0877
20772SOL    HW273971   8.804   3.190   7.709 -0.1199  0.2438  0.2175
20773SOL     OW73972   7.925   8.421   4.261  0.3799  0.2281  0.7531
20773SOL    HW173973   7.964   8.361   4.191  1.1142 -1.1819  2.3260
20773SOL    HW273974   7.897   8.366   4.340 -0.8850  1.7333  1.3756
20774SOL     OW73975   7.867   0.811   7.285 -0.0126  0.0808 -0.0274
20774SOL    HW173976   7.870   0.909   7.306  1.4308 -0.2854  1.5890
20774SOL    HW273977   7.774   0.777   7.298 -0.5510  1.2556 -0.7232
20775SOL     OW73978   9.705   3.977   7.524 -0.1020  1.0745 -0.6307
20775SOL    HW173979   9.698   3.880   7.503 -1.6076  1.1586 -0.5378
20775SOL    HW273980   9.802   4.002   7.536  0.2871 -0.3932 -0.6832
20776SOL     OW73981   0.274   2.305   2.903 -0.0428  0.5270 -0.0279
20776SOL    HW173982   0.270   2.207   2.884 -0.4113  0.4083  0.6454
20776SOL    HW273983   0.361   2.326   2.948 -0.8750  0.1583  1.7711
20777SOL     OW73984   0.251   3.373   2.239 -0.4728 -0.4296  0.4946
20777SOL    HW173985   0.289   3.285   2.266 -1.3694 -0.7066  0.8761
20777SOL    HW273986   0.320   3.426   2.190  0.2501 -1.1078  0.7763
20778SOL     OW73987   0.030   9.838   1.010 -0.2354 -0.2063 -0.0943
20778SOL    HW173988  -0.038   9.888   0.957 -0.0016  0.0397 -0.1667
20778SOL    HW273989   0.117   9.838   0.960  0.0066  0.0988  0.3263
20779SOL     OW73990   7.423   2.095   1.196 -1.0426  0.1515  0.1876
20779SOL    HW173991   7.436   2.158   1.273 -0.7543  0.3511 -0.0206
20779SOL    HW273992   7.497   2.027   1.197  0.1686  1.4138 -1.1232
20780SOL     OW73993   2.320   2.814   3.919  0.2618  0.5471  0.5069
20780SOL    HW173994   2.317   2.902   3.968 -0.5287  0.4305  0.6658
20780SOL    HW273995   2.246   2.755   3.951  0.5974 -0.0633  0.1680
20781SOL     OW73996   8.536   6.064   7.084  0.2376  0.6573 -0.2932
20781SOL    HW173997   8.487   6.019   7.159  0.0135  0.5225 -0.5186
20781SOL    HW273998   8.528   6.163   7.093 -2.2981  0.6372 -1.7697
20782SOL     OW73999   8.326   7.353   4.811  0.3044  0.2675 -0.0443
20782SOL    HW174000   8.373   7.442   4.814 -0.3826  0.6232  0.4493
20782SOL    HW274001   8.239   7.361   4.859  0.6526 -0.9263  0.7811
20783SOL     OW74002   0.641   2.980   4.156 -0.5921  0.3730  0.2892
20783SOL    HW174003   0.685   3.061   4.119 -1.5733  0.1386 -1.4491
20783SOL    HW274004   0.678   2.898   4.112 -1.8547  0.0926 -0.2806
20784SOL     OW74005   7.597   5.612   0.281  0.3862  0.4114  0.0307
20784SOL    HW174006   7.568   5.522   0.315 -2.2832  0.3625 -2.1943
20784SOL    HW274007   7.626   5.668   0.358 -0.8574 -1.3235  1.8353
20785SOL     OW74008   8.988   1.147   3.221  0.3972 -0.1658  0.3775
20785SOL    HW174009   9.078   1.169   3.185 -0.3161  0.2257 -1.1991
20785SOL    HW274010   8.918   1.176   3.156 -0.8067 -1.7006  0.9476
20786SOL     OW74011   2.582   7.396   7.084  0.3101  0.6710 -0.2393
20786SOL    HW174012   2.580   7.296   7.091 -0.5026  0.6764 -0.3930
20786SOL    HW274013   2.675   7.428   7.101  0.2728  0.0080  1.2933
20787SOL     OW74014   8.860   4.130   1.212 -0.0558 -0.4450  0.4020
20787SOL    HW174015   8.774   4.174   1.187  0.6692  0.4126 -0.5826
20787SOL    HW274016   8.909   4.103   1.130 -1.6538 -5.4611  0.9330
20788SOL     OW74017   1.907   9.142   3.867 -0.2867  0.5852  0.2388
20788SOL    HW174018   1.991   9.196   3.864 -0.1477  0.4540  1.2764
20788SOL    HW274019   1.891   9.111   3.961 -2.0028  1.3961  0.2414
20789SOL     OW74020   0.819   7.296   1.571  0.4916  0.0062 -0.3954
20789SOL    HW174021   0.804   7.392   1.595 -3.5760 -0.4658 -0.7482
20789SOL    HW274022   0.883   7.290   1.494  0.5097  2.4387 -0.5945
20790SOL     OW74023   8.573   9.048   7.353  0.1558 -0.2277  0.2432
20790SOL    HW174024   8.508   9.103   7.300 -1.8557 -0.9056  1.9294
20790SOL    HW274025   8.527   8.965   7.386  1.8274 -0.6344  1.6025
20791SOL     OW74026   8.532   7.398   3.861  0.3832 -0.1213 -0.3004
20791SOL    HW174027   8.490   7.397   3.952 -1.6102  1.1879 -1.1844
20791SOL    HW274028   8.485   7.333   3.802  2.2252 -1.6005 -0.2156
20792SOL     OW74029   4.867   2.380   7.243  0.1377 -0.0073 -0.1199
20792SOL    HW174030   4.780   2.358   7.286  0.3374  0.5107  0.5454
20792SOL    HW274031   4.887   2.477   7.253  0.8989 -0.1596 -0.0796
20793SOL     OW74032   5.432   1.263   7.177  0.4821  0.4106 -0.1099
20793SOL    HW174033   5.477   1.177   7.153 -1.0402 -0.1739 -0.9290
20793SOL    HW274034   5.448   1.283   7.274  0.4937 -1.0090  0.1859
20794SOL     OW74035   8.902   8.396   1.693 -0.5682 -0.1940 -0.5758
20794SOL    HW174036   8.863   8.313   1.654  0.6678 -0.7204 -0.7104
20794SOL    HW274037   8.840   8.472   1.678 -2.8926 -1.5418  1.6820
20795SOL     OW74038   7.566   7.169   6.247 -0.0933  0.5025 -0.0163
20795SOL    HW174039   7.589   7.141   6.154 -1.8002 -0.6762 -0.1004
20795SOL    HW274040   7.477   7.214   6.247 -0.5463 -0.3844  1.2097
20796SOL     OW74041   2.530   2.394   0.572 -0.6214  0.4218  0.2991
20796SOL    HW174042   2.531   2.301   0.537 -1.4122 -0.3763  2.2767
20796SOL    HW274043   2.464   2.449   0.521 -2.9304 -1.1338  1.4996
20797SOL     OW74044   2.287   1.184   5.171 -0.2798  0.0531 -0.7435
20797SOL    HW174045   2.298   1.283   5.167  1.4038 -0.0797 -0.1745
20797SOL    HW274046   2.190   1.160   5.170 -0.6858  1.6788 -1.3361
20798SOL     OW74047   9.543   2.473   2.929 -0.2700  0.1313  0.3210
20798SOL    HW174048   9.517   2.506   2.839  1.0589 -0.1646 -0.1849
20798SOL    HW274049   9.514   2.378   2.939  0.6544 -0.2210 -0.2679
20799SOL     OW74050   3.415   3.964   6.460 -0.0574  0.4433  0.1270
20799SOL    HW174051   3.414   3.914   6.373  1.9059 -1.1214  0.9657
20799SOL    HW274052   3.407   3.900   6.536 -2.5598  1.8664  1.1363
20800SOL     OW74053   9.600   3.398   5.587  0.4439 -0.6572 -0.3254
20800SOL    HW174054   9.586   3.354   5.676  0.7273  2.4919  1.3181
20800SOL    HW274055   9.519   3.385   5.531 -1.5801  1.1248  2.0827
20801SOL     OW74056   3.870   8.559   0.987  0.2503 -0.0385  0.2754
20801SOL    HW174057   3.925   8.636   0.953 -0.2801  0.4321  0.4644
20801SOL    HW274058   3.919   8.513   1.062  0.2002  0.6511  0.7399
20802SOL     OW74059   4.628   7.234   3.525 -0.2718  0.3027 -0.0635
20802SOL    HW174060   4.627   7.239   3.625  1.1991 -0.0445 -0.0171
20802SOL    HW274061   4.716   7.196   3.495 -0.5192  0.8673 -1.5107
20803SOL     OW74062   8.707   8.741   4.352 -0.1008  0.4763 -0.2656
20803SOL    HW174063   8.682   8.653   4.393 -0.5448  0.5699 -0.3271
20803SOL    HW274064   8.634   8.770   4.290  0.6079  0.2903 -1.1978
20804SOL     OW74065   6.972   3.656   0.807  0.0840  0.4170  0.0594
20804SOL    HW174066   7.004   3.680   0.715 -0.4871  1.5897  0.1604
20804SOL    HW274067   7.020   3.574   0.838 -0.4838 -0.6266 -1.7196
20805SOL     OW74068   1.244   1.022   5.819 -0.2554  0.6295 -0.1858
20805SOL    HW174069   1.226   0.965   5.739 -1.4533  0.9497 -0.1526
20805SOL    HW274070   1.198   1.110   5.809 -2.1796 -0.1127  1.7772
20806SOL     OW74071   9.080   2.458   7.026 -0.4510 -0.3637  0.4151
20806SOL    HW174072   9.165   2.510   7.042 -0.6926  0.0856  0.2544
20806SOL    HW274073   9.001   2.516   7.048 -0.7688 -0.0992 -1.3427
20807SOL     OW74074   3.826   8.807   0.562 -0.1818 -0.6866  0.7974
20807SOL    HW174075   3.844   8.849   0.650  0.7550  1.4950 -0.4016
20807SOL    HW274076   3.728   8.812   0.541 -0.2251 -0.1185  1.1494
20808SOL     OW74077   3.777   1.318   2.828  0.1580 -0.2330  0.4599
20808SOL    HW174078   3.747   1.266   2.747  0.5193 -0.5839  0.5503
20808SOL    HW274079   3.760   1.415   2.813 -0.7067 -0.3903  0.3639
20809SOL     OW74080   3.366   8.064   3.140  0.1819  0.4742 -0.3314
20809SOL    HW174081   3.370   8.071   3.041  0.9153  2.4278 -0.1802
20809SOL    HW274082   3.438   8.119   3.181 -0.5239  0.2304  1.3056
20810SOL     OW74083   8.370   2.106   1.662  0.1780  0.6313  0.3677
20810SOL    HW174084   8.425   2.067   1.736 -0.3328 -1.2466 -0.2169
20810SOL    HW274085   8.417   2.186   1.625  0.8581  1.0769  2.1311
20811SOL     OW74086   5.669   2.871   5.932 -0.3561 -0.9262 -0.2224
20811SOL    HW174087   5.754   2.820   5.920 -0.2604 -0.7292 -0.3889
20811SOL    HW274088   5.632   2.894   5.842 -0.5704 -0.9866 -0.1493
20812SOL     OW74089   0.555   4.482   1.975  0.4733 -0.3699  0.2009
20812SOL    HW174090   0.648   4.520   1.984  0.5914 -0.9142  1.4269
20812SOL    HW274091   0.525   4.448   2.064  0.4246 -3.2714 -0.8804
20813SOL     OW74092   9.769   7.702   1.652  0.2053  0.0297  0.5459
20813SOL    HW174093   9.866   7.728   1.655  0.7034 -1.5294 -0.9496
20813SOL    HW274094   9.713   7.782   1.670  1.7799  0.7103  2.6967
20814SOL     OW74095   4.431   9.808   7.368  0.2475  0.5769 -0.4845
20814SOL    HW174096   4.455   9.823   7.272  1.4425  0.8137 -0.1539
20814SOL    HW274097   4.465   9.884   7.423 -0.6162  0.5422  0.0934
20815SOL     OW74098   0.189   0.384   2.870 -0.0617  0.4494 -0.7536
20815SOL    HW174099   0.245   0.458   2.908 -0.8381  1.3602 -1.3389
20815SOL    HW274100   0.240   0.335   2.800  0.9474 -0.4567  0.5837
20816SOL     OW74101   3.767   1.311   6.175 -0.4484 -0.3144  0.4285
20816SOL    HW174102   3.778   1.307   6.075 -0.4868 -0.4015  0.4274
20816SOL    HW274103   3.851   1.345   6.217 -0.1327 -1.1088  0.4356
20817SOL     OW74104   1.446   5.793   6.088  0.4854  0.2201 -0.4106
20817SOL    HW174105   1.518   5.847   6.131 -0.3676 -0.4073  1.8818
20817SOL    HW274106   1.363   5.798   6.143 -1.1020  0.5616 -2.7895
20818SOL     OW74107   2.495   2.870   4.750 -0.3484 -0.2684 -0.6010
20818SOL    HW174108   2.514   2.774   4.770 -1.3372 -0.2786  0.3261
20818SOL    HW274109   2.397   2.887   4.757 -0.0617  1.0821  0.4631
20819SOL     OW74110   7.650   1.617   7.066 -0.0648  1.0338  0.0284
20819SOL    HW174111   7.583   1.659   7.003 -1.8673 -4.1879 -1.7891
20819SOL    HW274112   7.602   1.582   7.147  1.1720  1.2411  0.8569
20820SOL     OW74113   0.670   2.775   4.973  0.2803 -0.9999 -0.1752
20820SOL    HW174114   0.691   2.749   4.879  0.2060  1.9191 -1.0521
20820SOL    HW274115   0.580   2.739   4.998  0.5336 -2.2517 -0.9959
20821SOL     OW74116   1.769   5.443   0.960 -0.4670  0.4350 -0.1671
20821SOL    HW174117   1.681   5.396   0.952 -1.3201  1.8930  0.5054
20821SOL    HW274118   1.806   5.429   1.052  1.0784 -2.0012 -1.1234
20822SOL     OW74119   8.650   0.888   3.584 -0.4685  0.1569  0.3564
20822SOL    HW174120   8.677   0.891   3.487 -0.9358 -1.6941  0.1616
20822SOL    HW274121   8.636   0.982   3.617  0.9157  0.8780 -1.0161
20823SOL     OW74122   1.127   0.471   4.100 -0.0058 -0.3328  0.2208
20823SOL    HW174123   1.225   0.454   4.087 -0.1021 -0.2533 -0.6103
20823SOL    HW274124   1.098   0.548   4.043 -0.5674 -0.3960  0.4147
20824SOL     OW74125   2.891   1.446   0.260  0.3870 -0.4990  0.3235
20824SOL    HW174126   2.964   1.499   0.217 -0.2462  0.0197 -0.1173
20824SOL    HW274127   2.803   1.476   0.224  0.0977 -2.8395 -1.0485
20825SOL     OW74128   2.634   6.732   2.768 -0.6464 -0.1446  0.1947
20825SOL    HW174129   2.538   6.752   2.746 -0.8263 -1.0707  0.1507
20825SOL    HW274130   2.650   6.634   2.764 -0.0510 -0.1187  1.6782
20826SOL     OW74131   3.626   3.555   1.677  0.3480 -0.6514 -0.1372
20826SOL    HW174132   3.536   3.511   1.676  0.2500 -0.4355 -0.8456
20826SOL    HW274133   3.650   3.579   1.771 -0.5693 -0.2241 -0.0087
20827SOL     OW74134   1.013   6.366   9.892 -0.1057 -0.1348 -0.0218
20827SOL    HW174135   0.939   6.299   9.885  0.3671 -0.6871  0.3214
20827SOL    HW274136   1.009   6.428   9.813 -0.7844 -0.3113 -0.1286
20828SOL     OW74137   3.841   4.514   3.813  0.7383  0.3058 -0.0992
20828SOL    HW174138   3.837   4.459   3.896  0.9863  0.8283  0.2661
20828SOL    HW274139   3.922   4.574   3.817  0.9301  0.0955 -0.8641
20829SOL     OW74140   0.286   8.209   5.654  0.4288 -0.3355 -0.2269
20829SOL    HW174141   0.345   8.150   5.599  0.4584  1.2882 -1.9868
20829SOL    HW274142   0.192   8.205   5.618  0.3704  0.4313 -0.1747
20830SOL     OW74143   8.762   7.470   6.980  0.0224 -0.1529 -0.1594
20830SOL    HW174144   8.852   7.434   6.957 -0.3752 -1.3778  0.1600
20830SOL    HW274145   8.764   7.570   6.976  1.8304 -0.0969  1.5257
20831SOL     OW74146   5.587   8.368   6.277  0.1060  0.3966  0.0913
20831SOL    HW174147   5.625   8.454   6.244 -1.5875  1.8776  1.9065
20831SOL    HW274148   5.553   8.315   6.199 -2.1184  2.9939 -0.7690
20832SOL     OW74149   1.951   2.276   0.068 -0.5615 -0.7769  0.0817
20832SOL    HW174150   1.897   2.197   0.096  1.6564 -1.3114  3.0777
20832SOL    HW274151   1.986   2.324   0.149  3.0500 -0.1788 -1.6995
20833SOL     OW74152   2.955   6.749   3.553 -0.0366 -0.4640 -0.2248
20833SOL    HW174153   2.918   6.828   3.601  0.6741  1.0750 -2.1387
20833SOL    HW274154   2.899   6.669   3.574 -1.5091  0.7864  0.7933
20834SOL     OW74155   5.750   8.976   8.240 -0.0171 -0.2287 -0.4108
20834SOL    HW174156   5.848   8.995   8.236 -0.0719 -0.2430 -1.9558
20834SOL    HW274157   5.714   8.969   8.147 -1.5418  0.0898  0.1506
20835SOL     OW74158   2.647   4.095   6.142 -0.2480  0.1073  0.1380
20835SOL    HW174159   2.702   4.155   6.084 -2.3411 -0.2498 -2.2706
20835SOL    HW274160   2.644   4.003   6.101 -0.6232 -0.5181  1.5440
20836SOL     OW74161   3.124   0.960   2.283  0.5107 -0.1908 -0.7569
20836SOL    HW174162   3.028   0.937   2.263  1.1739 -2.2107 -1.8351
20836SOL    HW274163   3.137   0.966   2.381 -1.6104  4.2312 -0.6445
20837SOL     OW74164   9.149   0.646   5.386 -0.0022 -0.7765  0.1614
20837SOL    HW174165   9.166   0.577   5.316 -1.3059 -1.6593  0.6799
20837SOL    HW274166   9.068   0.620   5.439 -0.2903  0.9708  0.6125
20838SOL     OW74167   2.605   8.358   3.799 -0.5552  0.1969  0.5237
20838SOL    HW174168   2.626   8.317   3.711 -1.0320 -1.2188  1.0625
20838SOL    HW274169   2.533   8.306   3.845  0.6376  0.0669  2.3397
20839SOL     OW74170   4.925   2.758   1.332  0.1045  0.1294  0.5343
20839SOL    HW174171   4.851   2.735   1.395 -1.4033 -0.0499 -1.2618
20839SOL    HW274172   4.888   2.804   1.251  2.1413  1.4415  0.3009
20840SOL     OW74173   0.351   7.019   0.867 -0.0819 -0.4049  0.4463
20840SOL    HW174174   0.295   7.100   0.881  0.3478 -0.2033  1.0152
20840SOL    HW274175   0.422   7.039   0.799 -0.6185 -0.6281 -0.1931
20841SOL     OW74176   4.934   8.376   6.106  0.7060  0.0452 -0.3746
20841SOL    HW174177   5.030   8.354   6.125  0.3720 -0.1160  1.2538
20841SOL    HW274178   4.927   8.425   6.019  2.0809 -1.3726 -1.3109
20842SOL     OW74179   0.383   1.820   6.393  0.3395 -0.3541 -0.2852
20842SOL    HW174180   0.458   1.812   6.457  1.0087 -0.1709 -1.0367
20842SOL    HW274181   0.345   1.729   6.373  2.2223 -0.7938 -2.0857
20843SOL     OW74182   0.237   3.399   5.230  0.3947  0.9503 -0.0127
20843SOL    HW174183   0.181   3.442   5.159  0.9521  1.0736 -0.3783
20843SOL    HW274184   0.297   3.467   5.271  0.6214  0.7154  0.0468
20844SOL     OW74185   6.156   0.577   1.374  0.4517 -0.2467  0.5036
20844SOL    HW174186   6.252   0.577   1.345  0.4078 -1.4491  0.3469
20844SOL    HW274187   6.148   0.625   1.462  1.2314 -0.3250  0.6209
20845SOL     OW74188   2.327   2.033   1.800  0.2211 -0.2148 -0.1536
20845SOL    HW174189   2.363   2.122   1.828 -0.3441  0.1366 -0.5458
20845SOL    HW274190   2.378   1.960   1.848  0.1094  0.3403  0.8289
20846SOL     OW74191   1.417   6.357   2.124 -0.2088 -0.6049  1.5449
20846SOL    HW174192   1.484   6.390   2.190 -0.4032  2.4993  0.3030
20846SOL    HW274193   1.334   6.330   2.171 -0.1655  1.1067  2.6533
20847SOL     OW74194   8.078   4.605   4.437 -0.1667  0.0814  0.2627
20847SOL    HW174195   8.078   4.559   4.348  0.0833  0.6116 -0.0080
20847SOL    HW274196   8.026   4.550   4.502 -1.8636  0.5776 -0.6561
20848SOL     OW74197   0.292   6.547   3.217  0.1397 -0.5455  0.1039
20848SOL    HW174198   0.247   6.459   3.233 -2.6484  0.7983 -0.1087
20848SOL    HW274199   0.261   6.612   3.286  0.6696  0.8055 -0.9318
20849SOL     OW74200   6.425   0.992   7.717 -0.0256  0.0370  0.0942
20849SOL    HW174201   6.414   0.963   7.622  0.5698  0.7668 -0.2093
20849SOL    HW274202   6.336   1.006   7.759 -0.3079  1.5960 -0.9643
20850SOL     OW74203   0.050   6.916   5.571 -0.0530 -0.3221  0.6297
20850SOL    HW174204   0.045   6.888   5.667 -1.7703 -2.0640  0.0662
20850SOL    HW274205   0.120   6.987   5.560  1.4212 -1.3986  2.8333
20851SOL     OW74206   2.647   6.660   5.128  0.4138  0.3037 -0.0033
20851SOL    HW174207   2.663   6.634   5.224  0.9411  0.3445 -0.0784
20851SOL    HW274208   2.696   6.597   5.068 -0.0611  0.1748 -0.2541
20852SOL     OW74209   2.433   8.018   7.717  0.2244  0.2518  0.2618
20852SOL    HW174210   2.348   7.968   7.733 -0.5742  1.6694  0.5850
20852SOL    HW274211   2.448   8.082   7.793  1.3763  0.2800  0.0101
20853SOL     OW74212   6.832   2.026   2.772  0.6151 -0.5290  0.1827
20853SOL    HW174213   6.917   2.051   2.818 -0.0622  1.1132  0.5770
20853SOL    HW274214   6.754   2.054   2.829 -0.1925 -1.7148 -0.3256
20854SOL     OW74215   7.213   2.928   1.696 -0.4567  0.7865 -0.2207
20854SOL    HW174216   7.218   2.881   1.785 -0.5105  2.0961  0.4932
20854SOL    HW274217   7.117   2.937   1.669 -0.3702 -1.3081 -1.3621
20855SOL     OW74218   2.293   3.975   3.579  0.3328  0.1080  0.0086
20855SOL    HW174219   2.219   4.018   3.632  0.2593  1.2520 -0.9921
20855SOL    HW274220   2.380   4.020   3.601  0.2453  0.8550 -1.0956
20856SOL     OW74221   0.483   7.096   5.697 -0.1957 -0.7063  0.0189
20856SOL    HW174222   0.398   7.146   5.679  0.2433  0.0115 -0.0942
20856SOL    HW274223   0.544   7.153   5.752  1.0773 -0.3723 -1.6885
20857SOL     OW74224   7.938   0.262   1.829 -0.2730  0.1273  0.1697
20857SOL    HW174225   7.933   0.190   1.898 -0.1555 -0.1568 -0.1186
20857SOL    HW274226   8.012   0.242   1.765 -1.7328 -0.7118 -1.3017
20858SOL     OW74227   4.088   2.852   5.919 -0.2573  0.5536 -0.5681
20858SOL    HW174228   4.105   2.756   5.941 -1.0242  0.8194  1.3038
20858SOL    HW274229   4.069   2.861   5.821 -0.2685 -1.2084 -0.7500
20859SOL     OW74230   2.903   2.090   3.742  0.0980 -0.4484  0.0333
20859SOL    HW174231   2.908   1.993   3.766  0.3580 -0.0586  1.6161
20859SOL    HW274232   2.982   2.138   3.780 -0.6987  0.6082  0.3731
20860SOL     OW74233   9.664   1.851   3.478  0.6922 -0.1835  0.2946
20860SOL    HW174234   9.715   1.873   3.562  1.7219 -0.8550 -0.1420
20860SOL    HW274235   9.638   1.936   3.433 -1.4619  0.2338  2.2074
20861SOL     OW74236   6.470   8.903   2.157 -0.1228  0.6173  0.3904
20861SOL    HW174237   6.527   8.883   2.078  0.5824  1.3732  0.7042
20861SOL    HW274238   6.393   8.960   2.129 -0.6692 -0.2950 -0.0062
20862SOL     OW74239   1.464   3.297   3.770  0.0890 -0.0647 -0.0867
20862SOL    HW174240   1.449   3.211   3.818  0.3450 -0.8039 -1.3362
20862SOL    HW274241   1.502   3.280   3.680 -1.3142  1.2669 -0.9728
20863SOL     OW74242   0.544   8.852  10.011 -0.8547 -0.7072  0.7960
20863SOL    HW174243   0.489   8.865   9.929  0.0439  0.0167  0.3066
20863SOL    HW274244   0.501   8.898  10.088 -0.7362  0.1698  0.3365
20864SOL     OW74245   1.291   1.726   4.957 -0.5449 -0.1050 -0.0613
20864SOL    HW174246   1.359   1.796   4.938 -0.3782  0.1670  1.5000
20864SOL    HW274247   1.298   1.653   4.888  3.3445 -1.5755  1.7790
20865SOL     OW74248   4.166   3.564   6.335 -0.0220  0.0142 -0.3997
20865SOL    HW174249   4.076   3.603   6.317  1.2158  2.5893 -1.1983
20865SOL    HW274250   4.207   3.610   6.413  1.2323 -0.0640 -1.0100
20866SOL     OW74251   4.469   4.284   7.113  0.4259  0.1528  0.1671
20866SOL    HW174252   4.385   4.247   7.072  0.2406 -1.0108  1.5544
20866SOL    HW274253   4.503   4.220   7.182  2.9118  0.2193 -0.9446
20867SOL     OW74254   4.901   2.052   5.018  0.0308 -0.0084 -0.0644
20867SOL    HW174255   4.841   2.055   5.098 -0.1154  0.5662 -0.1961
20867SOL    HW274256   4.949   2.139   5.009  0.9112 -0.4745  0.0539
20868SOL     OW74257   7.412   1.272   7.696  0.4110  0.1846 -0.2819
20868SOL    HW174258   7.363   1.329   7.763  0.2407  3.1545 -2.8353
20868SOL    HW274259   7.348   1.206   7.657  0.1989 -0.7012  1.4932
20869SOL     OW74260   7.676   7.410   7.980  0.0341 -0.0577 -0.6683
20869SOL    HW174261   7.773   7.392   7.997 -0.4433 -0.9830  1.1634
20869SOL    HW274262   7.656   7.505   8.003 -0.0271 -0.5665  1.4411
20870SOL     OW74263   4.160   1.494   4.682  0.6499 -0.4609  0.4029
20870SOL    HW174264   4.160   1.593   4.688 -0.3948 -0.4309  0.0945
20870SOL    HW274265   4.146   1.454   4.773 -0.4113 -0.2904  0.3222
20871SOL     OW74266   0.254   0.440   5.771 -0.2654  0.0811  0.3545
20871SOL    HW174267   0.286   0.372   5.838  1.4787 -0.1173 -0.6389
20871SOL    HW274268   0.298   0.527   5.790 -2.7659  1.0752  1.8378
20872SOL     OW74269   9.358   1.397   1.983 -0.6685  0.3670 -0.8636
20872SOL    HW174270   9.272   1.449   1.987 -1.8052 -1.4783 -0.1613
20872SOL    HW274271   9.363   1.348   1.896  0.4840  1.7571 -1.6025
20873SOL     OW74272   6.276   3.340   1.695 -0.2319  0.2198 -0.3027
20873SOL    HW174273   6.324   3.382   1.618 -2.2715  0.4497 -1.4816
20873SOL    HW274274   6.180   3.367   1.693 -1.0026 -2.3153  0.4711
20874SOL     OW74275   9.116   7.194   7.588  0.1601  0.5260  0.1920
20874SOL    HW174276   9.120   7.130   7.665 -0.8779 -0.2492 -0.3961
20874SOL    HW274277   9.164   7.156   7.510 -0.6308  0.3764 -0.2235
20875SOL     OW74278   7.122   6.311   3.939 -0.0181  0.0049 -0.2187
20875SOL    HW174279   7.146   6.382   3.872 -1.4274  0.4986 -0.2239
20875SOL    HW274280   7.112   6.353   4.029  2.0266 -0.6860  0.3414
20876SOL     OW74281   7.327   1.629   1.282 -0.0970  0.4823 -0.1536
20876SOL    HW174282   7.417   1.621   1.240 -0.2311  1.6640 -0.6634
20876SOL    HW274283   7.292   1.537   1.304 -0.0068 -0.1496 -2.5634
20877SOL     OW74284   9.146   1.404   5.629 -0.4357 -0.0779 -0.5203
20877SOL    HW174285   9.227   1.461   5.642 -1.3299  0.9056  0.6973
20877SOL    HW274286   9.148   1.366   5.536  1.1306  0.3791 -0.6985
20878SOL     OW74287   5.191   0.721   6.763  0.2136 -0.1115 -0.0921
20878SOL    HW174288   5.176   0.820   6.761 -1.2973 -0.3303  0.5287
20878SOL    HW274289   5.113   0.675   6.722  0.6364 -1.0952  0.2042
20879SOL     OW74290   2.641   5.001   2.136  0.2614 -0.2337 -0.0749
20879SOL    HW174291   2.668   5.056   2.215  0.6919  0.7195 -0.8890
20879SOL    HW274292   2.653   5.053   2.052 -1.3044 -0.8274 -0.7028
20880SOL     OW74293   3.871   9.738   5.022  0.6398 -0.4235 -0.0839
20880SOL    HW174294   3.837   9.697   4.938  0.3595 -1.8549  0.7133
20880SOL    HW274295   3.861   9.838   5.017 -2.2557 -0.7081 -0.4850
20881SOL     OW74296   9.577   0.333   1.216  0.7629 -0.5580 -0.5584
20881SOL    HW174297   9.560   0.428   1.240  0.5826 -0.6898 -0.1569
20881SOL    HW274298   9.651   0.328   1.149 -0.1864 -0.0535 -1.6472
20882SOL     OW74299   0.963   7.378   6.814 -0.0149  0.1016  0.3538
20882SOL    HW174300   0.985   7.284   6.838 -0.8767 -0.2707 -0.2848
20882SOL    HW274301   0.863   7.388   6.807  0.0972  0.9149 -0.1348
20883SOL     OW74302   3.563   6.876   2.634 -0.2051  0.6424 -0.1530
20883SOL    HW174303   3.577   6.824   2.719  0.7933  0.7107 -0.2718
20883SOL    HW274304   3.542   6.971   2.656 -0.6631  0.5007  0.0317
20884SOL     OW74305   9.109   4.290   4.407 -0.5537  0.0724  0.1340
20884SOL    HW174306   9.194   4.340   4.423 -0.6858  0.6519 -0.8984
20884SOL    HW274307   9.130   4.194   4.388 -0.1796  0.0806  0.4918
20885SOL     OW74308   1.104   4.268   5.536 -0.0630  0.1942 -0.4739
20885SOL    HW174309   1.011   4.284   5.505 -0.0119  1.1726 -0.1324
20885SOL    HW274310   1.168   4.313   5.474  0.2447 -1.3335 -1.2982
20886SOL     OW74311   3.460   7.410   4.717  0.1184 -0.8134 -0.2034
20886SOL    HW174312   3.469   7.408   4.617 -2.4052  0.4832 -0.5166
20886SOL    HW274313   3.379   7.356   4.744 -0.2088  0.2378  0.9803
20887SOL     OW74314   9.414   5.872   1.091  0.2656  0.5034 -0.2133
20887SOL    HW174315   9.344   5.903   1.155 -1.9006 -0.7574 -1.9012
20887SOL    HW274316   9.415   5.931   1.010  0.1756 -0.2868 -0.8055
20888SOL     OW74317   1.098   3.053   2.343  0.4302  0.0620  0.3400
20888SOL    HW174318   1.193   3.030   2.320  0.3551 -1.4885  1.5172
20888SOL    HW274319   1.049   2.970   2.369 -1.0832  0.9491  0.3509
20889SOL     OW74320   9.474   2.213   2.861  0.4232  0.1765 -0.0152
20889SOL    HW174321   9.531   2.139   2.826  0.5739  0.5031 -0.4573
20889SOL    HW274322   9.425   2.181   2.943  0.6200 -0.3541 -0.1018
20890SOL     OW74323   8.775   3.225   2.090 -0.2916 -1.1243 -0.6715
20890SOL    HW174324   8.700   3.274   2.047 -1.1799 -1.2684  0.6795
20890SOL    HW274325   8.757   3.214   2.188  0.2016 -3.5157 -0.7999
20891SOL     OW74326   3.253   0.136   3.160 -0.6641 -0.4941  0.8098
20891SOL    HW174327   3.218   0.086   3.239 -1.2714  0.6357  1.2637
20891SOL    HW274328   3.337   0.185   3.187 -0.1119 -1.1955  0.3867
20892SOL     OW74329   1.808   3.781   0.053 -0.3565 -0.2106 -0.2977
20892SOL    HW174330   1.809   3.681   0.048  1.7219 -0.1803 -1.0989
20892SOL    HW274331   1.900   3.816   0.034 -1.0529  1.8580  0.0265
20893SOL     OW74332   7.790   8.290   4.520  0.3659  0.2268  0.6779
20893SOL    HW174333   7.695   8.265   4.501 -0.0719  1.2780  1.4094
20893SOL    HW274334   7.850   8.213   4.501 -0.8520 -1.0685  1.9863
20894SOL     OW74335   3.241   4.265   4.018 -0.4079 -0.0680 -0.5494
20894SOL    HW174336   3.306   4.340   4.032 -2.2218  1.1877  1.5724
20894SOL    HW274337   3.202   4.272   3.926  0.0213  1.1647 -0.6472
20895SOL     OW74338   3.548   7.328   5.127  0.4688  0.0587  0.4544
20895SOL    HW174339   3.460   7.352   5.168 -0.2714 -1.0452 -0.4523
20895SOL    HW274340   3.541   7.239   5.080  1.2618  1.2612 -2.0742
20896SOL     OW74341   4.386   6.532   1.053  0.2031  0.5208  0.4146
20896SOL    HW174342   4.431   6.456   1.100 -1.5903 -0.4902  0.5541
20896SOL    HW274343   4.377   6.509   0.956 -1.3935  0.0363  0.6728
20897SOL     OW74344   3.764   7.142   2.330 -0.0200 -0.0463  0.1455
20897SOL    HW174345   3.746   7.061   2.385 -1.5482  0.5361  0.5440
20897SOL    HW274346   3.823   7.205   2.380  0.4734 -0.5406  0.1794
20898SOL     OW74347   8.268   9.920   4.069  0.9210 -1.1526  0.1009
20898SOL    HW174348   8.355   9.969   4.067  1.4649 -2.1053 -0.0229
20898SOL    HW274349   8.276   9.841   4.131  0.3789 -1.6681 -0.4778
20899SOL     OW74350   2.951   7.979   0.618  0.2407  0.1110 -0.0484
20899SOL    HW174351   2.900   7.928   0.549  1.5017 -0.3692 -0.6393
20899SOL    HW274352   2.903   8.065   0.638  0.3084  0.6598 -2.1669
20900SOL     OW74353   7.385   5.073   3.497 -0.0006 -0.4719 -0.4289
20900SOL    HW174354   7.360   5.085   3.401 -0.9164 -1.0211 -0.2648
20900SOL    HW274355   7.334   4.997   3.536  1.6878 -1.4194  0.0149
20901SOL     OW74356   9.632   5.312  10.043  0.5755 -0.0516  0.7563
20901SOL    HW174357   9.595   5.249   9.975  1.2624  0.1500  0.1913
20901SOL    HW274358   9.559   5.342  10.104 -0.3616  0.9310 -0.8091
20902SOL     OW74359   7.893   5.758   0.587  0.5653 -0.6671  0.1406
20902SOL    HW174360   7.964   5.827   0.601  0.3230 -0.3475 -0.1873
20902SOL    HW274361   7.923   5.693   0.516  1.5067 -1.8938  1.6390
20903SOL     OW74362   9.027   4.326   7.388 -0.5547 -0.2961 -0.1675
20903SOL    HW174363   9.085   4.269   7.446 -0.6720  0.8509  1.0896
20903SOL    HW274364   8.945   4.354   7.439 -0.6806  0.6881 -0.8878
20904SOL     OW74365   9.090   5.977   3.028 -0.8148  0.1681  0.4442
20904SOL    HW174366   9.185   6.007   3.038 -0.9727  1.1206 -0.7327
20904SOL    HW274367   9.076   5.891   3.077  0.8532 -0.3652  0.0173
20905SOL     OW74368   7.261   8.735   6.045 -0.4232  0.0773 -0.1702
20905SOL    HW174369   7.178   8.759   6.095 -1.1509  0.1793 -1.3951
20905SOL    HW274370   7.300   8.817   6.004 -0.1694 -0.0949 -0.2704
20906SOL     OW74371   4.404   6.349   4.519  0.5819 -0.0762 -0.2260
20906SOL    HW174372   4.395   6.420   4.449  1.1264  0.8854  0.6632
20906SOL    HW274373   4.314   6.312   4.540 -0.1223  2.3313  1.2931
20907SOL     OW74374   2.742   0.823   3.690 -0.3621 -0.2076  0.0173
20907SOL    HW174375   2.644   0.841   3.704 -0.5586 -0.9354 -0.3887
20907SOL    HW274376   2.756   0.724   3.678  0.3532 -0.0419 -0.5078
20908SOL     OW74377   2.274   5.872   6.154 -0.5034 -0.4542 -0.0269
20908SOL    HW174378   2.263   5.834   6.062 -0.2249  0.5149 -0.4695
20908SOL    HW274379   2.371   5.873   6.179 -0.0881  3.4662 -1.5682
20909SOL     OW74380   6.864   1.502   7.292  0.2907  0.0838  0.8034
20909SOL    HW174381   6.776   1.548   7.298 -0.8731 -2.1215  0.9218
20909SOL    HW274382   6.897   1.480   7.384  1.6794  2.1917  0.8403
20910SOL     OW74383   6.978   1.664   4.745 -0.8038 -0.1082 -0.6730
20910SOL    HW174384   6.995   1.566   4.736 -0.5568 -0.1912  0.6403
20910SOL    HW274385   6.885   1.679   4.780 -0.0547  0.0459  1.2948
20911SOL     OW74386   1.449   4.050   2.536 -0.2209  0.1171 -0.2105
20911SOL    HW174387   1.448   4.148   2.556 -2.4119 -0.2926  1.9069
20911SOL    HW274388   1.362   4.023   2.496 -0.3475 -1.2985  0.9871
20912SOL     OW74389   1.632   5.831   3.355  0.5638  0.2641  0.2384
20912SOL    HW174390   1.722   5.797   3.332  1.9102  3.1564  0.9200
20912SOL    HW274391   1.610   5.807   3.450  1.1019  0.4490  0.4131
20913SOL     OW74392   6.302   0.145   4.291  0.1695 -0.0577  0.7603
20913SOL    HW174393   6.382   0.179   4.341  0.6095 -1.7918  1.2780
20913SOL    HW274394   6.286   0.203   4.211  0.5782  1.6363  1.8929
20914SOL     OW74395   7.454   8.513   6.381  0.1808 -0.3109  0.5609
20914SOL    HW174396   7.537   8.463   6.405  0.3118 -0.5990 -0.4659
20914SOL    HW274397   7.451   8.526   6.282  0.3158  1.9990  0.8327
20915SOL     OW74398   6.281   3.589   0.679  0.0078  0.0172  0.3660
20915SOL    HW174399   6.183   3.604   0.693  0.1141  1.4475 -0.3310
20915SOL    HW274400   6.296   3.497   0.642 -0.9469 -0.7348  1.7924
20916SOL     OW74401   8.544   8.519   4.506 -0.1490 -0.0315  0.0582
20916SOL    HW174402   8.517   8.426   4.532  1.2192 -1.7058 -3.9339
20916SOL    HW274403   8.468   8.563   4.458 -0.2297  0.2259  0.4311
20917SOL     OW74404   7.490   7.896   6.499  0.3358  0.2387  0.1601
20917SOL    HW174405   7.501   7.911   6.597 -2.1618  2.5583  0.1467
20917SOL    HW274406   7.484   7.984   6.452 -2.5123 -0.7679 -1.5135
20918SOL     OW74407   9.755   8.448   7.691  0.0294 -0.3310 -0.0053
20918SOL    HW174408   9.678   8.500   7.728  0.5562  0.4166  0.0395
20918SOL    HW274409   9.838   8.471   7.741  0.4216 -0.6028 -0.5293
20919SOL     OW74410   5.779   8.247   2.955  0.0132  0.2033  0.3818
20919SOL    HW174411   5.742   8.336   2.926 -0.3771 -0.4279 -1.0941
20919SOL    HW274412   5.794   8.190   2.875  1.6459 -0.5463  1.2122
20920SOL     OW74413   1.085   4.786   7.309 -0.3667 -0.4385 -0.2117
20920SOL    HW174414   1.084   4.869   7.253  1.6886  0.2075  0.6385
20920SOL    HW274415   1.143   4.717   7.265  0.2316 -0.3767  0.4625
20921SOL     OW74416   2.689   2.234   6.058  0.2098  0.2312 -0.2797
20921SOL    HW174417   2.676   2.137   6.038  1.3848  0.3484 -1.7891
20921SOL    HW274418   2.606   2.284   6.034 -1.1744 -0.6338  2.4827
20922SOL     OW74419   3.821   0.598   1.578  0.6539  0.1614 -0.1320
20922SOL    HW174420   3.745   0.659   1.558  0.5136  0.3492  0.9022
20922SOL    HW274421   3.787   0.504   1.585  0.5762  0.1962 -0.0346
20923SOL     OW74422   5.018   0.006   0.971  0.0171  0.4108 -0.3530
20923SOL    HW174423   5.026   0.105   0.982  0.9282  0.1560  1.5505
20923SOL    HW274424   4.949  -0.014   0.902  0.3560  2.3747 -1.3141
20924SOL     OW74425   5.522   5.523   0.517  0.1443 -0.3694  0.1548
20924SOL    HW174426   5.424   5.517   0.498  0.1144 -1.7391  0.6766
20924SOL    HW274427   5.552   5.440   0.563  1.6216 -0.0842 -0.2692
20925SOL     OW74428   3.009   3.327   4.913 -0.0622 -0.5007  0.2634
20925SOL    HW174429   3.088   3.275   4.946  1.8672  1.2746 -1.3974
20925SOL    HW274430   3.031   3.425   4.914 -1.7887 -0.0620 -1.3344
20926SOL     OW74431   8.948   8.950   2.240 -0.4274  0.0078 -0.8274
20926SOL    HW174432   8.863   9.001   2.249 -1.3340 -1.7096  0.6346
20926SOL    HW274433   8.999   8.952   2.326 -1.3098 -2.9139 -0.1577
20927SOL     OW74434   2.412   8.792   0.846  0.7009  0.5103  0.1780
20927SOL    HW174435   2.487   8.841   0.892  0.6328  0.0835  0.7532
20927SOL    HW274436   2.328   8.805   0.898  0.1250  1.9090 -1.0656
20928SOL     OW74437   2.305   0.150   6.318  0.4755 -0.7528  0.4456
20928SOL    HW174438   2.340   0.087   6.249 -0.1380  1.6179 -2.0868
20928SOL    HW274439   2.378   0.214   6.344 -0.5379  1.1402 -1.2874
20929SOL     OW74440   9.862   7.824   7.937  0.4361 -0.4678 -0.4601
20929SOL    HW174441   9.886   7.732   7.908 -0.6331  0.0277 -3.0412
20929SOL    HW274442   9.943   7.870   7.973  0.9691 -2.3916  0.8799
20930SOL     OW74443   8.145   0.160   1.652 -0.4355 -0.5759 -0.0919
20930SOL    HW174444   8.225   0.134   1.706  0.1457 -0.1489 -0.7460
20930SOL    HW274445   8.121   0.086   1.589 -1.9982 -1.6878  1.7352
20931SOL     OW74446   9.595   7.643   4.839 -0.2020  0.4660 -0.5760
20931SOL    HW174447   9.621   7.708   4.910 -1.6969 -0.4936  0.9083
20931SOL    HW274448   9.668   7.577   4.826  0.0540  0.5966  0.1629
20932SOL     OW74449   3.041   4.285   4.922  0.1877 -0.1614 -0.3757
20932SOL    HW174450   3.009   4.378   4.908 -2.1417 -1.1029 -1.4354
20932SOL    HW274451   3.140   4.286   4.936 -0.0125  2.5974  1.1049
20933SOL     OW74452   6.724   9.110   7.400  0.2998  0.7114  0.0193
20933SOL    HW174453   6.629   9.125   7.427 -0.0539 -2.3094  0.6303
20933SOL    HW274454   6.785   9.154   7.465 -0.6653  1.7357  0.2398
20934SOL     OW74455   9.568   5.101   6.010 -0.3584  0.6286 -0.0919
20934SOL    HW174456   9.484   5.148   5.982 -0.8105 -1.2732 -2.1305
20934SOL    HW274457   9.544   5.025   6.070  0.2906  2.4667  2.5449
20935SOL     OW74458   0.355   2.625   4.547  0.0780 -0.0975 -0.0007
20935SOL    HW174459   0.298   2.584   4.618  0.2850  0.8522  0.7305
20935SOL    HW274460   0.297   2.659   4.473 -0.2798  0.4245  0.5110
20936SOL     OW74461   4.142   4.820   4.593  0.2409 -0.0360 -0.6015
20936SOL    HW174462   4.103   4.801   4.503 -0.0006  0.8372 -0.6859
20936SOL    HW274463   4.077   4.795   4.664 -0.6900  1.8834 -0.7559
20937SOL     OW74464   0.565   2.469   3.091 -0.0685  0.0808  0.8190
20937SOL    HW174465   0.573   2.549   3.151 -0.4197  0.2066  0.7009
20937SOL    HW274466   0.626   2.397   3.124  1.7667  1.1187 -0.2695
20938SOL     OW74467   8.927   0.505   5.783 -0.2978 -0.3298 -0.5642
20938SOL    HW174468   9.016   0.480   5.821 -0.8659  0.8068  1.6219
20938SOL    HW274469   8.856   0.454   5.831 -1.0216  0.9867 -0.2173
20939SOL     OW74470   1.931   4.830   4.721 -0.3239  0.1282 -0.3983
20939SOL    HW174471   1.871   4.798   4.648  0.3631 -0.5089 -0.6891
20939SOL    HW274472   2.019   4.859   4.682  0.6569 -1.7737  0.3482
20940SOL     OW74473   3.913   0.373   2.434  0.5406 -0.8226 -0.4425
20940SOL    HW174474   4.004   0.365   2.395  1.0691 -1.8169  0.9262
20940SOL    HW274475   3.865   0.285   2.426 -1.3306  0.4037 -3.5481
20941SOL     OW74476   8.196   5.169   5.939  0.0601 -0.5021 -0.4361
20941SOL    HW174477   8.171   5.227   6.017  2.7777 -2.0017  1.6234
20941SOL    HW274478   8.142   5.084   5.943  0.3907 -0.6952 -0.0261
20942SOL     OW74479   9.544   5.652   3.088 -0.1415  0.0260  0.4955
20942SOL    HW174480   9.540   5.607   2.999 -1.9159  1.6934 -0.3152
20942SOL    HW274481   9.610   5.727   3.085 -2.2331  1.8983 -0.3433
20943SOL     OW74482   3.804   3.282   0.128 -0.6986 -0.1533  0.3939
20943SOL    HW174483   3.773   3.278   0.223 -0.5990  0.3691  0.4529
20943SOL    HW274484   3.903   3.296   0.126 -0.6942 -0.2137  0.2139
20944SOL     OW74485   8.134   4.827   3.340  0.2846  0.3933  0.0351
20944SOL    HW174486   8.157   4.891   3.414  0.9753 -0.1841  0.3260
20944SOL    HW274487   8.194   4.844   3.262 -0.7233  1.2764 -0.5513
20945SOL     OW74488   9.191   6.269   7.519 -0.5068  0.3437 -0.8124
20945SOL    HW174489   9.168   6.359   7.554 -1.2391 -0.0576 -0.2383
20945SOL    HW274490   9.128   6.244   7.446  0.5030  0.8302 -1.8681
20946SOL     OW74491   1.562   7.818   5.625 -0.0284  0.1923  0.0576
20946SOL    HW174492   1.627   7.756   5.670 -0.9569  0.2185  1.4821
20946SOL    HW274493   1.533   7.888   5.691 -1.0808  0.5098 -0.7383
20947SOL     OW74494   6.455   0.896   6.241 -0.0209  0.1115  0.2726
20947SOL    HW174495   6.553   0.909   6.253 -0.1756  0.5613  1.0535
20947SOL    HW274496   6.405   0.973   6.280 -0.6835 -0.0576 -0.2215
20948SOL     OW74497   9.785   1.944   5.631  0.4461 -0.0097  0.3967
20948SOL    HW174498   9.741   2.026   5.668 -2.2855 -2.0359  1.8491
20948SOL    HW274499   9.783   1.948   5.531 -0.7619  1.1568  0.4360
20949SOL     OW74500   4.895   3.731   7.518  0.4120  0.3704 -0.2167
20949SOL    HW174501   4.910   3.675   7.599 -0.6067 -0.1905 -0.4181
20949SOL    HW274502   4.810   3.782   7.528 -1.0768 -1.7065 -2.0743
20950SOL     OW74503   4.351   6.848   2.595  0.1723 -0.2762  1.0530
20950SOL    HW174504   4.358   6.779   2.522 -2.2423 -0.6502  1.1190
20950SOL    HW274505   4.391   6.812   2.679 -0.2308 -1.2633  0.8377
20951SOL     OW74506   8.354   8.320   0.884 -0.4709 -0.3029  0.6665
20951SOL    HW174507   8.417   8.389   0.922 -0.1085 -0.7817  0.9415
20951SOL    HW274508   8.265   8.362   0.868 -0.1537  0.3228  0.5085
20952SOL     OW74509   6.062   1.933   1.940  0.7391  0.1547  0.0545
20952SOL    HW174510   6.036   1.890   2.026 -0.4077 -1.4053 -1.0450
20952SOL    HW274511   6.162   1.941   1.935  0.9765 -2.1865  0.3871
20953SOL     OW74512   5.038   8.929   5.098 -0.2760 -0.4668 -0.4669
20953SOL    HW174513   5.079   9.021   5.103  0.2730 -0.5920 -2.1696
20953SOL    HW274514   5.111   8.861   5.095 -0.6248 -0.7784 -2.1168
20954SOL     OW74515   4.339   3.384   2.166 -0.3966  0.1915 -0.8416
20954SOL    HW174516   4.391   3.467   2.147 -0.2221  0.2920  0.0638
20954SOL    HW274517   4.260   3.407   2.224 -1.0610 -0.0718 -1.6286
20955SOL     OW74518   5.552   1.780   6.361 -0.6226  0.6398 -0.3818
20955SOL    HW174519   5.598   1.728   6.289 -0.5581 -0.1672  0.2296
20955SOL    HW274520   5.456   1.752   6.365 -0.6186  0.6654 -0.1330
20956SOL     OW74521   7.571   1.400   4.209 -0.1300 -0.2124 -0.0926
20956SOL    HW174522   7.638   1.454   4.158  0.3450 -0.3581  0.3610
20956SOL    HW274523   7.554   1.314   4.160  0.1803 -0.2696 -0.1011
20957SOL     OW74524   0.147   2.913   5.374 -0.1468  0.7940 -0.0017
20957SOL    HW174525   0.134   3.012   5.384 -0.0872  0.7234  0.7705
20957SOL    HW274526   0.233   2.886   5.418 -0.4623  0.3064  0.3167
20958SOL     OW74527   3.908   5.780   3.182 -0.1435  0.6051 -0.2393
20958SOL    HW174528   3.819   5.746   3.213 -0.2931  1.5050  0.3166
20958SOL    HW274529   3.979   5.750   3.246  0.0137 -0.4083 -0.8685
20959SOL     OW74530   3.737   0.714   5.205 -0.2029 -0.6994  0.6211
20959SOL    HW174531   3.803   0.650   5.164 -0.7102 -1.1526  0.5037
20959SOL    HW274532   3.765   0.733   5.299  2.3587  2.3040 -0.6702
20960SOL     OW74533   1.511   7.241   7.868 -0.0581 -0.2242  0.5441
20960SOL    HW174534   1.547   7.182   7.940  3.5658  1.7285  0.5026
20960SOL    HW274535   1.547   7.212   7.779 -0.7274  0.1637  0.1410
20961SOL     OW74536   9.877   4.756   5.080  0.1427 -0.3736  0.0866
20961SOL    HW174537   9.842   4.736   5.171  0.1221  1.3170  0.4556
20961SOL    HW274538   9.854   4.849   5.054  1.5010 -0.3182 -1.0211
20962SOL     OW74539   3.851   8.202   3.977  0.1978  0.2294 -0.1857
20962SOL    HW174540   3.794   8.202   3.895 -0.2851  1.5350  0.1382
20962SOL    HW274541   3.940   8.159   3.956 -0.1080  0.0856 -1.2374
20963SOL     OW74542   8.922   7.909   2.403  0.0891 -0.0717  0.0667
20963SOL    HW174543   8.933   7.909   2.304  0.8377 -1.1038  0.1442
20963SOL    HW274544   8.860   7.983   2.430  0.0835  0.3682 -1.1417
20964SOL     OW74545   3.630   2.606   0.793 -0.5874 -0.2724 -0.2940
20964SOL    HW174546   3.635   2.568   0.701 -1.7285 -0.8044 -0.1540
20964SOL    HW274547   3.632   2.706   0.788 -1.7463 -0.2732 -0.9813
20965SOL     OW74548   3.689   8.085   2.429 -0.0794  0.4950  1.0479
20965SOL    HW174549   3.603   8.046   2.397  0.3149  0.6866 -0.2664
20965SOL    HW274550   3.716   8.041   2.515 -0.5117 -0.9174  0.4658
20966SOL     OW74551   2.396   6.361   4.343  0.3176 -0.0595 -0.2969
20966SOL    HW174552   2.346   6.330   4.423  0.8202 -0.6511 -0.2050
20966SOL    HW274553   2.343   6.431   4.294  0.9735  1.9588  1.7752
20967SOL     OW74554   3.086   9.885   2.029  0.4610 -0.0845  0.2814
20967SOL    HW174555   3.135   9.845   1.951  1.4028  2.4837 -0.4799
20967SOL    HW274556   3.042   9.970   2.001 -1.0325 -0.2490  2.0285
20968SOL     OW74557   7.241   1.381   1.284 -0.1802 -0.3192  0.3720
20968SOL    HW174558   7.185   1.327   1.347 -0.5210 -0.5762 -0.1479
20968SOL    HW274559   7.336   1.348   1.288 -0.3162 -0.7213  0.3150
20969SOL     OW74560   9.023   4.970   7.185 -0.0243  0.2023  0.0479
20969SOL    HW174561   9.054   5.053   7.138  0.1351  1.2280  1.9017
20969SOL    HW274562   9.076   4.891   7.152  1.0163  1.1094 -0.5030
20970SOL     OW74563   0.705   2.354   4.776  0.0857 -0.4041  0.8955
20970SOL    HW174564   0.694   2.275   4.715 -1.3749  1.2176 -1.0222
20970SOL    HW274565   0.617   2.377   4.817  0.2832  0.7862  0.6862
20971SOL     OW74566   3.241   7.690   0.709  0.3336  0.3429  0.1958
20971SOL    HW174567   3.280   7.604   0.740  2.1422  0.8987 -0.4262
20971SOL    HW274568   3.153   7.706   0.754  1.0928 -0.6838  2.0958
20972SOL     OW74569   7.230   8.013   3.005  0.2334  0.1245 -0.0020
20972SOL    HW174570   7.323   8.049   3.012  0.2329  0.1702 -0.2118
20972SOL    HW274571   7.164   8.086   3.021  0.2127  0.7906 -2.9407
20973SOL     OW74572   9.132   0.085   1.897 -0.1944 -0.1643 -0.2469
20973SOL    HW174573   9.097  -0.005   1.871 -0.5365  0.1552 -0.8980
20973SOL    HW274574   9.161   0.135   1.815  1.0668 -0.1237  0.2161
20974SOL     OW74575   9.866   4.139   7.846 -0.2308  0.0894 -0.5667
20974SOL    HW174576   9.829   4.067   7.905  0.6903  0.7475  0.8337
20974SOL    HW274577   9.937   4.189   7.895  1.0974  0.1513 -2.5172
20975SOL     OW74578   6.628   3.800   0.037  0.5729 -0.1322  0.0972
20975SOL    HW174579   6.681   3.865  -0.016  0.8555 -1.1742 -0.9036
20975SOL    HW274580   6.541   3.842   0.063  1.5371  1.3047  1.0852
20976SOL     OW74581   8.834   2.937   3.523  0.0209  0.1432 -0.9023
20976SOL    HW174582   8.743   2.894   3.527  0.0136  0.2369 -0.0045
20976SOL    HW274583   8.876   2.918   3.434 -1.0412  0.4224 -1.4758
20977SOL     OW74584   7.406   4.519   2.440  0.1370 -0.0321  0.4109
20977SOL    HW174585   7.391   4.618   2.433  1.2360  0.0850 -0.4483
20977SOL    HW274586   7.321   4.471   2.416 -1.1732  0.7137  3.3517
20978SOL     OW74587   3.202   9.134   1.742  0.1080  0.0300 -0.1066
20978SOL    HW174588   3.226   9.064   1.675  0.0313 -0.0591 -0.0404
20978SOL    HW274589   3.105   9.127   1.765  0.0166  0.3899 -0.3705
20979SOL     OW74590   7.266   0.571   2.516  0.1988  0.5086 -0.6909
20979SOL    HW174591   7.271   0.528   2.427 -0.8979  1.2072 -1.1039
20979SOL    HW274592   7.227   0.507   2.583  2.4748 -0.5555 -0.3333
20980SOL     OW74593   2.818   6.545   4.320 -0.3483  0.3077  0.4762
20980SOL    HW174594   2.811   6.494   4.406  1.2600 -2.0504 -0.7459
20980SOL    HW274595   2.872   6.627   4.335  1.6435 -1.1132  1.3095
20981SOL     OW74596   9.434   3.620   7.592 -0.3822  0.1903  0.2329
20981SOL    HW174597   9.405   3.683   7.663 -0.7326  0.5969 -0.2712
20981SOL    HW274598   9.380   3.635   7.509  0.2517 -0.0476 -0.2320
20982SOL     OW74599   2.279   1.491   6.798 -0.1678  0.0599 -0.8249
20982SOL    HW174600   2.225   1.563   6.756 -0.0358 -0.2442 -1.5205
20982SOL    HW274601   2.261   1.404   6.751 -0.2973 -0.3540 -0.0216
20983SOL     OW74602   1.201   0.419   5.390 -0.5243 -0.1969  0.0698
20983SOL    HW174603   1.285   0.364   5.387 -2.3893 -3.4241  3.2365
20983SOL    HW274604   1.139   0.389   5.318 -0.2602 -0.0079 -0.2388
20984SOL     OW74605   0.438   6.338   4.315 -0.1676 -0.7368  0.2479
20984SOL    HW174606   0.436   6.239   4.317 -1.9075 -0.7110  0.7301
20984SOL    HW274607   0.500   6.372   4.386  1.1177 -1.4753 -0.5062
20985SOL     OW74608   8.332   9.922   5.404  0.2368 -0.6712  0.1837
20985SOL    HW174609   8.281   9.837   5.396 -0.1963 -0.3432 -0.6458
20985SOL    HW274610   8.368   9.931   5.497 -2.5256 -0.2000  1.2620
20986SOL     OW74611   3.283   4.916   2.685  0.3063 -0.0718 -0.0541
20986SOL    HW174612   3.211   4.879   2.626  0.2423 -0.0592  0.0155
20986SOL    HW274613   3.317   5.002   2.646  1.5533 -0.9924 -1.0379
20987SOL     OW74614   7.526   3.843   3.294  0.1620 -0.2928 -0.3147
20987SOL    HW174615   7.510   3.934   3.254  1.6857  1.3822  2.7248
20987SOL    HW274616   7.606   3.802   3.250  0.3381  0.4664 -0.7266
20988SOL     OW74617   9.841   8.341   0.572 -0.4175  0.8000 -0.2468
20988SOL    HW174618   9.827   8.332   0.671 -2.3345 -0.3163 -0.5980
20988SOL    HW274619   9.812   8.432   0.543 -2.6080  0.1318 -0.2157
20989SOL     OW74620   9.243   2.964   2.004  0.3506 -0.4783  0.6157
20989SOL    HW174621   9.164   2.964   2.065 -0.4516 -0.0315 -0.4108
20989SOL    HW274622   9.284   2.873   2.003 -1.7173 -1.4364 -0.8326
20990SOL     OW74623   7.800   0.227   4.623 -0.7440  0.2274  0.3722
20990SOL    HW174624   7.829   0.268   4.710 -1.4747 -0.4012  0.9277
20990SOL    HW274625   7.858   0.259   4.549  2.3549 -2.2120  1.6650
20991SOL     OW74626   8.183   2.223   5.814  0.2997  0.3137 -0.2087
20991SOL    HW174627   8.225   2.245   5.902 -0.7829 -1.5657  0.8011
20991SOL    HW274628   8.131   2.302   5.782 -0.1253  0.6720  1.3149
20992SOL     OW74629   8.352   1.727   4.655  0.0984  0.0492  0.0614
20992SOL    HW174630   8.303   1.777   4.583  3.5612  0.6391 -2.0424
20992SOL    HW274631   8.419   1.788   4.697  2.7008 -2.0740 -0.8544
20993SOL     OW74632   6.876   9.163   5.030  0.1936  0.5300 -0.0066
20993SOL    HW174633   6.875   9.120   5.120 -0.0125  1.2214  0.3254
20993SOL    HW274634   6.808   9.237   5.028 -1.0552 -0.6113 -1.2830
20994SOL     OW74635   8.799   9.698   0.445  0.0353  0.2586  1.2088
20994SOL    HW174636   8.875   9.641   0.413 -0.2733  1.6138 -2.0508
20994SOL    HW274637   8.714   9.647   0.435  0.0311  0.3616  0.7316
20995SOL     OW74638   1.198   4.865   1.307 -0.2346  0.5789  0.7276
20995SOL    HW174639   1.190   4.857   1.208 -0.9944 -1.0859  0.8991
20995SOL    HW274640   1.286   4.905   1.331 -0.6926  2.4313 -0.6655
20996SOL     OW74641   6.779   7.439   7.093  0.6190 -0.7982  0.0208
20996SOL    HW174642   6.763   7.437   6.994 -0.5610  1.1819  0.1396
20996SOL    HW274643   6.868   7.398   7.113  1.3549 -0.2357 -1.9810
20997SOL     OW74644   6.927   6.907   6.291 -1.3134  0.3690  0.2662
20997SOL    HW174645   6.866   6.986   6.292 -1.3902  0.3284 -0.6140
20997SOL    HW274646   6.904   6.848   6.213 -1.3581 -0.5950  1.0052
20998SOL     OW74647   6.645   1.727   6.279  0.2347  0.6962  0.1944
20998SOL    HW174648   6.615   1.711   6.373 -0.9317 -1.4114 -0.5012
20998SOL    HW274649   6.712   1.657   6.254  0.1569  0.9429 -0.7008
20999SOL     OW74650   8.510   0.280   2.178  0.3792 -0.4836  0.4299
20999SOL    HW174651   8.445   0.271   2.102 -1.1501 -0.3542  1.6984
20999SOL    HW274652   8.519   0.193   2.225  2.4707 -0.9567 -0.7754
21000SOL     OW74653   8.546   2.501   3.782 -0.1526  0.6972 -0.3861
21000SOL    HW174654   8.480   2.572   3.803 -0.3705  0.6974 -1.0514
21000SOL    HW274655   8.502   2.430   3.727  0.5800  1.0735 -1.4836
21001SOL     OW74656   0.948   5.615   6.105 -0.0881  0.4657 -0.4102
21001SOL    HW174657   0.873   5.640   6.044 -0.2619  1.1574  0.0795
21001SOL    HW274658   1.034   5.611   6.053 -0.5938 -1.1507 -1.1389
21002SOL     OW74659   3.247   7.128   6.322  0.2521  0.3833 -0.0149
21002SOL    HW174660   3.217   7.173   6.238 -0.0797  1.8165  0.8474
21002SOL    HW274661   3.170   7.121   6.385  0.6202 -0.2299  0.3696
21003SOL     OW74662   1.321   9.277   7.199  0.4069  0.3872  0.4031
21003SOL    HW174663   1.305   9.310   7.292 -1.6820 -0.3845  0.3661
21003SOL    HW274664   1.254   9.205   7.178  0.8639  0.5382 -1.6808
21004SOL     OW74665   7.088   8.835   8.148 -0.4452  0.0352  0.1165
21004SOL    HW174666   7.000   8.791   8.128  0.0883  0.2130 -2.7593
21004SOL    HW274667   7.162   8.770   8.129  0.2364  1.3644 -1.8950
21005SOL     OW74668   2.573   2.817   3.831  0.2802 -0.0569 -0.7954
21005SOL    HW174669   2.480   2.816   3.868 -0.0494  0.3128 -1.6024
21005SOL    HW274670   2.638   2.792   3.903 -0.2297  1.8757  0.3730
21006SOL     OW74671   8.178   4.697   2.579 -0.8050  0.1257 -0.0914
21006SOL    HW174672   8.147   4.727   2.669 -0.7849  0.2949 -0.1403
21006SOL    HW274673   8.103   4.706   2.513 -0.8554 -0.1109 -0.0676
21007SOL     OW74674   1.837   5.253   4.652  0.2825 -0.6685  0.7892
21007SOL    HW174675   1.766   5.324   4.661 -2.2774 -2.8087 -1.6642
21007SOL    HW274676   1.924   5.297   4.630 -0.9946  1.8399  0.4453
21008SOL     OW74677   2.951   8.432   6.663  0.2326 -0.1746 -0.2053
21008SOL    HW174678   2.951   8.333   6.678  0.8123  0.0069  1.0348
21008SOL    HW274679   2.938   8.479   6.750  1.1157  0.8656 -0.6227
21009SOL     OW74680   7.691   2.104   0.547  0.3451  0.2622  0.0503
21009SOL    HW174681   7.653   2.025   0.499  1.2217  0.7492 -1.4558
21009SOL    HW274682   7.679   2.186   0.491 -0.3687  1.1798  1.5089
21010SOL     OW74683   5.706   4.215   1.784  0.3994  0.2614 -0.0902
21010SOL    HW174684   5.727   4.118   1.784 -0.6787  0.0134  0.9803
21010SOL    HW274685   5.629   4.233   1.846  2.0293  2.1003  1.5090
21011SOL     OW74686   6.694   7.477   5.044  0.1285 -0.1963 -0.9590
21011SOL    HW174687   6.786   7.460   5.008  0.9372 -0.0001  0.9333
21011SOL    HW274688   6.677   7.415   5.120 -0.2095  1.6336  0.4925
21012SOL     OW74689   2.919   6.045   5.907  0.5720  0.1971 -0.1537
21012SOL    HW174690   2.894   6.099   5.987 -0.6841 -0.2376 -0.2431
21012SOL    HW274691   3.018   6.036   5.903  0.6462 -0.0693  1.5665
21013SOL     OW74692   1.919   9.102   4.137  0.2371  0.2808 -0.0530
21013SOL    HW174693   1.921   9.193   4.179 -0.8316  0.6729 -0.8451
21013SOL    HW274694   1.983   9.042   4.185  0.3270  1.2153  1.0104
21014SOL     OW74695   9.577   6.693   2.711  0.7507 -0.0006  0.4345
21014SOL    HW174696   9.662   6.686   2.658  0.0555 -0.6703 -0.6177
21014SOL    HW274697   9.500   6.667   2.653 -0.0749 -0.3189  1.6566
21015SOL     OW74698   6.641   2.542   4.102  0.4636  0.0933 -0.1847
21015SOL    HW174699   6.582   2.511   4.176 -0.4204  1.6268 -0.2356
21015SOL    HW274700   6.619   2.636   4.078  2.4121  0.4425 -0.7312
21016SOL     OW74701   5.167   5.934   2.796  0.3566 -0.1010  0.0554
21016SOL    HW174702   5.184   5.900   2.703  1.5186  0.1740  0.1588
21016SOL    HW274703   5.237   6.001   2.820  0.4069 -0.6034  1.3486
21017SOL     OW74704   4.213   7.373   0.451  0.1128 -0.5220 -0.2247
21017SOL    HW174705   4.178   7.359   0.543 -0.5790 -0.3703 -0.4630
21017SOL    HW274706   4.230   7.284   0.408  0.2229 -0.5943 -0.0314
21018SOL     OW74707   1.095   1.591   0.591 -0.0682  0.0757  0.3034
21018SOL    HW174708   1.058   1.534   0.664  1.2901  0.8720  1.6365
21018SOL    HW274709   1.066   1.685   0.604 -1.4621 -0.0975 -1.3249
21019SOL     OW74710   3.464   7.584   0.391  0.0339  0.1278  0.2976
21019SOL    HW174711   3.435   7.491   0.371  1.6208 -0.3945  0.3775
21019SOL    HW274712   3.474   7.635   0.306  0.1472 -0.0771  0.1878
21020SOL     OW74713   7.013   1.276   3.897  0.3215  0.3655  0.0678
21020SOL    HW174714   6.928   1.292   3.947  1.3867  0.0764  2.0450
21020SOL    HW274715   7.088   1.324   3.943  1.4442 -0.4121 -0.9103
21021SOL     OW74716   1.972   8.697   0.223 -0.0498  0.1720  0.3085
21021SOL    HW174717   1.913   8.703   0.143 -1.2110 -0.3057  1.1228
21021SOL    HW274718   1.930   8.745   0.300  0.1198 -1.0345  1.1822
21022SOL     OW74719   2.074   9.460   0.677  0.0982  0.7232 -0.0846
21022SOL    HW174720   2.173   9.460   0.668  0.1204  0.0916  0.1823
21022SOL    HW274721   2.046   9.389   0.741 -0.4173  1.8444  0.9692
21023SOL     OW74722   1.158   5.275   5.624 -0.0583  0.0318  0.2638
21023SOL    HW174723   1.243   5.249   5.578 -0.4874 -0.5086 -0.2357
21023SOL    HW274724   1.083   5.219   5.589 -0.0264 -1.9480  3.1605
21024SOL     OW74725   9.050   1.035   5.592 -0.0214 -0.0362 -0.2321
21024SOL    HW174726   8.977   0.972   5.620  0.5206 -0.3576  0.4799
21024SOL    HW274727   9.139   0.990   5.605  0.4108  1.1366  1.0219
21025SOL     OW74728   6.913   0.521   3.509 -0.6696 -0.1625  0.0007
21025SOL    HW174729   6.913   0.448   3.577 -0.3912 -1.0503 -0.9482
21025SOL    HW274730   7.002   0.526   3.464 -1.1654 -0.2297 -0.9916
21026SOL     OW74731   8.686   6.024   5.268 -0.3433  0.1554 -0.5985
21026SOL    HW174732   8.686   6.010   5.169  0.7799 -1.2770 -0.4261
21026SOL    HW274733   8.759   6.087   5.293  1.0518 -1.4982 -0.4509
21027SOL     OW74734   9.787   6.095   3.328  0.0042 -0.0235 -0.2499
21027SOL    HW174735   9.807   6.018   3.389 -0.4352 -0.0352 -0.1182
21027SOL    HW274736   9.869   6.118   3.276  1.3994  2.1159  2.7349
21028SOL     OW74737   9.836   4.362   2.131 -0.2179 -0.2615 -0.0182
21028SOL    HW174738   9.799   4.371   2.223 -1.1534 -1.2122 -0.2954
21028SOL    HW274739   9.804   4.277   2.090 -0.9286  0.8035 -1.7212
21029SOL     OW74740   2.646   5.328   0.248 -0.0081  0.5822  0.4449
21029SOL    HW174741   2.572   5.387   0.217 -1.1559 -0.8248  0.4895
21029SOL    HW274742   2.611   5.260   0.312  1.0627 -0.9018 -0.5019
21030SOL     OW74743   4.883   5.817   3.796 -0.2388 -0.3619 -0.0086
21030SOL    HW174744   4.811   5.754   3.825 -1.4085  1.1868  0.5149
21030SOL    HW274745   4.945   5.834   3.872 -0.8192  0.3078  0.3279
21031SOL     OW74746   1.375   0.290   0.904 -0.2201  0.1169 -0.6024
21031SOL    HW174747   1.434   0.215   0.876 -0.8725 -0.2358 -1.0658
21031SOL    HW274748   1.407   0.376   0.863 -1.7621 -0.5440 -3.3850
21032SOL     OW74749   6.895   0.417   1.225 -0.0104  0.3250  0.1602
21032SOL    HW174750   6.882   0.391   1.129 -2.0568  2.2369 -0.1046
21032SOL    HW274751   6.851   0.349   1.284 -1.1672  0.6055 -0.3608
21033SOL     OW74752   2.653   6.890   9.872  0.2644  0.5624 -0.1822
21033SOL    HW174753   2.612   6.820   9.930 -0.2896  1.3350  0.3703
21033SOL    HW274754   2.749   6.869   9.858 -0.2233 -1.0977 -1.2273
21034SOL     OW74755   9.745   8.865   2.725 -0.1432  0.1586 -0.1653
21034SOL    HW174756   9.727   8.777   2.768 -1.1734  0.3063 -0.2794
21034SOL    HW274757   9.803   8.852   2.645  0.5992 -0.2832  0.4468
21035SOL     OW74758   0.290   3.125   5.813  0.1453  0.1472 -0.1454
21035SOL    HW174759   0.321   3.190   5.883 -1.9101  1.5882 -0.5369
21035SOL    HW274760   0.190   3.125   5.809  0.2057 -0.8810 -2.2058
21036SOL     OW74761   8.957   5.755   5.635 -0.2806 -0.3320 -0.7945
21036SOL    HW174762   8.872   5.704   5.625 -0.5068  0.0154 -0.6485
21036SOL    HW274763   8.936   5.851   5.651  0.1211 -0.3797  0.0690
21037SOL     OW74764   5.990   9.200   3.469 -0.3281 -0.1823  0.4920
21037SOL    HW174765   6.085   9.232   3.477  0.1499 -1.5599  0.4566
21037SOL    HW274766   5.954   9.225   3.379  0.1570 -0.0398  0.3352
21038SOL     OW74767   2.067   0.684   3.024  0.2364 -0.5162 -0.2176
21038SOL    HW174768   2.017   0.752   3.077  0.1706 -1.6198  1.1633
21038SOL    HW274769   2.122   0.730   2.953 -0.8137  0.8565 -0.1493
21039SOL     OW74770   8.638   9.524   1.438 -0.1397  0.2598  0.0752
21039SOL    HW174771   8.588   9.582   1.374  1.7291  0.0839 -1.5616
21039SOL    HW274772   8.613   9.429   1.423 -2.6675  0.4953  2.2905
21040SOL     OW74773   5.047   5.157   1.530  0.1054 -0.1932 -0.1682
21040SOL    HW174774   5.047   5.142   1.431 -0.3721 -2.0188  0.0899
21040SOL    HW274775   5.066   5.253   1.549  1.7356 -0.1202 -1.9791
21041SOL     OW74776   1.165   2.540   4.733  0.3253  0.5232  0.3007
21041SOL    HW174777   1.130   2.549   4.640 -1.1613 -2.6849  0.4561
21041SOL    HW274778   1.264   2.527   4.730  0.3322  0.7949 -0.8218
21042SOL     OW74779   0.549   8.405   1.897 -0.0247 -0.1144  0.0116
21042SOL    HW174780   0.514   8.489   1.857  1.0677  1.1400  1.6522
21042SOL    HW274781   0.613   8.362   1.833  0.1422  0.7942 -0.4335
21043SOL     OW74782   9.554   5.224   6.806  0.3219  0.1128  0.2668
21043SOL    HW174783   9.603   5.236   6.720 -1.7220  1.8882 -0.7006
21043SOL    HW274784   9.614   5.250   6.882  1.7757 -0.4225 -0.6632
21044SOL     OW74785   3.349   0.147   2.671  0.3902  0.2644  0.7353
21044SOL    HW174786   3.408   0.224   2.695  1.0750 -0.7152  2.3058
21044SOL    HW274787   3.328   0.094   2.753  0.6787 -1.7349 -0.4483
21045SOL     OW74788   7.731   0.976   4.991  0.2763 -0.2285  0.3846
21045SOL    HW174789   7.744   1.054   5.053  1.6159  0.3754 -0.6150
21045SOL    HW274790   7.634   0.967   4.968 -0.1095  0.0917  1.8593
21046SOL     OW74791   4.118   8.289   3.109  0.3801 -0.1429 -0.2396
21046SOL    HW174792   4.111   8.388   3.096 -1.3197 -0.2075  0.1401
21046SOL    HW274793   4.126   8.269   3.206 -0.5108 -0.4371 -0.2215
21047SOL     OW74794   7.859   4.079   2.824  0.4941 -0.3206 -0.4900
21047SOL    HW174795   7.798   4.130   2.764 -1.4044 -1.8807  0.0582
21047SOL    HW274796   7.952   4.078   2.785 -0.1680  0.7239 -2.1447
21048SOL     OW74797   5.296   9.533   7.869 -0.7059  0.0495 -0.7871
21048SOL    HW174798   5.246   9.620   7.864 -1.0050  0.0019  1.0589
21048SOL    HW274799   5.247   9.470   7.928  0.2834 -0.8593 -0.9223
21049SOL     OW74800   7.848   9.092   4.246  0.6186  0.2119  0.2240
21049SOL    HW174801   7.807   9.063   4.332  2.1403 -0.6038  0.6919
21049SOL    HW274802   7.793   9.165   4.206 -1.2479 -0.8366  0.8356
21050SOL     OW74803   9.567   3.268   2.479  0.4069 -0.1702  0.1544
21050SOL    HW174804   9.490   3.237   2.422  1.6540 -1.1799 -1.0145
21050SOL    HW274805   9.565   3.368   2.485 -0.6851 -0.1484 -0.3234
21051SOL     OW74806   5.756   1.905   6.898  0.0579 -0.0936 -0.0679
21051SOL    HW174807   5.799   1.852   6.826 -2.6569 -0.6707 -1.3504
21051SOL    HW274808   5.743   2.000   6.867  0.0596 -0.0159  0.1673
21052SOL     OW74809   7.375   9.519   2.012 -0.0548 -0.1487  0.0643
21052SOL    HW174810   7.343   9.500   2.105  0.4812 -0.6855  0.1408
21052SOL    HW274811   7.378   9.434   1.959 -1.6872  0.3537 -0.8788
21053SOL     OW74812   5.106   9.085   1.506 -0.5269 -0.0584  0.3688
21053SOL    HW174813   5.161   9.100   1.588  1.5798 -0.4440 -0.9346
21053SOL    HW274814   5.030   9.023   1.527  1.3040 -1.9783  1.5231
21054SOL     OW74815   3.257   3.416   7.297  0.0442  0.0775 -0.1218
21054SOL    HW174816   3.331   3.381   7.239  0.2513 -0.5280  0.5135
21054SOL    HW274817   3.171   3.372   7.271  0.4561 -1.5813  1.2777
21055SOL     OW74818   1.437   9.430   3.944  0.2570  0.2351  0.0254
21055SOL    HW174819   1.372   9.490   3.990  0.0251 -0.6371  0.8384
21055SOL    HW274820   1.388   9.365   3.886  0.5313  1.1080 -1.2299
21056SOL     OW74821   9.040   6.277   2.275  0.2037  0.4891  0.0130
21056SOL    HW174822   9.042   6.338   2.195  0.0294  0.0571 -0.3207
21056SOL    HW274823   8.965   6.305   2.335 -0.8071 -0.2939 -0.8578
21057SOL     OW74824   6.197   1.907   6.315  0.5420 -0.5169  0.3057
21057SOL    HW174825   6.102   1.891   6.292  0.8155  0.0646 -1.2461
21057SOL    HW274826   6.254   1.837   6.273  1.0908  0.8288 -1.2427
21058SOL     OW74827   4.663   9.248   2.701 -0.0786 -0.0949 -0.0227
21058SOL    HW174828   4.605   9.273   2.779  0.3361  0.5224  0.0951
21058SOL    HW274829   4.745   9.306   2.700  0.3258 -0.6630 -0.4387
21059SOL     OW74830   9.402   8.962   4.574 -0.6223 -0.1373 -0.3652
21059SOL    HW174831   9.385   9.041   4.515 -2.5767  0.0366  0.3862
21059SOL    HW274832   9.371   8.879   4.528 -2.4779  0.0381  0.5045
21060SOL     OW74833   5.820   0.942   2.471  0.1065  0.2121  0.4172
21060SOL    HW174834   5.864   0.947   2.560  0.0836  0.0379  0.4391
21060SOL    HW274835   5.870   0.878   2.413 -1.6783 -2.1060  1.3444
21061SOL     OW74836   0.178   0.875   2.189 -0.8185 -0.0633 -0.1677
21061SOL    HW174837   0.231   0.799   2.152 -0.4300 -0.2367  0.7199
21061SOL    HW274838   0.081   0.850   2.192 -0.8123 -0.1675 -0.7485
21062SOL     OW74839   1.698   9.170   3.639  0.1327  0.0384 -0.2261
21062SOL    HW174840   1.745   9.236   3.697 -0.8469 -0.3795  1.0669
21062SOL    HW274841   1.716   9.078   3.672  0.5792 -0.2937 -1.3536
21063SOL     OW74842   7.584   9.010   6.067  0.6523 -0.0478  0.1783
21063SOL    HW174843   7.565   8.964   6.153  0.9577  2.2123  1.5088
21063SOL    HW274844   7.631   8.948   6.005 -0.6316 -2.0747  1.1846
21064SOL     OW74845   3.340   4.068   4.770 -0.5120 -0.5359 -0.5651
21064SOL    HW174846   3.341   4.115   4.858 -0.0116  0.4093 -1.0734
21064SOL    HW274847   3.433   4.046   4.742 -0.5109  0.9686 -1.8073
21065SOL     OW74848   7.657   3.258   2.677  0.2413 -0.1143  0.4308
21065SOL    HW174849   7.673   3.160   2.662 -0.5129 -0.2677  0.6256
21065SOL    HW274850   7.566   3.282   2.645  0.1691  0.3884  1.0160
21066SOL     OW74851   0.700   3.981   4.258 -0.0187 -0.2473  0.3431
21066SOL    HW174852   0.774   3.932   4.213  0.1252  1.7096 -1.6581
21066SOL    HW274853   0.630   3.916   4.287  0.3813 -1.6769 -1.7945
21067SOL     OW74854   8.625   7.635   7.469  0.0099 -0.0742  0.5039
21067SOL    HW174855   8.709   7.616   7.520 -0.3861 -0.7529  0.9033
21067SOL    HW274856   8.636   7.604   7.375  0.6832  1.0340  0.2042
21068SOL     OW74857   0.744   4.525   2.273 -0.5586  0.2081 -0.5264
21068SOL    HW174858   0.801   4.443   2.286  0.0158  0.6888  0.0132
21068SOL    HW274859   0.770   4.569   2.188  0.3720  0.8092  0.0537
21069SOL     OW74860   2.985   3.819   3.373  0.3014  0.5309 -0.3345
21069SOL    HW174861   3.039   3.738   3.395  0.3326  0.4831 -0.5841
21069SOL    HW274862   3.015   3.857   3.285 -0.3045  0.3050 -0.6402
21070SOL     OW74863   6.246   9.449   2.651  0.3782  0.5032  0.0300
21070SOL    HW174864   6.198   9.537   2.654 -0.3627  0.0654  1.2560
21070SOL    HW274865   6.254   9.413   2.744  0.1619 -1.0138 -0.5367
21071SOL     OW74866   4.334   3.782   3.478 -0.8007 -0.3540 -0.5800
21071SOL    HW174867   4.417   3.749   3.433 -0.1140  0.7606 -0.1485
21071SOL    HW274868   4.254   3.737   3.437 -0.1182 -0.1683 -2.1771
21072SOL     OW74869   6.271   5.581   0.781 -0.5076 -0.3252 -0.0374
21072SOL    HW174870   6.218   5.520   0.840  0.7029 -1.1770  0.1853
21072SOL    HW274871   6.311   5.654   0.836 -0.6164 -0.2576 -0.0472
21073SOL     OW74872   8.794   1.429   1.760  0.0608 -0.0280  0.0331
21073SOL    HW174873   8.871   1.376   1.726 -0.1597 -1.2157  1.3327
21073SOL    HW274874   8.767   1.497   1.692  0.2487 -1.6780 -1.7189
21074SOL     OW74875   6.891   0.471   6.176  0.5045  0.0802  0.1237
21074SOL    HW174876   6.958   0.476   6.102  0.9450  1.4604  0.6010
21074SOL    HW274877   6.833   0.552   6.174 -0.1992 -0.4042  0.6158
21075SOL     OW74878   8.465   0.084   5.046  0.0702 -0.7760 -0.4037
21075SOL    HW174879   8.390   0.021   5.067  0.5773 -1.3237 -0.2133
21075SOL    HW274880   8.526   0.091   5.125  0.1428 -0.2156 -0.5058
21076SOL     OW74881   0.308   7.503   7.138  0.4838 -0.0643 -0.0557
21076SOL    HW174882   0.337   7.407   7.145 -0.6711 -0.4254 -0.1735
21076SOL    HW274883   0.208   7.508   7.144  0.4881  1.0571 -0.8993
21077SOL     OW74884   1.071   4.443   1.117 -0.0997  0.1552 -0.0013
21077SOL    HW174885   1.024   4.505   1.054  2.2955  0.1441 -1.8819
21077SOL    HW274886   1.142   4.393   1.068  0.1924 -1.7110  2.2050
21078SOL     OW74887   6.776   9.024   6.750  0.2896 -0.2912  0.5522
21078SOL    HW174888   6.845   8.973   6.699 -1.4006 -2.3409  0.2637
21078SOL    HW274889   6.685   8.995   6.721 -0.7027  1.0016  2.2819
21079SOL     OW74890   7.001   9.654   3.683  0.0868 -0.2279 -0.0019
21079SOL    HW174891   7.097   9.680   3.669  0.7142 -1.8865  1.0564
21079SOL    HW274892   6.965   9.701   3.763  0.6771 -1.1802  0.8442
21080SOL     OW74893   2.240   3.354   7.365 -0.1490  0.2962 -0.0262
21080SOL    HW174894   2.235   3.260   7.399 -0.1933  0.3873  0.2206
21080SOL    HW274895   2.276   3.354   7.272 -0.5129  0.0035 -0.1673
21081SOL     OW74896   6.812   0.864   3.873  0.0359 -0.3837 -0.1003
21081SOL    HW174897   6.745   0.897   3.806 -1.3746 -0.8538  1.0554
21081SOL    HW274898   6.780   0.886   3.965  1.8759  0.1073  0.4433
21082SOL     OW74899   0.093   0.210   7.133 -0.3807 -0.0398  0.1450
21082SOL    HW174900   0.109   0.200   7.035  0.8627  0.4026  0.2903
21082SOL    HW274901   0.066   0.305   7.153 -0.8612 -0.1859  0.2094
21083SOL     OW74902   8.836   8.205   6.796  0.0648  0.5928  0.3293
21083SOL    HW174903   8.859   8.291   6.749 -1.0057  0.7588  0.1088
21083SOL    HW274904   8.741   8.182   6.778  0.6762 -1.3006 -0.6583
21084SOL     OW74905   2.434   2.367   6.060 -0.5450  0.1081 -0.1200
21084SOL    HW174906   2.363   2.347   5.992  0.1584  2.2231 -1.5147
21084SOL    HW274907   2.404   2.443   6.118 -0.3937 -0.5430  0.8242
21085SOL     OW74908   8.717   5.153   6.334 -0.0118  0.2611 -0.0898
21085SOL    HW174909   8.706   5.182   6.429 -2.3822  1.2839 -0.6503
21085SOL    HW274910   8.633   5.172   6.283  0.2820 -2.6703 -1.7774
21086SOL     OW74911   3.540   1.314   2.585 -0.3935 -0.0032  0.5713
21086SOL    HW174912   3.535   1.405   2.544 -1.3272 -0.6288 -0.7203
21086SOL    HW274913   3.458   1.297   2.639 -0.7770 -0.5380 -0.1704
21087SOL     OW74914   9.722   8.335   3.864 -0.6191  0.2550  0.1485
21087SOL    HW174915   9.635   8.385   3.864  0.3091  1.8948 -0.8923
21087SOL    HW274916   9.779   8.367   3.940 -0.7949 -0.6458  0.6788
21088SOL     OW74917   0.488   5.497   2.362 -0.4979 -0.7381 -0.3877
21088SOL    HW174918   0.389   5.506   2.357 -0.3827  1.5534  0.9149
21088SOL    HW274919   0.526   5.572   2.417  2.0417 -0.9730 -1.7426
21089SOL     OW74920   0.119   2.999   2.874 -0.3309  0.2918 -0.2317
21089SOL    HW174921   0.204   3.029   2.829 -0.0678  0.4629  0.3784
21089SOL    HW274922   0.042   3.017   2.814 -0.1777  2.1646  0.1035
21090SOL     OW74923   9.874   4.027   6.803  0.1645  0.4972 -0.0411
21090SOL    HW174924   9.917   3.981   6.725 -1.0180 -3.1078  1.3315
21090SOL    HW274925   9.931   4.014   6.885 -0.2035  1.4973  0.3809
21091SOL     OW74926   2.210   7.044   4.820  0.4839 -0.0704  0.4172
21091SOL    HW174927   2.198   7.105   4.741 -2.3462 -0.7535  0.2504
21091SOL    HW274928   2.120   7.022   4.858  1.6456 -2.0891  2.0645
21092SOL     OW74929   8.344   1.047   4.306 -0.5795  0.0429  0.0330
21092SOL    HW174930   8.310   0.968   4.357 -0.7368 -0.2066 -0.4560
21092SOL    HW274931   8.400   1.104   4.366 -1.3000  0.0957  0.6529
21093SOL     OW74932   4.167   7.129   5.315  0.0685  0.0279  0.0275
21093SOL    HW174933   4.183   7.070   5.236  0.7661 -0.2828  0.3938
21093SOL    HW274934   4.134   7.074   5.392  2.0154 -0.1271  0.7890
21094SOL     OW74935   4.811   3.687   6.095  0.2492  0.2915 -0.4743
21094SOL    HW174936   4.866   3.745   6.035  1.5923 -0.0941  0.3403
21094SOL    HW274937   4.849   3.691   6.188 -0.2821 -1.0404 -0.1858
21095SOL     OW74938   9.477   4.067   1.696  0.0448 -0.2032 -0.2162
21095SOL    HW174939   9.447   4.162   1.691 -0.8032 -0.5437 -1.9477
21095SOL    HW274940   9.474   4.036   1.792 -0.8199  1.1408  0.2082
21096SOL     OW74941   1.420   6.929   2.225  0.0374 -0.1435  0.2330
21096SOL    HW174942   1.366   6.981   2.160 -0.8370 -0.3663  0.7684
21096SOL    HW274943   1.472   6.992   2.283  2.1663  0.0230 -1.7743
21097SOL     OW74944   3.682   1.877   1.885 -0.3704 -0.0731  0.4780
21097SOL    HW174945   3.625   1.830   1.953 -0.6725  0.1076  0.3499
21097SOL    HW274946   3.767   1.906   1.927  0.3307 -1.7600  0.2847
21098SOL     OW74947   2.511   5.938   4.657 -0.3624  0.0995 -0.2231
21098SOL    HW174948   2.524   5.902   4.564 -0.8344 -0.2395 -0.1626
21098SOL    HW274949   2.417   5.920   4.686 -0.2263  0.2445  0.3064
21099SOL     OW74950   7.972   4.177   6.549 -0.4953 -0.5029  0.3172
21099SOL    HW174951   7.988   4.231   6.631  1.7016  0.1146 -0.4907
21099SOL    HW274952   7.972   4.080   6.571  0.3175 -0.3458  0.9986
21100SOL     OW74953   3.777   2.353   4.905  0.2016 -0.1562  0.5329
21100SOL    HW174954   3.868   2.376   4.940  1.3310  0.2943 -2.5428
21100SOL    HW274955   3.740   2.431   4.855 -0.1572 -1.6672 -1.6202
21101SOL     OW74956   0.308   8.744   3.718 -0.2941 -0.8902 -0.5512
21101SOL    HW174957   0.237   8.700   3.773 -0.9882  0.9347  0.0229
21101SOL    HW274958   0.270   8.774   3.631  0.4352 -2.3398 -1.3944
21102SOL     OW74959   9.620   7.770   0.896  0.2047 -0.2234  0.2855
21102SOL    HW174960   9.666   7.774   0.807  1.8240 -0.9099  1.0852
21102SOL    HW274961   9.607   7.674   0.922 -2.1719 -0.0727 -0.1512
21103SOL     OW74962   1.992   4.556   9.649 -0.4050  0.1032  0.0560
21103SOL    HW174963   2.039   4.470   9.632  0.7443  0.3147  1.9413
21103SOL    HW274964   1.951   4.590   9.565 -1.3878 -2.5858 -0.5679
21104SOL     OW74965   6.546   2.368   4.712 -1.2281 -0.0615 -0.2192
21104SOL    HW174966   6.615   2.441   4.712 -1.1242 -0.1507  0.4511
21104SOL    HW274967   6.490   2.374   4.630  0.1324 -0.5049 -1.2180
21105SOL     OW74968   7.976   8.177   1.419  0.2058 -0.5331  0.3306
21105SOL    HW174969   8.008   8.115   1.490 -0.9462 -1.1563  0.3266
21105SOL    HW274970   8.004   8.142   1.329  0.4621 -0.4916  0.3951
21106SOL     OW74971   6.358   9.645   7.735 -0.2053  0.4716 -0.1069
21106SOL    HW174972   6.453   9.612   7.742 -0.5069 -0.5029 -0.5042
21106SOL    HW274973   6.300   9.595   7.799 -0.1644  2.2216  1.3225
21107SOL     OW74974   3.449   5.137   4.959  0.3972 -0.2172 -0.4412
21107SOL    HW174975   3.410   5.068   4.898 -3.2371  1.3859 -0.0495
21107SOL    HW274976   3.493   5.209   4.905 -0.9956  0.1427 -1.1148
21108SOL     OW74977   0.889   0.384   1.892 -0.4775  0.1281 -0.0846
21108SOL    HW174978   0.883   0.427   1.802 -1.3938 -0.5417 -0.3555
21108SOL    HW274979   0.915   0.288   1.880 -0.3929  0.0943  0.3826
21109SOL     OW74980   2.908   3.396   6.269 -0.8497  0.7159 -0.0429
21109SOL    HW174981   2.989   3.426   6.218  1.1434  0.2437  2.7298
21109SOL    HW274982   2.828   3.398   6.209  1.6719 -1.4478 -3.6510
21110SOL     OW74983   7.896   0.903   2.773  0.3242  0.0880 -0.5888
21110SOL    HW174984   7.981   0.941   2.734  1.1230 -0.5643  0.4869
21110SOL    HW274985   7.872   0.819   2.724  2.1671 -1.5738  1.2488
21111SOL     OW74986   9.814   3.082   7.250 -1.1207  0.3125 -0.3401
21111SOL    HW174987   9.743   3.012   7.241 -1.4982  0.7810 -1.0654
21111SOL    HW274988   9.903   3.038   7.263 -1.1900 -0.3253 -1.9575
21112SOL     OW74989   4.888   9.803   7.805 -0.2969 -0.1918 -0.0280
21112SOL    HW174990   4.883   9.722   7.863 -1.5383  0.6817  1.1298
21112SOL    HW274991   4.890   9.776   7.709 -1.2103 -1.5783  0.3342
21113SOL     OW74992   9.850   7.910   6.898 -0.4977 -0.1201  0.3749
21113SOL    HW174993   9.782   7.963   6.950  0.1696  2.0136 -0.8982
21113SOL    HW274994   9.934   7.962   6.891  0.0580 -1.2246 -1.2177
21114SOL     OW74995   9.553   0.783   4.060  0.0413 -0.4954 -0.6542
21114SOL    HW174996   9.595   0.874   4.055  1.9693 -1.4890 -3.4026
21114SOL    HW274997   9.455   0.791   4.039 -0.3554  1.2320  1.5693
21115SOL     OW74998   0.135   8.244   0.089  0.3623 -0.0125 -0.1970
21115SOL    HW174999   0.084   8.288   0.163 -0.1152 -1.0037  0.0766
21115SOL    HW275000   0.084   8.251   0.004 -0.2331 -1.0126  0.0790
21116SOL     OW75001   0.457   3.277   6.668  0.2614  0.5571  0.1943
21116SOL    HW175002   0.440   3.315   6.759 -0.0159  0.1761  0.3005
21116SOL    HW275003   0.448   3.349   6.600  0.9176  0.9475  0.5074
21117SOL     OW75004   7.403   9.740   8.320  0.1638 -0.4567 -0.1678
21117SOL    HW175005   7.323   9.696   8.278  0.4135  0.9040 -2.1522
21117SOL    HW275006   7.393   9.739   8.419 -0.5442 -3.6203 -0.1978
21118SOL     OW75007   4.077   4.971   0.820  0.0039 -0.3181 -0.6644
21118SOL    HW175008   4.165   4.925   0.807  1.1072  1.1193  1.4856
21118SOL    HW275009   4.012   4.907   0.860  1.3704 -0.2542  1.7887
21119SOL     OW75010   8.585   6.599   6.014  0.2365 -0.3256  0.1946
21119SOL    HW175011   8.645   6.583   6.092  1.8106 -0.7012 -1.0622
21119SOL    HW275012   8.639   6.637   5.939 -1.4288  0.8714 -0.4072
21120SOL     OW75013   4.235   8.474   6.812  0.5876 -0.6242  0.3245
21120SOL    HW175014   4.330   8.503   6.803  0.2977  1.0778  2.2362
21120SOL    HW275015   4.231   8.382   6.850  1.4805 -0.3445  1.1315
21121SOL     OW75016   4.872   6.659  10.033  0.8543  0.5191  0.0497
21121SOL    HW175017   4.957   6.632   9.987  1.3913  3.1783 -0.5894
21121SOL    HW275018   4.812   6.705   9.967 -0.0207  0.8901  1.0983
21122SOL     OW75019   7.006   7.253   6.506 -0.0517  0.0701 -0.1823
21122SOL    HW175020   6.984   7.343   6.470 -1.6740  0.1887  1.0476
21122SOL    HW275021   6.925   7.212   6.547  0.8283 -1.6626 -0.1064
21123SOL     OW75022   6.864   7.841   5.373  0.1176  0.6765  0.0505
21123SOL    HW175023   6.793   7.820   5.439 -0.2540 -1.0419 -0.8689
21123SOL    HW275024   6.836   7.810   5.282  0.9750  2.2349 -0.7817
21124SOL     OW75025   3.884   6.767   5.377  0.4806 -0.3393 -0.2807
21124SOL    HW175026   3.848   6.845   5.326  2.4485  0.1292 -0.9986
21124SOL    HW275027   3.919   6.699   5.313 -0.4895 -1.4812  0.3693
21125SOL     OW75028   8.025   5.438   4.604 -0.2917  0.4188  0.1160
21125SOL    HW175029   7.930   5.448   4.574 -0.0141  1.4895 -0.3990
21125SOL    HW275030   8.036   5.480   4.694 -0.2014  0.6780 -0.0167
21126SOL     OW75031   4.853   5.028   2.243  0.3541  0.8166 -0.0622
21126SOL    HW175032   4.783   5.060   2.180  0.0508 -3.2242 -1.9829
21126SOL    HW275033   4.913   4.964   2.195  1.6403 -0.4480  3.1270
21127SOL     OW75034   4.228   8.698   5.662 -0.4736 -0.2734 -0.1376
21127SOL    HW175035   4.171   8.682   5.742 -0.9911  0.0578 -0.4371
21127SOL    HW275036   4.233   8.796   5.643  0.1251 -0.3063 -0.1644
21128SOL     OW75037   8.288   2.426   3.217 -0.2703 -0.0623 -0.2619
21128SOL    HW175038   8.267   2.328   3.211 -0.6685  0.0757 -1.1082
21128SOL    HW275039   8.231   2.468   3.288  1.0960 -0.7648  1.2816
21129SOL     OW75040   7.854   1.590   3.285 -0.0644  0.2363 -0.3862
21129SOL    HW175041   7.916   1.632   3.351  0.0441 -1.7872  0.8251
21129SOL    HW275042   7.903   1.574   3.199  0.1503  1.6697 -0.5510
21130SOL     OW75043   2.880   4.096   1.473 -0.3696  0.5600  0.3124
21130SOL    HW175044   2.955   4.071   1.534 -1.2527 -0.9736  0.7770
21130SOL    HW275045   2.827   4.171   1.514 -1.1027 -0.6190  1.5561
21131SOL     OW75046   3.471   4.182   5.207 -0.3388  0.2675  0.2607
21131SOL    HW175047   3.495   4.230   5.290 -1.2928  2.5338 -0.7305
21131SOL    HW275048   3.553   4.165   5.152  0.0916  0.0575  0.9676
21132SOL     OW75049   7.551   9.256   3.868  0.3771 -0.4694 -0.0110
21132SOL    HW175050   7.620   9.302   3.812  1.2051 -1.4036  0.2319
21132SOL    HW275051   7.569   9.274   3.964  0.8038 -1.4201  0.0951
21133SOL     OW75052   3.750   6.889   1.663 -0.4249 -0.4057  0.0674
21133SOL    HW175053   3.839   6.856   1.632 -0.2387  1.3346 -1.3009
21133SOL    HW275054   3.733   6.855   1.756  1.2805 -1.4525  0.0193
21134SOL     OW75055   4.177   9.890   1.417  0.5268 -0.0452 -0.0179
21134SOL    HW175056   4.170   9.812   1.479 -1.6709 -0.2044 -0.4478
21134SOL    HW275057   4.205   9.858   1.327  1.0393 -0.1517  0.1767
21135SOL     OW75058   0.693   3.174   2.861 -0.0763 -0.2496 -0.5495
21135SOL    HW175059   0.666   3.205   2.770 -0.1877 -0.0943 -0.4633
21135SOL    HW275060   0.791   3.191   2.874 -0.2300  0.5142 -0.3244
21136SOL     OW75061   4.214   8.698   7.591  0.1884 -0.6589 -0.2994
21136SOL    HW175062   4.172   8.611   7.566 -0.4290 -0.4292 -0.0781
21136SOL    HW275063   4.179   8.728   7.680  0.8866 -0.5079 -0.0745
21137SOL     OW75064   9.674   5.832   7.863  0.1992 -0.0185 -0.1864
21137SOL    HW175065   9.587   5.876   7.885 -0.5559 -1.4706 -0.1962
21137SOL    HW275066   9.742   5.902   7.838 -0.9029  1.1340 -0.0030
21138SOL     OW75067   7.505   7.638   6.384  0.2871 -0.1980 -0.1054
21138SOL    HW175068   7.510   7.725   6.433 -3.8101  1.4447 -2.2702
21138SOL    HW275069   7.468   7.568   6.444  0.0672  0.5423  0.6383
21139SOL     OW75070   0.125   1.412   5.596 -0.4815  0.0562  0.0701
21139SOL    HW175071   0.197   1.443   5.533 -0.8290 -0.9223 -0.8193
21139SOL    HW275072   0.037   1.412   5.548 -0.9068  0.2393  0.8480
21140SOL     OW75073   8.807   0.777   6.635  0.0009  0.0517  0.1947
21140SOL    HW175074   8.754   0.713   6.580 -0.2198  0.7373 -0.3910
21140SOL    HW275075   8.780   0.871   6.613  0.1843  0.3498  1.1833
21141SOL     OW75076   8.546   1.322   1.755  0.1991  0.2441  0.2768
21141SOL    HW175077   8.484   1.387   1.801 -0.5403 -0.3562  0.1405
21141SOL    HW275078   8.640   1.346   1.776  0.0081  2.5481 -1.3666
21142SOL     OW75079   9.739   4.369   7.711 -0.6381  0.3530  0.0772
21142SOL    HW175080   9.765   4.281   7.752 -1.0783  0.6100  0.9040
21142SOL    HW275081   9.821   4.424   7.697 -0.3442 -0.2202 -0.5350
21143SOL     OW75082   1.150   1.617   4.521  0.5467 -0.2420  0.6910
21143SOL    HW175083   1.201   1.615   4.435  0.8666  3.0453  0.7212
21143SOL    HW275084   1.061   1.573   4.509 -0.5349  2.5587 -2.1260
21144SOL     OW75085   5.614   3.200   1.701  0.4286 -0.1594  0.4209
21144SOL    HW175086   5.636   3.218   1.605 -0.1635 -3.4395 -0.3738
21144SOL    HW275087   5.688   3.234   1.759  2.2304 -0.8704 -1.4140
21145SOL     OW75088   4.404   8.928   2.949  0.3902 -0.2443 -0.1211
21145SOL    HW175089   4.333   8.863   2.924  0.6972 -0.6875  0.1488
21145SOL    HW275090   4.448   8.963   2.866  0.4556 -0.6459 -0.2585
21146SOL     OW75091   7.900   9.303   6.819  0.3729 -0.2830  0.0852
21146SOL    HW175092   7.918   9.326   6.914  1.4814  2.4033 -0.7237
21146SOL    HW275093   7.937   9.212   6.799  2.7068  0.3081  1.4960
21147SOL     OW75094   3.655   1.993   2.870  0.2892  0.5246 -0.1469
21147SOL    HW175095   3.672   1.908   2.820 -0.0134  0.6461 -0.4590
21147SOL    HW275096   3.742   2.037   2.892  0.3902  1.0432 -1.5587
21148SOL     OW75097   2.611   8.084   1.885 -0.7911 -0.0789  0.2633
21148SOL    HW175098   2.648   8.174   1.907 -0.1547 -0.3359  0.2637
21148SOL    HW275099   2.515   8.092   1.857 -0.6471  0.6226 -0.0122
21149SOL     OW75100   5.713   1.210   7.382 -0.1913 -0.5642 -0.0305
21149SOL    HW175101   5.642   1.275   7.407  0.2339  1.2647 -3.2952
21149SOL    HW275102   5.697   1.124   7.430 -2.3676  1.0116  2.2324
21150SOL     OW75103   2.967   0.434   4.629 -0.0714  0.1303  0.1076
21150SOL    HW175104   2.874   0.451   4.597  0.2707 -1.0806 -1.5984
21150SOL    HW275105   2.980   0.479   4.717 -1.8231  1.4738 -0.2850
21151SOL     OW75106   9.883   7.887   1.012  0.3057 -0.6497 -0.4983
21151SOL    HW175107   9.803   7.831   0.991 -1.0704  0.7799  0.7855
21151SOL    HW275108   9.896   7.891   1.111  1.2041  0.1780 -0.6398
21152SOL     OW75109   1.549   0.342   3.302  0.2885  0.0376  0.5021
21152SOL    HW175110   1.640   0.376   3.325 -0.1701  1.3059  0.4847
21152SOL    HW275111   1.549   0.304   3.210  1.1724 -1.4067  1.0805
21153SOL     OW75112   0.519   2.102   2.950 -0.7955  0.0526 -0.0694
21153SOL    HW175113   0.603   2.144   2.984 -1.4642  1.3347  0.0548
21153SOL    HW275114   0.499   2.019   3.001 -0.3650  0.5254  0.8728
21154SOL     OW75115   7.654   9.124   5.542  0.0824  0.1733 -1.1178
21154SOL    HW175116   7.631   9.174   5.625  2.5946 -1.1526  0.4405
21154SOL    HW275117   7.579   9.133   5.476 -2.6671  0.0414  1.8313
21155SOL     OW75118   6.236   1.361   6.258  0.2841 -0.3307 -0.4913
21155SOL    HW175119   6.169   1.360   6.332  0.7434  0.2232 -0.0596
21155SOL    HW275120   6.325   1.392   6.294  0.4688  0.0920 -1.3052
21156SOL     OW75121   2.750   1.718   4.492 -0.2784  0.0809 -0.0412
21156SOL    HW175122   2.738   1.620   4.508 -0.1137  0.1955  0.8286
21156SOL    HW275123   2.665   1.756   4.456  0.1953 -0.6930 -2.0590
21157SOL     OW75124   6.813   0.880   7.854  0.3151  0.3105 -0.1103
21157SOL    HW175125   6.838   0.860   7.759  0.5922  0.7051 -0.1188
21157SOL    HW275126   6.746   0.954   7.856  0.6926  0.6446  0.0345
21158SOL     OW75127   0.065   6.342   2.867 -0.4745 -0.8798  0.1546
21158SOL    HW175128   0.158   6.371   2.848 -1.0348  0.4827 -0.6329
21158SOL    HW275129   0.064   6.275   2.942  1.0748 -0.5936  0.4283
21159SOL     OW75130   1.289   9.180   1.425  0.3827 -0.8832  0.2171
21159SOL    HW175131   1.217   9.112   1.437 -0.8607  0.3193 -0.3038
21159SOL    HW275132   1.260   9.248   1.358  1.7862 -0.0642  0.4125
21160SOL     OW75133   1.101   1.527   3.121 -0.2520 -0.9038  0.5212
21160SOL    HW175134   1.199   1.506   3.122 -0.0809 -0.1598 -0.0172
21160SOL    HW275135   1.049   1.444   3.097  0.1884 -1.4818  1.5499
21161SOL     OW75136   8.255   1.082   4.699  0.2625 -0.2605 -0.9353
21161SOL    HW175137   8.336   1.140   4.710  0.3709 -0.7897  1.2764
21161SOL    HW275138   8.279   0.988   4.723 -0.8963 -0.4955 -0.6976
21162SOL     OW75139   0.893   9.608   5.693 -0.1784  0.3315 -0.4162
21162SOL    HW175140   0.930   9.661   5.617 -0.5158 -1.2158 -1.6854
21162SOL    HW275141   0.794   9.623   5.699 -0.1039  0.6993 -0.0733
21163SOL     OW75142   6.544   3.528   3.218 -0.2075 -0.1260 -0.1396
21163SOL    HW175143   6.476   3.571   3.159 -1.9640  0.3543  2.1681
21163SOL    HW275144   6.506   3.443   3.256  1.8869 -1.8516 -1.7671
21164SOL     OW75145   4.210   2.958   5.398  0.2309  0.3738  0.7179
21164SOL    HW175146   4.160   3.044   5.392  0.5779  0.6134  1.1693
21164SOL    HW275147   4.299   2.974   5.440  0.5539 -0.1021  0.2317
21165SOL     OW75148   6.236   8.647   7.414  0.0982 -0.1193  0.4804
21165SOL    HW175149   6.334   8.670   7.421 -0.1771  0.8857  1.1587
21165SOL    HW275150   6.183   8.711   7.470 -1.0137 -0.1781 -0.4833
21166SOL     OW75151   2.197   0.846   7.080 -0.1230 -0.4821  0.1499
21166SOL    HW175152   2.147   0.803   7.005  0.5789 -1.2129  0.0938
21166SOL    HW275153   2.207   0.944   7.062  1.5721 -0.9367 -1.5907
21167SOL     OW75154   0.980   6.808   2.560 -0.4386  0.2089  0.1768
21167SOL    HW175155   0.936   6.757   2.633  1.0437  0.1890  1.0825
21167SOL    HW275156   1.075   6.777   2.549 -0.5549  0.4022 -1.5655
21168SOL     OW75157   0.575   1.594   4.475 -0.1752  0.0722 -0.3251
21168SOL    HW175158   0.515   1.556   4.405 -0.3513  1.1282 -0.7588
21168SOL    HW275159   0.656   1.634   4.431  0.4450 -0.6086  0.1927
21169SOL     OW75160   8.073   1.648   1.162 -0.3128  0.7753  0.5882
21169SOL    HW175161   8.023   1.731   1.137 -0.7617  0.2897 -0.1574
21169SOL    HW275162   8.104   1.603   1.079 -0.7608 -0.2226  0.9574
21170SOL     OW75163   7.231   3.915   1.753 -0.0454  0.2432 -0.5324
21170SOL    HW175164   7.228   3.919   1.853 -1.3592 -0.1679 -0.5425
21170SOL    HW275165   7.325   3.902   1.723  0.2757 -0.3594  0.6873
21171SOL     OW75166   9.634   2.126   1.269  0.3047 -0.2354  0.1280
21171SOL    HW175167   9.712   2.175   1.229  0.7145 -0.7490  0.2972
21171SOL    HW275168   9.591   2.183   1.338 -0.4918  0.7217 -1.1259
21172SOL     OW75169   6.482   7.778   5.566 -0.1605  1.0616  0.1725
21172SOL    HW175170   6.404   7.717   5.577  0.2477  0.1569 -1.7939
21172SOL    HW275171   6.565   7.725   5.548  0.4148  2.1393 -0.4355
21173SOL     OW75172   8.221   8.495   7.635 -0.0612  0.1242 -0.2364
21173SOL    HW175173   8.142   8.547   7.601 -0.2436  1.4647  2.1586
21173SOL    HW275174   8.244   8.526   7.727  0.0751 -3.7758  1.1195
21174SOL     OW75175   7.856   5.973   7.331 -0.1055 -0.6187 -0.0390
21174SOL    HW175176   7.762   5.984   7.361  0.1220  0.0880  0.4242
21174SOL    HW275177   7.863   5.995   7.234 -0.0150  1.5360  0.4345
21175SOL     OW75178   4.925   8.540   2.803  0.1903 -0.0689  0.0375
21175SOL    HW175179   4.870   8.468   2.761 -0.8004  0.2447  0.7901
21175SOL    HW275180   4.874   8.583   2.877  1.2611  0.5539  0.4357
21176SOL     OW75181   8.530   1.521   4.664  0.2271 -0.5489  0.0406
21176SOL    HW175182   8.571   1.529   4.755  1.7269 -0.0942 -0.6701
21176SOL    HW275183   8.464   1.595   4.651  0.3343 -0.3535  0.5752
21177SOL     OW75184   7.406   6.376   5.239 -0.4822  0.0217 -0.0576
21177SOL    HW175185   7.437   6.354   5.332  1.0221 -0.8574 -0.7474
21177SOL    HW275186   7.381   6.472   5.234 -0.5485  0.0842  1.2536
21178SOL     OW75187   9.278   1.812   3.489 -0.3374 -0.4327  0.4551
21178SOL    HW175188   9.329   1.727   3.502  0.9408  0.3428  0.4916
21178SOL    HW275189   9.223   1.829   3.571 -2.6775 -2.5872 -0.5731
21179SOL     OW75190   8.643   2.014   1.717 -0.2665 -0.2886 -0.1156
21179SOL    HW175191   8.669   1.968   1.633  0.6583 -1.1891  0.6497
21179SOL    HW275192   8.648   1.950   1.793 -0.3232  0.7161  0.7484
21180SOL     OW75193   0.260   2.038   6.453  0.6802  0.0860 -0.2517
21180SOL    HW175194   0.184   2.048   6.388 -0.1865 -0.0194  0.7361
21180SOL    HW275195   0.313   1.956   6.429  0.7995  0.4527 -1.2601
21181SOL     OW75196   8.569   0.881   6.168 -0.6831 -0.2278  0.0834
21181SOL    HW175197   8.618   0.939   6.102 -2.3564  0.7007 -0.3708
21181SOL    HW275198   8.483   0.926   6.193 -1.3181 -1.8607  0.8374
21182SOL     OW75199   9.226   9.405   3.094 -0.3661  0.5138 -0.0188
21182SOL    HW175200   9.243   9.400   2.996  0.5526 -0.4119  0.1805
21182SOL    HW275201   9.143   9.354   3.116 -0.7109  0.9324 -0.3502
21183SOL     OW75202   9.498   7.087   0.395  0.0655 -0.5366  0.2841
21183SOL    HW175203   9.510   7.012   0.330 -1.9870 -1.2666  0.7034
21183SOL    HW275204   9.550   7.069   0.478  3.0718  0.6161 -1.2840
21184SOL     OW75205   7.451   4.461   1.056  0.0292 -0.1408 -0.3969
21184SOL    HW175206   7.362   4.477   1.098 -0.6733 -2.2841 -0.9914
21184SOL    HW275207   7.455   4.507   0.968  0.8305  2.8408  1.1209
21185SOL     OW75208   1.789   8.830   4.223 -0.2210 -0.4956  0.0146
21185SOL    HW175209   1.869   8.853   4.279 -0.1793  2.3458 -1.1365
21185SOL    HW275210   1.819   8.785   4.139  0.1177  0.0260 -0.1444
21186SOL     OW75211   1.894   0.908   7.324 -0.2521  0.3029  0.5229
21186SOL    HW175212   1.971   0.867   7.374 -1.4754 -0.1440  2.0884
21186SOL    HW275213   1.868   0.994   7.367  0.2190  1.1097 -0.8035
21187SOL     OW75214   6.989   4.556   1.750  0.1245  0.6612  0.0419
21187SOL    HW175215   7.065   4.615   1.779 -0.7537  0.9991  1.7575
21187SOL    HW275216   6.931   4.536   1.829  0.1669 -2.1961 -0.6003
21188SOL     OW75217   4.393   8.872   7.998 -0.0128  0.6053 -0.1201
21188SOL    HW175218   4.350   8.901   8.083  0.4856 -0.6073  0.5534
21188SOL    HW275219   4.492   8.885   8.005 -0.0929  1.8749 -1.0696
21189SOL     OW75220   5.268   1.186   5.392 -0.5085 -0.3112 -0.4198
21189SOL    HW175221   5.366   1.167   5.401 -0.2681  0.8488 -0.4442
21189SOL    HW275222   5.253   1.244   5.312 -1.1263  0.1564  0.0350
21190SOL     OW75223   2.676   1.220   6.785  0.1128 -0.4636  0.4155
21190SOL    HW175224   2.644   1.312   6.806  0.8195 -0.5061  1.7130
21190SOL    HW275225   2.774   1.213   6.805  0.1272 -1.4076  0.0392
21191SOL     OW75226   1.999   6.616   3.869 -0.1698 -0.4263 -0.3609
21191SOL    HW175227   1.908   6.643   3.839 -0.0031  2.0793  1.3006
21191SOL    HW275228   1.993   6.564   3.954  0.0520  1.6515  0.9638
21192SOL     OW75229   7.112   0.843   3.813 -0.2145  0.0875 -0.2238
21192SOL    HW175230   7.110   0.825   3.911  0.4655 -2.9628 -0.7047
21192SOL    HW275231   7.023   0.874   3.782 -0.3403  1.3779  1.4042
21193SOL     OW75232   4.805   7.467   5.109 -0.2862  0.4963 -0.2282
21193SOL    HW175233   4.867   7.405   5.062 -1.9743 -0.2969 -1.4411
21193SOL    HW275234   4.749   7.517   5.043 -1.2312  0.9047  0.8464
21194SOL     OW75235   4.558   7.121   0.426 -0.6393 -0.0693 -0.7165
21194SOL    HW175236   4.642   7.079   0.461 -0.8492 -1.1100 -1.4323
21194SOL    HW275237   4.580   7.182   0.350 -0.0854  2.8332  1.6655
21195SOL     OW75238   4.580   0.430   1.998 -0.1125  0.4406  0.1138
21195SOL    HW175239   4.524   0.507   2.029  0.2335  2.5731 -4.1441
21195SOL    HW275240   4.563   0.414   1.901  2.8155 -2.2843 -0.0140
21196SOL     OW75241   4.090   8.741   8.117 -0.1806 -0.1740  0.4719
21196SOL    HW175242   4.096   8.681   8.038 -1.1544  0.5264 -0.1565
21196SOL    HW275243   4.000   8.785   8.118  0.3362  0.8835  1.1878
21197SOL     OW75244   7.675   0.224   1.784 -0.1078 -0.0781  0.3287
21197SOL    HW175245   7.764   0.267   1.768 -0.0490  0.1339  1.1750
21197SOL    HW275246   7.619   0.285   1.841 -1.4763  0.6021 -1.7069
21198SOL     OW75247   1.824   5.786   6.274  0.3336 -0.4182 -0.4417
21198SOL    HW175248   1.917   5.809   6.301  0.8384 -0.0549 -2.3740
21198SOL    HW275249   1.825   5.703   6.218 -0.1664  0.9487 -2.5386
21199SOL     OW75250   4.179   4.442   3.729  0.1208  0.3850 -0.6531
21199SOL    HW175251   4.095   4.491   3.707 -0.9004 -1.0433 -0.0118
21199SOL    HW275252   4.198   4.452   3.827 -1.0745 -1.9208 -0.1430
21200SOL     OW75253   3.873   3.651   4.672  0.2611 -0.7579  0.0245
21200SOL    HW175254   3.805   3.608   4.731  0.4223  0.1940  0.9132
21200SOL    HW275255   3.881   3.598   4.587 -2.2638 -0.3760 -0.5016
21201SOL     OW75256   3.900   9.671   2.151  0.3829  0.4456  0.1590
21201SOL    HW175257   3.982   9.630   2.191  1.1979  2.1621  0.2945
21201SOL    HW275258   3.828   9.678   2.221  0.3352 -0.4868  0.2015
21202SOL     OW75259   9.549   1.820   7.201  0.2519 -0.3256 -0.0444
21202SOL    HW175260   9.638   1.804   7.244  1.4671  0.3846 -2.2478
21202SOL    HW275261   9.555   1.803   7.103 -1.8954  0.3105 -0.3098
21203SOL     OW75262   1.932   1.438   4.220 -0.1859  0.1546  0.1426
21203SOL    HW175263   1.858   1.500   4.191 -0.5443  0.5812  1.9094
21203SOL    HW275264   1.894   1.365   4.276  0.5012 -0.6175 -0.3959
21204SOL     OW75265   3.279   7.411   3.872  0.8647 -0.3716  0.1120
21204SOL    HW175266   3.350   7.341   3.876  0.8450 -0.4250 -0.4310
21204SOL    HW275267   3.269   7.454   3.962  0.4892 -1.4412  0.5880
21205SOL     OW75268   9.068   5.499   6.808 -0.1399 -0.2945 -0.0907
21205SOL    HW175269   9.014   5.422   6.843 -2.9496  1.7157  0.2582
21205SOL    HW275270   9.028   5.530   6.721  1.1110  0.5978 -0.3490
21206SOL     OW75271   4.754   6.184   2.040 -0.5436  0.7501 -0.7194
21206SOL    HW175272   4.690   6.238   1.984 -2.3782 -0.8543 -0.2062
21206SOL    HW275273   4.773   6.097   1.995 -0.2485  0.3895  0.0958
21207SOL     OW75274   9.372   1.227   3.844  0.1361  0.6088  0.2793
21207SOL    HW175275   9.353   1.216   3.746 -1.2256 -0.1527  0.6202
21207SOL    HW275276   9.287   1.246   3.892  0.5893 -0.4236  1.5153
21208SOL     OW75277   0.473   0.587   2.502  0.0432  0.2470  0.1443
21208SOL    HW175278   0.461   0.618   2.596 -0.7302 -0.3425  0.2381
21208SOL    HW275279   0.384   0.568   2.461  0.2678  1.8043 -1.1512
21209SOL     OW75280   4.564   7.748   4.337  0.3031  0.3645  0.2196
21209SOL    HW175281   4.554   7.790   4.427  1.8770  0.3374  0.4176
21209SOL    HW275282   4.638   7.682   4.339  0.8193  0.8759 -1.2825
21210SOL     OW75283   8.294   6.420   6.422 -0.3007 -0.2394  0.2582
21210SOL    HW175284   8.281   6.322   6.407 -1.8717 -0.0438  0.2447
21210SOL    HW275285   8.336   6.435   6.512  1.7836 -1.0138 -0.5828
21211SOL     OW75286   0.585   6.527   0.839 -0.2898  0.5002 -0.0643
21211SOL    HW175287   0.647   6.503   0.914 -1.4893 -1.3389  0.3791
21211SOL    HW275288   0.520   6.595   0.871 -1.5947 -1.1864  1.0136
21212SOL     OW75289   7.574   4.845   3.773 -0.0590 -0.0042 -0.4130
21212SOL    HW175290   7.607   4.829   3.679  0.1037  0.8267 -0.5061
21212SOL    HW275291   7.643   4.813   3.838  0.4593  0.7041 -0.6001
21213SOL     OW75292   2.211   1.551   3.635 -0.2255  0.3863 -0.0310
21213SOL    HW175293   2.252   1.600   3.557 -1.3314  0.3977 -0.6118
21213SOL    HW275294   2.126   1.596   3.662 -0.3237 -0.1658  0.5938
21214SOL     OW75295   3.245   2.066   0.715  0.0305 -0.0872 -0.1430
21214SOL    HW175296   3.333   2.058   0.667 -0.0029 -2.6297  0.1632
21214SOL    HW275297   3.259   2.048   0.812 -0.6577  0.6462  0.0985
21215SOL     OW75298   7.653   7.366   4.837 -0.0396  0.1776 -0.4631
21215SOL    HW175299   7.744   7.338   4.810 -0.3373  0.3111 -1.6128
21215SOL    HW275300   7.650   7.377   4.937  0.5819 -2.0226 -0.1703
21216SOL     OW75301   1.589   5.440   1.720 -0.4717 -0.1533 -0.1175
21216SOL    HW175302   1.553   5.501   1.790 -0.1205 -0.8244  0.6532
21216SOL    HW275303   1.626   5.358   1.763  1.3385  0.2006 -0.9471
21217SOL     OW75304   8.892   7.922   6.091 -0.3332 -0.1744 -0.0069
21217SOL    HW175305   8.945   7.919   6.006 -1.9611 -0.3035 -1.0388
21217SOL    HW275306   8.912   8.006   6.140  0.0213  0.2865 -0.9278
21218SOL     OW75307   1.298   3.629   0.158  0.1091  0.1067  0.1083
21218SOL    HW175308   1.239   3.571   0.214 -0.8085 -0.2756 -1.2288
21218SOL    HW275309   1.361   3.572   0.107 -0.7428  0.2742 -1.1505
21219SOL     OW75310   0.102   9.297   1.495  0.8384 -0.1777 -0.3112
21219SOL    HW175311   0.174   9.249   1.445  1.8409  0.6176  0.3384
21219SOL    HW275312   0.126   9.394   1.502 -1.0693  0.4028 -1.4658
21220SOL     OW75313   9.943   1.263   2.330  0.1284 -0.3069 -0.1170
21220SOL    HW175314  10.014   1.255   2.400 -0.7087 -1.6837  0.5924
21220SOL    HW275315   9.888   1.345   2.347  0.6681  0.0004  0.1505
21221SOL     OW75316   2.571   4.856   6.305 -0.1707  0.0575  0.2365
21221SOL    HW175317   2.594   4.900   6.392  2.1943  1.6913 -1.1542
21221SOL    HW275318   2.615   4.766   6.301  2.8962  1.5102 -0.7324
21222SOL     OW75319   5.962   7.703   2.679 -0.4203 -0.0645 -0.6134
21222SOL    HW175320   5.894   7.652   2.626 -1.6263  0.2804  0.5843
21222SOL    HW275321   5.917   7.775   2.731  0.6447 -0.8498  1.4419
21223SOL     OW75322   7.122   0.255   6.386 -0.1933  0.2688 -0.1604
21223SOL    HW175323   7.106   0.282   6.291  1.0927 -0.8833 -0.7232
21223SOL    HW275324   7.113   0.335   6.445 -2.7292  0.6725 -1.0281
21224SOL     OW75325   4.765   3.807   1.528 -1.1881 -0.1963 -0.0669
21224SOL    HW175326   4.776   3.757   1.614 -2.1155 -0.5987 -0.1713
21224SOL    HW275327   4.758   3.905   1.548 -1.0271 -0.2554  0.2859
21225SOL     OW75328   3.900   3.497   0.487 -0.5350  0.0034 -0.3629
21225SOL    HW175329   3.879   3.531   0.395  1.0030  0.4842 -0.5508
21225SOL    HW275330   3.892   3.397   0.489 -2.0422  0.1031 -0.6122
21226SOL     OW75331   9.283   4.165   6.715  0.3440  0.1570  0.2083
21226SOL    HW175332   9.328   4.172   6.625  1.9498  0.1091  0.9875
21226SOL    HW275333   9.330   4.225   6.780 -0.1634 -0.5837  1.2686
21227SOL     OW75334   4.064   7.974   0.417 -0.0579  0.0603 -0.2638
21227SOL    HW175335   4.158   7.992   0.388  0.3414  2.2703  2.2171
21227SOL    HW275336   4.000   8.008   0.348  0.9201 -1.1094 -1.7797
21228SOL     OW75337   8.591   1.792   5.905 -0.1380 -0.6372 -0.0228
21228SOL    HW175338   8.596   1.705   5.855 -0.0202 -0.2071 -0.7689
21228SOL    HW275339   8.501   1.833   5.891 -1.0529 -1.7699  2.2560
21229SOL     OW75340   3.847   5.911   6.891 -0.2286  0.2731  0.3009
21229SOL    HW175341   3.841   6.006   6.923 -3.2245 -0.7516  3.0553
21229SOL    HW275342   3.796   5.901   6.806 -1.6789  0.7419  1.0963
21230SOL     OW75343   6.809   1.830   2.591  0.6828  0.4163 -0.3701
21230SOL    HW175344   6.762   1.909   2.629  0.3648 -0.2983  0.7459
21230SOL    HW275345   6.870   1.791   2.660 -0.6625 -1.5026 -0.2273
21231SOL     OW75346   9.892   4.750   2.990 -0.8888 -0.0609  0.4053
21231SOL    HW175347   9.990   4.769   2.998 -0.9527 -0.1260  1.4162
21231SOL    HW275348   9.840   4.827   3.026 -1.1740 -1.1031  2.3014
21232SOL     OW75349   7.995   6.152   7.936 -0.0663  0.1562  0.2280
21232SOL    HW175350   8.086   6.113   7.956  0.0124  1.2514  2.0695
21232SOL    HW275351   7.960   6.111   7.851  2.3451  0.0626 -0.7779
21233SOL     OW75352   0.840   6.512   3.335 -0.3953 -0.0760  0.1820
21233SOL    HW175353   0.742   6.531   3.346 -0.8245 -2.4410  0.7190
21233SOL    HW275354   0.883   6.589   3.288 -2.5808  0.8340 -0.4235
21234SOL     OW75355   1.997   0.669   1.044 -0.7216 -0.0154 -0.1704
21234SOL    HW175356   1.930   0.737   1.075 -0.1640  0.7100 -0.5188
21234SOL    HW275357   1.952   0.581   1.032 -0.9112 -0.3939  2.8940
21235SOL     OW75358   1.398   9.625   4.693  0.0770  0.5189  0.6018
21235SOL    HW175359   1.342   9.705   4.675 -0.6556 -0.3163 -0.8925
21235SOL    HW275360   1.495   9.650   4.691 -0.1586  1.4143  0.4308
21236SOL     OW75361   1.229   3.486   7.725 -0.4323 -0.5535 -0.5718
21236SOL    HW175362   1.160   3.416   7.741 -0.4803 -0.8305 -1.9134
21236SOL    HW275363   1.188   3.577   7.729 -0.5946 -0.6575  0.0402
21237SOL     OW75364   4.245   3.183   1.295 -0.0193 -0.0310 -0.1309
21237SOL    HW175365   4.153   3.220   1.306 -0.2235 -0.7481  0.6401
21237SOL    HW275366   4.285   3.166   1.385  0.6817 -0.1833 -0.4665
21238SOL     OW75367   1.935   4.330   7.301 -0.0842 -0.1906 -0.1514
21238SOL    HW175368   1.845   4.286   7.301  0.1821 -0.7515  0.8578
21238SOL    HW275369   1.947   4.380   7.215 -1.5795  0.3451 -0.0632
21239SOL     OW75370   1.120   9.911   1.801 -0.2978  0.2698  0.0950
21239SOL    HW175371   1.077   9.825   1.827 -1.0522  0.7329  0.3910
21239SOL    HW275372   1.201   9.927   1.857 -1.0418  0.5144  1.1197
21240SOL     OW75373   8.923   3.928   1.440  0.2528  0.6085 -0.4935
21240SOL    HW175374   8.896   3.955   1.532 -0.9879  1.3840 -1.0727
21240SOL    HW275375   8.903   4.002   1.376 -3.6012 -1.7875 -2.1840
21241SOL     OW75376   0.396   8.890   2.558  0.3200 -0.6702  0.2731
21241SOL    HW175377   0.380   8.884   2.656 -0.7217 -0.6249  0.1143
21241SOL    HW275378   0.347   8.816   2.511  2.0085 -1.5809 -0.0870
21242SOL     OW75379   0.313   4.011   7.062 -0.6380 -0.8476  0.3255
21242SOL    HW175380   0.280   3.951   6.988  0.2462  2.2167 -2.6832
21242SOL    HW275381   0.237   4.066   7.096 -0.8353 -1.5378  1.0126
21243SOL     OW75382   1.200   6.605   3.392  0.2371 -0.7055  0.3827
21243SOL    HW175383   1.117   6.606   3.448  0.3154 -1.0654  0.5071
21243SOL    HW275384   1.243   6.514   3.398 -1.2918 -1.6679 -2.5417
21244SOL     OW75385   8.627   2.043   5.331 -0.0792 -0.5700 -0.3845
21244SOL    HW175386   8.637   1.956   5.380  1.4217 -0.7093 -0.9042
21244SOL    HW275387   8.680   2.114   5.377  0.7776 -0.5401 -1.4006
21245SOL     OW75388   7.951   9.795   3.599  0.0071 -0.2492 -0.1495
21245SOL    HW175389   7.937   9.745   3.514 -0.7119 -0.0204 -0.1666
21245SOL    HW275390   7.890   9.760   3.670 -0.7108  0.7730 -0.2415
21246SOL     OW75391   9.444   9.611   6.530 -0.0748 -0.3768  0.1807
21246SOL    HW175392   9.404   9.690   6.484 -2.6341 -0.3167  2.3935
21246SOL    HW275393   9.405   9.527   6.492  1.6058 -0.5578 -1.2080
21247SOL     OW75394   4.395   3.293   1.919 -0.1138 -0.1075 -0.5878
21247SOL    HW175395   4.347   3.330   2.000 -0.4346  1.2706 -1.3930
21247SOL    HW275396   4.350   3.208   1.890 -0.0981 -0.5245  0.5812
21248SOL     OW75397   9.002   3.373   4.610  0.1061 -0.4830 -0.4039
21248SOL    HW175398   9.091   3.332   4.628  0.7679  0.6511 -1.0300
21248SOL    HW275399   8.959   3.327   4.532  0.1880 -0.9405 -0.1836
21249SOL     OW75400   6.447   4.380   2.302 -0.3513 -0.6202 -0.3788
21249SOL    HW175401   6.420   4.414   2.211 -0.3362 -0.7047 -0.4151
21249SOL    HW275402   6.495   4.293   2.291 -1.8751 -1.4920 -0.1591
21250SOL     OW75403   7.511   9.138   4.276  0.1572  0.1858  0.1763
21250SOL    HW175404   7.487   9.042   4.262 -0.2554  0.3008  0.0905
21250SOL    HW275405   7.478   9.169   4.365 -2.7993  1.2023 -1.1807
21251SOL     OW75406   7.807   7.972   3.749 -0.5265  0.6110 -0.4402
21251SOL    HW175407   7.851   7.953   3.836 -3.9610 -2.7746  0.7137
21251SOL    HW275408   7.828   7.899   3.684 -0.0409  1.8198 -1.6883
21252SOL     OW75409   1.769   3.897   2.878  0.1591  0.0761  0.4338
21252SOL    HW175410   1.675   3.900   2.843  0.2932 -0.9509 -0.0309
21252SOL    HW275411   1.775   3.950   2.963 -1.0652 -0.6159  0.9716
21253SOL     OW75412   6.385   1.257   6.668  0.2757  0.1083  0.4676
21253SOL    HW175413   6.445   1.313   6.725 -1.0623  0.2348  1.7912
21253SOL    HW275414   6.324   1.203   6.727 -2.6234  1.8411 -0.8028
21254SOL     OW75415   1.816   6.079   7.501 -0.4819  0.8913  0.0130
21254SOL    HW175416   1.756   6.051   7.576  1.2605 -0.9310  0.7736
21254SOL    HW275417   1.765   6.076   7.415 -1.7210  0.2647  0.7478
21255SOL     OW75418   1.508   5.130   0.467  0.8983 -0.2247 -0.1389
21255SOL    HW175419   1.597   5.175   0.456 -0.3560  2.1577 -0.9870
21255SOL    HW275420   1.450   5.185   0.527 -1.6104  0.7852 -3.3326
21256SOL     OW75421   3.560   6.632   7.018 -0.4397  0.1339 -0.6882
21256SOL    HW175422   3.604   6.637   6.928  1.2438 -0.2218  0.1007
21256SOL    HW275423   3.461   6.620   7.006  0.1355 -3.3859 -2.5284
21257SOL     OW75424   7.429   6.650   7.197 -0.0383  0.6298  0.4439
21257SOL    HW175425   7.483   6.632   7.115  0.6802 -1.4365  1.3292
21257SOL    HW275426   7.366   6.726   7.180  0.3387  0.4545 -1.8941
21258SOL     OW75427   0.714   3.671   7.463 -0.3528  0.1827  0.5689
21258SOL    HW175428   0.649   3.741   7.491  1.8098  2.8803 -0.8234
21258SOL    HW275429   0.749   3.693   7.371 -1.2380 -3.9493 -0.8626
21259SOL     OW75430   6.180   0.591   7.073 -0.1439 -0.3551 -0.3387
21259SOL    HW175431   6.107   0.565   7.010 -0.6760 -0.0548  0.1401
21259SOL    HW275432   6.259   0.532   7.059 -1.0992 -1.8315  0.3019
21260SOL     OW75433   3.507   1.637   3.879  0.0400  0.2636 -0.1914
21260SOL    HW175434   3.517   1.734   3.857  0.6149  0.3593  0.4752
21260SOL    HW275435   3.571   1.612   3.952 -0.0141 -0.6459 -0.4415
21261SOL     OW75436   2.972   8.105   4.805  1.0201 -0.3693  0.2530
21261SOL    HW175437   3.069   8.104   4.780  1.0318  1.0163  0.1849
21261SOL    HW275438   2.935   8.012   4.799  2.1415 -0.7825 -0.5048
21262SOL     OW75439   6.591   9.475   7.833  0.1301 -0.0208 -0.0562
21262SOL    HW175440   6.638   9.504   7.917 -0.3671  2.7083 -0.6554
21262SOL    HW275441   6.525   9.403   7.854  2.3620 -1.7293  1.3104
21263SOL     OW75442   1.088   5.554   6.740  0.0519 -0.1931  0.1413
21263SOL    HW175443   0.995   5.561   6.777  0.0292 -1.0852  0.2820
21263SOL    HW275444   1.098   5.466   6.692  0.4684  0.4121 -0.8819
21264SOL     OW75445   4.521   7.432   0.881 -0.4534 -0.5150 -0.0303
21264SOL    HW175446   4.565   7.342   0.885 -1.7482 -1.2276 -1.4977
21264SOL    HW275447   4.453   7.433   0.808  2.0144  2.8123 -2.4113
21265SOL     OW75448   0.133   0.462   7.841  0.9052  0.0407 -0.1501
21265SOL    HW175449   0.126   0.363   7.853  3.7249 -0.3733 -1.3427
21265SOL    HW275450   0.097   0.487   7.751  0.6537  0.0130 -0.0562
21266SOL     OW75451   7.843   7.680   1.747 -0.5259  0.2184 -0.4754
21266SOL    HW175452   7.903   7.605   1.720 -0.4191 -0.1724  0.8271
21266SOL    HW275453   7.877   7.722   1.831 -1.2293  0.9820 -0.5580
21267SOL     OW75454   9.424   0.428   1.734 -0.2520 -0.3335  0.2947
21267SOL    HW175455   9.516   0.444   1.698  0.4315 -0.2160  2.0533
21267SOL    HW275456   9.429   0.372   1.816 -1.9142 -1.7571 -0.5369
21268SOL     OW75457   5.982   7.900   6.967  0.1703 -0.1104 -0.1946
21268SOL    HW175458   5.938   7.863   7.049 -0.9670 -0.2007 -0.8405
21268SOL    HW275459   5.953   7.847   6.888 -0.8483  1.6670 -1.0276
21269SOL     OW75460   3.314   0.418   4.929 -0.1973 -0.4297  0.2505
21269SOL    HW175461   3.355   0.337   4.971 -0.9825 -0.7823  0.3414
21269SOL    HW275462   3.383   0.490   4.921  0.3342 -0.8811  0.7717
21270SOL     OW75463   1.899   1.170   5.938  0.1297 -0.2471  0.1650
21270SOL    HW175464   1.987   1.182   5.893  0.6849 -2.2610  0.6892
21270SOL    HW275465   1.846   1.099   5.892  0.3793 -1.7668  2.1400
21271SOL     OW75466   2.875   5.733   6.599  0.2017 -0.0454 -0.9729
21271SOL    HW175467   2.939   5.746   6.674 -0.1363  0.7127 -0.8213
21271SOL    HW275468   2.846   5.637   6.596 -1.5979  0.3848  1.3153
21272SOL     OW75469   5.000   6.274   0.343 -0.0784 -0.5739 -0.1779
21272SOL    HW175470   4.909   6.313   0.327  1.3899  2.0756 -2.3263
21272SOL    HW275471   5.040   6.315   0.424 -0.0558 -0.3567 -0.2973
21273SOL     OW75472   2.452   1.192   2.521 -0.1248  0.7101 -0.0688
21273SOL    HW175473   2.507   1.121   2.475 -0.3787  0.8363 -0.5707
21273SOL    HW275474   2.511   1.268   2.547 -0.0287  0.7679 -0.4512
21274SOL     OW75475   8.883   3.436   1.636  0.1203 -0.0583  0.4241
21274SOL    HW175476   8.874   3.525   1.681 -0.9885  0.4818 -0.8427
21274SOL    HW275477   8.835   3.366   1.689  1.1501  0.0389  1.5185
21275SOL     OW75478   4.143   9.522   0.212  0.2030  0.0222 -0.3146
21275SOL    HW175479   4.049   9.550   0.190  0.3663  0.3136 -0.6373
21275SOL    HW275480   4.165   9.552   0.305 -0.0206 -0.0390 -0.2411
21276SOL     OW75481   5.876   9.341   2.515  0.1907 -0.1016  0.3804
21276SOL    HW175482   5.829   9.255   2.536  1.5539 -0.6815  1.0802
21276SOL    HW275483   5.902   9.386   2.600  0.8579  0.2361 -0.0013
21277SOL     OW75484   9.856   2.547   5.120  0.2261  0.1898  0.9234
21277SOL    HW175485   9.800   2.626   5.096  0.4788  0.5819  1.5855
21277SOL    HW275486   9.822   2.465   5.074  2.1430  1.3201 -2.6347
21278SOL     OW75487   8.728   0.138   0.213 -0.1249  0.2297 -0.1053
21278SOL    HW175488   8.676   0.058   0.182  0.4605 -0.3403  0.3830
21278SOL    HW275489   8.667   0.217   0.220 -0.9309 -0.4442  0.4811
21279SOL     OW75490   9.736   5.927   5.622  0.7251  0.1535  0.1145
21279SOL    HW175491   9.652   5.967   5.585  0.5620 -0.8971 -0.6612
21279SOL    HW275492   9.762   5.847   5.568  0.9919 -0.8644  1.7244
21280SOL     OW75493   8.575   4.442   4.437  0.2309 -0.2112 -0.0147
21280SOL    HW175494   8.490   4.492   4.424  0.0450 -1.0379 -2.2207
21280SOL    HW275495   8.562   4.346   4.414  1.7409 -0.3530 -0.3682
21281SOL     OW75496   5.113   5.851   1.709  0.1563  0.1707  1.0956
21281SOL    HW175497   5.030   5.894   1.674 -0.5180 -0.4628  1.8735
21281SOL    HW275498   5.104   5.751   1.704  1.4575  0.0974 -0.1487
21282SOL     OW75499   9.721   8.229   1.778 -0.6783  0.6348  0.3574
21282SOL    HW175500   9.653   8.263   1.713  1.0516 -0.0560 -1.8574
21282SOL    HW275501   9.743   8.134   1.758 -0.2657  0.3486  2.0856
21283SOL     OW75502   2.186   2.643   2.963 -0.4891 -0.0413 -0.5056
21283SOL    HW175503   2.119   2.666   2.892 -1.4502 -1.2791  0.0005
21283SOL    HW275504   2.174   2.548   2.991  1.8722 -0.4793 -0.8397
21284SOL     OW75505   6.654   1.932   3.334  0.1797 -0.1075 -0.0236
21284SOL    HW175506   6.607   2.003   3.388 -0.7994  0.9830 -2.2578
21284SOL    HW275507   6.684   1.971   3.247 -0.9515 -2.6040 -1.5776
21285SOL     OW75508   2.411   3.882   0.018 -0.1970  0.5026 -0.7045
21285SOL    HW175509   2.410   3.982   0.017 -2.0281  0.5398  1.0935
21285SOL    HW275510   2.321   3.848   0.046  0.1686 -1.6862 -2.0074
21286SOL     OW75511   4.147   0.290   2.214 -0.9298 -0.2607  0.1474
21286SOL    HW175512   4.225   0.233   2.187  0.5152  1.8697 -0.3125
21286SOL    HW275513   4.167   0.386   2.194 -1.8949  0.8619  4.0162
21287SOL     OW75514   5.184   6.221   2.379  0.2417  0.0887 -0.1876
21287SOL    HW175515   5.133   6.161   2.441  1.6981  0.0465  0.9930
21287SOL    HW275516   5.192   6.177   2.290 -0.6969 -0.4478 -0.0215
21288SOL     OW75517   0.656   4.829   0.019 -0.0732  0.7735 -0.2946
21288SOL    HW175518   0.749   4.863   0.007 -0.3244  1.7829  0.5379
21288SOL    HW275519   0.629   4.838   0.115 -1.3360  1.2921 -0.6831
21289SOL     OW75520   1.445   6.875   3.232  0.8389 -0.0657  0.2659
21289SOL    HW175521   1.468   6.964   3.272 -0.1921  0.4464 -0.2783
21289SOL    HW275522   1.477   6.803   3.293  0.2843  0.6916  1.4842
21290SOL     OW75523   7.854   6.694   1.026 -0.6643 -0.4701 -0.0674
21290SOL    HW175524   7.847   6.691   1.126  1.4836  0.0223  0.1262
21290SOL    HW275525   7.897   6.610   0.993 -0.6637 -0.2965 -0.5107
21291SOL     OW75526   5.761   9.747   3.448  0.1976 -0.1714  0.1804
21291SOL    HW175527   5.697   9.737   3.371  0.6009 -1.1193 -0.0443
21291SOL    HW275528   5.774   9.658   3.492  0.5396  0.2258  0.8900
21292SOL     OW75529   7.786   1.947   1.431  0.0108 -0.0070  0.0397
21292SOL    HW175530   7.726   1.976   1.506  1.1405  2.4318  0.0501
21292SOL    HW275531   7.818   1.853   1.449  0.1673  0.4835  2.5582
21293SOL     OW75532   3.131   7.797   4.798  0.0781 -1.0205  0.3905
21293SOL    HW175533   3.148   7.883   4.748 -0.2945 -0.9383  0.4062
21293SOL    HW275534   3.133   7.815   4.896 -0.6282 -0.9075  0.3880
21294SOL     OW75535   1.839   1.377   0.807 -0.0077  0.1559  0.1279
21294SOL    HW175536   1.831   1.419   0.898 -1.6348 -0.6595  0.3767
21294SOL    HW275537   1.908   1.305   0.810  1.2048  1.2841  0.2550
21295SOL     OW75538   4.464   2.691   1.896  0.4111  0.6600 -0.1375
21295SOL    HW175539   4.515   2.635   1.832 -2.5658 -2.7081  0.2642
21295SOL    HW275540   4.371   2.704   1.862  0.4422  3.7494  0.7710
21296SOL     OW75541   2.518   5.379   3.143 -0.5699  0.3732 -0.0009
21296SOL    HW175542   2.418   5.386   3.148 -0.7035 -1.4498  0.0541
21296SOL    HW275543   2.547   5.380   3.047 -0.7991 -0.9928 -0.0941
21297SOL     OW75544   5.966   8.671   3.352 -0.4974 -0.0271  0.1718
21297SOL    HW175545   5.918   8.654   3.266  0.7476  0.5714 -0.6569
21297SOL    HW275546   5.982   8.769   3.363  2.9968 -0.3759 -0.9874
21298SOL     OW75547   7.702   0.344   7.636  0.2588  0.4581  0.5721
21298SOL    HW175548   7.661   0.344   7.545  0.1155 -0.2716  0.6373
21298SOL    HW275549   7.786   0.289   7.635 -0.8729 -1.3039  1.3900
21299SOL     OW75550   3.013   1.985   6.070 -0.1125  0.2170  0.3921
21299SOL    HW175551   3.083   1.996   5.999  0.9210  0.2941  1.4103
21299SOL    HW275552   2.991   2.074   6.109 -0.1932  0.0884  0.6375
21300SOL     OW75553   9.243   0.384   0.777 -0.4857 -0.2733  0.0171
21300SOL    HW175554   9.221   0.437   0.859 -0.3438 -1.7513  1.0231
21300SOL    HW275555   9.182   0.305   0.771 -0.6017 -0.0819 -1.3886
21301SOL     OW75556   4.703   1.748   1.325  0.0426 -0.0445 -0.1860
21301SOL    HW175557   4.794   1.734   1.286 -0.7347  0.2812 -2.2074
21301SOL    HW275558   4.702   1.834   1.377  0.5268  0.7061 -1.3811
21302SOL     OW75559   6.570   4.958   0.892  0.2304  0.4637  0.1712
21302SOL    HW175560   6.521   4.873   0.873 -0.5043  1.1399 -1.0088
21302SOL    HW275561   6.667   4.937   0.906  0.0251 -0.5936  0.0930
21303SOL     OW75562   4.307   8.207   2.123 -0.1175  0.5785  0.6109
21303SOL    HW175563   4.208   8.194   2.123  0.1312 -1.4886 -0.4604
21303SOL    HW275564   4.332   8.273   2.052 -0.4079 -1.9816 -1.9775
21304SOL     OW75565   3.650   2.858   6.335  0.1125  0.0495 -0.0417
21304SOL    HW175566   3.624   2.772   6.377  2.6905 -0.3073  0.9259
21304SOL    HW275567   3.638   2.852   6.236 -1.3286 -0.8133  0.1737
21305SOL     OW75568   1.349   1.188   7.401 -0.1823  0.0167 -0.5652
21305SOL    HW175569   1.281   1.115   7.400  0.3214 -0.4634  0.2411
21305SOL    HW275570   1.305   1.274   7.427 -0.8819  0.1214 -2.0205
21306SOL     OW75571   0.354   2.653   7.056  0.7239 -0.1690  0.0481
21306SOL    HW175572   0.397   2.636   6.967 -2.0029 -0.9830 -1.1636
21306SOL    HW275573   0.296   2.576   7.081 -0.4243  1.0912  1.3834
21307SOL     OW75574   0.137   2.505   5.028  0.2874 -0.4242  0.4896
21307SOL    HW175575   0.159   2.411   5.051 -0.5456 -1.1399 -1.5419
21307SOL    HW275576   0.045   2.527   5.060 -1.1257 -1.6237 -2.6124
21308SOL     OW75577   4.664   8.954   7.130 -0.8061 -0.0885  0.5830
21308SOL    HW175578   4.615   8.983   7.212 -1.9071  0.6727 -0.3293
21308SOL    HW275579   4.670   9.031   7.066 -0.3358 -0.7933 -0.2298
21309SOL     OW75580   0.269   6.357   3.804  0.2774  0.6455  0.2303
21309SOL    HW175581   0.333   6.338   3.879 -0.1211  2.5364  1.1006
21309SOL    HW275582   0.235   6.451   3.813 -0.9655  0.3805 -1.4581
21310SOL     OW75583   1.869   1.620   1.856 -0.5694  0.1052 -0.6337
21310SOL    HW175584   1.896   1.542   1.799  0.8096  0.2659 -0.2151
21310SOL    HW275585   1.836   1.588   1.944 -0.1246 -0.0144 -0.5101
21311SOL     OW75586   1.184   3.304   6.280 -0.1128 -0.1600  0.3562
21311SOL    HW175587   1.258   3.239   6.262 -0.4212 -0.4528  0.1481
21311SOL    HW275588   1.161   3.353   6.196 -1.4845 -1.4589 -0.0499
21312SOL     OW75589   8.625   0.793   7.114  0.1941 -0.1955  0.5277
21312SOL    HW175590   8.664   0.712   7.159  2.5113 -0.0793 -1.1823
21312SOL    HW275591   8.673   0.874   7.147 -1.3573  0.3856  1.3834
21313SOL     OW75592   0.414   3.018   4.765 -0.0849 -0.7877 -0.1408
21313SOL    HW175593   0.445   3.007   4.860 -1.8732  2.3030  0.8583
21313SOL    HW275594   0.331   2.964   4.752 -0.0659 -0.8925  0.1572
21314SOL     OW75595   9.589   4.781   4.012  0.3294  0.2837 -0.4110
21314SOL    HW175596   9.567   4.716   4.085  1.8760 -0.2173 -0.3655
21314SOL    HW275597   9.553   4.871   4.035 -0.5816 -0.2316  0.2114
21315SOL     OW75598   9.727   7.517   5.142  0.1009  0.0399 -0.4177
21315SOL    HW175599   9.787   7.508   5.062 -0.8768 -0.7859 -1.0654
21315SOL    HW275600   9.634   7.493   5.116 -0.4342  0.8985  0.6981
21316SOL     OW75601   0.329   3.037   2.657  0.0055 -0.3626  0.1662
21316SOL    HW175602   0.246   3.060   2.606  0.3771  0.4724 -0.0895
21316SOL    HW275603   0.327   2.941   2.684 -0.8212 -0.4672 -0.2541
21317SOL     OW75604   4.799   9.637   6.526  0.0548 -0.6355  0.7734
21317SOL    HW175605   4.822   9.718   6.472  0.6595 -1.8446 -0.7927
21317SOL    HW275606   4.712   9.653   6.573  0.1553  0.9172  0.4753
21318SOL     OW75607   3.564   9.305   0.253  0.1370 -0.2145 -0.8969
21318SOL    HW175608   3.648   9.320   0.201  0.8974 -0.1363  0.3120
21318SOL    HW275609   3.520   9.393   0.272  1.6862  0.1056  1.4924
21319SOL     OW75610   8.996   6.392   5.907 -0.9118  0.4249  0.2284
21319SOL    HW175611   9.025   6.456   5.977  2.6441 -0.1209 -0.6400
21319SOL    HW275612   8.993   6.299   5.945  2.4990 -0.1030 -0.5824
21320SOL     OW75613   8.827   3.104   0.611  0.5375 -0.3783  0.3123
21320SOL    HW175614   8.849   3.033   0.677  0.5242  0.1134  0.8539
21320SOL    HW275615   8.813   3.191   0.659  1.4009  0.1739 -0.4138
21321SOL     OW75616   3.725   6.985   9.668  0.0135 -0.1669 -0.2675
21321SOL    HW175617   3.795   6.921   9.634 -0.3588 -0.1129 -1.1533
21321SOL    HW275618   3.761   7.036   9.745  0.8331 -0.3976 -0.4925
21322SOL     OW75619   7.087   0.247   7.312  0.6113 -0.1853  0.6294
21322SOL    HW175620   7.061   0.344   7.308  0.9896 -0.1193 -0.4167
21322SOL    HW275621   7.102   0.213   7.220  1.5459 -0.9554  1.0530
21323SOL     OW75622   8.193   2.668   3.100 -0.4282  0.4238  0.0826
21323SOL    HW175623   8.237   2.583   3.128 -1.2750 -0.6772 -1.8245
21323SOL    HW275624   8.093   2.657   3.106 -0.5387  1.3042 -0.0886
21324SOL     OW75625   0.985   1.439   5.597 -0.2116 -0.2728 -0.4241
21324SOL    HW175626   1.039   1.484   5.526 -2.0668 -0.5651 -2.0557
21324SOL    HW275627   1.027   1.352   5.622  1.2316  0.5097 -0.1146
21325SOL     OW75628   5.357   9.950   6.357 -0.0216  0.4827 -0.1959
21325SOL    HW175629   5.415  10.028   6.333  0.7891  0.1911  0.7768
21325SOL    HW275630   5.278   9.982   6.409  0.3864  0.6458  0.3300
21326SOL     OW75631   8.828   8.753   2.520 -0.1702 -0.1172 -0.1564
21326SOL    HW175632   8.781   8.770   2.434  0.3116 -3.9710 -1.2657
21326SOL    HW275633   8.768   8.705   2.583  0.9159 -1.3143 -0.0139
21327SOL     OW75634   0.964   2.199   0.543 -0.0770  0.1613 -0.0632
21327SOL    HW175635   0.901   2.242   0.478  0.6291  0.1196 -0.7820
21327SOL    HW275636   0.916   2.124   0.590 -0.3987 -0.2742 -1.0515
21328SOL     OW75637   8.776   4.364   6.172  0.6270 -0.0599  0.0996
21328SOL    HW175638   8.825   4.329   6.251 -2.8181 -1.3583  1.7522
21328SOL    HW275639   8.802   4.459   6.156  3.1648 -0.5216  1.2697
21329SOL     OW75640   9.398   4.673   1.321  0.6997  0.1518  0.2453
21329SOL    HW175641   9.373   4.685   1.417  0.0534  0.7101  0.0149
21329SOL    HW275642   9.321   4.701   1.263  0.6908 -1.2185 -0.4104
21330SOL     OW75643   1.200   5.497   2.335  0.1689 -0.0897  0.1189
21330SOL    HW175644   1.194   5.413   2.281  0.4561  0.9366 -1.5388
21330SOL    HW275645   1.294   5.530   2.335  0.3522 -0.5548  2.0217
21331SOL     OW75646   8.415   0.250   4.376 -0.4291  0.2799 -0.0400
21331SOL    HW175647   8.440   0.279   4.284 -0.2332  2.0521  0.5428
21331SOL    HW275648   8.498   0.236   4.430 -0.5638  0.0132  0.1012
21332SOL     OW75649   9.388   4.722   5.859 -0.2600 -0.1515 -0.0223
21332SOL    HW175650   9.449   4.787   5.813  2.5274 -1.8435  1.1817
21332SOL    HW275651   9.385   4.743   5.957 -0.7092 -0.8067  0.1024
21333SOL     OW75652   3.827   0.613   7.882 -0.3185  0.0085 -0.3894
21333SOL    HW175653   3.920   0.616   7.845  0.1512 -0.3916  0.7630
21333SOL    HW275654   3.764   0.654   7.815  0.3920 -1.5346 -2.0519
21334SOL     OW75655   3.532   3.697   3.231 -0.0005 -0.5476  0.6638
21334SOL    HW175656   3.484   3.618   3.192  1.0660 -1.1565  0.5671
21334SOL    HW275657   3.627   3.672   3.251 -0.3225 -0.0570  3.0226
21335SOL     OW75658   0.972   0.356   7.406  0.2518 -0.2433  0.5589
21335SOL    HW175659   0.943   0.308   7.323  1.7130 -0.0350 -0.0895
21335SOL    HW275660   0.893   0.402   7.447 -0.8182 -1.7872  0.2507
21336SOL     OW75661   9.671   0.058   1.896  0.1937  0.7792 -0.2858
21336SOL    HW175662   9.588   0.062   1.841 -0.1520  0.0166  0.1746
21336SOL    HW275663   9.702   0.150   1.916 -1.1443  1.0806  0.4464
21337SOL     OW75664   8.495   2.671   1.397 -0.4382  0.1821  0.2306
21337SOL    HW175665   8.442   2.709   1.322 -0.7333 -1.6133 -0.4874
21337SOL    HW275666   8.436   2.615   1.455 -0.3711  2.0908  2.2304
21338SOL     OW75667   3.873   4.660   0.642 -0.0331 -0.1249  0.1699
21338SOL    HW175668   3.837   4.740   0.689  0.4122 -0.3225  0.8505
21338SOL    HW275669   3.934   4.690   0.568 -2.1458  0.2271 -1.4883
21339SOL     OW75670   9.918   0.603   7.962  0.4311  0.5469  0.3575
21339SOL    HW175671   9.849   0.540   7.926  0.6225  0.8833 -0.6091
21339SOL    HW275672  10.006   0.557   7.969  0.2530  0.2946  1.0205
21340SOL     OW75673   5.147   9.640   4.816 -0.1351 -0.1395  0.2058
21340SOL    HW175674   5.215   9.670   4.883  0.8501  1.3865 -1.4078
21340SOL    HW275675   5.124   9.544   4.831  1.3139 -0.2715  1.6725
21341SOL     OW75676   2.369   2.999   0.408 -0.8084  0.3625  0.4800
21341SOL    HW175677   2.419   2.936   0.468 -1.1465  0.3340  0.7305
21341SOL    HW275678   2.426   3.080   0.391 -0.2796 -0.1066 -0.0282
21342SOL     OW75679   3.182   5.051   5.719 -0.2980  0.0286  0.0568
21342SOL    HW175680   3.107   5.114   5.704 -0.1798  0.4351  1.1095
21342SOL    HW275681   3.259   5.077   5.660  0.2425  1.7185  1.4538
21343SOL     OW75682   2.922   8.588   6.927 -0.3711  0.0337 -0.2500
21343SOL    HW175683   2.918   8.673   6.979 -2.2818 -0.6372  0.7671
21343SOL    HW275684   2.958   8.514   6.985 -2.0784 -0.6151  0.0234
21344SOL     OW75685   2.555   5.292   7.306 -0.6467  0.2326  0.2541
21344SOL    HW175686   2.592   5.382   7.325  0.2222  0.1670 -1.0839
21344SOL    HW275687   2.624   5.222   7.324 -1.1656 -0.1508  0.8284
21345SOL     OW75688   4.307   8.019   0.335  0.2363 -0.0594  0.2142
21345SOL    HW175689   4.345   8.105   0.369  2.2870 -0.3605 -1.1800
21345SOL    HW275690   4.370   7.944   0.358 -0.9393 -1.0071  0.3727
21346SOL     OW75691   5.534   9.400   8.147 -0.3643 -0.7689  0.0669
21346SOL    HW175692   5.524   9.314   8.197  0.5073 -0.3647  0.9484
21346SOL    HW275693   5.611   9.452   8.184 -0.1563 -0.1299 -1.2239
21347SOL     OW75694   0.023   2.859   2.364 -0.7804 -0.3982 -0.0920
21347SOL    HW175695   0.033   2.900   2.274 -2.0912  1.3596  0.5303
21347SOL    HW275696  -0.074   2.842   2.383 -0.5061 -0.8875  0.9111
21348SOL     OW75697   6.240   1.135   4.280 -0.7291  0.1637  0.0674
21348SOL    HW175698   6.251   1.036   4.269  0.4110  0.2689  0.2506
21348SOL    HW275699   6.329   1.177   4.292 -1.2273  1.2080  0.1109
21349SOL     OW75700   8.907   8.462   5.064  0.4740  0.1084  0.1421
21349SOL    HW175701   8.833   8.530   5.058 -0.7203 -1.1102  0.8279
21349SOL    HW275702   8.917   8.432   5.158  1.4329 -0.2176 -0.0594
21350SOL     OW75703   9.403   9.023   2.340 -0.0741 -0.1563 -0.1175
21350SOL    HW175704   9.330   8.960   2.369 -0.6717 -0.4004 -2.1031
21350SOL    HW275705   9.374   9.117   2.357 -0.2313 -0.3138  0.4895
21351SOL     OW75706   5.737   5.734   1.456  0.0628 -0.4514 -0.1484
21351SOL    HW175707   5.736   5.818   1.511 -1.8700 -2.8178  3.6437
21351SOL    HW275708   5.831   5.704   1.442  0.5994  0.2197  1.9141
21352SOL     OW75709   9.349   1.690   6.856  0.1500 -0.2441  0.2875
21352SOL    HW175710   9.398   1.610   6.889  0.1426  0.3692  1.8067
21352SOL    HW275711   9.412   1.769   6.853 -0.4937  0.3215  1.3602
21353SOL     OW75712   0.305   8.188   7.963 -0.0111  0.3719  0.3456
21353SOL    HW175713   0.389   8.141   7.991 -0.6698  0.5944  2.8446
21353SOL    HW275714   0.328   8.279   7.930  0.8404 -0.0161 -0.1739
21354SOL     OW75715   0.369   8.524   0.259  0.2018  0.6775 -0.4886
21354SOL    HW175716   0.286   8.540   0.206  1.5015  0.3515 -2.6716
21354SOL    HW275717   0.447   8.568   0.214  0.9974  2.3140  2.3367
21355SOL     OW75718   4.294   3.119   5.777  0.2774 -0.2065 -0.3528
21355SOL    HW175719   4.206   3.162   5.759  0.7191  0.1686 -1.6112
21355SOL    HW275720   4.326   3.073   5.695  0.3258 -2.0377  0.6588
21356SOL     OW75721   4.408   5.852   2.598 -0.1474  0.0364 -0.0987
21356SOL    HW175722   4.502   5.818   2.601 -0.2781 -0.2962  0.2542
21356SOL    HW275723   4.352   5.789   2.545 -0.4620 -0.4730  0.8358
21357SOL     OW75724   3.568   3.853   5.180 -0.3207 -0.3197  0.2974
21357SOL    HW175725   3.597   3.888   5.091 -1.8856  1.2266  0.3477
21357SOL    HW275726   3.618   3.901   5.253 -0.6780  0.0587  0.2977
21358SOL     OW75727   2.547   6.406   3.739  0.0444  0.0859 -0.1406
21358SOL    HW175728   2.504   6.373   3.655  0.3176 -0.6354  0.0077
21358SOL    HW275729   2.491   6.480   3.778  1.0789  1.9932 -2.1583
21359SOL     OW75730   0.136   0.140   1.040  0.1559  1.0063  0.1125
21359SOL    HW175731   0.052   0.144   1.094  0.0787  0.5206  0.0294
21359SOL    HW275732   0.211   0.181   1.092  0.0262  0.7752  0.4845
21360SOL     OW75733   7.793   2.794   6.250 -0.2986  0.5916  1.3436
21360SOL    HW175734   7.835   2.810   6.340  1.8216  2.3629  0.0949
21360SOL    HW275735   7.757   2.880   6.214  1.9975  0.6531 -0.9743
21361SOL     OW75736   9.182   2.380   3.906  0.6765  0.4083 -0.3601
21361SOL    HW175737   9.097   2.348   3.949 -0.3441  3.0347 -0.3469
21361SOL    HW275738   9.160   2.435   3.826  2.4030  0.5612 -0.7450
21362SOL     OW75739   9.767   3.615   0.850  0.5697  0.6336 -0.0447
21362SOL    HW175740   9.766   3.715   0.854 -1.4883  0.6644 -0.8839
21362SOL    HW275741   9.823   3.579   0.925 -1.5431  2.3235  2.4030
21363SOL     OW75742   3.009   8.597   6.161 -0.6350 -0.1670 -0.4492
21363SOL    HW175743   3.076   8.615   6.090 -1.2743 -0.8124 -1.2260
21363SOL    HW275744   2.917   8.619   6.127 -1.1347 -2.1773 -0.4664
21364SOL     OW75745   9.553   3.886   7.002  0.4261 -0.2072 -0.4327
21364SOL    HW175746   9.569   3.958   6.933  0.4723  0.1640 -0.0389
21364SOL    HW275747   9.514   3.927   7.084  0.1903 -0.6811 -0.3082
21365SOL     OW75748   7.736   1.188   0.543  0.1524 -0.1980 -0.2703
21365SOL    HW175749   7.797   1.185   0.464  1.3520  0.9528  0.5875
21365SOL    HW275750   7.782   1.148   0.622  0.5529  2.3417  0.8507
21366SOL     OW75751   4.589   3.534   5.998  0.1331 -0.6773 -0.2834
21366SOL    HW175752   4.675   3.582   6.014 -0.1307 -0.2534 -0.1322
21366SOL    HW275753   4.512   3.595   6.018 -0.2045 -1.1872 -0.0118
21367SOL     OW75754   7.864   6.981   5.975  0.1444  0.5911  0.3673
21367SOL    HW175755   7.812   6.911   6.023  0.6775  0.5011  0.8108
21367SOL    HW275756   7.950   6.943   5.942  0.7621  1.2138  1.2312
21368SOL     OW75757   8.247   9.477   5.284  0.0325  0.1614  0.3783
21368SOL    HW175758   8.316   9.506   5.349  1.3283  0.5447 -1.1377
21368SOL    HW275759   8.291   9.434   5.205 -1.4661  0.1576 -0.4800
21369SOL     OW75760   3.630   4.483   4.878 -0.3863  0.1100 -0.0774
21369SOL    HW175761   3.575   4.446   4.803  0.3067  1.0347 -1.0571
21369SOL    HW275762   3.716   4.519   4.842  0.4047 -0.3758  1.3137
21370SOL     OW75763   3.405   7.263   0.018  0.2978  0.0652 -0.1668
21370SOL    HW175764   3.321   7.255   0.073 -0.3679  0.2981 -1.1309
21370SOL    HW275765   3.453   7.347   0.043  1.9807 -1.6725  2.7224
21371SOL     OW75766   6.347   6.085   1.370  0.1911 -0.3415 -0.2230
21371SOL    HW175767   6.317   6.150   1.441  1.3937  0.6079 -0.5664
21371SOL    HW275768   6.335   5.992   1.403 -1.1419  0.0543  0.4583
21372SOL     OW75769   2.423   9.516   2.549  0.1945 -0.0853  0.1579
21372SOL    HW175770   2.329   9.535   2.519  0.1854  1.7399  1.2908
21372SOL    HW275771   2.444   9.420   2.530 -1.5332 -0.2656 -1.0565
21373SOL     OW75772   7.239   9.834   7.631  0.0346 -0.0617  0.3293
21373SOL    HW175773   7.199   9.898   7.566  0.6069  0.2071  0.2428
21373SOL    HW275774   7.326   9.869   7.664 -0.1425 -0.3065  1.0718
21374SOL     OW75775   2.104   8.875   0.569  0.0873  0.1674  0.0184
21374SOL    HW175776   2.147   8.786   0.554 -0.3405 -0.7436  3.6259
21374SOL    HW275777   2.012   8.875   0.531 -0.0151 -1.0648  0.2403
21375SOL     OW75778   5.274   9.703   7.113  0.4319 -0.3298 -0.1620
21375SOL    HW175779   5.212   9.647   7.058  1.1796 -0.3277 -1.0263
21375SOL    HW275780   5.235   9.794   7.124  1.2740  0.3779 -2.6036
21376SOL     OW75781   7.655   9.341   6.047 -0.0786  0.5834  0.4168
21376SOL    HW175782   7.717   9.276   6.091 -0.3055  0.2251  0.2072
21376SOL    HW275783   7.594   9.380   6.117 -0.0346  0.4678  0.5203
21377SOL     OW75784   1.428   2.777   4.595  0.3753 -0.2205  0.3094
21377SOL    HW175785   1.499   2.720   4.635  0.6826  0.2722  0.4768
21377SOL    HW275786   1.468   2.862   4.562  0.2574 -0.9219 -1.7191
21378SOL     OW75787   8.236   7.572   6.527 -0.1788  0.2035  0.1238
21378SOL    HW175788   8.158   7.514   6.504  1.8638 -2.4105 -0.4559
21378SOL    HW275789   8.263   7.625   6.447  1.1862 -2.0105 -0.9312
21379SOL     OW75790   6.930   1.473   2.290 -0.4766 -0.3289 -0.2106
21379SOL    HW175791   6.874   1.534   2.234 -0.8470 -0.2745  0.2168
21379SOL    HW275792   6.967   1.524   2.368  0.5718 -0.2449 -0.7647
21380SOL     OW75793   2.079   9.488   0.136  0.5872 -0.0960  0.7903
21380SOL    HW175794   2.157   9.541   0.104  0.3137 -0.6114 -0.7928
21380SOL    HW275795   2.004   9.549   0.159  1.8832  0.4937  3.6062
21381SOL     OW75796   2.958   9.501   3.605  0.3694  0.8343 -0.8025
21381SOL    HW175797   2.913   9.414   3.585 -1.9982  1.5123  1.2532
21381SOL    HW275798   2.924   9.572   3.544  1.5451  0.5535 -1.8016
21382SOL     OW75799   3.269   9.393   3.914  0.1687 -0.0375 -0.0744
21382SOL    HW175800   3.348   9.351   3.960  0.3473  0.0639 -0.2873
21382SOL    HW275801   3.227   9.326   3.853 -0.3071 -0.2915  0.5329
21383SOL     OW75802   9.438   2.271   1.971 -0.7270  0.5617  0.0134
21383SOL    HW175803   9.371   2.239   2.038  0.1592  1.0375  1.1377
21383SOL    HW275804   9.406   2.358   1.933  0.0345  1.6523  1.7876
21384SOL     OW75805   8.775   8.135   4.186  0.0909 -0.3009  0.3637
21384SOL    HW175806   8.839   8.059   4.200  0.9382  0.1329 -1.0265
21384SOL    HW275807   8.785   8.171   4.093 -1.0479  0.8340  0.6522
21385SOL     OW75808   8.287   9.611   7.198  0.2597  0.3142  0.1366
21385SOL    HW175809   8.264   9.636   7.292  0.1706  0.0616  0.1804
21385SOL    HW275810   8.217   9.646   7.135  0.6365  1.0150  0.1013
21386SOL     OW75811   7.943   9.047   4.856 -0.5965  0.6634  0.5905
21386SOL    HW175812   7.847   9.046   4.886 -1.3202 -0.0094 -1.7128
21386SOL    HW275813   7.965   8.963   4.807  0.7701  1.4343 -0.1668
21387SOL     OW75814   5.617   9.729   2.950 -0.0183 -0.5466 -0.2134
21387SOL    HW175815   5.699   9.781   2.925  0.3678 -0.8301  0.4557
21387SOL    HW275816   5.542   9.793   2.968  0.1760 -0.2646 -0.3886
21388SOL     OW75817   1.416   0.369   4.062  0.2625 -0.4741 -0.2464
21388SOL    HW175818   1.356   0.349   3.985 -0.5882  2.2844 -0.3778
21388SOL    HW275819   1.511   0.350   4.037 -0.1141 -0.5371 -1.6477
21389SOL     OW75820   0.182   6.633   6.677 -0.0336  0.5382 -0.2750
21389SOL    HW175821   0.111   6.581   6.723  1.4421 -0.8688  0.4533
21389SOL    HW275822   0.163   6.636   6.578 -0.6924 -0.4399 -0.1822
21390SOL     OW75823   6.339   2.301   1.465  0.1313 -0.1068  0.7476
21390SOL    HW175824   6.361   2.390   1.504  0.7192  1.0214 -2.0736
21390SOL    HW275825   6.421   2.259   1.427 -0.4576 -1.1120  0.5449
21391SOL     OW75826   6.581   1.654   3.302  0.1443  0.2398  0.5320
21391SOL    HW175827   6.566   1.641   3.204 -0.5700  0.4160  0.6180
21391SOL    HW275828   6.619   1.745   3.318  1.4851 -0.2715  0.2999
21392SOL     OW75829   7.876   6.481   7.629  0.5148 -0.1228 -0.2092
21392SOL    HW175830   7.947   6.411   7.637  1.3299  0.8575  1.3577
21392SOL    HW275831   7.911   6.559   7.577  0.2968 -0.0056 -0.1793
21393SOL     OW75832   3.245   6.575   3.273 -0.5511 -0.4357 -0.6062
21393SOL    HW175833   3.331   6.552   3.227 -0.7039 -1.1898 -0.5234
21393SOL    HW275834   3.168   6.536   3.221 -1.0755  2.7079 -2.3182
21394SOL     OW75835   1.378   8.944   4.386  0.6361 -0.2235  0.3586
21394SOL    HW175836   1.314   8.993   4.446 -2.0641  0.1445 -2.6770
21394SOL    HW275837   1.455   9.004   4.365  0.3901  0.5156  1.4668
21395SOL     OW75838   8.564   7.764   3.244 -0.5536  0.1050 -0.2874
21395SOL    HW175839   8.626   7.737   3.318 -0.8884 -0.9863 -0.3914
21395SOL    HW275840   8.489   7.818   3.282  0.0317  0.7625 -0.0474
21396SOL     OW75841   1.481   8.220   4.075 -0.0041 -0.5066 -0.3124
21396SOL    HW175842   1.390   8.187   4.099 -0.1266  0.6851  0.9141
21396SOL    HW275843   1.538   8.224   4.156  1.1551 -1.2635 -1.0820
21397SOL     OW75844   2.053   3.567   1.621  0.0236 -0.0543 -0.3748
21397SOL    HW175845   2.152   3.579   1.617 -0.0582  0.7928 -0.0277
21397SOL    HW275846   2.014   3.634   1.685 -0.8555  0.1698 -1.1317
21398SOL     OW75847   2.559   0.622   1.490  0.1555  0.5161  0.7172
21398SOL    HW175848   2.626   0.693   1.510 -0.2794  1.2554 -0.4091
21398SOL    HW275849   2.467   0.661   1.487 -0.1875 -0.2508  0.9498
21399SOL     OW75850   6.886   8.898   4.963 -0.2387  0.6452  0.2683
21399SOL    HW175851   6.888   8.997   4.975 -2.4234  0.8137 -0.5639
21399SOL    HW275852   6.822   8.858   5.029  1.6727 -0.3981  1.5657
21400SOL     OW75853   4.062   1.162   5.183  0.0025 -0.3077 -0.4661
21400SOL    HW175854   4.095   1.142   5.275 -0.8259 -0.8214 -0.2808
21400SOL    HW275855   4.005   1.087   5.150 -1.9563  1.0737 -0.3170
21401SOL     OW75856   5.918   1.707   0.649 -0.3810  0.3463  0.5672
21401SOL    HW175857   5.890   1.768   0.724 -0.6070  0.4628  0.3881
21401SOL    HW275858   5.994   1.748   0.599  0.2627 -0.0670  1.1867
21402SOL     OW75859   2.055   9.297   3.508  0.1899 -0.2359  0.9395
21402SOL    HW175860   2.002   9.372   3.469  2.6285  1.3402  0.5382
21402SOL    HW275861   2.060   9.307   3.607  0.5148  0.1530  0.8865
21403SOL     OW75862   0.976   5.979   0.946  0.2190  0.3534  0.0489
21403SOL    HW175863   0.895   6.027   0.980  0.0489 -0.1955  0.4263
21403SOL    HW275864   1.053   6.043   0.943  0.1616  0.4745  1.1893
21404SOL     OW75865   8.282   6.512   5.550 -0.1398  0.0944  0.0048
21404SOL    HW175866   8.347   6.464   5.491 -1.2468 -0.9902 -0.3691
21404SOL    HW275867   8.325   6.533   5.638  0.7979 -0.3664 -0.3411
21405SOL     OW75868   8.598   8.597   6.530 -0.1470 -0.1469  0.0069
21405SOL    HW175869   8.538   8.570   6.606  0.7395 -1.7908  0.1446
21405SOL    HW275870   8.687   8.553   6.541  0.6163  1.1224 -0.9811
21406SOL     OW75871   9.269   2.851   4.353  0.0838  0.2946  0.0004
21406SOL    HW175872   9.222   2.939   4.343  1.9894  1.3771  0.2752
21406SOL    HW275873   9.335   2.857   4.428 -1.7990 -2.2955  1.9405
21407SOL     OW75874   0.948   2.790   5.058  1.0910 -0.5182  0.3149
21407SOL    HW175875   0.966   2.880   5.019  1.0324 -0.4165  0.5257
21407SOL    HW275876   0.857   2.759   5.032  1.0163 -0.4097  0.4507
21408SOL     OW75877   4.068   4.226   6.044 -0.1094 -0.3161  0.1074
21408SOL    HW175878   3.997   4.296   6.049  0.8895  0.8256 -1.1901
21408SOL    HW275879   4.028   4.136   6.064 -1.0988  0.7671  3.2687
21409SOL     OW75880   7.476   9.344   8.085 -0.0225  0.3970 -0.3132
21409SOL    HW175881   7.449   9.316   7.992 -0.1379  2.9574 -1.0986
21409SOL    HW275882   7.428   9.287   8.152 -1.4285 -0.2414 -1.8135
21410SOL     OW75883   0.886   3.810   1.224 -0.6028 -0.6388  0.1438
21410SOL    HW175884   0.889   3.766   1.314 -0.1450 -2.8769 -0.9056
21410SOL    HW275885   0.968   3.785   1.173  0.1332  2.3159 -0.1508
21411SOL     OW75886   5.380   7.438   4.811  0.0834  0.7130 -0.0243
21411SOL    HW175887   5.302   7.497   4.830 -0.7932  0.1288 -1.6921
21411SOL    HW275888   5.448   7.447   4.884 -1.9810  0.4782  1.9652
21412SOL     OW75889   5.722   8.893   3.343  0.0530 -0.5921  0.2867
21412SOL    HW175890   5.698   8.935   3.255 -2.9067 -0.8621  0.9248
21412SOL    HW275891   5.801   8.941   3.381 -1.3064  2.3946 -0.4842
21413SOL     OW75892   2.358   0.144   1.318 -0.0343 -0.4504  0.4490
21413SOL    HW175893   2.424   0.170   1.248  2.6027  0.3252  3.1335
21413SOL    HW275894   2.339   0.046   1.311  2.0626 -0.8573  0.1722
21414SOL     OW75895   9.709   5.333   3.054  0.1000 -0.0185 -0.3868
21414SOL    HW175896   9.785   5.303   2.996  1.5966 -0.4785  1.7420
21414SOL    HW275897   9.634   5.268   3.047  0.3183 -0.1401 -1.6998
21415SOL     OW75898   9.278   4.168   6.437  0.1915 -0.1894  0.7437
21415SOL    HW175899   9.190   4.120   6.430  0.3369 -0.3124 -0.3421
21415SOL    HW275900   9.298   4.212   6.350  1.0587  0.1176  1.0973
21416SOL     OW75901   8.696   5.233   7.462  0.1307  0.4220  0.2986
21416SOL    HW175902   8.733   5.322   7.491 -1.5941  1.1762  0.2894
21416SOL    HW275903   8.680   5.176   7.542  0.2999  0.5063  0.3923
21417SOL     OW75904   8.471   7.503   2.235 -0.4261 -0.2595  0.8055
21417SOL    HW175905   8.416   7.576   2.276 -0.6859 -0.2242  0.3912
21417SOL    HW275906   8.412   7.428   2.208 -0.2621 -0.2495  0.4185
21418SOL     OW75907   4.883   1.695   5.406 -0.4648  0.4475  0.1192
21418SOL    HW175908   4.934   1.623   5.358 -1.7045  0.6095 -1.4826
21418SOL    HW275909   4.891   1.681   5.505 -1.7535 -2.7024 -0.1559
21419SOL     OW75910   9.687   7.829   5.043 -0.6014  0.2366  0.0319
21419SOL    HW175911   9.774   7.814   5.089 -0.5148 -1.0358 -0.5226
21419SOL    HW275912   9.631   7.893   5.096  0.1716  0.1001  1.0156
21420SOL     OW75913   1.653   2.245   6.193 -0.0076  0.3961  0.3875
21420SOL    HW175914   1.633   2.149   6.209 -0.5231  0.2910 -0.8145
21420SOL    HW275915   1.586   2.302   6.240  1.1256  0.2207  2.2765
21421SOL     OW75916   6.597   7.954   4.629  1.0205 -0.0363  0.3648
21421SOL    HW175917   6.660   7.944   4.707  1.5344 -0.7753 -0.1438
21421SOL    HW275918   6.607   7.876   4.568 -1.5826 -1.0242  1.1212
21422SOL     OW75919   1.226   5.754   1.935  0.2980 -0.6497 -0.1888
21422SOL    HW175920   1.237   5.779   1.839 -1.5400 -0.2450 -0.3218
21422SOL    HW275921   1.154   5.685   1.944  0.6472 -0.8914  0.8638
21423SOL     OW75922   4.456   4.423   5.151  0.7781 -0.3163  0.4500
21423SOL    HW175923   4.479   4.506   5.100 -1.1542 -0.2767 -0.4196
21423SOL    HW275924   4.447   4.445   5.248 -3.1642  1.2856 -0.1948
21424SOL     OW75925   8.128   2.658   4.278  0.1517  0.1552 -0.0667
21424SOL    HW175926   8.106   2.644   4.374 -0.6544 -0.3578 -0.3172
21424SOL    HW275927   8.097   2.749   4.249 -2.9992 -1.0540 -0.7637
21425SOL     OW75928   1.298   4.705   5.831  0.3492  0.0541  0.3953
21425SOL    HW175929   1.232   4.780   5.820 -0.1907 -0.3448  0.8780
21425SOL    HW275930   1.258   4.634   5.889  0.8020 -0.6779 -0.1814
21426SOL     OW75931   3.352   3.162   1.343 -0.5209  0.3090 -0.6567
21426SOL    HW175932   3.288   3.087   1.327  0.2755 -0.4549 -0.3013
21426SOL    HW275933   3.365   3.214   1.258 -1.1178  0.0875 -0.8855
21427SOL     OW75934   7.894   0.749   2.293  0.1469  0.7883 -0.2882
21427SOL    HW175935   7.804   0.706   2.281 -1.3791  3.1165  2.1703
21427SOL    HW275936   7.887   0.846   2.269  1.9869  1.0090  0.0681
21428SOL     OW75937   8.743   9.486   3.403 -0.6099 -0.4650  0.4630
21428SOL    HW175938   8.824   9.435   3.372  0.4805  1.5449 -0.0800
21428SOL    HW275939   8.731   9.471   3.501  1.6712  0.8414  0.9814
21429SOL     OW75940   3.612   0.033   3.600  0.6444 -0.3223 -0.1323
21429SOL    HW175941   3.522   0.042   3.642  0.3121 -0.2383 -0.8612
21429SOL    HW275942   3.634  -0.063   3.586  1.6119 -0.4768  2.0514
21430SOL     OW75943   9.458   8.970   3.410 -0.0122 -0.0099 -0.1931
21430SOL    HW175944   9.491   8.880   3.379 -0.6300 -0.4696  0.4910
21430SOL    HW275945   9.535   9.034   3.411  0.5364 -0.6538 -0.2130
21431SOL     OW75946   3.440   3.704  10.021 -0.2727  0.7040 -0.3076
21431SOL    HW175947   3.530   3.742  10.000  1.1500 -1.5080  1.5406
21431SOL    HW275948   3.387   3.770  10.075  0.7922  1.4369 -0.1603
21432SOL     OW75949   8.553   6.968   8.275 -0.0765  0.1611 -0.1359
21432SOL    HW175950   8.504   6.907   8.338 -1.3074 -1.3741 -2.5308
21432SOL    HW275951   8.517   6.956   8.182  1.7760  2.3304 -1.1657
21433SOL     OW75952   1.343   9.191   6.471  0.3049  0.7670  0.1570
21433SOL    HW175953   1.267   9.220   6.529  1.2175  0.5810  1.4614
21433SOL    HW275954   1.385   9.109   6.510  0.8580  0.5695 -0.8390
21434SOL     OW75955   4.801   9.641   7.291 -0.4501 -0.0194  0.3282
21434SOL    HW175956   4.882   9.592   7.322 -0.1336 -0.4129 -1.0762
21434SOL    HW275957   4.800   9.732   7.331 -0.4117 -0.7380  2.0038
21435SOL     OW75958   8.229   5.015   5.534  0.0647  0.2584  0.0020
21435SOL    HW175959   8.205   4.923   5.565  0.4648  0.5178  1.1353
21435SOL    HW275960   8.146   5.069   5.523 -0.1119  0.0450  0.2660
21436SOL     OW75961   8.371   0.983   1.945 -0.4460  0.2730  0.4454
21436SOL    HW175962   8.333   1.057   2.000 -1.0768 -0.4320  0.9715
21436SOL    HW275963   8.452   0.945   1.991 -1.1923 -0.5608  1.0694
21437SOL     OW75964   1.894   9.345   1.581 -0.0779  0.4267 -0.2528
21437SOL    HW175965   1.889   9.396   1.667 -1.2415 -0.0668 -0.0150
21437SOL    HW275966   1.944   9.260   1.597 -1.0817 -0.0942  0.1600
21438SOL     OW75967   0.122   3.566   0.922 -0.2966 -0.0141  0.2610
21438SOL    HW175968   0.044   3.591   0.979 -0.3827  0.2866  0.0161
21438SOL    HW275969   0.117   3.469   0.899 -0.3616 -0.0949  0.6082
21439SOL     OW75970   8.054   8.946   4.115 -0.1913  0.4398 -0.5246
21439SOL    HW175971   8.136   8.938   4.172  0.3585  0.0712 -1.3611
21439SOL    HW275972   7.989   9.009   4.158  0.9548  1.5066 -0.3433
21440SOL     OW75973   3.698   7.671   6.481 -0.2268 -0.1943  0.8307
21440SOL    HW175974   3.627   7.687   6.413 -0.5511  0.4550  1.3174
21440SOL    HW275975   3.761   7.601   6.447 -1.1674 -0.8691  0.4606
21441SOL     OW75976   6.834   7.051   7.980  0.4759  0.5368 -0.4079
21441SOL    HW175977   6.793   7.006   7.901 -2.8769 -0.6706  1.8815
21441SOL    HW275978   6.920   7.006   8.005  1.2932  0.6162 -3.0102
21442SOL     OW75979   0.049   4.462   5.442  0.0329 -0.3462  0.4902
21442SOL    HW175980   0.136   4.489   5.400 -0.3020  1.0797  0.7104
21442SOL    HW275981   0.055   4.366   5.469  0.5660 -1.0523 -1.9852
21443SOL     OW75982   0.192   6.486   0.835  0.0546  0.0175  0.1617
21443SOL    HW175983   0.225   6.516   0.745  1.4391 -1.0505  0.2988
21443SOL    HW275984   0.177   6.388   0.834 -1.2412  0.1988  0.7140
21444SOL     OW75985   0.412   9.849   0.394 -0.5219  0.0393  0.2654
21444SOL    HW175986   0.368   9.786   0.458 -0.5679 -0.0502  0.1464
21444SOL    HW275987   0.368   9.939   0.400 -0.1749  0.1741  0.7386
21445SOL     OW75988   0.489   4.563   0.452  0.4059 -0.0372  0.7948
21445SOL    HW175989   0.518   4.505   0.377  2.4422  2.0632 -0.1200
21445SOL    HW275990   0.417   4.517   0.505 -1.1668 -1.4661 -2.4900
21446SOL     OW75991   8.101   6.183   1.585 -0.4080  0.3299  0.4638
21446SOL    HW175992   8.066   6.270   1.621 -0.9388  0.6278 -0.7201
21446SOL    HW275993   8.024   6.121   1.568 -0.0840 -0.1377  0.6957
21447SOL     OW75994   7.930   7.442   3.423 -0.2263  0.2585 -0.1974
21447SOL    HW175995   7.914   7.426   3.520  1.5786  3.3971  0.7178
21447SOL    HW275996   7.855   7.497   3.385 -0.3847 -0.0378 -0.3159
21448SOL     OW75997   1.993   6.673   1.245 -0.1120  0.2739  0.2452
21448SOL    HW175998   2.072   6.628   1.288  0.2479  1.6158  1.0324
21448SOL    HW275999   1.929   6.604   1.213  0.3609 -0.8138  1.5663
21449SOL     OW76000   2.675   7.911   3.070 -0.3671  0.0313 -0.2155
21449SOL    HW176001   2.657   7.814   3.057 -0.8404 -0.0982  1.2904
21449SOL    HW276002   2.605   7.965   3.022  0.9582 -0.3177 -2.6059
21450SOL     OW76003   1.738   8.822   3.594  0.4921 -0.2273 -0.0476
21450SOL    HW176004   1.728   8.736   3.543  0.6968  1.0735 -2.3325
21450SOL    HW276005   1.835   8.844   3.602  0.4025  0.1730 -0.0851
21451SOL     OW76006   4.510   4.255   4.914 -0.2670  0.1503 -0.1232
21451SOL    HW176007   4.411   4.249   4.920 -0.2915 -0.7988 -1.2889
21451SOL    HW276008   4.548   4.165   4.892  0.9134  0.3521  1.0125
21452SOL     OW76009   8.099   8.021   7.987 -0.2113  0.1242  1.1028
21452SOL    HW176010   8.038   8.011   8.066 -1.8808 -0.5915 -0.2377
21452SOL    HW276011   8.160   7.943   7.981 -1.3117 -0.7268  0.6915
21453SOL     OW76012   5.551   2.767   0.674  0.3898  0.3868  0.4524
21453SOL    HW176013   5.506   2.791   0.588  1.0834  1.0203  0.2597
21453SOL    HW276014   5.616   2.693   0.659 -0.0569 -0.0352  0.5876
21454SOL     OW76015   1.794   1.028   7.067  0.3928 -0.0161  0.6476
21454SOL    HW176016   1.751   1.111   7.104 -1.4311 -0.9604  0.7490
21454SOL    HW276017   1.830   0.974   7.142 -1.1894 -0.7852  0.8823
21455SOL     OW76018   4.063   9.083   5.264  0.5505 -0.2777  0.4707
21455SOL    HW176019   4.159   9.100   5.239  0.4154 -0.8208 -0.4419
21455SOL    HW276020   4.054   9.084   5.363  1.1738  1.5788  0.5305
21456SOL     OW76021   3.103   7.111   2.805  0.0435  0.2757  0.0810
21456SOL    HW176022   3.058   7.029   2.839 -2.3829  1.4494 -0.2420
21456SOL    HW276023   3.074   7.190   2.859  2.7101  0.9110  0.6982
21457SOL     OW76024   8.969   9.755   2.509 -0.1853  0.3063  0.1927
21457SOL    HW176025   9.061   9.726   2.481  0.2545  0.7297  1.1643
21457SOL    HW276026   8.976   9.842   2.558 -0.9650 -0.3142  1.4141
21458SOL     OW76027   0.100   3.749   0.709  0.3791  0.0608 -0.1070
21458SOL    HW176028   0.112   3.668   0.766  0.4592  0.2588  0.1577
21458SOL    HW276029   0.016   3.796   0.734  0.2224 -0.0527 -0.4043
21459SOL     OW76030   0.972   3.789   3.774 -0.3992  0.1416  1.0115
21459SOL    HW176031   0.952   3.789   3.676 -0.3818  0.4751  1.0077
21459SOL    HW276032   0.892   3.757   3.825 -0.4931  0.2113  0.9070
21460SOL     OW76033   8.010   1.172   3.883 -0.3064  0.0889 -0.1779
21460SOL    HW176034   7.936   1.113   3.913  1.6304 -3.8720 -2.7597
21460SOL    HW276035   8.093   1.151   3.935 -0.1911  2.3404  0.5965
21461SOL     OW76036   3.538   6.513   5.575  0.5402 -0.3677  0.3211
21461SOL    HW176037   3.588   6.598   5.593  1.3696 -0.8779  0.4017
21461SOL    HW276038   3.449   6.536   5.534  0.8910  0.5229  0.0356
21462SOL     OW76039   5.694   0.685   4.502 -0.7720 -0.9400  0.2226
21462SOL    HW176040   5.655   0.604   4.545 -0.0591 -0.0408  2.6700
21462SOL    HW276041   5.793   0.679   4.502 -0.7020  0.0781  0.7677
21463SOL     OW76042   0.695   1.770   6.253  0.6674  0.2071  0.3036
21463SOL    HW176043   0.699   1.808   6.345  0.1810 -0.7225  0.7077
21463SOL    HW276044   0.767   1.702   6.241  1.3136  0.9907 -0.3055
21464SOL     OW76045   2.095   1.188   4.813 -0.1824 -0.2870 -0.2968
21464SOL    HW176046   2.044   1.150   4.736 -0.5752 -1.6492  0.6069
21464SOL    HW276047   2.047   1.269   4.848 -0.3435 -0.0433 -1.0785
21465SOL     OW76048   5.690   0.149   1.912  0.3529 -0.4255  0.0042
21465SOL    HW176049   5.712   0.051   1.913  0.6025 -0.3725 -0.3189
21465SOL    HW276050   5.705   0.186   1.820 -2.7638 -0.7748 -0.7075
21466SOL     OW76051   0.082   5.514   6.164 -0.9805  0.2455  0.2281
21466SOL    HW176052   0.081   5.414   6.167  1.3996  0.1982  0.5083
21466SOL    HW276053   0.024   5.550   6.237 -2.4340 -0.9238 -0.3353
21467SOL     OW76054   1.984   5.208   4.373  0.5431  0.2231  0.1411
21467SOL    HW176055   1.902   5.198   4.428 -0.9486  1.6106 -1.7563
21467SOL    HW276056   2.017   5.302   4.379  0.9422  0.1324 -0.5340
21468SOL     OW76057   4.317   0.210   2.814 -0.1222  0.5882  0.2431
21468SOL    HW176058   4.322   0.251   2.723  1.2856  2.5082  1.1404
21468SOL    HW276059   4.399   0.234   2.866 -0.7451 -0.7614  1.9109
21469SOL     OW76060   4.370   4.031   5.836  0.1177 -0.0660  0.2705
21469SOL    HW176061   4.340   4.033   5.931 -2.5079 -0.6870 -0.4915
21469SOL    HW276062   4.311   4.090   5.781  0.9610 -0.5182 -1.1583
21470SOL     OW76063   5.447   4.333   2.408  0.0756  0.1695  0.3705
21470SOL    HW176064   5.434   4.427   2.440 -0.7050  0.5582 -1.0237
21470SOL    HW276065   5.543   4.307   2.418  0.2048  0.9393  1.2095
21471SOL     OW76066   8.692   2.910   1.400 -0.3445 -0.1085  0.2583
21471SOL    HW176067   8.651   2.819   1.411  0.3767 -0.5643 -0.6792
21471SOL    HW276068   8.713   2.925   1.303  0.5987  0.5889  0.5661
21472SOL     OW76069   8.316   2.472   4.264  0.3752 -0.6240 -0.2846
21472SOL    HW176070   8.254   2.408   4.310  0.0829 -0.3010 -0.2246
21472SOL    HW276071   8.264   2.553   4.235  0.7965 -0.2967 -0.1227
21473SOL     OW76072   3.281   9.173   6.857  0.3009  0.3012  0.1830
21473SOL    HW176073   3.337   9.244   6.815  0.3714  0.7104  0.9677
21473SOL    HW276074   3.211   9.143   6.792  2.0279 -0.9021 -1.1859
21474SOL     OW76075   6.994   7.630   2.534 -0.4661  0.8941  0.2218
21474SOL    HW176076   6.951   7.541   2.525 -1.5517  1.4195  0.0520
21474SOL    HW276077   7.022   7.664   2.444  0.2439  0.5916  0.3218
21475SOL     OW76078   8.257   1.371   7.234 -0.3389  0.5518 -0.1560
21475SOL    HW176079   8.174   1.424   7.216 -2.2327 -1.9059  1.0096
21475SOL    HW276080   8.265   1.354   7.332 -0.1050 -1.7961 -0.5562
21476SOL     OW76081   4.508   6.567   3.021  0.1596  0.4989  0.2874
21476SOL    HW176082   4.552   6.607   3.101 -0.8615 -0.5207  1.3731
21476SOL    HW276083   4.481   6.640   2.958  2.7545  1.1781 -0.0903
21477SOL     OW76084   9.308   5.676   1.299  0.2127  0.3778 -0.0187
21477SOL    HW176085   9.324   5.585   1.260 -0.9822  0.3677 -0.4839
21477SOL    HW276086   9.229   5.719   1.255 -0.6336  0.7173  1.7796
21478SOL     OW76087   0.167   0.425   0.875  0.0382  0.1860  0.0129
21478SOL    HW176088   0.266   0.444   0.875  0.1109 -0.1977  0.7783
21478SOL    HW276089   0.129   0.442   0.966 -0.5088 -0.1521 -0.1475
21479SOL     OW76090   4.740   6.640   0.860  0.1761  0.4223 -0.1632
21479SOL    HW176091   4.812   6.596   0.807  0.4850  0.3279  0.3332
21479SOL    HW276092   4.697   6.712   0.804 -0.6814 -0.8343 -1.1630
21480SOL     OW76093   6.653   8.422   6.309  0.1153 -0.1690 -0.3100
21480SOL    HW176094   6.576   8.468   6.264 -0.1723 -0.7877 -0.4556
21480SOL    HW276095   6.623   8.384   6.396  0.8473  1.6220  0.7384
21481SOL     OW76096   5.702   5.767   0.966 -0.1879  0.0239 -0.7172
21481SOL    HW176097   5.799   5.747   0.966  0.0700  1.2127 -1.3750
21481SOL    HW276098   5.671   5.786   0.872 -0.9115  0.2372 -0.4427
21482SOL     OW76099   2.081   6.942   1.611  0.0479 -0.3542 -0.2763
21482SOL    HW176100   2.166   6.907   1.652 -1.1492  0.0098  2.6761
21482SOL    HW276101   2.020   6.865   1.591 -0.8574 -0.3408  2.2131
21483SOL     OW76102   3.389   7.519   2.261  0.0304  0.5215 -0.1280
21483SOL    HW176103   3.487   7.535   2.272 -0.0723 -0.5928  2.8141
21483SOL    HW276104   3.374   7.426   2.229 -0.0763  0.8194 -0.9665
21484SOL     OW76105   4.193   0.135   6.445  0.3094  0.0075  0.0286
21484SOL    HW176106   4.164   0.139   6.540  2.4762 -1.6368  0.7755
21484SOL    HW276107   4.122   0.088   6.391  0.2477 -1.4053  1.3112
21485SOL     OW76108   8.315   8.483   1.973  0.0645  0.6355  0.2140
21485SOL    HW176109   8.363   8.570   1.958 -0.8626  1.4122  1.6521
21485SOL    HW276110   8.303   8.436   1.886  0.3192  2.0894 -0.6168
21486SOL     OW76111   1.855   8.958   6.026  0.0440 -0.8209 -0.4744
21486SOL    HW176112   1.823   8.876   5.979  0.3921 -0.9354 -0.5154
21486SOL    HW276113   1.809   9.038   5.990 -1.8900 -1.2211  1.0262
21487SOL     OW76114   4.321   5.162   1.034 -0.1045  0.1516  0.0497
21487SOL    HW176115   4.267   5.244   1.013  0.0089  0.0444 -0.6745
21487SOL    HW276116   4.260   5.088   1.063 -0.2966  0.2028 -0.2181
21488SOL     OW76117   8.343   4.792   5.942 -0.7152  0.3643  0.2990
21488SOL    HW176118   8.308   4.826   6.029 -1.5524 -0.3768  0.2499
21488SOL    HW276119   8.369   4.870   5.884  0.8821  0.8464  1.6118
21489SOL     OW76120   2.439   4.079   1.084 -0.6936  1.0171  0.0836
21489SOL    HW176121   2.350   4.088   1.128 -0.1736  0.0338  1.3785
21489SOL    HW276122   2.510   4.107   1.148  0.1329 -1.1788  0.1853
21490SOL     OW76123   2.096   1.854   5.994  0.1078 -0.2679 -0.2322
21490SOL    HW176124   2.082   1.760   6.026  1.4994 -0.2315  0.5234
21490SOL    HW276125   2.115   1.853   5.896 -1.8895 -0.5787 -0.6458
21491SOL     OW76126   3.866   6.670   2.941  0.5234  0.3512  0.2517
21491SOL    HW176127   3.878   6.625   3.030  2.3366  0.4036  0.0439
21491SOL    HW276128   3.772   6.655   2.909  0.6732 -2.1135  0.8360
21492SOL     OW76129   2.175   9.436   3.011 -0.7203 -0.2615  0.6476
21492SOL    HW176130   2.078   9.408   3.011 -0.6503 -0.5118  1.3710
21492SOL    HW276131   2.229   9.370   2.959 -1.2402  0.9737 -1.5432
21493SOL     OW76132   9.398   8.174   7.745  0.2277  0.5536 -0.1729
21493SOL    HW176133   9.429   8.202   7.836 -3.0213  1.1757  0.7875
21493SOL    HW276134   9.320   8.113   7.753  0.7682 -0.5106 -2.5524
21494SOL     OW76135   7.891   1.504   5.293  0.3923  0.0334 -0.1925
21494SOL    HW176136   7.878   1.493   5.195  0.5311  0.5273 -0.2631
21494SOL    HW276137   7.988   1.509   5.314  0.3833 -0.7018  0.0375
21495SOL     OW76138   6.411   5.774   0.937 -0.5076 -0.0127 -0.4492
21495SOL    HW176139   6.455   5.734   1.017  0.1225  1.2989 -0.1288
21495SOL    HW276140   6.478   5.828   0.885 -1.7719  2.2742  0.2142
21496SOL     OW76141   0.478   5.549   5.811 -0.0866 -0.4935  0.1059
21496SOL    HW176142   0.406   5.618   5.821 -0.7206 -1.0220 -0.6762
21496SOL    HW276143   0.467   5.503   5.723  1.1898 -0.6125  0.0021
21497SOL     OW76144   6.247   7.541   4.823  0.4856 -0.2388  0.6977
21497SOL    HW176145   6.256   7.640   4.837  1.8189 -0.1971 -0.3732
21497SOL    HW276146   6.337   7.501   4.807 -0.2299 -1.3520 -0.6600
21498SOL     OW76147   1.306   9.219   5.321  0.2092  0.4081  0.1519
21498SOL    HW176148   1.254   9.219   5.407 -2.0616 -0.0022 -1.1851
21498SOL    HW276149   1.316   9.125   5.288  1.1101  0.5611 -0.0159
21499SOL     OW76150   3.692   7.192   4.808 -0.2261 -0.1727 -0.6203
21499SOL    HW176151   3.626   7.143   4.865  0.2843  2.5597  2.4365
21499SOL    HW276152   3.642   7.250   4.742 -0.8410 -0.2378 -0.2168
21500SOL     OW76153   1.049   3.272   7.739 -0.4811  0.3229 -0.6645
21500SOL    HW176154   0.951   3.261   7.722 -0.6712 -0.2231  0.7605
21500SOL    HW276155   1.100   3.242   7.658 -1.5258  2.0082 -1.9867
21501SOL     OW76156   3.131   0.145   7.210 -1.0421  0.0227  0.6801
21501SOL    HW176157   3.048   0.179   7.166 -2.0156  0.0513  2.4644
21501SOL    HW276158   3.165   0.213   7.275  0.3645 -0.0092 -0.0042
21502SOL     OW76159   8.469   9.814   0.956 -0.2548  0.1091  0.4329
21502SOL    HW176160   8.464   9.757   1.038  1.1875  0.6691  0.9307
21502SOL    HW276161   8.510   9.902   0.980  0.6425  0.0907 -0.9695
21503SOL     OW76162   8.756   2.776   3.919 -0.1350 -0.8380 -0.7595
21503SOL    HW176163   8.814   2.732   3.988 -0.8905 -2.1429 -0.9352
21503SOL    HW276164   8.811   2.794   3.837  0.3070 -1.0130 -0.5067
21504SOL     OW76165   7.900   8.290   5.081  0.4128  0.2099 -0.0030
21504SOL    HW176166   7.812   8.328   5.051  0.2709 -0.1973 -0.1008
21504SOL    HW276167   7.952   8.361   5.128  0.7237  0.9188 -1.3940
21505SOL     OW76168   2.068   4.028   3.737  0.3020 -0.3220  0.5627
21505SOL    HW176169   1.979   4.029   3.692  0.0467  1.3911  1.0756
21505SOL    HW276170   2.072   4.101   3.805  2.7404  0.8022 -0.7103
21506SOL     OW76171   0.692   9.669   4.698  0.1783 -0.4896 -0.2581
21506SOL    HW176172   0.621   9.638   4.634 -1.6610  1.2887  0.8856
21506SOL    HW276173   0.654   9.674   4.790  2.4330 -1.6731  0.7926
21507SOL     OW76174   2.586   5.549   6.225  0.1413  0.3347 -0.2993
21507SOL    HW176175   2.574   5.531   6.323  0.1871  0.2435 -0.3097
21507SOL    HW276176   2.552   5.640   6.203 -0.5860  0.0489 -0.3441
21508SOL     OW76177   9.687   0.549   6.142  0.5128 -0.1485  0.3804
21508SOL    HW176178   9.662   0.514   6.052 -1.1260  0.6486  0.5171
21508SOL    HW276179   9.699   0.648   6.136  3.1229 -0.4256  0.4443
21509SOL     OW76180   8.480   7.764   0.622 -0.2917  0.0909  0.2995
21509SOL    HW176181   8.422   7.827   0.571  2.1230  2.3626  0.2641
21509SOL    HW276182   8.514   7.693   0.561  1.3436  1.9118 -0.9792
21510SOL     OW76183   4.118   7.291   0.699  0.4320 -0.2696  0.8173
21510SOL    HW176184   4.085   7.346   0.776  1.3949  2.0038 -0.3705
21510SOL    HW276185   4.203   7.245   0.726  0.5980  0.2615  1.2175
21511SOL     OW76186   3.286   9.711   4.288  0.0009  0.3706  0.0825
21511SOL    HW176187   3.352   9.728   4.216  0.3018 -0.5335  0.1401
21511SOL    HW276188   3.193   9.714   4.250  0.0526  1.7505  0.0270
21512SOL     OW76189   1.634   2.147   3.565 -0.7650 -0.0982 -0.6243
21512SOL    HW176190   1.607   2.149   3.469 -0.6186 -3.6435 -0.7988
21512SOL    HW276191   1.595   2.066   3.610  1.2382  0.1214  1.6502
21513SOL     OW76192   0.810   6.238   6.111  0.2815 -0.3314  0.1945
21513SOL    HW176193   0.865   6.179   6.171 -0.9455 -0.4253  1.2367
21513SOL    HW276194   0.836   6.333   6.125 -0.8228 -0.2445  1.7562
21514SOL     OW76195   3.330   0.733   4.195 -0.0913  0.3366  0.3033
21514SOL    HW176196   3.305   0.671   4.122  0.2010 -0.1944  0.6531
21514SOL    HW276197   3.248   0.772   4.236 -0.3195 -0.6732  0.8209
21515SOL     OW76198   0.154   7.566   4.964  0.2752  0.2947  0.0154
21515SOL    HW176199   0.103   7.600   5.043  0.4387  1.0931 -0.2252
21515SOL    HW276200   0.132   7.620   4.883  0.4883 -0.2054 -0.3793
21516SOL     OW76201   2.238   9.261   0.269 -0.6925 -0.2753 -0.0508
21516SOL    HW176202   2.190   9.341   0.235 -0.7889 -0.7872 -1.1665
21516SOL    HW276203   2.331   9.260   0.233 -0.9188 -1.0334 -0.6342
21517SOL     OW76204   3.435   6.889   3.148  0.2862  0.3844  0.1105
21517SOL    HW176205   3.388   6.974   3.171  0.2246 -0.0110  1.4856
21517SOL    HW276206   3.499   6.865   3.221  1.6440  0.2046 -1.1155
21518SOL     OW76207   9.043   2.128   5.564  0.1866  0.2760  0.5532
21518SOL    HW176208   9.113   2.167   5.503  0.4811 -1.1616 -0.0374
21518SOL    HW276209   9.030   2.190   5.642 -0.7097  2.5038 -1.2926
21519SOL     OW76210   3.541   2.029   2.253  0.2613  0.0020  0.5705
21519SOL    HW176211   3.633   1.994   2.273  0.0640 -1.5778 -1.1575
21519SOL    HW276212   3.473   1.965   2.288 -0.1476  0.1249  0.0044
21520SOL     OW76213   2.071   8.188   2.197  0.3098  0.0058  0.0965
21520SOL    HW176214   2.061   8.133   2.113  0.1828  0.4443 -0.1776
21520SOL    HW276215   2.007   8.154   2.266  1.5522 -1.4015  0.5759
21521SOL     OW76216   3.541   9.931   5.172  0.5607  0.2807  0.4552
21521SOL    HW176217   3.493   9.931   5.259  0.1761  1.0314  0.2486
21521SOL    HW276218   3.512   9.852   5.117 -2.3819  2.1198 -0.7156
21522SOL     OW76219   9.329   4.399   4.480 -0.0176 -0.1574 -0.1507
21522SOL    HW176220   9.307   4.362   4.570  0.5832  0.0854  0.0981
21522SOL    HW276221   9.428   4.405   4.469 -0.0951  0.7613 -0.4432
21523SOL     OW76222   0.195   1.683   7.875 -0.0041 -0.2094 -0.6275
21523SOL    HW176223   0.181   1.666   7.972  1.9486 -1.5726 -0.5671
21523SOL    HW276224   0.227   1.777   7.861 -2.0103  0.5754 -0.1453
21524SOL     OW76225   8.504   6.254   7.829  0.3659  0.3291 -0.1457
21524SOL    HW176226   8.596   6.233   7.796 -1.3394 -1.9774 -3.7518
21524SOL    HW276227   8.458   6.168   7.853 -1.4473  1.3116 -0.0694
21525SOL     OW76228   0.495   6.552   3.018  0.2964  0.0838 -0.2911
21525SOL    HW176229   0.491   6.464   2.970  0.0558 -0.2894  0.4067
21525SOL    HW276230   0.414   6.561   3.077  1.2203 -0.0152  1.0100
21526SOL     OW76231   8.994   9.323   1.000 -0.0092  0.1039 -0.2790
21526SOL    HW176232   9.068   9.309   1.065  1.1781  0.7142 -1.4509
21526SOL    HW276233   8.979   9.239   0.947 -0.6844 -0.2600  0.4859
21527SOL     OW76234   1.627   5.114   1.031 -0.3020  0.3517 -0.8690
21527SOL    HW176235   1.723   5.088   1.032 -0.2642  0.4935 -0.9717
21527SOL    HW276236   1.572   5.039   1.069 -0.1928  0.1183 -1.1776
21528SOL     OW76237   3.305   3.605   2.543 -0.0738  0.1251  0.1669
21528SOL    HW176238   3.294   3.611   2.642  0.5978 -0.6305  0.2940
21528SOL    HW276239   3.221   3.570   2.502 -0.4572  0.7239  0.4372
21529SOL     OW76240   1.137   3.274   7.105  0.1132  0.2371 -0.3441
21529SOL    HW176241   1.180   3.188   7.134  0.6768 -0.0056 -1.8514
21529SOL    HW276242   1.207   3.337   7.073 -0.4666  0.5974 -0.9102
21530SOL     OW76243   0.261   0.671   1.698 -0.0764 -0.2316  0.5814
21530SOL    HW176244   0.238   0.594   1.758 -0.7487 -1.1414 -0.8214
21530SOL    HW276245   0.282   0.637   1.606 -1.6295  1.3474 -0.4010
21531SOL     OW76246   5.321   0.187   3.202 -0.4321 -0.1478  1.0667
21531SOL    HW176247   5.337   0.167   3.298 -0.0340 -2.2080  0.6113
21531SOL    HW276248   5.404   0.166   3.149 -0.8654  0.2838  0.1964
21532SOL     OW76249   0.862   3.669   0.279 -0.2852 -0.3917  0.3790
21532SOL    HW176250   0.950   3.715   0.294  0.3814 -1.7154  0.6011
21532SOL    HW276251   0.806   3.677   0.362 -0.2574  0.2063  0.3399
21533SOL     OW76252   0.501   8.905   4.662  0.2443 -0.1586 -0.2332
21533SOL    HW176253   0.526   9.001   4.677  1.6083 -0.7343  1.3780
21533SOL    HW276254   0.470   8.893   4.568  0.2208  1.8344 -0.5020
21534SOL     OW76255   4.729   8.696   8.059  0.1084 -0.7154 -0.0165
21534SOL    HW176256   4.729   8.795   8.048  1.8030 -0.7817 -0.7090
21534SOL    HW276257   4.735   8.673   8.157  0.0911 -0.1354  0.1194
21535SOL     OW76258   0.974   6.442   4.672  0.3436  0.3276 -0.0708
21535SOL    HW176259   0.983   6.514   4.603 -0.2708  1.2092  0.7656
21535SOL    HW276260   1.057   6.439   4.728 -0.0481  1.0844  0.5579
21536SOL     OW76261   5.178   7.150   2.721 -0.0485  0.2202 -0.1692
21536SOL    HW176262   5.230   7.196   2.648 -0.1652  0.8233  0.1254
21536SOL    HW276263   5.227   7.160   2.808 -0.3185  0.2111 -0.0164
21537SOL     OW76264   7.017   0.656   7.370 -0.4275 -0.0637 -0.3032
21537SOL    HW176265   6.974   0.619   7.453  0.2931  1.2225  0.6521
21537SOL    HW276266   7.101   0.605   7.351 -0.3261 -0.0254  0.0432
21538SOL     OW76267   3.111   7.032   6.708 -0.1870 -0.3613 -0.0687
21538SOL    HW176268   3.171   6.955   6.686  0.5528  0.1918 -0.0089
21538SOL    HW276269   3.029   6.998   6.755  0.2817 -1.0766  0.2434
21539SOL     OW76270   3.183   6.546   3.804 -0.4289 -0.0572 -0.3608
21539SOL    HW176271   3.151   6.640   3.814  0.0370 -0.0092  0.7833
21539SOL    HW276272   3.162   6.495   3.888  0.4460 -0.6350 -0.4920
21540SOL     OW76273   7.089   6.178   3.069 -0.0766  0.0141  0.2967
21540SOL    HW176274   7.108   6.274   3.088  0.1873 -0.1799  1.0308
21540SOL    HW276275   7.154   6.144   3.000  0.2464  0.1886  0.5155
21541SOL     OW76276   4.611   6.704   3.273  0.4035  0.0465 -0.1711
21541SOL    HW176277   4.568   6.790   3.245 -1.7111 -0.7211  0.6879
21541SOL    HW276278   4.583   6.681   3.366  2.0317 -0.9010  0.0997
21542SOL     OW76279   8.143   7.061   6.921 -0.1391 -0.6925  0.3384
21542SOL    HW176280   8.185   7.053   7.012  0.6096 -0.2508  0.0318
21542SOL    HW276281   8.181   6.991   6.861  1.5871  0.9131 -0.4834
21543SOL     OW76282   0.935   9.516   3.228  0.8776 -0.3324 -0.5301
21543SOL    HW176283   0.905   9.581   3.298 -0.4581  0.5805 -1.9475
21543SOL    HW276284   1.009   9.557   3.175  0.3780 -0.1701 -1.0980
21544SOL     OW76285   3.548   2.136   6.496 -0.3515 -0.3419  0.4124
21544SOL    HW176286   3.487   2.060   6.473  0.1873 -0.1611 -1.6399
21544SOL    HW276287   3.578   2.182   6.413  0.8431  0.9492  1.5306
21545SOL     OW76288   6.320   3.315   0.335  0.5381  0.5414  0.2523
21545SOL    HW176289   6.364   3.233   0.298 -0.0092  1.8876 -3.6197
21545SOL    HW276290   6.349   3.394   0.281 -0.7120  2.5787  2.5028
21546SOL     OW76291   4.608   9.146   2.428 -0.0210 -0.3391  0.1829
21546SOL    HW176292   4.654   9.149   2.517  0.5678 -0.9664 -0.0880
21546SOL    HW276293   4.510   9.132   2.441  0.0475 -0.3020  0.7381
21547SOL     OW76294   1.034   5.348   2.947 -0.2133 -0.0702  0.7818
21547SOL    HW176295   0.984   5.294   3.015 -1.0607  0.0671  0.2679
21547SOL    HW276296   1.018   5.311   2.856  1.4108 -0.6249  0.7038
21548SOL     OW76297   3.720   0.203   2.001 -0.5154  0.1913  0.0872
21548SOL    HW176298   3.631   0.163   1.978 -0.5902  1.5829 -2.1604
21548SOL    HW276299   3.762   0.149   2.075 -2.8255 -0.9776  0.6067
21549SOL     OW76300   0.678   1.061   6.888  0.6142  0.4354 -0.3590
21549SOL    HW176301   0.621   1.018   6.958  1.1226 -0.1140 -0.2771
21549SOL    HW276302   0.653   1.157   6.880  0.6570  0.5479  0.6939
21550SOL     OW76303   9.770   1.427   5.824 -0.1761  0.3498 -0.3803
21550SOL    HW176304   9.749   1.514   5.778 -0.1358  0.8536  0.5471
21550SOL    HW276305   9.855   1.436   5.874 -0.6133  0.0399  0.4234
21551SOL     OW76306   2.798   0.163   0.967 -0.2089 -0.0814 -0.1475
21551SOL    HW176307   2.717   0.186   0.914 -1.0796 -1.7762  0.4021
21551SOL    HW276308   2.773   0.099   1.040  1.4532  0.1137  0.6179
21552SOL     OW76309   3.499   2.297   2.212 -0.3402 -0.4161  0.1890
21552SOL    HW176310   3.510   2.308   2.113 -1.3731  0.8737  0.1918
21552SOL    HW276311   3.526   2.205   2.239 -0.8403 -1.0563 -1.4198
21553SOL     OW76312   9.193   0.005   4.099  0.1956  0.0893 -0.4616
21553SOL    HW176313   9.130   0.083   4.094  1.0350  0.7908 -0.2189
21553SOL    HW276314   9.149  -0.069   4.150  0.3215  1.3219  1.5092
21554SOL     OW76315   2.211   4.688   2.131  0.1445  0.4929  0.5190
21554SOL    HW176316   2.127   4.735   2.158  0.4162  0.8308  0.7985
21554SOL    HW276317   2.275   4.755   2.093 -0.5528 -0.1101 -1.7536
21555SOL     OW76318   9.983   7.351   0.495 -0.6465 -0.4437  0.1877
21555SOL    HW176319  10.026   7.275   0.543 -1.4818 -0.9440  0.1494
21555SOL    HW276320   9.922   7.316   0.424 -1.9069  0.2163  0.9239
21556SOL     OW76321   8.545   7.610   3.715 -0.1967 -0.3117  0.4669
21556SOL    HW176322   8.566   7.569   3.626 -0.4221  0.8234 -0.1223
21556SOL    HW276323   8.530   7.538   3.783 -0.9418 -1.1975 -0.6271
21557SOL     OW76324   9.265   0.409   7.241 -1.2019  0.5046  0.0670
21557SOL    HW176325   9.278   0.375   7.334 -1.8085 -0.5968 -0.2357
21557SOL    HW276326   9.210   0.343   7.189  1.6959 -0.3721 -1.9748
21558SOL     OW76327   1.156   7.703   4.588 -0.3232  0.0387 -0.1891
21558SOL    HW176328   1.160   7.603   4.585 -0.3134 -0.0178  1.1627
21558SOL    HW276329   1.220   7.736   4.657 -2.7897  0.7684  1.8245
21559SOL     OW76330   2.245   7.239   4.618  0.9830 -0.1445  0.3356
21559SOL    HW176331   2.235   7.337   4.636 -2.2811 -0.0443 -1.6333
21559SOL    HW276332   2.260   7.225   4.520 -2.1728 -1.7728  0.0224
21560SOL     OW76333   0.887   8.000   0.702  0.1080 -0.4975  0.8075
21560SOL    HW176334   0.904   7.977   0.606 -1.4068  1.3664  0.0607
21560SOL    HW276335   0.960   7.961   0.759  0.8383 -1.9166 -1.0472
21561SOL     OW76336   2.737   4.249   1.650  0.0122 -0.0943  0.3936
21561SOL    HW176337   2.770   4.273   1.742  2.1189  1.4011 -0.6799
21561SOL    HW276338   2.720   4.333   1.599  0.6339 -0.9030 -1.1711
21562SOL     OW76339   9.144   2.640   2.613 -0.4753  0.0548  0.0240
21562SOL    HW176340   9.202   2.701   2.667  1.1691 -0.6365 -0.9211
21562SOL    HW276341   9.185   2.549   2.610 -1.4913 -0.3847 -0.8699
21563SOL     OW76342   0.746   1.619   0.814 -0.4162 -0.0414 -0.3940
21563SOL    HW176343   0.679   1.664   0.873 -0.5148 -2.2519  1.2275
21563SOL    HW276344   0.703   1.599   0.725 -1.7199 -0.8226  0.3919
21564SOL     OW76345   4.147   4.571   2.852 -0.0798 -0.0665 -0.2471
21564SOL    HW176346   4.060   4.536   2.889 -0.3380  0.1242 -0.6713
21564SOL    HW276347   4.156   4.667   2.877  0.5148 -0.3636  0.7094
21565SOL     OW76348   7.311   5.706   3.341  0.3039  0.3474 -0.0793
21565SOL    HW176349   7.385   5.639   3.336  0.4722  0.5789 -0.6667
21565SOL    HW276350   7.322   5.760   3.425  0.4676 -0.0049  0.1298
21566SOL     OW76351   6.547   0.400   5.620  0.0307 -1.2507  0.0549
21566SOL    HW176352   6.600   0.403   5.534  1.1708 -0.1439  0.7763
21566SOL    HW276353   6.455   0.434   5.603  0.8178  0.7761 -0.3749
21567SOL     OW76354   1.606   1.980   3.871  0.0014 -0.1199 -0.5127
21567SOL    HW176355   1.698   2.001   3.840 -0.1545  0.1347 -0.8116
21567SOL    HW276356   1.561   2.064   3.902  0.0565 -0.3259  0.1379
21568SOL     OW76357   5.516   2.141   1.289 -0.3237 -0.2168 -0.8025
21568SOL    HW176358   5.459   2.207   1.338  0.3830  2.0830 -2.9528
21568SOL    HW276359   5.554   2.075   1.354 -0.4730  1.9275  1.5525
21569SOL     OW76360   0.463   4.712   6.150 -0.3677 -0.1540 -0.1521
21569SOL    HW176361   0.510   4.628   6.179 -0.6346 -0.8817 -1.7935
21569SOL    HW276362   0.394   4.736   6.218 -1.0680 -1.9075 -0.2379
21570SOL     OW76363   2.903   0.833   2.236  0.5606  0.3221 -0.0564
21570SOL    HW176364   2.868   0.863   2.147 -2.1638  1.7839  1.4192
21570SOL    HW276365   2.826   0.813   2.296  2.3685 -0.1627  2.1426
21571SOL     OW76366   5.991   0.119   2.206  0.4993  0.1108 -0.4432
21571SOL    HW176367   5.979   0.168   2.293 -2.1363 -1.4731  0.1202
21571SOL    HW276368   5.960   0.177   2.131  0.3425  0.5015 -0.0824
21572SOL     OW76369   1.064   4.073   9.754 -0.9350  0.2688 -0.3106
21572SOL    HW176370   1.108   3.996   9.801 -2.0885 -0.4559 -0.3960
21572SOL    HW276371   0.988   4.040   9.699 -2.5687  1.6559  1.0355
21573SOL     OW76372   6.948   4.142   1.484 -0.8837  0.3445 -0.5091
21573SOL    HW176373   7.018   4.079   1.448 -0.3499  0.7389 -0.1763
21573SOL    HW276374   6.862   4.093   1.495 -0.1970 -0.6127  0.7419
21574SOL     OW76375   5.392   6.954   3.238 -0.2517 -0.6382  0.3659
21574SOL    HW176376   5.453   7.033   3.236 -0.3759 -0.5262  0.9510
21574SOL    HW276377   5.378   6.925   3.333 -1.6742 -0.2335  0.2893
21575SOL     OW76378   9.259   4.971   7.657 -0.1522  0.4197 -0.4971
21575SOL    HW176379   9.297   5.033   7.726 -0.0651  1.5606 -1.5602
21575SOL    HW276380   9.300   4.991   7.568 -1.2299 -0.1743 -1.1367
21576SOL     OW76381   7.619   4.147   0.216  0.3762  0.2344 -0.3585
21576SOL    HW176382   7.540   4.087   0.208  1.4748 -1.1374 -1.0591
21576SOL    HW276383   7.631   4.175   0.311 -0.2491 -0.4812 -0.0692
21577SOL     OW76384   7.060   3.507   1.380 -0.5662  0.1719  0.0210
21577SOL    HW176385   7.147   3.467   1.348 -0.0647  2.0147 -1.0271
21577SOL    HW276386   6.984   3.464   1.331 -0.0937  0.0614 -0.6220
21578SOL     OW76387   0.573   1.824   0.957 -0.2813  0.0593 -0.0718
21578SOL    HW176388   0.531   1.759   1.021  2.4914 -0.7451  1.0044
21578SOL    HW276389   0.573   1.915   0.996 -0.7969  0.0309  0.0033
21579SOL     OW76390   1.323   4.013   0.021  0.0708 -0.2288  0.2839
21579SOL    HW176391   1.273   3.952  -0.040 -0.4797 -0.0441  0.5530
21579SOL    HW276392   1.422   3.997   0.010 -0.0575 -0.8848  0.0660
21580SOL     OW76393   8.972   2.561   1.402 -0.6908  0.5227  0.0294
21580SOL    HW176394   8.994   2.596   1.493 -1.8850  1.8161 -0.1648
21580SOL    HW276395   9.013   2.620   1.333 -2.7140  1.5730 -0.3046
21581SOL     OW76396   7.268   2.698   0.482  0.5357 -0.0101 -0.3984
21581SOL    HW176397   7.330   2.733   0.553  0.8495 -0.5998 -0.3743
21581SOL    HW276398   7.309   2.617   0.439 -0.5518 -0.8734  0.1456
21582SOL     OW76399   7.708   8.248   8.423 -0.4041 -0.0077  0.2582
21582SOL    HW176400   7.750   8.288   8.341  1.5183 -0.7479  0.8658
21582SOL    HW276401   7.736   8.301   8.503 -1.3266 -0.0073  0.5857
21583SOL     OW76402   7.741   3.058   0.641  0.0716  0.0599 -0.7750
21583SOL    HW176403   7.710   3.151   0.664  1.1325 -0.1539  1.6412
21583SOL    HW276404   7.837   3.061   0.612  0.5019 -0.4321  0.5682
21584SOL     OW76405   2.291   8.347   7.734  0.6511 -0.1372  0.0809
21584SOL    HW176406   2.358   8.339   7.660  1.2570  0.4676  0.5659
21584SOL    HW276407   2.335   8.324   7.821  0.5360  1.4053  0.5526
21585SOL     OW76408   7.683   6.755   2.710  0.1196 -0.3299 -0.7778
21585SOL    HW176409   7.594   6.732   2.672 -1.1275 -1.4026  2.6118
21585SOL    HW276410   7.683   6.850   2.742 -0.1986 -0.6761  0.2616
21586SOL     OW76411   9.818   4.878   0.853 -0.6360 -0.0236  0.4591
21586SOL    HW176412   9.837   4.975   0.842 -1.3031  0.0932  0.2902
21586SOL    HW276413   9.863   4.826   0.780  1.3109 -0.0473  1.6539
21587SOL     OW76414   4.882   5.690   1.177  0.2432  0.2496  0.1862
21587SOL    HW176415   4.856   5.603   1.136 -1.0902  0.0392  1.4368
21587SOL    HW276416   4.881   5.762   1.106 -1.6100 -0.1848 -0.2457
21588SOL     OW76417   5.552   8.280   4.822 -0.4073 -0.6046 -0.6195
21588SOL    HW176418   5.568   8.221   4.901  0.4146 -0.7446 -0.8794
21588SOL    HW276419   5.640   8.317   4.790 -0.9059  0.6477 -0.5416
21589SOL     OW76420   9.816   9.977   3.097  0.2945 -0.0810 -0.1534
21589SOL    HW176421   9.760   9.916   3.040  2.7814 -3.6289  1.0831
21589SOL    HW276422   9.803   9.954   3.193  0.6931  1.9050  0.3944
21590SOL     OW76423   0.066   6.568   1.585  0.1398 -0.0505  0.0450
21590SOL    HW176424   0.115   6.629   1.647  0.6814 -0.5409  0.1049
21590SOL    HW276425   0.117   6.560   1.500 -0.3491  0.2236 -0.2752
21591SOL     OW76426   1.607   5.332   2.335 -0.1553 -0.1459 -0.5034
21591SOL    HW176427   1.545   5.410   2.345  2.0715  1.5617  0.5114
21591SOL    HW276428   1.575   5.273   2.261 -2.3471  1.2713 -0.7333
21592SOL     OW76429   3.051   8.444   4.012 -0.2502  0.2128 -0.4005
21592SOL    HW176430   2.953   8.425   4.014 -0.3523  0.7459 -0.1833
21592SOL    HW276431   3.091   8.408   3.928 -0.5971 -0.1813 -0.3955
21593SOL     OW76432   7.869   8.453   5.661 -0.3317 -0.4305 -0.4125
21593SOL    HW176433   7.840   8.362   5.691  1.2375 -0.8569 -0.1355
21593SOL    HW276434   7.969   8.460   5.668 -0.5672  1.9187  1.2617
21594SOL     OW76435   1.170   7.447   7.532 -0.8023  0.2057  0.2386
21594SOL    HW176436   1.166   7.501   7.616  0.2200  1.4028 -0.4654
21594SOL    HW276437   1.255   7.395   7.529  0.0228  1.6025 -0.9089
21595SOL     OW76438   4.299   6.230   3.954  0.6066 -0.0505  0.4793
21595SOL    HW176439   4.231   6.163   3.927  0.9215 -0.2468  0.1673
21595SOL    HW276440   4.267   6.280   4.035  1.2649 -1.9861  1.9650
21596SOL     OW76441   7.191   6.957   6.181 -0.2233 -0.3318  0.0766
21596SOL    HW176442   7.116   6.919   6.236  0.5999 -0.0877  1.3931
21596SOL    HW276443   7.170   7.052   6.157 -1.4965 -1.0573 -1.7505
21597SOL     OW76444   1.343   4.742   7.494 -0.2641  0.2707  0.2814
21597SOL    HW176445   1.385   4.697   7.415 -0.4195  2.1198 -0.8654
21597SOL    HW276446   1.302   4.672   7.553  1.4687 -1.2846 -0.2844
21598SOL     OW76447   5.764   9.920   4.891  0.5074  0.3582  0.4562
21598SOL    HW176448   5.845   9.873   4.856 -0.6254 -1.0105 -0.4119
21598SOL    HW276449   5.683   9.888   4.841 -0.8101  0.3154  2.5572
21599SOL     OW76450   2.382   0.627   0.354 -0.7717 -0.2899  0.3076
21599SOL    HW176451   2.319   0.687   0.303 -0.0972  1.4269  1.4425
21599SOL    HW276452   2.461   0.680   0.383 -0.4789 -1.5956  1.9347
21600SOL     OW76453   7.983   2.090   2.819 -0.1152 -0.3141 -0.3670
21600SOL    HW176454   7.963   2.007   2.870 -0.8291 -0.4727 -0.9005
21600SOL    HW276455   7.943   2.169   2.865 -0.9605 -0.4849 -0.7945
21601SOL     OW76456   4.447   3.670   1.403 -0.1582  0.5622 -0.4389
21601SOL    HW176457   4.465   3.763   1.373  3.2807  0.1725  0.1777
21601SOL    HW276458   4.434   3.669   1.502  0.3239  0.3463 -0.3741
21602SOL     OW76459   7.659   3.342   5.585  0.4675  0.3887 -0.2669
21602SOL    HW176460   7.588   3.392   5.536  0.7688  0.4251 -0.6631
21602SOL    HW276461   7.618   3.291   5.661 -0.1734 -0.7293 -1.3551
21603SOL     OW76462   9.773   1.395   1.288 -0.1860 -0.2975  0.1657
21603SOL    HW176463   9.755   1.436   1.199 -0.6631 -0.0475  0.3795
21603SOL    HW276464   9.852   1.440   1.330 -1.8659  1.7469  1.2492
21604SOL     OW76465   2.726   0.534   4.503 -0.3078 -0.1666 -0.6366
21604SOL    HW176466   2.626   0.529   4.495 -0.3266  0.0446 -0.5517
21604SOL    HW276467   2.768   0.474   4.435 -0.4577  2.3845 -3.1082
21605SOL     OW76468   3.872   9.786   7.778  0.4320 -0.1330 -0.0241
21605SOL    HW176469   3.793   9.843   7.798 -0.4104 -1.6401  1.1102
21605SOL    HW276470   3.914   9.755   7.863 -0.4373 -2.9412 -0.5595
21606SOL     OW76471   9.828   2.782   2.101 -0.1959 -0.1074 -0.5930
21606SOL    HW176472   9.894   2.849   2.134 -2.7647  3.0338 -1.4900
21606SOL    HW276473   9.767   2.756   2.176 -0.4286  0.1208 -0.7008
21607SOL     OW76474   1.981   3.119   0.022 -0.0533 -0.3867 -0.1700
21607SOL    HW176475   1.909   3.069  -0.026 -0.0698 -0.8687  0.3490
21607SOL    HW276476   2.035   3.055   0.077  0.2110  0.0997  0.1405
21608SOL     OW76477   9.311   1.628   1.212 -0.3474  0.3938  0.0977
21608SOL    HW176478   9.260   1.692   1.156  1.3608  0.3284 -1.5507
21608SOL    HW276479   9.357   1.677   1.286  0.9001  1.0552 -1.1166
21609SOL     OW76480   0.147   7.663   2.732  0.2046  0.2452 -0.3843
21609SOL    HW176481   0.134   7.596   2.659  1.7665 -1.5752  0.9395
21609SOL    HW276482   0.235   7.710   2.718  2.0269 -2.2869  1.8824
21610SOL     OW76483   1.204   5.302   1.162 -0.3737  0.3528  0.2584
21610SOL    HW176484   1.106   5.317   1.167  0.0004  2.4972  1.9412
21610SOL    HW276485   1.225   5.209   1.191 -1.7867  0.3249  1.2319
21611SOL     OW76486   1.623   8.331   0.915  0.8186  0.1546 -0.5540
21611SOL    HW176487   1.548   8.344   0.850 -0.1001  3.1252  1.0034
21611SOL    HW276488   1.605   8.250   0.971  0.3204 -0.9113 -2.2185
21612SOL     OW76489   7.542   0.809   0.929 -0.5421  0.2274 -0.0746
21612SOL    HW176490   7.565   0.803   1.026 -0.5779  2.1406  0.0614
21612SOL    HW276491   7.584   0.890   0.888  0.2172 -1.0353 -1.8845
21613SOL     OW76492   0.136   5.141   2.375  0.1690 -0.1966 -0.1748
21613SOL    HW176493   0.076   5.100   2.306  0.6695  0.0348 -0.7431
21613SOL    HW276494   0.086   5.212   2.424 -1.5479 -3.0974  2.5201
21614SOL     OW76495   4.153   2.234   6.350  0.6623  0.5045 -0.1810
21614SOL    HW176496   4.113   2.277   6.269 -1.2206  2.2605  1.6204
21614SOL    HW276497   4.089   2.166   6.386  1.2701  0.0892  0.1151
21615SOL     OW76498   7.519   2.698   1.327  0.0838 -0.0677  0.2907
21615SOL    HW176499   7.596   2.653   1.282  0.1936  1.7470 -1.4499
21615SOL    HW276500   7.553   2.766   1.392 -0.0316  0.6742 -0.4157
21616SOL     OW76501   4.338   4.728   3.887 -0.0284 -0.5867  0.0636
21616SOL    HW176502   4.364   4.817   3.926  0.8738 -0.8585  0.0928
21616SOL    HW276503   4.420   4.675   3.869 -0.4834 -0.8221 -1.3816
21617SOL     OW76504   7.227   4.274   0.531  0.5156 -0.0424  0.2759
21617SOL    HW176505   7.258   4.291   0.437 -0.7016 -1.5901 -0.4450
21617SOL    HW276506   7.127   4.276   0.534  0.4740 -1.8539  1.1267
21618SOL     OW76507   3.577   4.394   4.375 -0.0564  0.0343  0.5948
21618SOL    HW176508   3.582   4.482   4.421  2.7293 -0.0316  0.4547
21618SOL    HW276509   3.584   4.320   4.442 -0.1183 -0.0899  0.4682
21619SOL     OW76510   8.470   7.463   1.869  0.4543 -0.0293 -0.3279
21619SOL    HW176511   8.566   7.463   1.839  0.2701  2.1935 -1.0207
21619SOL    HW276512   8.447   7.373   1.905  2.6009 -0.8176 -0.8054
21620SOL     OW76513   3.171   5.947   1.528 -0.0813 -0.3337 -0.7381
21620SOL    HW176514   3.136   6.017   1.590  2.2412 -0.6629  1.0288
21620SOL    HW276515   3.138   5.964   1.435 -3.3329  0.3911  0.4849
21621SOL     OW76516   7.031   9.387   1.839  0.1428 -0.5883  0.1454
21621SOL    HW176517   7.084   9.471   1.849 -0.2486 -0.2643 -0.4911
21621SOL    HW276518   7.062   9.337   1.758 -0.1471 -0.6817  0.0929
21622SOL     OW76519   0.047   9.671   5.585 -0.1006  0.3604  0.1202
21622SOL    HW176520   0.079   9.713   5.671 -0.9899  1.0920  0.1016
21622SOL    HW276521  -0.045   9.634   5.598  0.2477 -0.6080 -0.1817
21623SOL     OW76522   1.237   8.552   7.089  0.2214  0.4514  0.3374
21623SOL    HW176523   1.264   8.492   7.014 -0.7731  0.5824 -0.1260
21623SOL    HW276524   1.213   8.496   7.169 -1.8946  0.1693 -0.4797
21624SOL     OW76525   0.113   1.213   4.869 -0.1301 -0.4675  0.0480
21624SOL    HW176526   0.162   1.268   4.801 -0.1391 -1.2485 -0.5989
21624SOL    HW276527   0.175   1.189   4.943  0.0470 -0.1373  0.0095
21625SOL     OW76528   8.065   2.050   5.600  0.2013  0.3091 -0.6769
21625SOL    HW176529   8.083   1.953   5.583  1.6502  0.6873 -1.3882
21625SOL    HW276530   8.122   2.081   5.676 -0.0528  0.6783 -0.6390
21626SOL     OW76531   7.977   3.038   5.087  0.2764 -0.2914  0.3796
21626SOL    HW176532   8.065   2.992   5.081  0.1513 -0.9108  2.5740
21626SOL    HW276533   7.908   2.987   5.035  0.9493 -0.4515 -0.3551
21627SOL     OW76534   9.803   7.851   6.649  0.0410  0.2365  0.8796
21627SOL    HW176535   9.827   7.872   6.743  0.0662  0.3200  0.8547
21627SOL    HW276536   9.811   7.753   6.633 -1.0374  0.0826  1.2672
21628SOL     OW76537   3.707   3.723   4.074  0.0132  0.4759  0.6923
21628SOL    HW176538   3.800   3.751   4.100  0.0948  0.7668  0.0912
21628SOL    HW276539   3.706   3.697   3.977  0.0150 -1.8729  1.2894
21629SOL     OW76540   7.848   8.178   5.354 -0.0738 -0.2020 -0.4148
21629SOL    HW176541   7.872   8.131   5.269 -0.8399 -0.1790 -0.6460
21629SOL    HW276542   7.757   8.218   5.345  0.9019  2.0451 -0.5281
21630SOL     OW76543   9.615   4.555   2.015 -0.2561 -0.2960  0.2085
21630SOL    HW176544   9.667   4.506   2.084  0.1135  1.1529  0.9695
21630SOL    HW276545   9.669   4.632   1.980 -0.4054 -1.0416 -1.7512
21631SOL     OW76546   8.229   5.432   3.728 -0.3737  0.0257  0.3709
21631SOL    HW176547   8.235   5.333   3.740 -3.8374 -0.2394  0.4120
21631SOL    HW276548   8.156   5.469   3.786  1.4429  2.7404  1.0139
21632SOL     OW76549   0.945   7.380   2.714  1.2776 -0.2495 -0.6586
21632SOL    HW176550   0.927   7.286   2.744  2.0006  0.3336  1.6883
21632SOL    HW276551   1.044   7.397   2.716  1.1618  0.5373 -1.2334
21633SOL     OW76552   1.965   2.813   3.235 -0.3715 -0.3254 -0.0733
21633SOL    HW176553   2.061   2.829   3.210 -0.5053  1.0347  0.2587
21633SOL    HW276554   1.936   2.724   3.199  0.4248  0.1148 -1.8589
21634SOL     OW76555   0.224   1.953   6.159 -0.6051  0.1636  0.8036
21634SOL    HW176556   0.294   2.020   6.132  0.0804 -1.2163 -0.9563
21634SOL    HW276557   0.261   1.894   6.230 -0.1993 -0.1375  0.3482
21635SOL     OW76558   1.309   4.772   5.534 -0.2146  0.8819 -0.3493
21635SOL    HW176559   1.289   4.733   5.624 -0.9042  0.6603 -0.5912
21635SOL    HW276560   1.365   4.708   5.482 -2.0321 -0.1745 -1.0476
21636SOL     OW76561   4.394   2.325   6.445  0.5702 -0.2996  0.0172
21636SOL    HW176562   4.401   2.241   6.500 -0.3056 -0.1400  0.3830
21636SOL    HW276563   4.315   2.319   6.385  1.4079 -0.3783 -1.0888
21637SOL     OW76564   2.287   6.686   4.906 -0.0788 -0.4352 -0.3812
21637SOL    HW176565   2.232   6.760   4.944  1.3306 -1.0934  3.1196
21637SOL    HW276566   2.384   6.710   4.913  0.2673 -1.0655 -2.6162
21638SOL     OW76567   1.908   1.803   3.984  0.0707  0.2426 -0.1974
21638SOL    HW176568   1.834   1.747   4.021  1.2071 -0.5090  0.9878
21638SOL    HW276569   1.996   1.761   4.007  0.8505  0.6676 -2.3299
21639SOL     OW76570   9.979   1.480   3.864 -0.2117 -0.5541 -0.3772
21639SOL    HW176571   9.931   1.438   3.787 -0.9822 -0.5555  0.1014
21639SOL    HW276572   9.957   1.577   3.868  2.5395  0.2065 -2.2289
21640SOL     OW76573   3.440   2.978   9.930  0.0209  0.1318 -0.4102
21640SOL    HW176574   3.519   2.918   9.936  0.0359 -0.0178 -1.9716
21640SOL    HW276575   3.470   3.073   9.937  0.8211  0.2809 -4.3865
21641SOL     OW76576   3.559   3.717   2.774 -0.2832 -0.4337 -0.3380
21641SOL    HW176577   3.601   3.663   2.702 -0.5632  0.1039 -0.9111
21641SOL    HW276578   3.530   3.805   2.737  0.7800  0.3891  0.7256
21642SOL     OW76579   9.439   2.791   4.934 -0.0845 -0.4822  0.2592
21642SOL    HW176580   9.368   2.828   4.874  1.4163  0.3152 -1.0744
21642SOL    HW276581   9.463   2.860   5.003 -1.3806 -1.1743  1.4293
21643SOL     OW76582   1.161   3.209   7.514 -0.6611  0.0866  0.3046
21643SOL    HW176583   1.120   3.123   7.484 -0.4193  0.1086 -0.0980
21643SOL    HW276584   1.256   3.214   7.482 -0.8289  0.7271 -0.1154
21644SOL     OW76585   6.894   3.394   3.397 -0.2368  0.0992  0.3023
21644SOL    HW176586   6.858   3.477   3.356  0.1099  1.8312  3.3349
21644SOL    HW276587   6.992   3.404   3.413 -0.0905 -1.0958  0.2370
21645SOL     OW76588   8.017   9.252   1.524  0.3110  0.1371 -0.5324
21645SOL    HW176589   7.936   9.215   1.479  0.6374 -2.1191  0.6689
21645SOL    HW276590   7.992   9.333   1.576 -1.2129 -0.6686  0.0020
21646SOL     OW76591   3.435   7.334   0.298  0.7520 -0.0736 -0.3098
21646SOL    HW176592   3.516   7.337   0.240  1.5190 -1.0048  0.6935
21646SOL    HW276593   3.374   7.262   0.266  1.8027 -1.4969  0.8263
21647SOL     OW76594   4.703   8.475   4.973 -0.7458 -0.0392  0.0482
21647SOL    HW176595   4.626   8.420   4.939 -0.9013 -0.4204  1.0128
21647SOL    HW276596   4.750   8.426   5.046 -0.3344  0.7240  0.3016
21648SOL     OW76597   3.889   9.368   1.918  0.2309 -0.4872  0.4422
21648SOL    HW176598   3.805   9.420   1.902  0.2295 -0.2194  1.3347
21648SOL    HW276599   3.932   9.348   1.830 -0.3692  0.0189  0.0259
21649SOL     OW76600   3.103   3.951   2.397  0.2125 -0.5459  0.3736
21649SOL    HW176601   3.068   4.027   2.452 -1.3878 -2.0730  1.5450
21649SOL    HW276602   3.195   3.928   2.426  0.1992  0.0938  0.9295
21650SOL     OW76603   0.517   0.641   5.465  0.0912  0.5439  0.6449
21650SOL    HW176604   0.511   0.545   5.438 -0.3359  0.5515  0.7042
21650SOL    HW276605   0.563   0.648   5.553 -0.2807  0.3537  0.8568
21651SOL     OW76606   1.952   1.048   6.179  0.2011  0.1405 -0.3567
21651SOL    HW176607   2.030   1.092   6.224 -1.5536  2.2235  0.7327
21651SOL    HW276608   1.916   1.108   6.107 -0.6590 -0.5953 -0.5517
21652SOL     OW76609   6.686   7.631   2.312 -0.9252  0.4581 -0.0516
21652SOL    HW176610   6.715   7.712   2.261  0.5276  0.0077  0.0144
21652SOL    HW276611   6.685   7.653   2.410 -0.1140  0.2948  0.0013
21653SOL     OW76612   1.350   5.431   4.416  0.0196  0.2520 -0.1820
21653SOL    HW176613   1.334   5.528   4.432  0.6058  0.4702 -0.9045
21653SOL    HW276614   1.263   5.385   4.400 -0.2630  0.6513  0.2077
21654SOL     OW76615   9.552   5.838   4.426 -0.5313  0.1886 -0.4912
21654SOL    HW176616   9.515   5.926   4.458 -0.6109  1.1929 -3.2149
21654SOL    HW276617   9.642   5.824   4.465 -0.6930  1.2948  0.3182
21655SOL     OW76618   0.817   0.537   4.433 -0.2294  0.0177  0.0049
21655SOL    HW176619   0.797   0.560   4.528 -2.2348  0.8186 -0.5814
21655SOL    HW276620   0.735   0.501   4.389  0.1867  1.3007 -1.8992
21656SOL     OW76621   7.734   6.059   6.015  0.3066  0.5897 -0.3984
21656SOL    HW176622   7.682   6.143   6.030  1.0678  1.1577 -0.9318
21656SOL    HW276623   7.825   6.081   5.980  1.0934 -0.3681  0.9776
21657SOL     OW76624   7.629   6.741   6.363 -0.5326  0.2705  0.4631
21657SOL    HW176625   7.548   6.798   6.348 -1.6351 -1.2401  0.5979
21657SOL    HW276626   7.656   6.748   6.459  0.7536  2.3790 -0.0161
21658SOL     OW76627   0.503   6.434   3.589  0.0197  0.3660 -0.2789
21658SOL    HW176628   0.590   6.464   3.628  1.5705 -1.2097 -2.4074
21658SOL    HW276629   0.432   6.437   3.660  1.9828  0.8267  1.7266
21659SOL     OW76630   4.585   4.494   5.765  0.2240  0.3392  0.5441
21659SOL    HW176631   4.541   4.417   5.718  1.5602 -0.2902  0.2991
21659SOL    HW276632   4.671   4.463   5.805  0.0679  1.3696  1.6826
21660SOL     OW76633   2.832   1.918   1.094 -0.4733  0.1798 -0.3111
21660SOL    HW176634   2.881   1.852   1.038  0.9662  1.3072 -0.4333
21660SOL    HW276635   2.787   1.985   1.034  0.4939  0.9849 -0.1513
21661SOL     OW76636   2.972   3.256   5.560  0.1451 -0.0819  0.5557
21661SOL    HW176637   2.968   3.326   5.631 -1.8990 -2.2057  2.5964
21661SOL    HW276638   3.065   3.220   5.554  0.2206 -0.2858  2.6000
21662SOL     OW76639   8.751   8.618   1.776 -0.1059  0.0241  0.3669
21662SOL    HW176640   8.788   8.568   1.854  0.8253  1.4214  0.8430
21662SOL    HW276641   8.657   8.645   1.796  0.4050  1.1418  1.4152
21663SOL     OW76642   8.120   0.762   6.036  0.3620 -0.2455 -0.6378
21663SOL    HW176643   8.188   0.787   5.967  2.3836  1.3951  1.8348
21663SOL    HW276644   8.074   0.845   6.068 -1.4872 -1.1387 -0.9260
21664SOL     OW76645   6.183   7.379   3.130  0.1663  0.7089  0.4665
21664SOL    HW176646   6.279   7.355   3.124 -0.1710 -0.4722 -0.4485
21664SOL    HW276647   6.174   7.477   3.144  1.4903  0.9196 -0.0647
21665SOL     OW76648   7.024   0.941   0.479 -0.7993  0.1470  0.3722
21665SOL    HW176649   6.993   0.961   0.386 -0.7687  1.7539  0.6923
21665SOL    HW276650   6.961   0.877   0.523 -1.4938  0.3598 -0.3132
21666SOL     OW76651   1.336   2.912   2.633  0.0002 -0.0726  0.0084
21666SOL    HW176652   1.326   2.909   2.533 -0.6543 -1.6476  0.0970
21666SOL    HW276653   1.272   2.979   2.671 -0.5032 -0.2302 -0.5487
21667SOL     OW76654   5.728   9.397   2.240  0.2285 -0.0687 -0.7135
21667SOL    HW176655   5.807   9.340   2.264  1.0629  1.9817  1.6635
21667SOL    HW276656   5.644   9.350   2.267  0.7717 -1.1753 -0.9313
21668SOL     OW76657   6.737   1.596   6.998 -0.6513  0.4334  0.4310
21668SOL    HW176658   6.746   1.517   6.938  0.2237  0.3260  0.6868
21668SOL    HW276659   6.705   1.567   7.088  2.3116 -0.0588  1.4045
21669SOL     OW76660   3.566   9.973   1.246  0.0310  0.2102 -0.2852
21669SOL    HW176661   3.572   9.924   1.333  3.6017 -0.1659 -0.6439
21669SOL    HW276662   3.580  10.071   1.263 -0.5553  0.2948 -0.2925
21670SOL     OW76663   3.162   0.173   6.734  0.2710  0.1037 -0.2670
21670SOL    HW176664   3.122   0.236   6.667 -0.5389 -0.5431 -0.3961
21670SOL    HW276665   3.164   0.081   6.697  0.4722 -0.1360  0.3330
21671SOL     OW76666   6.487   2.321   1.203 -0.1855 -0.2356  0.1158
21671SOL    HW176667   6.551   2.272   1.262  0.2472 -1.8144 -1.6255
21671SOL    HW276668   6.510   2.419   1.203  1.9169 -0.7091 -0.0620
21672SOL     OW76669   1.525   9.217   1.543  0.1072 -0.6068 -0.0648
21672SOL    HW176670   1.533   9.316   1.529  0.7001 -0.5741  0.4734
21672SOL    HW276671   1.435   9.186   1.512 -0.0793  0.0992 -0.2456
21673SOL     OW76672   3.477   9.095   1.472 -0.5335  0.5474 -0.1347
21673SOL    HW176673   3.402   9.035   1.502 -0.2799  0.8183  1.0811
21673SOL    HW276674   3.530   9.124   1.552  1.3575 -0.2737 -1.0798
21674SOL     OW76675   9.384   9.137   4.358  0.3582 -0.1491  0.4940
21674SOL    HW176676   9.339   9.226   4.368  1.9066  0.4885  2.2527
21674SOL    HW276677   9.399   9.117   4.261 -2.2803  0.3156 -0.0395
21675SOL     OW76678   2.289   2.161   5.494  0.0928  0.0645  0.6457
21675SOL    HW176679   2.288   2.187   5.397  1.4359  2.5678  1.2504
21675SOL    HW276680   2.201   2.122   5.519 -1.6392  2.9428 -0.6907
21676SOL     OW76681   9.863   4.982   6.104 -0.1703  0.8237  0.3016
21676SOL    HW176682   9.901   4.891   6.088  1.7906  1.5642  0.6037
21676SOL    HW276683   9.801   5.005   6.029 -0.7409 -0.7857  0.2638
21677SOL     OW76684   9.582   3.772   1.930 -0.1328 -0.0383  0.8565
21677SOL    HW176685   9.656   3.747   1.868 -0.2816 -1.8142  1.3719
21677SOL    HW276686   9.495   3.764   1.882 -0.1302  0.1066  0.8303
21678SOL     OW76687   6.043   8.945   3.376 -0.3548 -0.5078 -0.0254
21678SOL    HW176688   6.021   9.031   3.422  2.1532 -0.4454  1.1043
21678SOL    HW276689   6.067   8.964   3.280 -1.0474 -0.1144 -0.1266
21679SOL     OW76690   8.437   8.791   4.777  0.6566 -0.2335  0.1688
21679SOL    HW176691   8.513   8.856   4.786  0.0485  0.3070  1.5760
21679SOL    HW276692   8.395   8.775   4.866 -0.5429 -0.9519 -0.4946
21680SOL     OW76693   4.647   8.406   0.330 -0.2620 -0.2829 -0.0135
21680SOL    HW176694   4.636   8.405   0.230  2.8807  0.5647 -0.4223
21680SOL    HW276695   4.710   8.333   0.357  2.0407  1.9797  0.8799
21681SOL     OW76696   1.193   4.171   7.427 -0.3962  0.0612  0.0831
21681SOL    HW176697   1.175   4.108   7.502 -0.3183 -2.1488 -1.7043
21681SOL    HW276698   1.291   4.193   7.425 -0.2103 -0.7969 -0.1006
21682SOL     OW76699   7.178   3.825   0.154 -0.5097  0.0808  0.6023
21682SOL    HW176700   7.204   3.736   0.117 -1.2666 -0.3176  1.0309
21682SOL    HW276701   7.078   3.832   0.158 -0.4341  0.1973  2.4085
21683SOL     OW76702   4.714   0.185   4.434  0.1712 -0.2996 -0.7707
21683SOL    HW176703   4.714   0.095   4.478  2.7792  0.6984  1.4029
21683SOL    HW276704   4.804   0.204   4.396  0.2502  2.1740  0.5082
21684SOL     OW76705   8.493   4.169   4.381 -1.0792  0.1414  0.1027
21684SOL    HW176706   8.417   4.158   4.445 -0.3297 -0.7821  0.8460
21684SOL    HW276707   8.462   4.147   4.289 -1.2809 -1.9643  0.6452
21685SOL     OW76708   4.981   0.120   3.769  0.2660  0.0467 -0.8662
21685SOL    HW176709   4.895   0.124   3.820  1.7427  1.1434  1.6308
21685SOL    HW276710   5.009   0.213   3.744  1.7275 -0.1094  0.1163
21686SOL     OW76711   3.061   4.767   0.034 -0.1601 -0.4367 -0.3944
21686SOL    HW176712   2.992   4.732  -0.029 -0.2746 -0.1217 -0.4447
21686SOL    HW276713   3.045   4.864   0.050 -1.0231 -0.8115  1.2512
21687SOL     OW76714   1.012   0.584   2.429 -0.2099  0.3067  0.0492
21687SOL    HW176715   1.084   0.547   2.370  2.5134  3.4433  1.2879
21687SOL    HW276716   0.958   0.651   2.378 -1.6781 -1.3118 -0.5770
21688SOL     OW76717   0.589   3.532   5.377 -0.6009 -0.3628 -0.1394
21688SOL    HW176718   0.653   3.596   5.335  0.1780  1.0878  3.1050
21688SOL    HW276719   0.606   3.440   5.342  2.7716  0.1145  0.0854
21689SOL     OW76720   9.922   3.059   1.817 -0.0117 -0.4694 -0.0580
21689SOL    HW176721   9.973   3.145   1.827  0.6550 -0.8579 -0.0437
21689SOL    HW276722   9.903   3.021   1.907 -1.5305  0.3657 -0.0220
21690SOL     OW76723   8.896   8.888   1.779 -0.1210 -0.1216  0.3311
21690SOL    HW176724   8.838   8.814   1.812  0.1398  0.0176  1.1040
21690SOL    HW276725   8.992   8.859   1.779  0.0597  0.4595  1.3194
21691SOL     OW76726   7.364   9.800   6.032 -0.2379  0.2166 -0.1399
21691SOL    HW176727   7.457   9.771   6.053 -0.2414 -0.0014 -0.4254
21691SOL    HW276728   7.298   9.741   6.080 -0.2727 -1.1558 -1.8348
21692SOL     OW76729   2.902   2.531   3.544  0.4499 -0.5706 -0.0728
21692SOL    HW176730   2.818   2.530   3.598 -1.1015  1.6072 -2.2954
21692SOL    HW276731   2.901   2.454   3.480  0.5291 -1.0143  0.4584
21693SOL     OW76732   4.832   2.570   5.613  0.4178 -0.5029  0.0039
21693SOL    HW176733   4.799   2.656   5.574 -0.5828 -0.1391  1.6328
21693SOL    HW276734   4.926   2.555   5.584 -0.1368 -0.0199 -2.1818
21694SOL     OW76735   1.592   6.099   4.138 -0.2730 -0.3676 -0.5938
21694SOL    HW176736   1.687   6.080   4.164 -0.2229 -0.6239 -0.9627
21694SOL    HW276737   1.549   6.016   4.104  0.1336  0.2772 -2.7706
21695SOL     OW76738   4.925   3.700   6.368 -0.0046  0.2592 -0.3472
21695SOL    HW176739   5.000   3.742   6.420  1.5156 -1.0739 -1.4185
21695SOL    HW276740   4.859   3.660   6.432  0.9881  0.0937  0.5926
21696SOL     OW76741   3.946   5.771  10.005  0.0067 -0.3991  0.6056
21696SOL    HW176742   4.020   5.834   9.981 -0.7085  0.4257  0.5505
21696SOL    HW276743   3.984   5.679  10.019  1.2266  0.2697  1.8268
21697SOL     OW76744   7.301   8.870   3.484  0.3306 -0.3227  0.5811
21697SOL    HW176745   7.311   8.770   3.491  0.2925 -0.1848  2.7970
21697SOL    HW276746   7.259   8.905   3.567  2.2872  1.8071  0.7185
21698SOL     OW76747   0.213   0.897   0.927 -0.1548 -0.5517 -0.3791
21698SOL    HW176748   0.213   0.985   0.880  2.7727 -1.3709 -2.0092
21698SOL    HW276749   0.126   0.850   0.911 -0.3586  0.5023 -2.4927
21699SOL     OW76750   1.086   7.216   2.282 -0.0842 -0.0709  0.2022
21699SOL    HW176751   0.993   7.253   2.275 -0.9210 -2.0898  0.3573
21699SOL    HW276752   1.146   7.284   2.323 -1.2636  1.6493 -0.8577
21700SOL     OW76753   3.473   3.821   1.053  0.0008  0.3596  0.3786
21700SOL    HW176754   3.390   3.775   1.024  0.7564  1.1584 -3.2060
21700SOL    HW276755   3.475   3.914   1.017  2.4482  0.3608  0.4245
21701SOL     OW76756   2.591   6.866   3.074  0.1964 -0.6004  0.0011
21701SOL    HW176757   2.659   6.939   3.083  0.7821 -0.9979 -1.1199
21701SOL    HW276758   2.549   6.870   2.983 -1.7181  0.0029  0.8881
21702SOL     OW76759   8.934   8.203   3.663  0.2637  0.3214  0.0725
21702SOL    HW176760   8.940   8.180   3.566  2.6918 -1.0259  0.4878
21702SOL    HW276761   9.026   8.220   3.699 -0.5404  0.2827  2.2417
21703SOL     OW76762   4.541   5.475   3.876 -0.3628 -0.3597  0.2420
21703SOL    HW176763   4.449   5.508   3.856 -0.3870 -1.5006 -1.6033
21703SOL    HW276764   4.536   5.389   3.927 -0.2906  0.6732  2.0529
21704SOL     OW76765   0.983   9.373   5.532 -0.0012  0.2930 -0.2397
21704SOL    HW176766   1.018   9.464   5.509 -0.1029  1.0415  2.4300
21704SOL    HW276767   1.059   9.309   5.540  0.4774  1.1384  2.1649
21705SOL     OW76768   8.746   2.891   4.636 -0.4600  0.1598  0.6721
21705SOL    HW176769   8.751   2.990   4.622  0.0785  0.4016  2.5164
21705SOL    HW276770   8.777   2.844   4.553  0.9198  1.5341  0.3964
21706SOL     OW76771   2.886   5.775   4.164  0.5780 -0.3716  0.1606
21706SOL    HW176772   2.917   5.869   4.157 -1.3967  0.2172 -1.4432
21706SOL    HW276773   2.852   5.757   4.256  1.8327  0.1799  0.7412
21707SOL     OW76774   0.083   5.500   5.144 -0.2620  0.6957  0.3874
21707SOL    HW176775   0.133   5.474   5.226 -1.9422 -1.6613  0.7269
21707SOL    HW276776  -0.011   5.523   5.168 -0.0879  2.4724 -0.5693
21708SOL     OW76777   9.376   0.599   8.271 -0.4407  0.1879  0.1413
21708SOL    HW176778   9.321   0.528   8.226  0.1649 -0.1424 -0.1010
21708SOL    HW276779   9.414   0.563   8.356  0.3594  0.0082 -0.2806
21709SOL     OW76780   6.205   8.827   3.705 -0.3565  0.6081  0.0366
21709SOL    HW176781   6.229   8.785   3.792  0.9748  1.4085  0.0745
21709SOL    HW276782   6.284   8.875   3.668 -1.0517  0.6982 -1.3776
21710SOL     OW76783   0.479   5.097   0.833  0.4240  0.2137 -0.3634
21710SOL    HW176784   0.508   5.011   0.791  0.5795  1.3508 -2.6641
21710SOL    HW276785   0.552   5.165   0.822 -0.7340  1.3842 -0.8743
21711SOL     OW76786   3.892   5.868   0.903  0.0012  0.8334 -0.1525
21711SOL    HW176787   3.849   5.942   0.849  0.8059  1.9361  0.6985
21711SOL    HW276788   3.979   5.900   0.940  0.4406 -0.6185  0.0912
21712SOL     OW76789   3.728   4.968   7.573 -0.0848  0.3122  0.0413
21712SOL    HW176790   3.708   5.023   7.655 -1.2622 -0.0892  0.0346
21712SOL    HW276791   3.666   4.890   7.570  0.8190 -0.3785 -0.5658
21713SOL     OW76792   8.811   3.611   6.887  0.2519 -0.2634 -0.5365
21713SOL    HW176793   8.832   3.644   6.795  0.4679  0.6521 -0.1618
21713SOL    HW276794   8.847   3.675   6.955  1.4254 -1.6835  0.2154
21714SOL     OW76795   4.890   4.311   0.745  0.3625  0.2017  0.4177
21714SOL    HW176796   4.908   4.327   0.842  2.3752  0.4427  0.0247
21714SOL    HW276797   4.872   4.214   0.729  2.0806 -0.1752  0.7393
21715SOL     OW76798   8.623   4.634   5.294  0.2506  0.3437  0.0665
21715SOL    HW176799   8.713   4.677   5.304  0.6798 -0.1751 -1.4606
21715SOL    HW276800   8.594   4.640   5.198 -0.0847 -1.9815  0.0062
21716SOL     OW76801   8.446   5.911   2.154  0.0155  0.2798 -0.2764
21716SOL    HW176802   8.461   5.872   2.064 -0.1967  0.0152 -0.1979
21716SOL    HW276803   8.534   5.927   2.199  0.3737  4.4860 -2.2238
21717SOL     OW76804   0.672   8.567   3.866  0.2614  0.4290  0.8210
21717SOL    HW176805   0.619   8.605   3.790 -1.5307  0.2158  1.9285
21717SOL    HW276806   0.759   8.532   3.832 -0.1824  1.0590 -1.0003
21718SOL     OW76807   3.998   0.333   3.326 -0.1371 -0.0258 -0.3928
21718SOL    HW176808   3.925   0.398   3.305 -0.2531 -0.3945 -1.1181
21718SOL    HW276809   4.061   0.375   3.392 -1.2705  0.1051  0.6208
21719SOL     OW76810   9.399   0.484   2.670 -0.7097  0.6608 -0.4892
21719SOL    HW176811   9.313   0.519   2.631 -0.5616  1.1052 -0.4146
21719SOL    HW276812   9.445   0.427   2.601 -0.2171  1.8316 -1.1462
21720SOL     OW76813   2.685   5.118   1.883 -0.3199  0.3009 -0.4832
21720SOL    HW176814   2.654   5.213   1.893 -0.7521  0.2328 -1.1452
21720SOL    HW276815   2.781   5.117   1.857 -0.4651  0.5772 -1.0424
21721SOL     OW76816   3.915   6.147   4.413 -0.3715 -0.3143 -0.4361
21721SOL    HW176817   3.977   6.148   4.334 -0.7783 -2.8509 -0.8279
21721SOL    HW276818   3.966   6.117   4.493 -0.0694  1.8416  0.2296
21722SOL     OW76819   4.964   7.844   4.964  0.4598 -0.1163 -0.2189
21722SOL    HW176820   5.009   7.932   4.952  0.1544  0.0240 -0.3614
21722SOL    HW276821   4.937   7.808   4.874  1.7931 -1.0017 -0.2769
21723SOL     OW76822   7.644   6.652   4.751 -0.4676  0.3849 -0.4200
21723SOL    HW176823   7.623   6.602   4.835  0.2938  1.6880  0.5750
21723SOL    HW276824   7.602   6.743   4.756  0.9948  1.0878 -0.7092
21724SOL     OW76825   5.605   3.436   0.853 -0.1755 -0.3729  0.2645
21724SOL    HW176826   5.690   3.475   0.888  0.3610 -1.0908 -0.2194
21724SOL    HW276827   5.569   3.495   0.780  0.9438 -1.0538 -0.8698
21725SOL     OW76828   0.444   3.480   4.257 -0.4700  0.2899 -0.0926
21725SOL    HW176829   0.540   3.496   4.278 -0.8275  0.2235  1.7669
21725SOL    HW276830   0.435   3.404   4.193  0.6974  0.1276 -0.0687
21726SOL     OW76831   2.381   6.248   3.347  0.8370  0.0067 -0.6531
21726SOL    HW176832   2.313   6.286   3.409  0.0619  0.5809 -1.8443
21726SOL    HW276833   2.462   6.306   3.347  1.2173 -0.5196  0.5465
21727SOL     OW76834   3.748   1.134  10.044  0.0022  0.4425  0.0856
21727SOL    HW176835   3.694   1.140  10.128 -0.0817  0.3839  0.0370
21727SOL    HW276836   3.774   1.039  10.028  0.9536  0.6001  0.6259
21728SOL     OW76837   0.322   0.881   5.009 -0.5326  0.0208  0.3668
21728SOL    HW176838   0.383   0.841   5.077  1.1352  1.9033  0.0335
21728SOL    HW276839   0.305   0.977   5.030 -2.7637 -0.2542 -0.0077
21729SOL     OW76840   2.969   7.629   5.980  0.0993  0.2019 -0.0381
21729SOL    HW176841   2.959   7.658   6.075 -0.3279  0.9442 -0.3065
21729SOL    HW276842   3.050   7.571   5.971 -0.3167 -0.5407  0.9273
21730SOL     OW76843   7.888   0.143   7.675 -0.2772 -0.0358  0.1554
21730SOL    HW176844   7.861   0.084   7.751  0.5646 -1.4586 -0.6246
21730SOL    HW276845   7.973   0.190   7.698 -0.8248  0.7123  0.6855
21731SOL     OW76846   6.725   9.688   2.795  0.0681  0.1406  0.5852
21731SOL    HW176847   6.760   9.780   2.814  0.2920  0.2773 -0.4467
21731SOL    HW276848   6.645   9.695   2.735  0.6824 -0.3851 -0.3080
21732SOL     OW76849   5.136   0.997   6.758  0.1170 -0.3851  0.3084
21732SOL    HW176850   5.064   1.055   6.797  2.7341  2.4281  1.1632
21732SOL    HW276851   5.167   1.036   6.672  1.9692 -0.4434  0.9212
21733SOL     OW76852   5.119   5.012   0.112 -0.7494 -0.2817  0.2374
21733SOL    HW176853   5.120   5.103   0.154 -0.3856 -1.0380  1.8954
21733SOL    HW276854   5.038   4.963   0.141 -0.5262 -0.7901  0.0034
21734SOL     OW76855   4.567   4.470   7.306 -0.1189 -0.5797  0.6466
21734SOL    HW176856   4.501   4.421   7.250  0.0102 -1.4061  1.2143
21734SOL    HW276857   4.519   4.538   7.363 -0.2753  0.0766 -0.2623
21735SOL     OW76858   9.181   0.581   2.501  0.5164 -0.0136  0.2568
21735SOL    HW176859   9.236   0.614   2.424  0.5781 -0.1360  0.2484
21735SOL    HW276860   9.109   0.648   2.521  0.2599 -0.1637 -0.1561
21736SOL     OW76861   5.740   8.744   2.534 -0.0849 -0.0674 -0.2059
21736SOL    HW176862   5.800   8.700   2.600 -0.4531 -0.4876 -0.1471
21736SOL    HW276863   5.682   8.811   2.581 -0.2836 -0.3010 -0.1193
21737SOL     OW76864   9.997   2.064   6.261  0.4175 -0.5037  0.6342
21737SOL    HW176865   9.967   2.156   6.236  1.2596 -0.4360 -0.1500
21737SOL    HW276866  10.070   2.035   6.199  0.7824 -1.3355  1.4451
21738SOL     OW76867   9.379   0.155   0.980  1.1110 -0.6239 -0.0062
21738SOL    HW176868   9.459   0.120   1.029  0.6272  0.0970  1.3270
21738SOL    HW276869   9.404   0.237   0.929  0.9536  0.3856  1.4827
21739SOL     OW76870   1.818   3.227   4.971 -0.0873  0.0731  0.6913
21739SOL    HW176871   1.804   3.264   5.063 -2.0452  1.9209 -0.3059
21739SOL    HW276872   1.730   3.217   4.926  0.8945 -0.3645 -1.1614
21740SOL     OW76873   8.309   0.975   0.971  0.3951 -0.7231 -1.2025
21740SOL    HW176874   8.215   1.002   0.993  0.5296 -0.8253 -0.4606
21740SOL    HW276875   8.308   0.901   0.903 -0.0504 -0.4768 -1.4620
21741SOL     OW76876   9.395   8.620   4.990  0.4331 -0.4579  0.2807
21741SOL    HW176877   9.313   8.629   4.933 -0.7131  0.1221  1.9641
21741SOL    HW276878   9.469   8.675   4.951 -0.0907 -0.7045 -1.0738
21742SOL     OW76879   6.416   5.026   0.220  0.7095 -0.0430  0.0011
21742SOL    HW176880   6.362   5.109   0.233  0.1601 -0.2832 -0.7163
21742SOL    HW276881   6.403   4.966   0.298 -1.5765 -0.9285 -1.0196
21743SOL     OW76882   9.463   6.981   4.648 -0.0611 -0.3287 -0.1394
21743SOL    HW176883   9.424   6.915   4.713  0.8689 -1.7944 -1.0237
21743SOL    HW276884   9.563   6.968   4.644 -0.2909 -1.4811 -3.1324
21744SOL     OW76885   3.570   2.434   1.019  0.1260 -0.0036  0.0878
21744SOL    HW176886   3.637   2.443   1.093 -0.7431  0.1445  0.8760
21744SOL    HW276887   3.589   2.501   0.948  0.5998  0.2795  0.4777
21745SOL     OW76888   7.668   0.536   0.544  0.2343 -0.3221  0.1020
21745SOL    HW176889   7.595   0.527   0.476 -0.1222  0.8643  0.3104
21745SOL    HW276890   7.676   0.452   0.596 -0.1944 -0.8745 -0.7205
21746SOL     OW76891   3.780   8.946   3.586 -0.1723  0.1150 -0.6301
21746SOL    HW176892   3.772   8.892   3.502  0.8236 -1.7451  0.4311
21746SOL    HW276893   3.843   9.022   3.570  2.2671 -1.8856 -0.7978
21747SOL     OW76894   1.446   3.253   6.495 -0.4550  0.6310  0.1221
21747SOL    HW176895   1.372   3.312   6.528 -0.7292  0.5640 -0.3686
21747SOL    HW276896   1.415   3.204   6.414 -0.8052 -1.4184  1.4415
21748SOL     OW76897   2.689   3.650   5.398  0.4621 -0.3413  0.2075
21748SOL    HW176898   2.634   3.577   5.356 -1.6760 -0.2483  2.6431
21748SOL    HW276899   2.783   3.619   5.410  0.4655 -1.3121 -2.1497
21749SOL     OW76900   1.260   3.616   2.353 -0.2649  0.1012 -0.0389
21749SOL    HW176901   1.236   3.698   2.405  0.2633  0.0062  0.3635
21749SOL    HW276902   1.178   3.564   2.333 -0.5281  0.3849  0.2979
21750SOL     OW76903   2.019   4.616   2.491  0.2151 -0.2339 -0.1174
21750SOL    HW176904   1.994   4.524   2.458  0.3759 -0.6352  0.8768
21750SOL    HW276905   2.059   4.609   2.582  3.7407  0.4350 -1.5447
21751SOL     OW76906   4.412   8.348   3.760 -0.4336 -0.0333 -0.1289
21751SOL    HW176907   4.498   8.400   3.760 -0.2879 -0.2620 -1.1314
21751SOL    HW276908   4.358   8.373   3.840  1.3226 -1.1729  1.4373
21752SOL     OW76909   4.210   3.897   7.268  0.2450 -0.2440  0.1711
21752SOL    HW176910   4.275   3.924   7.196 -0.4185 -1.7499 -1.0077
21752SOL    HW276911   4.200   3.798   7.268 -0.1359 -0.2121  2.0495
21753SOL     OW76912   1.228   3.397   6.564 -0.8305 -0.0520  0.2503
21753SOL    HW176913   1.166   3.368   6.491 -0.3241 -0.7670  0.1028
21753SOL    HW276914   1.224   3.331   6.639 -0.2226 -0.1114  0.2307
21754SOL     OW76915   8.029   5.547   4.862 -0.4752 -0.7104 -0.5312
21754SOL    HW176916   8.118   5.593   4.859  0.4787 -2.5530 -0.8266
21754SOL    HW276917   7.972   5.589   4.933  0.9154 -0.0709  0.2186
21755SOL     OW76918   5.579   9.381   1.815  0.8295 -0.0828 -0.0051
21755SOL    HW176919   5.530   9.376   1.902  0.3016  1.8468 -0.1538
21755SOL    HW276920   5.674   9.406   1.831  0.9049 -0.4098  0.0603
21756SOL     OW76921   3.014   6.517   6.030  0.2266  0.0760  0.0976
21756SOL    HW176922   3.022   6.438   6.091  2.1329 -1.5681 -2.2118
21756SOL    HW276923   3.088   6.581   6.048  1.2056 -0.7491 -0.9428
21757SOL     OW76924   0.651   8.132   4.230  0.8914 -0.1074 -0.2842
21757SOL    HW176925   0.727   8.177   4.277  2.8676 -1.8842 -1.7061
21757SOL    HW276926   0.603   8.072   4.293  2.2977 -0.9624 -0.0132
21758SOL     OW76927   7.316   3.316   0.067 -0.4098 -0.0507 -1.1087
21758SOL    HW176928   7.279   3.245   0.126 -2.1362  0.0419 -2.0495
21758SOL    HW276929   7.354   3.274  -0.016  0.6903 -0.0602 -0.6066
21759SOL     OW76930   9.571   1.601   4.104  0.0068  0.0707 -0.5770
21759SOL    HW176931   9.541   1.561   4.190 -1.5921  0.6576 -0.8537
21759SOL    HW276932   9.552   1.538   4.029  2.8607 -1.1462 -0.3722
21760SOL     OW76933   8.297   6.009   3.852  0.4695  0.6676 -0.0703
21760SOL    HW176934   8.242   5.935   3.889 -1.2830  0.9559 -1.9816
21760SOL    HW276935   8.366   5.971   3.790 -0.7906  0.6423 -1.4843
21761SOL     OW76936   3.450   4.525   6.156  0.1105 -0.9246  0.1572
21761SOL    HW176937   3.354   4.533   6.181 -0.0135  1.0763 -0.8556
21761SOL    HW276938   3.457   4.486   6.064  0.3181 -2.3098  0.7603
21762SOL     OW76939   9.931   5.221   2.928  0.6288  0.4076 -0.3489
21762SOL    HW176940   9.988   5.186   3.002  0.7837 -0.2125 -0.7644
21762SOL    HW276941   9.989   5.255   2.854  0.4648  0.5199 -0.4275
21763SOL     OW76942   0.216   5.010   9.946 -0.3167  0.2690  0.7081
21763SOL    HW176943   0.302   4.990   9.899 -0.6430 -0.8936  0.5855
21763SOL    HW276944   0.194   5.107   9.936  0.9732  0.5719  0.7381
21764SOL     OW76945   8.048   3.098   0.138 -0.6116 -0.3110  0.0795
21764SOL    HW176946   8.140   3.139   0.131  0.0350 -1.7045  0.2288
21764SOL    HW276947   7.982   3.169   0.160  0.5533  0.5888  0.7734
21765SOL     OW76948   3.855   7.784   2.179 -0.9552 -0.0401 -0.1263
21765SOL    HW176949   3.772   7.835   2.202 -0.8682  0.7854 -1.5708
21765SOL    HW276950   3.928   7.811   2.241 -1.2303  0.7141 -0.1210
21766SOL     OW76951   1.138   0.823   7.138  0.1513 -0.7220  0.3078
21766SOL    HW176952   1.103   0.762   7.209  1.8356 -1.6707  0.3504
21766SOL    HW276953   1.231   0.851   7.161  0.0579  0.3933 -0.6355
21767SOL     OW76954   2.318   8.222   1.068 -0.2892  0.7520 -0.3466
21767SOL    HW176955   2.242   8.253   1.126 -1.7325  1.6719 -2.6531
21767SOL    HW276956   2.319   8.122   1.066 -0.5644  0.7128  0.8072
21768SOL     OW76957   0.614   3.277   5.283  0.0030  0.3281  0.4644
21768SOL    HW176958   0.537   3.230   5.326 -1.5294  1.1547 -1.3357
21768SOL    HW276959   0.687   3.211   5.264 -1.1011 -0.8392  0.2505
21769SOL     OW76960   4.944   7.379   0.876  0.4360 -0.0425 -0.0833
21769SOL    HW176961   4.889   7.391   0.958 -0.1905 -1.8662 -0.1999
21769SOL    HW276962   4.900   7.423   0.798 -0.0139 -0.0616  0.1623
21770SOL     OW76963   9.924   4.041   4.226  0.5546  0.0227  0.6001
21770SOL    HW176964   9.953   3.946   4.228 -0.4457 -0.2777  1.1237
21770SOL    HW276965   9.969   4.091   4.300  0.3698 -0.2591  0.9050
21771SOL     OW76966   7.461   0.980   6.463 -0.1390 -0.0692  0.0214
21771SOL    HW176967   7.387   1.022   6.410 -0.8316 -1.8984 -0.4973
21771SOL    HW276968   7.485   0.892   6.423  0.9251 -0.4142  1.3906
21772SOL     OW76969   4.952   6.842   0.226 -0.2782 -0.1167  0.4537
21772SOL    HW176970   5.032   6.840   0.286 -0.8535 -0.3428  1.2188
21772SOL    HW276971   4.951   6.760   0.169 -0.9537 -1.0282  1.7504
21773SOL     OW76972   9.996   5.744   4.983 -0.1849  0.2169  0.3311
21773SOL    HW176973  10.071   5.678   4.989 -0.3086  0.0015 -0.4013
21773SOL    HW276974   9.944   5.743   5.068 -0.6674 -1.2125  0.0331
21774SOL     OW76975   1.656   1.822   3.466 -0.2665  0.2496  0.5022
21774SOL    HW176976   1.557   1.833   3.463 -0.1034  1.6783 -0.4855
21774SOL    HW276977   1.680   1.742   3.521 -1.9402  0.1828  1.1511
21775SOL     OW76978   1.858   8.047   6.720 -0.8196 -0.0658  0.3799
21775SOL    HW176979   1.831   8.008   6.809  1.3973  0.8348  1.4858
21775SOL    HW276980   1.894   8.139   6.733  1.2059 -0.6005 -1.2199
21776SOL     OW76981   8.948   7.709   4.029  0.3695  0.2802 -0.2955
21776SOL    HW176982   8.860   7.698   3.982  0.7120 -0.8074 -0.7170
21776SOL    HW276983   8.980   7.803   4.019 -0.8024  0.7277 -0.0220
21777SOL     OW76984   5.339   3.078   1.752  0.2557 -0.1993  0.4869
21777SOL    HW176985   5.320   3.003   1.689  1.1327 -0.2088  0.2289
21777SOL    HW276986   5.432   3.111   1.738 -0.5056  1.7377 -0.2465
21778SOL     OW76987   9.791   6.896   7.657 -0.4372 -0.4240 -0.2939
21778SOL    HW176988   9.747   6.945   7.732 -0.5586 -1.3492  0.2498
21778SOL    HW276989   9.803   6.957   7.579 -0.7638  0.4075  0.3049
21779SOL     OW76990   8.006   3.838   4.540 -0.7534 -0.5595  0.1699
21779SOL    HW176991   8.001   3.937   4.528 -1.0119 -0.7226 -1.2087
21779SOL    HW276992   7.919   3.804   4.577 -0.9984 -0.3710 -0.2252
21780SOL     OW76993   1.918   6.296   5.795 -0.5276 -0.0928 -0.6004
21780SOL    HW176994   1.840   6.346   5.831  0.3484  1.2722 -0.5680
21780SOL    HW276995   1.924   6.311   5.696 -0.0212  0.2150 -0.5260
21781SOL     OW76996   0.969   9.503   2.564  0.2990  0.2147 -0.4799
21781SOL    HW176997   1.018   9.505   2.651 -0.6847 -1.2066  0.1422
21781SOL    HW276998   0.872   9.520   2.580  0.5045  2.7082 -1.6646
21782SOL     OW76999   9.983   0.215   0.779 -0.2124  0.8226  0.7397
21782SOL    HW177000   9.936   0.141   0.828  1.3796  0.6006  1.9980
21782SOL    HW277001  10.058   0.249   0.836  2.0278  0.2157 -1.7515
21783SOL     OW77002   3.456   3.089   0.419 -0.4629 -0.5252 -0.5178
21783SOL    HW177003   3.387   3.119   0.484  0.0197  0.6808 -0.5613
21783SOL    HW277004   3.418   3.089   0.327 -0.7598 -1.0136 -0.3982
21784SOL     OW77005   0.111   8.397   1.714 -0.1097  0.3282 -0.3789
21784SOL    HW177006   0.063   8.448   1.642  1.0502 -0.7183 -1.9354
21784SOL    HW277007   0.053   8.392   1.796 -1.8754  0.6957 -1.5675
21785SOL     OW77008   1.820   9.733   2.616  0.1172 -0.0474 -0.3694
21785SOL    HW177009   1.851   9.734   2.522  2.0152 -0.3822  0.2425
21785SOL    HW277010   1.891   9.695   2.675 -0.5276  1.3564  1.3707
21786SOL     OW77011   2.049   9.849   1.262  0.3638 -0.2287 -0.4048
21786SOL    HW177012   2.019   9.943   1.278 -0.3353 -0.3687 -0.8511
21786SOL    HW277013   1.979   9.801   1.210 -0.0575 -1.4920  1.2899
21787SOL     OW77014   7.665   7.575   7.412  0.0347 -0.3476 -0.2511
21787SOL    HW177015   7.736   7.505   7.403  1.2839  1.1381 -2.7387
21787SOL    HW277016   7.600   7.566   7.336  0.7347  1.7224 -1.1179
21788SOL     OW77017   1.410   4.116   7.243 -0.1744 -0.6839  0.1234
21788SOL    HW177018   1.316   4.084   7.257 -0.1833 -1.9741 -2.5331
21788SOL    HW277019   1.463   4.045   7.196  1.5417  0.8418 -0.3134
21789SOL     OW77020   0.003   2.813   5.936 -0.0101  0.0253  0.1380
21789SOL    HW177021  -0.083   2.831   5.889 -0.2799 -0.8917  0.2652
21789SOL    HW277022   0.059   2.751   5.881  1.3635  2.0404 -0.7935
21790SOL     OW77023   8.871   9.222   4.179 -0.5537 -0.2141  0.4205
21790SOL    HW177024   8.775   9.215   4.206 -0.7094 -0.9418 -0.2954
21790SOL    HW277025   8.898   9.318   4.178 -1.2674 -0.0046  0.6491
21791SOL     OW77026   5.948   9.499   4.063 -0.7208  0.4548  0.4760
21791SOL    HW177027   6.037   9.507   4.018 -0.5553 -0.8596  0.5469
21791SOL    HW277028   5.878   9.480   3.994 -0.5242 -1.1871  0.7225
21792SOL     OW77029   0.328   3.283   6.012  0.1809 -0.2071 -0.2222
21792SOL    HW177030   0.304   3.257   6.105  1.0262 -2.7347 -0.6718
21792SOL    HW277031   0.269   3.359   5.982 -1.2602 -0.5168  1.7337
21793SOL     OW77032   4.523   6.173   0.348 -0.1752 -0.2497 -0.0370
21793SOL    HW177033   4.596   6.115   0.383  2.0536  1.9500 -0.8518
21793SOL    HW277034   4.480   6.223   0.424  1.6010  1.1162  0.0954
21794SOL     OW77035   6.241   8.752   5.984  0.1748 -0.3584 -0.2295
21794SOL    HW177036   6.258   8.691   5.906 -0.1643 -2.3215  1.2024
21794SOL    HW277037   6.288   8.717   6.065  0.5562  1.6865  0.4587
21795SOL     OW77038   1.822   5.305   6.211  0.1395 -0.5009 -0.1793
21795SOL    HW177039   1.730   5.270   6.196  0.7820 -2.4051  0.1716
21795SOL    HW277040   1.861   5.261   6.292  1.4853  0.0172 -0.5404
21796SOL     OW77041   2.661   9.157   0.757 -0.0161 -0.1915  0.4399
21796SOL    HW177042   2.686   9.130   0.850 -0.6496  0.3669  0.7753
21796SOL    HW277043   2.742   9.155   0.699  0.7129  1.1282  1.4033
21797SOL     OW77044   3.170   7.519   7.088  0.1114  0.8901 -0.5470
21797SOL    HW177045   3.128   7.549   7.002 -1.0006  0.5760 -0.1222
21797SOL    HW277046   3.269   7.536   7.084  0.1255  0.5900 -2.0151
21798SOL     OW77047   3.342   3.593   6.848  0.4200 -0.6446 -0.0941
21798SOL    HW177048   3.393   3.545   6.919  1.1541  0.3854  0.0757
21798SOL    HW277049   3.403   3.655   6.799 -0.2809 -0.6947 -1.0393
21799SOL     OW77050   1.849   4.111   6.158  0.2916 -0.3247 -0.4859
21799SOL    HW177051   1.877   4.206   6.140  1.0975 -0.4234  0.1753
21799SOL    HW277052   1.889   4.051   6.090 -0.8640 -0.1074 -1.3746
21800SOL     OW77053   0.142   5.867   0.438 -0.7515 -0.5899 -0.3940
21800SOL    HW177054   0.124   5.963   0.457  0.9148  0.1174 -2.2376
21800SOL    HW277055   0.065   5.812   0.470 -1.5135  1.2960  1.1020
21801SOL     OW77056   7.184   0.630   4.518 -0.9832  0.2917  0.0532
21801SOL    HW177057   7.279   0.616   4.545 -0.7687 -1.6329 -1.5667
21801SOL    HW277058   7.126   0.560   4.560 -1.5651  0.9723  0.3954
21802SOL     OW77059   0.329   9.354   0.351  0.0881  0.0515 -0.0035
21802SOL    HW177060   0.307   9.430   0.290 -1.9720  1.0345  1.8982
21802SOL    HW277061   0.356   9.390   0.440 -0.0098 -1.4430  0.6451
21803SOL     OW77062   9.252   7.803   3.667 -0.3533  0.6311  0.4745
21803SOL    HW177063   9.334   7.773   3.618 -0.8852  0.4914 -0.3384
21803SOL    HW277064   9.278   7.840   3.757  0.4926 -0.4059  0.6648
21804SOL     OW77065   8.615   1.236   0.859  0.2942  0.5948  0.6032
21804SOL    HW177066   8.693   1.282   0.903  0.1253  0.7288  0.7622
21804SOL    HW277067   8.548   1.211   0.928  0.9423 -0.9919  0.6725
21805SOL     OW77068   0.440   0.700   3.185  0.4706 -0.3193 -0.1706
21805SOL    HW177069   0.505   0.732   3.254 -0.1416 -0.2481  0.3881
21805SOL    HW277070   0.355   0.752   3.194  0.1959 -0.6899 -0.6202
21806SOL     OW77071   2.557   9.551   1.873 -0.7470  0.3314 -0.8441
21806SOL    HW177072   2.546   9.649   1.889 -1.8369 -0.2503  2.4264
21806SOL    HW277073   2.543   9.502   1.959 -0.4925 -2.7238 -2.4857
21807SOL     OW77074   1.621   6.049   2.525 -0.5821  0.0041 -0.3089
21807SOL    HW177075   1.535   6.008   2.557 -0.2320 -0.2936  0.2616
21807SOL    HW277076   1.643   6.013   2.434 -0.1684 -1.2689  0.2717
21808SOL     OW77077   9.901   1.087   4.198 -0.2451 -0.2763 -0.0209
21808SOL    HW177078   9.812   1.121   4.227 -0.4031 -0.4688 -0.2812
21808SOL    HW277079   9.920   0.999   4.244 -0.7795 -0.9057 -0.9916
21809SOL     OW77080   9.748   3.900   5.549 -0.3514 -0.3208  0.2110
21809SOL    HW177081   9.759   3.802   5.568 -1.6838 -0.3622  0.8689
21809SOL    HW277082   9.651   3.924   5.558 -0.6261  0.2759 -3.7523
21810SOL     OW77083   4.159   8.001   6.621 -0.2879  0.1950 -0.6053
21810SOL    HW177084   4.079   8.046   6.581 -0.7844  0.7472  0.9905
21810SOL    HW277085   4.235   8.006   6.556 -0.6304  2.4483 -0.8843
21811SOL     OW77086   5.035   7.813   3.010  0.2388  0.4903 -0.0800
21811SOL    HW177087   4.986   7.726   3.015 -0.1132  0.6795 -0.2023
21811SOL    HW277088   5.015   7.868   3.091  1.5979 -0.1336  0.6772
21812SOL     OW77089   6.923   0.216   5.424 -0.0305 -0.3453  0.0165
21812SOL    HW177090   6.887   0.138   5.476  0.8962  0.0301  1.2525
21812SOL    HW277091   7.023   0.215   5.429  0.0320  0.2083 -1.0340
21813SOL     OW77092   8.088   9.765   5.814 -0.1741  0.6510 -0.5838
21813SOL    HW177093   8.046   9.844   5.858 -0.3664  0.5461 -0.5788
21813SOL    HW277094   8.050   9.754   5.722 -1.3796 -0.4401  0.0325
21814SOL     OW77095   0.184   2.640   1.078 -0.1967 -0.0802  0.2867
21814SOL    HW177096   0.192   2.720   1.137  1.1054  0.1316 -0.1508
21814SOL    HW277097   0.208   2.558   1.130 -2.0141 -0.2422  0.8672
21815SOL     OW77098   8.106   2.815   6.879 -0.6748 -0.1192 -0.5684
21815SOL    HW177099   8.032   2.815   6.946 -0.7015 -1.3784 -0.5829
21815SOL    HW277100   8.192   2.838   6.924 -0.5041 -2.0551  0.1427
21816SOL     OW77101   9.275   0.128   5.212  0.4491  0.1058 -0.1483
21816SOL    HW177102   9.215   0.140   5.133  0.9487  1.4034 -0.3529
21816SOL    HW277103   9.244   0.051   5.267 -1.6644  1.0066 -0.0218
21817SOL     OW77104   9.145   0.788   7.381 -0.1605  0.1514 -0.2105
21817SOL    HW177105   9.206   0.744   7.314 -0.2395 -0.8270  0.3534
21817SOL    HW277106   9.062   0.817   7.335  0.0144 -0.0317 -0.6564
21818SOL     OW77107   2.879   7.289   2.486  0.4053 -0.0003  0.0040
21818SOL    HW177108   2.909   7.355   2.417  0.5020  0.7774  0.7891
21818SOL    HW277109   2.955   7.266   2.546 -0.1614  0.7845  1.0337
21819SOL     OW77110   1.879   6.834   6.646  0.0962 -0.7167 -0.4998
21819SOL    HW177111   1.829   6.908   6.691  1.0241 -0.7755  0.6526
21819SOL    HW277112   1.834   6.747   6.663  0.2840 -0.7015  0.0959
21820SOL     OW77113   1.025   5.418   6.995  0.1696 -0.4936  0.4067
21820SOL    HW177114   0.975   5.503   7.008  0.2341 -0.4452  0.3424
21820SOL    HW277115   1.066   5.390   7.082  2.0377  0.7385 -0.0503
21821SOL     OW77116   7.847   0.663   6.112 -0.0190  0.4818 -0.1139
21821SOL    HW177117   7.808   0.753   6.135 -1.4340  0.4848 -2.2888
21821SOL    HW277118   7.940   0.675   6.079 -0.0417  1.1017  0.0339
21822SOL     OW77119   4.208   5.929   0.321 -0.5946  0.2841  0.0251
21822SOL    HW177120   4.250   5.989   0.390  0.1727 -0.4674  0.2182
21822SOL    HW277121   4.200   5.837   0.358  1.8522 -0.6494 -1.6398
21823SOL     OW77122   5.622   1.884   5.035 -0.2654 -0.3005 -0.6707
21823SOL    HW177123   5.645   1.824   4.958  0.4269 -0.3856 -0.3982
21823SOL    HW277124   5.534   1.928   5.017  0.7438  1.0906 -2.3472
21824SOL     OW77125   4.825   1.245   5.240  0.4067 -0.2838 -0.0845
21824SOL    HW177126   4.803   1.198   5.155 -0.5775  0.2586 -0.1365
21824SOL    HW277127   4.756   1.225   5.309  1.1339 -0.6272  0.5576
21825SOL     OW77128   9.550   9.397   2.997  0.2901 -0.3008  0.0726
21825SOL    HW177129   9.494   9.357   2.924 -0.4797  0.0306  0.4808
21825SOL    HW277130   9.520   9.362   3.085  1.0631 -0.5079  0.2609
21826SOL     OW77131   1.889   6.688   0.173  0.1477  0.6295 -0.1198
21826SOL    HW177132   1.842   6.770   0.204 -1.4940  0.2849 -1.6574
21826SOL    HW277133   1.927   6.639   0.252  2.3952  3.5679  0.7060
21827SOL     OW77134   4.382   7.824   6.044 -0.6319  0.0708 -0.5711
21827SOL    HW177135   4.383   7.781   5.953 -0.5422  0.3058 -0.6820
21827SOL    HW277136   4.476   7.840   6.074 -0.6075 -1.5352  0.2989
21828SOL     OW77137   1.633   0.194   6.326  0.1980  0.3847  0.6309
21828SOL    HW177138   1.700   0.122   6.311  0.0288  0.0694  1.3402
21828SOL    HW277139   1.669   0.281   6.291 -0.0814 -0.2475 -1.2591
21829SOL     OW77140   9.583   4.693   0.319 -0.1594  0.1369  0.0306
21829SOL    HW177141   9.515   4.644   0.265 -0.9741 -1.0032  2.0573
21829SOL    HW277142   9.599   4.783   0.278 -1.5700 -0.2617 -1.4553
21830SOL     OW77143   1.674   8.020   4.676 -0.1912 -0.1980  0.4305
21830SOL    HW177144   1.706   7.960   4.751  2.0394  0.0396 -0.2920
21830SOL    HW277145   1.595   8.073   4.707  0.3272 -0.5537  2.4350
21831SOL     OW77146   6.480   8.062   5.200  0.3294  0.0020  0.0817
21831SOL    HW177147   6.511   7.992   5.136  1.8071  1.6426 -1.0309
21831SOL    HW277148   6.397   8.105   5.165 -0.8971 -1.5715  1.0420
21832SOL     OW77149   1.397   4.058   3.898 -0.3792  0.2967  0.0631
21832SOL    HW177150   1.329   3.986   3.883  0.3546 -0.4748  0.4146
21832SOL    HW277151   1.455   4.066   3.818  2.3837 -2.5824  1.6787
21833SOL     OW77152   2.279   1.388   2.374  0.1093 -0.2743  0.2012
21833SOL    HW177153   2.200   1.450   2.368 -0.2767 -0.7051  0.8168
21833SOL    HW277154   2.275   1.338   2.460  1.3797  0.1293  0.4993
21834SOL     OW77155   7.347   8.445   4.044  0.2224 -0.0925 -0.3956
21834SOL    HW177156   7.288   8.519   4.078 -1.6522 -2.0306  0.7314
21834SOL    HW277157   7.370   8.463   3.948  0.2726  2.2273  0.0204
21835SOL     OW77158   7.333   0.958   1.801  0.7152 -0.0013 -0.1180
21835SOL    HW177159   7.422   0.973   1.844  0.1043 -0.4962  1.3297
21835SOL    HW277160   7.278   0.897   1.857  0.2760 -1.4809 -2.1166
21836SOL     OW77161   1.249   6.677   1.683  0.2027  0.2075  0.6355
21836SOL    HW177162   1.255   6.733   1.601  1.7599  0.4961  0.9364
21836SOL    HW277163   1.321   6.703   1.747 -0.3150 -0.7627  1.6337
21837SOL     OW77164   9.760   3.098   2.340  0.1656  0.4603 -0.3079
21837SOL    HW177165   9.827   3.153   2.289  2.0608 -1.1105  0.4048
21837SOL    HW277166   9.700   3.159   2.391  0.2080  1.9566 -1.9838
21838SOL     OW77167   7.307   1.732   3.866  0.2901 -0.6593 -0.3090
21838SOL    HW177168   7.252   1.723   3.782 -2.1384 -0.4634  1.2181
21838SOL    HW277169   7.285   1.657   3.928  2.8117 -1.3538 -0.2168
21839SOL     OW77170   1.480   0.254   3.670 -0.4423  0.2490  0.2434
21839SOL    HW177171   1.573   0.222   3.653 -0.0659  2.1179 -1.2795
21839SOL    HW277172   1.424   0.240   3.588 -1.3231 -0.1323  0.8911
21840SOL     OW77173   9.071   3.034   7.308 -0.1348 -0.0408  0.0892
21840SOL    HW177174   9.062   3.115   7.251  1.2691  0.6452  0.8249
21840SOL    HW277175   9.165   3.026   7.341 -0.4502 -1.5203  0.6881
21841SOL     OW77176   4.198   8.014   0.773  0.5520 -0.0408 -0.1150
21841SOL    HW177177   4.109   7.970   0.762  0.4629 -0.2642  1.4105
21841SOL    HW277178   4.258   7.954   0.825  1.3542  0.4427 -0.4716
21842SOL     OW77179   0.933   2.757   3.783  0.0411  0.2013 -0.0727
21842SOL    HW177180   1.005   2.705   3.736 -1.4024 -2.2911  0.3758
21842SOL    HW277181   0.960   2.774   3.878  0.8411  0.9338 -0.4288
21843SOL     OW77182   4.842   5.947   1.641 -0.3403  0.1022 -0.0083
21843SOL    HW177183   4.815   5.853   1.618 -1.6008  0.4101  0.2098
21843SOL    HW277184   4.854   6.000   1.556  0.6772 -0.3291 -0.1438
21844SOL     OW77185   5.225   2.980   2.455  0.3744 -0.2843 -0.2283
21844SOL    HW177186   5.236   3.023   2.366  1.3488 -1.2581 -0.5961
21844SOL    HW277187   5.132   2.945   2.464 -0.1704  1.1667 -0.2484
21845SOL     OW77188   8.004   8.306   1.115 -0.3495 -0.4074  0.0808
21845SOL    HW177189   8.059   8.379   1.154  0.3089 -0.9674  0.1992
21845SOL    HW277190   7.909   8.317   1.144  0.1179 -0.7877  1.7994
21846SOL     OW77191   9.188   7.984   0.979 -0.1860 -0.2605  0.2625
21846SOL    HW177192   9.276   7.942   0.998  0.1176 -0.2005 -0.9542
21846SOL    HW277193   9.131   7.983   1.061  1.4753  0.9961  1.4511
21847SOL     OW77194   3.341   8.145   0.432 -0.1876  0.2627  0.5523
21847SOL    HW177195   3.410   8.079   0.464  0.0424  1.2597  2.1689
21847SOL    HW277196   3.385   8.232   0.410 -0.7496  0.4639  0.2040
21848SOL     OW77197   4.467   7.022   4.628 -0.3793  0.1049  0.5846
21848SOL    HW177198   4.432   6.964   4.554 -1.5165 -0.0423  1.2389
21848SOL    HW277199   4.557   6.987   4.657  1.3881  1.7559 -2.5610
21849SOL     OW77200   1.735   4.977   2.812 -0.9568 -0.0097  0.4201
21849SOL    HW177201   1.763   4.949   2.720 -0.1875  1.8485  0.0556
21849SOL    HW277202   1.640   5.009   2.810 -0.5667  1.1447  0.0155
21850SOL     OW77203   4.750   9.962   6.617 -0.1972 -0.3007 -0.6096
21850SOL    HW177204   4.797   9.950   6.530  0.6505  0.2762 -0.2302
21850SOL    HW277205   4.696   9.880   6.637 -0.1133 -0.5779 -1.4987
21851SOL     OW77206   5.311   9.699   6.087  0.4757  0.3920  0.4218
21851SOL    HW177207   5.250   9.754   6.144 -0.2212  0.8102 -0.7044
21851SOL    HW277208   5.406   9.719   6.111  0.2001  0.8348  1.1722
21852SOL     OW77209   3.791   0.626   6.722  0.2988  0.0097  0.1212
21852SOL    HW177210   3.715   0.566   6.748  0.9603  0.0859  2.4066
21852SOL    HW277211   3.758   0.695   6.658 -1.5034 -0.1348  0.8483
21853SOL     OW77212   4.330   1.611   5.940  0.0077 -0.1018  0.5289
21853SOL    HW177213   4.317   1.512   5.947 -0.7526 -0.1225 -1.1041
21853SOL    HW277214   4.402   1.630   5.873  1.4901  0.3967  2.2211
21854SOL     OW77215   4.791   3.032   0.519  0.2025  0.5380  0.0371
21854SOL    HW177216   4.775   3.041   0.617 -1.5016  1.3881 -0.3116
21854SOL    HW277217   4.890   3.026   0.502  0.6309  2.8032  1.6098
21855SOL     OW77218   2.819   6.202   7.173  0.2261 -0.0384  0.0232
21855SOL    HW177219   2.795   6.111   7.139 -0.0227  0.5396 -1.3781
21855SOL    HW277220   2.751   6.231   7.239 -1.5594  0.4940 -1.9855
21856SOL     OW77221   4.791   2.115   4.737 -0.8026 -1.1538  0.0322
21856SOL    HW177222   4.846   2.198   4.732  0.5697 -2.1081 -0.9542
21856SOL    HW277223   4.822   2.058   4.813 -0.7246 -1.4758 -0.2365
21857SOL     OW77224   9.268   4.326   1.969 -0.2877  0.4964 -0.3740
21857SOL    HW177225   9.187   4.280   2.007 -0.1761  0.0811 -0.6463
21857SOL    HW277226   9.348   4.269   1.982 -0.1871  0.5107 -0.9261
21858SOL     OW77227   4.744   6.956   2.112  0.0525  0.4656 -0.2126
21858SOL    HW177228   4.796   6.906   2.181  1.1675 -0.2541 -1.5468
21858SOL    HW277229   4.678   6.895   2.069  0.4689  0.4832 -0.8879
21859SOL     OW77230   3.358   6.694   2.920  0.3242  0.0482  0.2894
21859SOL    HW177231   3.259   6.685   2.933  0.9212 -3.1805  3.2530
21859SOL    HW277232   3.398   6.739   3.000  1.5334 -0.8900  0.2266
21860SOL     OW77233   5.816   8.858   2.982 -0.0643 -0.0189  0.1782
21860SOL    HW177234   5.810   8.915   3.064  0.0559 -0.8607  0.7760
21860SOL    HW277235   5.728   8.860   2.934  0.2008  1.3407 -0.2564
21861SOL     OW77236   4.679   0.762   6.385 -0.0588  0.3477  0.2339
21861SOL    HW177237   4.769   0.804   6.379  0.6906 -1.0608  1.3996
21861SOL    HW277238   4.649   0.758   6.480 -2.1412  2.3877 -0.2845
21862SOL     OW77239   3.315   0.260   5.753 -0.4633 -0.1956  0.6580
21862SOL    HW177240   3.403   0.252   5.706 -0.8700 -0.7241 -0.0214
21862SOL    HW277241   3.309   0.350   5.797 -1.1515  1.4113 -2.5291
21863SOL     OW77242   0.176   0.938   7.219 -0.4317  0.0370  0.4471
21863SOL    HW177243   0.249   1.005   7.232 -0.7576  0.8491 -1.7644
21863SOL    HW277244   0.216   0.848   7.199 -0.0304 -0.0859  1.7220
21864SOL     OW77245   9.327   5.768   5.541  0.7714  0.5404  0.2333
21864SOL    HW177246   9.270   5.851   5.540 -1.1769 -0.7695  0.1673
21864SOL    HW277247   9.345   5.741   5.635  0.3497  0.3430  0.2597
21865SOL     OW77248   8.692   8.778   2.286 -0.4362  0.7476  0.0384
21865SOL    HW177249   8.632   8.847   2.245 -0.3559 -0.0474 -1.4520
21865SOL    HW277250   8.767   8.758   2.224 -1.2215 -1.7050 -0.1733
21866SOL     OW77251   9.542   4.908   3.113 -0.0898 -0.1424 -0.7716
21866SOL    HW177252   9.632   4.943   3.090  0.8356 -1.3600  0.8752
21866SOL    HW277253   9.475   4.982   3.109  2.0372  2.2469  3.9830
21867SOL     OW77254   3.230   1.237   7.706  0.0197  0.0380  0.0998
21867SOL    HW177255   3.274   1.287   7.631  0.1491  0.4574  0.4554
21867SOL    HW277256   3.228   1.140   7.684 -3.1936  0.5186 -2.1034
21868SOL     OW77257   3.814   7.933   4.517  0.3251  0.4241 -0.1819
21868SOL    HW177258   3.874   7.914   4.595 -1.4705 -1.0938  0.8629
21868SOL    HW277259   3.847   7.882   4.437  1.0913  0.5014  0.0775
21869SOL     OW77260   7.206   6.335   8.181 -0.4758 -0.0143  0.7377
21869SOL    HW177261   7.139   6.262   8.193 -0.4424 -0.0159  0.9197
21869SOL    HW277262   7.190   6.381   8.094 -0.1633 -0.5964  0.3624
21870SOL     OW77263   4.960   2.699   2.030  0.5245  0.4365 -0.1709
21870SOL    HW177264   4.937   2.782   1.979  2.2755  0.7527 -0.4811
21870SOL    HW277265   4.951   2.619   1.970 -0.2244  0.4952 -0.1435
21871SOL     OW77266   5.528   3.844   0.875  0.5757 -0.1304 -0.2457
21871SOL    HW177267   5.444   3.798   0.847  1.0164 -0.6563 -0.7316
21871SOL    HW277268   5.511   3.941   0.887 -0.1231 -0.2513 -0.2547
21872SOL     OW77269   1.511   3.142   6.870 -0.4158 -0.5756 -0.1459
21872SOL    HW177270   1.605   3.158   6.902 -0.7102 -1.7230  1.3516
21872SOL    HW277271   1.513   3.086   6.787  0.3294  1.6961 -1.7030
21873SOL     OW77272   9.807   8.763   6.121 -0.0421 -0.5451 -0.1724
21873SOL    HW177273   9.777   8.811   6.204  0.4013 -1.0364  0.2721
21873SOL    HW277274   9.886   8.706   6.142  0.8894  0.3457 -1.2348
21874SOL     OW77275   0.666   9.993   7.464 -0.6017 -0.2084 -0.6655
21874SOL    HW177276   0.704   9.912   7.419 -0.5935  0.2412 -1.4759
21874SOL    HW277277   0.736  10.034   7.522  0.2603  0.7418 -2.3214
21875SOL     OW77278   7.355   5.897   2.362 -0.4315 -0.0552 -0.6956
21875SOL    HW177279   7.326   5.895   2.266  0.7106 -2.1993 -1.0228
21875SOL    HW277280   7.327   5.813   2.407  1.3721 -0.2272  0.1404
21876SOL     OW77281   7.203   3.472   0.580  0.0815  0.3358  0.4230
21876SOL    HW177282   7.152   3.558   0.566  0.3227  0.3988 -0.0752
21876SOL    HW277283   7.161   3.400   0.525  1.8349  0.8913 -1.7228
21877SOL     OW77284   4.060   1.819   6.588  0.1424 -0.4565 -0.2764
21877SOL    HW177285   4.076   1.889   6.657  0.8263 -1.1757  0.3120
21877SOL    HW277286   3.986   1.759   6.618 -0.8944  0.4085 -1.0892
21878SOL     OW77287   2.867   5.377   1.692  0.1121  0.6253  0.0441
21878SOL    HW177288   2.785   5.434   1.694 -0.3429  0.0162 -1.0421
21878SOL    HW277289   2.866   5.320   1.610  3.0471  2.7730 -1.5910
21879SOL     OW77290   6.201   2.381   1.227  0.2969 -0.0140 -0.2513
21879SOL    HW177291   6.298   2.363   1.246 -0.0163 -0.1383  1.3205
21879SOL    HW277292   6.167   2.313   1.162  0.1206 -2.8285  2.6386
21880SOL     OW77293   8.208   2.437   2.052 -0.2923 -0.2688  0.0573
21880SOL    HW177294   8.291   2.490   2.038 -1.3487  1.3426 -0.3487
21880SOL    HW277295   8.220   2.374   2.129  1.2654 -0.0386  0.0179
21881SOL     OW77296   1.888   1.460   3.876  0.0191 -0.6671 -0.0646
21881SOL    HW177297   1.971   1.427   3.831 -1.0655 -1.5518 -1.4462
21881SOL    HW277298   1.815   1.472   3.808 -1.1045 -0.2675  1.1825
21882SOL     OW77299   0.999   5.082   4.963 -0.1245  0.6098  0.1923
21882SOL    HW177300   0.924   5.116   5.019  0.5904 -0.5025  1.8504
21882SOL    HW277301   0.982   5.105   4.867 -2.0907  1.2127  0.6656
21883SOL     OW77302   3.617   9.334   6.069 -0.3201  0.5871 -0.2090
21883SOL    HW177303   3.653   9.413   6.118  1.8584  0.0641 -0.9332
21883SOL    HW277304   3.617   9.352   5.971  1.1026 -0.6444 -0.4591
21884SOL     OW77305   4.639   4.767   2.399  0.1681  0.4355  0.3569
21884SOL    HW177306   4.699   4.692   2.424  1.2377  1.3972  0.7037
21884SOL    HW277307   4.561   4.770   2.461  0.1315 -0.3720  0.3502
21885SOL     OW77308   8.182   6.060   3.078 -0.5916 -0.6253 -0.1395
21885SOL    HW177309   8.244   6.132   3.110 -0.8422 -0.6186  0.3491
21885SOL    HW277310   8.235   5.981   3.047 -0.2957 -0.0258 -1.1859
21886SOL     OW77311   3.928   8.894   2.147 -0.1268 -0.2003 -0.1766
21886SOL    HW177312   3.873   8.948   2.083  0.3932 -0.0581 -0.5039
21886SOL    HW277313   4.020   8.932   2.152  0.2731 -1.1121 -0.4750
21887SOL     OW77314   5.368   1.988   4.983  0.0496 -0.1825 -0.5603
21887SOL    HW177315   5.420   2.044   4.919  0.5760 -0.2196 -0.1583
21887SOL    HW277316   5.315   2.047   5.044  4.0975  0.0420  2.8762
21888SOL     OW77317   0.992   0.266   4.207  0.5071  0.1723 -0.2552
21888SOL    HW177318   1.041   0.337   4.157 -2.0985  1.3874 -1.1931
21888SOL    HW277319   0.906   0.246   4.160  0.0039 -1.7480  1.4218
21889SOL     OW77320   7.319   1.907   3.077  0.2254  0.3524  0.2167
21889SOL    HW177321   7.417   1.925   3.068  0.8112 -2.0816  1.2307
21889SOL    HW277322   7.289   1.933   3.169 -0.1610  1.4288 -0.2131
21890SOL     OW77323   3.378   3.917   7.305  0.3288  0.0522 -0.4623
21890SOL    HW177324   3.472   3.907   7.274  0.6738 -0.6599  0.7899
21890SOL    HW277325   3.325   3.837   7.276  0.7733 -0.8583  1.1969
21891SOL     OW77326   4.418   0.277   6.295 -0.7613  0.3150 -0.0487
21891SOL    HW177327   4.352   0.234   6.357 -0.3321 -1.3542 -0.6994
21891SOL    HW277328   4.470   0.347   6.345 -0.3744 -1.0360  1.5204
21892SOL     OW77329   7.847   3.571   5.754 -0.4570 -0.0953  0.2829
21892SOL    HW177330   7.866   3.664   5.785  1.9532 -0.2615 -0.6318
21892SOL    HW277331   7.821   3.573   5.657  0.7911 -0.4796 -0.0691
21893SOL     OW77332   8.960   3.237   5.286  0.2544 -0.0218  0.1501
21893SOL    HW177333   8.957   3.335   5.265  2.0757  0.0416  0.0897
21893SOL    HW277334   8.914   3.220   5.373  0.9408  1.0733  0.7450
21894SOL     OW77335   4.413   8.795   8.397  0.2582  0.2640  0.1777
21894SOL    HW177336   4.377   8.757   8.483 -0.4552  1.7310  0.5388
21894SOL    HW277337   4.446   8.720   8.339 -0.2737 -0.8310  1.2613
21895SOL     OW77338   2.086   0.891   5.907  0.0640  0.2305  0.2329
21895SOL    HW177339   2.011   0.830   5.929  1.3826 -1.1183  1.0577
21895SOL    HW277340   2.093   0.962   5.977  2.6868 -2.5992  2.9639
21896SOL     OW77341   7.160   8.765   8.401 -0.1457 -0.3464 -0.3236
21896SOL    HW177342   7.132   8.795   8.310 -0.6351 -1.1665 -0.4441
21896SOL    HW277343   7.090   8.792   8.467 -0.3588 -0.7893 -0.3633
21897SOL     OW77344   7.225   4.105   1.514 -0.0801  0.2372  0.1471
21897SOL    HW177345   7.230   4.053   1.599  0.0402 -0.6671 -0.4068
21897SOL    HW277346   7.235   4.043   1.436  0.9701  1.2057 -0.5032
21898SOL     OW77347   9.898   5.451   0.330 -0.0823 -0.4728 -0.4966
21898SOL    HW177348   9.865   5.460   0.236  0.2598  0.5408 -0.5262
21898SOL    HW277349   9.991   5.413   0.329 -0.4634 -1.4190 -0.5120
21899SOL     OW77350   2.779   9.298   6.088 -0.0699  0.5378  0.2008
21899SOL    HW177351   2.758   9.328   6.181 -1.2070  0.0092  0.1153
21899SOL    HW277352   2.712   9.230   6.059  0.3122  0.6618 -0.9893
21900SOL     OW77353   4.756   2.715   1.574 -0.3460  0.1251 -0.3438
21900SOL    HW177354   4.738   2.811   1.593 -1.0292 -0.3695  1.7328
21900SOL    HW277355   4.670   2.667   1.561 -0.0014 -0.1969 -1.5074
21901SOL     OW77356   2.991   2.201   6.431  0.1542  0.3548 -0.2873
21901SOL    HW177357   2.979   2.206   6.331  0.5308 -0.4110 -0.3762
21901SOL    HW277358   2.914   2.247   6.476  0.9041  2.3143 -0.9521
21902SOL     OW77359   5.661   9.076   7.756  0.1333 -0.4829 -0.3502
21902SOL    HW177360   5.670   9.151   7.822 -0.4972 -0.8160  0.1280
21902SOL    HW277361   5.745   9.068   7.703  0.3988  0.2311 -0.0492
21903SOL     OW77362   0.972   5.284   7.953  0.0920  0.4094 -0.1585
21903SOL    HW177363   1.030   5.346   7.900  3.7347 -2.0839  0.7065
21903SOL    HW277364   1.019   5.196   7.964 -3.6768 -1.5341  1.1063
21904SOL     OW77365   0.943   3.828   1.547  0.3469 -0.7407 -0.4114
21904SOL    HW177366   0.893   3.909   1.577 -1.1672 -2.3411  1.5080
21904SOL    HW277367   1.025   3.856   1.497 -0.3360  1.9511 -0.0930
21905SOL     OW77368   0.797   7.539   4.232 -0.6122  0.0838  0.4725
21905SOL    HW177369   0.876   7.488   4.265 -1.0808 -1.1839 -0.3244
21905SOL    HW277370   0.733   7.554   4.307  0.0904  0.5651  0.9777
21906SOL     OW77371   3.602   0.133   4.895  0.2212 -0.4355 -0.0476
21906SOL    HW177372   3.506   0.146   4.920  0.4676  0.4532  0.4600
21906SOL    HW277373   3.635   0.213   4.844  0.6168 -0.8505 -0.4496
21907SOL     OW77374   8.054   6.005   1.121 -0.1667  0.1441  0.2095
21907SOL    HW177375   8.094   5.975   1.034 -4.5533 -0.0467 -1.8452
21907SOL    HW277376   8.026   5.925   1.174 -0.5627  0.3318  0.2836
21908SOL     OW77377   1.318   1.934   4.195  0.3328  0.1001 -0.0411
21908SOL    HW177378   1.231   1.906   4.235  0.3634  0.4038  0.2368
21908SOL    HW277379   1.345   2.023   4.232  0.6479  0.1124 -0.2981
21909SOL     OW77380   2.426   9.951   9.919  0.4694 -0.3622  0.3462
21909SOL    HW177381   2.489   9.888   9.964  0.8725  0.0825  0.4076
21909SOL    HW277382   2.422  10.037   9.970 -0.0007 -0.2998  0.2072
21910SOL     OW77383   8.373   2.477   5.934  0.5184 -0.0639 -0.0270
21910SOL    HW177384   8.332   2.467   6.025 -1.1159 -0.1617 -0.7521
21910SOL    HW277385   8.452   2.538   5.940 -1.2184  2.1632  0.9998
21911SOL     OW77386   8.431   3.175   1.106  0.3215 -0.4579 -0.6672
21911SOL    HW177387   8.495   3.251   1.111 -0.9726  0.6930 -1.3638
21911SOL    HW277388   8.391   3.171   1.015 -1.2926 -0.5825  0.0262
21912SOL     OW77389   8.679   0.411   7.983  0.1917 -0.1338  0.2959
21912SOL    HW177390   8.661   0.346   8.056  0.6809  0.4990  0.9790
21912SOL    HW277391   8.593   0.445   7.947 -0.1507 -2.5545 -1.3521
21913SOL     OW77392   3.947   6.562   2.695 -0.3305  0.0133  0.2536
21913SOL    HW177393   3.951   6.654   2.655 -0.8395  0.3137  0.8862
21913SOL    HW277394   3.938   6.569   2.795  2.0177 -0.7230  0.5570
21914SOL     OW77395   1.066   4.470   2.441 -0.4141 -0.1218  0.0962
21914SOL    HW177396   1.018   4.557   2.433 -1.6358 -0.8905 -1.1356
21914SOL    HW277397   1.126   4.472   2.522 -2.0893  1.0450  1.3369
21915SOL     OW77398   0.142   0.299   4.676 -0.3020 -0.1027 -0.1433
21915SOL    HW177399   0.138   0.276   4.578 -1.1408  0.5395 -0.2666
21915SOL    HW277400   0.197   0.230   4.724 -0.3898 -0.7612 -0.9681
21916SOL     OW77401   6.185   0.024   8.262  0.3110  0.3636 -0.4139
21916SOL    HW177402   6.129   0.044   8.342  0.0240 -2.8131  0.2669
21916SOL    HW277403   6.141  -0.049   8.208  2.1987  0.0576 -1.6037
21917SOL     OW77404   2.383   9.800   5.417  0.1034  0.2709 -0.6206
21917SOL    HW177405   2.418   9.834   5.504  1.3231 -1.4502 -0.4068
21917SOL    HW277406   2.453   9.811   5.346 -0.7253  1.2699 -1.3001
21918SOL     OW77407   8.119   2.554   3.392  0.2731  0.0481  0.3079
21918SOL    HW177408   8.132   2.614   3.471  0.5701 -2.0011  1.8655
21918SOL    HW277409   8.022   2.555   3.366  0.0230  0.1550  1.2052
21919SOL     OW77410   8.780   7.321   7.432 -0.4605  0.5427 -0.2454
21919SOL    HW177411   8.837   7.393   7.392  0.6562 -0.1364  0.0981
21919SOL    HW277412   8.777   7.332   7.531  1.3223 -1.0021  0.0074
21920SOL     OW77413   6.663   3.902   2.197  0.1468 -0.3120 -0.4744
21920SOL    HW177414   6.757   3.935   2.194  0.4032 -0.8591  1.0004
21920SOL    HW277415   6.657   3.813   2.152  0.4641 -0.5424 -0.0701
21921SOL     OW77416   0.509   3.264   3.528  0.1859  0.0232  0.0293
21921SOL    HW177417   0.534   3.262   3.431 -0.5855  0.1332 -0.1781
21921SOL    HW277418   0.576   3.212   3.581  0.7859  0.2281 -0.5205
21922SOL     OW77419   9.574   9.965   3.462 -0.4070  0.5510 -0.3943
21922SOL    HW177420   9.570   9.924   3.372  0.7519  3.2287 -1.7189
21922SOL    HW277421   9.481   9.990   3.492 -0.7403  0.1012 -1.0431
21923SOL     OW77422   7.790   7.115   0.865 -0.1744  0.1994 -0.2662
21923SOL    HW177423   7.868   7.055   0.884 -0.5658  0.2593  1.6006
21923SOL    HW277424   7.752   7.093   0.775  1.5242 -0.3277 -0.8718
21924SOL     OW77425   3.836   4.378   4.034  0.1089  0.3553  0.2316
21924SOL    HW177426   3.838   4.412   4.128 -0.1792  0.1265  0.3186
21924SOL    HW277427   3.904   4.306   4.024  0.5804  0.8123  0.1004
21925SOL     OW77428   9.275   8.275   0.894  0.2023  0.0555  0.0284
21925SOL    HW177429   9.278   8.250   0.991 -2.6855 -0.1034  0.1124
21925SOL    HW277430   9.300   8.196   0.839  1.2596 -0.0286  0.6121
21926SOL     OW77431   1.672   4.646   5.171  0.3566  0.2013 -0.2885
21926SOL    HW177432   1.739   4.572   5.178  0.4965  0.4089  0.7283
21926SOL    HW277433   1.700   4.721   5.231 -0.9106  0.1905  0.3455
21927SOL     OW77434   3.795   7.187   0.961  0.5219  0.4549 -0.0401
21927SOL    HW177435   3.766   7.172   1.055  1.1748  0.0677  0.0996
21927SOL    HW277436   3.763   7.277   0.930  3.6975  2.3240  1.8860
21928SOL     OW77437   4.040   7.084   1.852 -0.3431  0.0436  0.1395
21928SOL    HW177438   3.997   7.095   1.942 -0.9684  0.2942 -0.1820
21928SOL    HW277439   4.127   7.133   1.850 -0.8090  0.8955  0.2863
21929SOL     OW77440   4.247   3.656   1.108 -0.0408 -0.1093  0.5914
21929SOL    HW177441   4.150   3.647   1.083 -0.5158  2.0429  1.4938
21929SOL    HW277442   4.278   3.572   1.153 -1.1382 -1.2771 -0.7786
21930SOL     OW77443   4.379   9.402   0.119 -0.2233  0.3101  0.1592
21930SOL    HW177444   4.394   9.376   0.215  0.2879 -1.1799 -0.3207
21930SOL    HW277445   4.295   9.457   0.113 -1.6718 -1.7472  1.1008
21931SOL     OW77446   0.711   6.034   7.446  0.5513  0.1287  0.3825
21931SOL    HW177447   0.714   5.934   7.437 -0.2623 -0.0499  1.9870
21931SOL    HW277448   0.796   6.073   7.410  0.0543 -0.9806 -2.1095
21932SOL     OW77449   3.884   4.640   5.198  0.0122  0.4412  0.4553
21932SOL    HW177450   3.848   4.721   5.150  0.5493  0.2525 -0.2784
21932SOL    HW277451   3.962   4.604   5.147  0.8352  0.4596  1.6825
21933SOL     OW77452   2.427   9.169   3.680 -0.5536 -0.0289 -0.0831
21933SOL    HW177453   2.448   9.086   3.627  3.4976 -0.0038  1.3137
21933SOL    HW277454   2.473   9.247   3.638 -0.2537  0.6110  1.3985
21934SOL     OW77455   7.764   1.540   4.638 -0.2555  0.0750 -0.0078
21934SOL    HW177456   7.840   1.579   4.691 -0.6948  0.1872  0.5461
21934SOL    HW277457   7.724   1.611   4.580  0.7413 -0.2405 -1.1081
21935SOL     OW77458   0.012   3.434   6.246  0.5951  0.2736 -0.3259
21935SOL    HW177459  -0.025   3.341   6.239  2.0882 -0.2270 -2.0671
21935SOL    HW277460   0.103   3.430   6.289 -0.9508  1.4120  3.2788
21936SOL     OW77461   8.583   5.557   2.153 -0.5997 -0.1925 -0.1471
21936SOL    HW177462   8.635   5.640   2.132  1.8768 -0.9605  2.6291
21936SOL    HW277463   8.526   5.574   2.233 -0.4312 -1.0398  0.1502
21937SOL     OW77464   5.321   0.441   6.576 -0.6227  0.6329  0.3168
21937SOL    HW177465   5.394   0.446   6.508 -0.5837  2.6575  0.4700
21937SOL    HW277466   5.358   0.404   6.661  0.0439  0.9231  0.1578
21938SOL     OW77467   2.533   0.888   4.502  0.9127 -0.2311 -0.0924
21938SOL    HW177468   2.567   0.900   4.595 -1.4808  1.4305  0.6289
21938SOL    HW277469   2.511   0.978   4.463  1.2975 -0.9558 -2.0396
21939SOL     OW77470   8.043   1.236   1.229 -0.6730 -0.1741  0.1319
21939SOL    HW177471   8.005   1.161   1.283 -0.8582  0.8273  1.4049
21939SOL    HW277472   7.985   1.316   1.238  0.1993  0.5053 -0.2138
21940SOL     OW77473   9.067   8.327   2.534 -0.3853 -0.1305  0.3845
21940SOL    HW177474   9.051   8.253   2.470 -0.9659 -0.2030  0.6128
21940SOL    HW277475   9.160   8.319   2.571  0.2301  0.3723 -1.0311
21941SOL     OW77476   2.921   7.068   0.058  0.0255  0.1213 -0.1703
21941SOL    HW177477   2.952   7.149   0.107 -0.5999  0.1587  0.1728
21941SOL    HW277478   2.975   7.056  -0.025  0.5915  0.4851  0.1425
21942SOL     OW77479   3.594   3.169   4.804 -0.9440 -0.3340 -0.3395
21942SOL    HW177480   3.686   3.191   4.770 -0.6334 -2.1403 -0.7477
21942SOL    HW277481   3.601   3.132   4.896 -1.3590  0.3555 -0.0279
21943SOL     OW77482   9.092   6.598   6.105  0.7013  0.0265  0.3926
21943SOL    HW177483   9.170   6.536   6.099  0.4895 -0.4715  2.3679
21943SOL    HW277484   9.123   6.692   6.088  1.3504 -0.4100 -0.8440
21944SOL     OW77485   7.486   8.907   5.222 -0.0732 -0.4343  0.0365
21944SOL    HW177486   7.465   8.998   5.258  0.0104 -0.5282  0.3205
21944SOL    HW277487   7.488   8.841   5.297 -1.6535 -0.9558 -0.3499
21945SOL     OW77488   9.442   0.849   7.695  0.1091 -0.0598 -0.0721
21945SOL    HW177489   9.463   0.754   7.720  2.9656  0.6771  0.5622
21945SOL    HW277490   9.453   0.862   7.597  0.1078 -0.3093 -0.1035
21946SOL     OW77491   1.281   6.078   1.978  0.8839  0.5664 -0.4658
21946SOL    HW177492   1.287   6.157   1.916  0.1073 -0.0227 -1.2862
21946SOL    HW277493   1.234   6.003   1.933  2.1359 -0.5896  0.1052
21947SOL     OW77494   4.339   6.923   5.142  0.5855  0.1900 -0.7317
21947SOL    HW177495   4.397   6.966   5.211 -0.8046  0.7660  0.0934
21947SOL    HW277496   4.283   6.852   5.185  1.1472 -0.8333 -1.6484
21948SOL     OW77497   0.496   4.673   5.882  0.1961  0.3813  0.4154
21948SOL    HW177498   0.490   4.698   5.978 -1.6217  1.8797 -0.0496
21948SOL    HW277499   0.515   4.754   5.827 -1.3694  0.0114 -0.7137
21949SOL     OW77500   1.713   1.126   3.199 -0.3622  0.0647  0.1211
21949SOL    HW177501   1.797   1.156   3.154 -0.8932 -1.8974 -2.3441
21949SOL    HW277502   1.733   1.045   3.254 -0.7884 -1.0406 -1.3118
21950SOL     OW77503   6.162   9.701   2.659  0.1538  0.3118  1.0335
21950SOL    HW177504   6.214   9.785   2.676  0.5878  0.0548  0.9847
21950SOL    HW277505   6.088   9.720   2.595  2.0250  0.0262 -1.2633
21951SOL     OW77506   9.371   0.413   4.231  0.8156  0.2511  0.5683
21951SOL    HW177507   9.403   0.322   4.260  0.3598 -0.1737 -0.2458
21951SOL    HW277508   9.389   0.479   4.304  1.0060 -0.5226  1.2345
21952SOL     OW77509   4.519   0.146   1.812  0.0038 -0.5804  0.2071
21952SOL    HW177510   4.572   0.122   1.894 -1.7347 -0.9586  1.2427
21952SOL    HW277511   4.423   0.156   1.837 -0.1115  2.2450 -1.2419
21953SOL     OW77512   4.021   3.939   5.095 -0.2536  0.0242  0.0557
21953SOL    HW177513   3.965   3.990   5.030 -1.9361  0.5514  1.8778
21953SOL    HW277514   3.997   3.842   5.089  0.0583 -0.0195 -0.5501
21954SOL     OW77515   3.348   1.540   7.112 -0.1587  0.4152 -0.1832
21954SOL    HW177516   3.342   1.444   7.138  0.6221 -0.0620 -1.7381
21954SOL    HW277517   3.432   1.580   7.148 -0.8842  0.7522  1.1738
21955SOL     OW77518   1.994   5.176   0.019 -0.3262 -0.4207  0.5970
21955SOL    HW177519   1.964   5.081   0.003  2.7158 -1.3248 -0.0264
21955SOL    HW277520   1.999   5.193   0.118 -2.9173 -0.1839  0.7346
21956SOL     OW77521   1.308   9.634   0.844 -0.5241  0.0657 -0.3080
21956SOL    HW177522   1.341   9.549   0.886 -0.2031 -0.0505 -0.7991
21956SOL    HW277523   1.209   9.639   0.856 -0.1497  1.2952  2.7507
21957SOL     OW77524   9.669   9.867   5.177 -0.2122 -0.1701  0.2236
21957SOL    HW177525   9.612   9.798   5.131 -0.0219 -0.4771  0.4457
21957SOL    HW277526   9.611   9.927   5.232 -0.5308  0.7085 -1.0556
21958SOL     OW77527   9.578   7.688   7.769 -0.0220  0.3983  0.8097
21958SOL    HW177528   9.587   7.764   7.833  2.0943  0.3723  0.6039
21958SOL    HW277529   9.585   7.723   7.675 -2.8724  0.4086  0.5540
21959SOL     OW77530   0.669   4.166   4.867  0.5542  0.0733 -0.1085
21959SOL    HW177531   0.663   4.220   4.950  0.0179 -0.6656  0.3442
21959SOL    HW277532   0.715   4.079   4.887  0.2910 -0.1688 -0.5462
21960SOL     OW77533   0.826   0.183   4.872  0.5544  0.2910  0.0308
21960SOL    HW177534   0.803   0.121   4.798 -2.3157  0.5502  0.6682
21960SOL    HW277535   0.891   0.252   4.839  0.5862 -0.5841 -1.7715
21961SOL     OW77536   9.863   4.219   7.040 -0.3209 -0.1238 -0.6641
21961SOL    HW177537   9.795   4.271   7.091 -0.4000 -0.5877 -0.2887
21961SOL    HW277538   9.841   4.222   6.942 -0.6056  0.1303 -0.5941
21962SOL     OW77539   7.185   5.903   0.817  0.4877 -0.0656  0.4385
21962SOL    HW177540   7.153   5.975   0.878 -0.8897 -0.9869  0.8226
21962SOL    HW277541   7.126   5.823   0.825  0.9753 -0.6282 -1.2557
21963SOL     OW77542   7.456   1.452   2.394 -0.0096 -0.3017 -0.2694
21963SOL    HW177543   7.422   1.378   2.452  0.1609 -0.0647  0.1335
21963SOL    HW277544   7.388   1.525   2.390 -0.4205 -0.7231 -1.1237
21964SOL     OW77545   1.932   4.992   5.180 -0.1125 -0.0716  0.3537
21964SOL    HW177546   1.876   5.074   5.169  1.9939  1.3443 -0.1505
21964SOL    HW277547   1.966   4.963   5.090  1.7627  0.4207  0.8688
21965SOL     OW77548   2.960   7.634   1.763 -0.4532  0.7581  0.2114
21965SOL    HW177549   2.978   7.722   1.720  0.3690  1.0193  1.0738
21965SOL    HW277550   3.045   7.595   1.798 -0.3087 -1.7528 -2.6670
21966SOL     OW77551   6.676   7.665   4.129  0.1461 -0.2832  0.1549
21966SOL    HW177552   6.740   7.722   4.077 -1.3149 -0.1893 -1.5805
21966SOL    HW277553   6.633   7.599   4.068 -2.1834  0.3405  1.0733
21967SOL     OW77554   4.583   3.078   5.887 -0.4036  0.0007  0.1495
21967SOL    HW177555   4.498   3.048   5.843 -0.6367  1.2942 -0.3154
21967SOL    HW277556   4.609   3.012   5.958 -1.0995 -1.0675 -0.5705
21968SOL     OW77557   5.819   1.288   4.421 -0.2595 -0.5738  0.4693
21968SOL    HW177558   5.846   1.280   4.517  0.1712  1.3960  0.5302
21968SOL    HW277559   5.750   1.359   4.411 -0.6003 -1.0447 -0.6369
21969SOL     OW77560   9.058   2.402   5.296 -0.4714 -0.6462 -0.4705
21969SOL    HW177561   8.959   2.386   5.288 -1.1263  2.1074  1.4780
21969SOL    HW277562   9.080   2.494   5.263  1.4929 -1.2828 -0.9999
21970SOL     OW77563   6.320   9.168   4.868 -0.2419 -0.2538  0.5909
21970SOL    HW177564   6.272   9.096   4.817 -0.5911  1.2651 -1.2895
21970SOL    HW277565   6.266   9.252   4.866  1.4234  0.8359  0.4121
21971SOL     OW77566   7.654   6.873   2.052  0.6923  0.1565 -0.3275
21971SOL    HW177567   7.709   6.792   2.029  0.4258  0.3903 -1.8848
21971SOL    HW277568   7.714   6.952   2.058  0.5262  0.4679 -2.3321
21972SOL     OW77569   2.806   4.985   3.900  0.1377 -0.2757  0.4814
21972SOL    HW177570   2.900   5.020   3.905  0.0538  0.2601 -1.2075
21972SOL    HW277571   2.808   4.885   3.897  0.6008 -0.2963  1.4298
21973SOL     OW77572   6.542   0.267   4.005 -0.3563  0.5070  0.6280
21973SOL    HW177573   6.488   0.260   3.922  0.7433  0.6114 -0.1099
21973SOL    HW277574   6.517   0.350   4.055 -0.0244  1.1970 -0.3287
21974SOL     OW77575   6.335   5.142   1.287  0.0580 -0.4193  0.3585
21974SOL    HW177576   6.317   5.231   1.244 -0.2024 -1.6609 -2.1505
21974SOL    HW277577   6.317   5.149   1.385 -1.4780  1.8782 -0.0418
21975SOL     OW77578   7.272   1.295   4.143  0.4268  0.3223  0.2083
21975SOL    HW177579   7.275   1.266   4.047  0.5836 -0.7946  0.5521
21975SOL    HW277580   7.239   1.220   4.200  1.9456  0.4098  1.2472
21976SOL     OW77581   3.409   1.782   0.420  0.0814  0.0829  0.2326
21976SOL    HW177582   3.505   1.764   0.441 -0.1763 -0.3092  1.1027
21976SOL    HW277583   3.351   1.731   0.483 -0.7193 -1.0100 -1.3766
21977SOL     OW77584   2.595   1.825   1.765 -0.1882 -0.3248  0.3051
21977SOL    HW177585   2.572   1.837   1.669 -0.5882 -1.9404  0.1932
21977SOL    HW277586   2.692   1.844   1.778 -0.3527  0.9149 -0.2268
21978SOL     OW77587   4.491   4.947   3.934 -0.6772 -0.4541  0.1546
21978SOL    HW177588   4.538   4.893   3.864 -1.5149 -0.6345 -0.2780
21978SOL    HW277589   4.456   5.031   3.893  0.6201  0.4199  0.8296
21979SOL     OW77590   6.371   2.002   1.343  0.6249  0.1215 -0.6972
21979SOL    HW177591   6.298   2.037   1.285  1.3120  1.6632 -0.6613
21979SOL    HW277592   6.333   1.942   1.414 -0.6643  1.3667 -0.3284
21980SOL     OW77593   7.469   0.121   4.327  0.1938  0.1202  0.0138
21980SOL    HW177594   7.417   0.194   4.282 -0.0758 -0.3605 -0.4539
21980SOL    HW277595   7.534   0.083   4.262 -0.7239 -1.0963 -0.2085
21981SOL     OW77596   1.147   1.047   4.935 -0.3466 -0.1892  0.5394
21981SOL    HW177597   1.241   1.012   4.946 -0.8486 -1.6004  0.3933
21981SOL    HW277598   1.113   1.025   4.844 -0.8983  0.1369  0.6635
21982SOL     OW77599   2.968   0.595   3.276 -0.2216 -0.5474 -0.6661
21982SOL    HW177600   3.031   0.673   3.281  0.9286 -1.4858 -0.4066
21982SOL    HW277601   2.938   0.582   3.181 -1.1541  0.7631 -0.5815
21983SOL     OW77602   0.928   7.715   1.170  0.3221 -0.1317  0.5250
21983SOL    HW177603   1.008   7.656   1.178  0.5961  0.1889  0.1272
21983SOL    HW277604   0.862   7.674   1.107  1.2310  0.7911 -1.0366
21984SOL     OW77605   3.302   8.342   7.910 -0.0145  0.1297 -0.1737
21984SOL    HW177606   3.378   8.393   7.869  0.5217 -0.8958 -0.4657
21984SOL    HW277607   3.216   8.384   7.884  0.3176 -0.5439 -2.3979
21985SOL     OW77608   2.336   1.550   3.191 -0.0779  0.1449 -0.0766
21985SOL    HW177609   2.314   1.620   3.259 -0.0941  0.1858 -0.1239
21985SOL    HW277610   2.268   1.551   3.119 -1.1780 -1.2332  0.9146
21986SOL     OW77611   8.221   1.811   3.761  0.5728 -0.0109 -0.6973
21986SOL    HW177612   8.157   1.880   3.728  0.5871 -1.0814 -3.0842
21986SOL    HW277613   8.236   1.823   3.859 -1.7231  1.4915 -0.4979
21987SOL     OW77614   2.533   4.138   4.094 -0.0124  0.1510  0.9037
21987SOL    HW177615   2.503   4.163   4.002  3.8618 -0.7473 -0.7244
21987SOL    HW277616   2.509   4.043   4.112 -0.0375  0.0676  0.4487
21988SOL     OW77617   7.851   1.994   6.239  0.0024 -0.0866 -0.3338
21988SOL    HW177618   7.928   2.036   6.286  1.1361  0.9432 -2.9977
21988SOL    HW277619   7.857   1.895   6.248 -0.8686  0.1316  3.2220
21989SOL     OW77620   1.011   6.554   7.147  0.4647  0.4130 -0.6637
21989SOL    HW177621   1.091   6.494   7.150  0.2790  0.1925  0.1369
21989SOL    HW277622   0.948   6.528   7.221  1.0243  2.5089  0.5783
21990SOL     OW77623   6.821   3.481   0.641  0.0777  0.4185  0.2041
21990SOL    HW177624   6.736   3.456   0.686 -1.5351  0.8139 -2.4916
21990SOL    HW277625   6.898   3.444   0.692 -1.7988 -1.7362  1.5874
21991SOL     OW77626   1.684   0.933   3.745 -0.6776 -0.2526 -0.1300
21991SOL    HW177627   1.622   0.867   3.702 -1.2077 -0.4059  0.8505
21991SOL    HW277628   1.633   1.014   3.771 -0.5845 -0.6131  1.1994
21992SOL     OW77629   0.478   8.995   6.458 -0.4498  0.4036  0.3465
21992SOL    HW177630   0.425   9.073   6.490 -0.1424  0.6367  0.2961
21992SOL    HW277631   0.508   8.941   6.536 -2.3558 -0.7841  0.2665
21993SOL     OW77632   0.239   8.681   1.732 -0.0167  0.1628  0.3398
21993SOL    HW177633   0.209   8.776   1.742 -0.1397 -0.0287  1.9982
21993SOL    HW277634   0.226   8.652   1.637  1.0809  2.1527 -0.4622
21994SOL     OW77635   2.186   1.331  10.035  0.5069  0.4109 -0.3617
21994SOL    HW177636   2.263   1.323  10.098 -0.8125 -1.9580  1.0286
21994SOL    HW277637   2.175   1.426  10.007  3.6934  0.8480 -0.3111
21995SOL     OW77638   9.768   8.616   2.822  0.4205  0.6452  0.1234
21995SOL    HW177639   9.763   8.517   2.834 -1.2689  0.9665  2.5516
21995SOL    HW277640   9.863   8.645   2.816  0.9326 -1.0767 -0.1668
21996SOL     OW77641   1.135   7.506   0.492  0.4732  0.0341 -0.2692
21996SOL    HW177642   1.207   7.518   0.424 -1.4205  0.1918 -2.3100
21996SOL    HW277643   1.118   7.408   0.505 -0.7658  0.0186 -1.8220
21997SOL     OW77644   6.398   7.037   6.327 -0.3453  0.2397 -0.4960
21997SOL    HW177645   6.302   7.038   6.299 -0.5723 -2.1790  0.1434
21997SOL    HW277646   6.404   7.040   6.427  0.1860 -1.0904 -0.4794
21998SOL     OW77647   7.308   7.252   7.756  0.6373 -0.0626 -0.3997
21998SOL    HW177648   7.328   7.343   7.721  0.7537  0.7813  1.7971
21998SOL    HW277649   7.388   7.193   7.747  1.4204  0.8444  0.6348
21999SOL     OW77650   5.217   4.724   1.606  0.6562 -0.2681 -0.1749
21999SOL    HW177651   5.288   4.770   1.553  0.2971  0.1519 -0.2955
21999SOL    HW277652   5.178   4.789   1.673 -1.0502  0.1211 -1.5097
22000SOL     OW77653   8.325   3.278   4.012  0.3279 -0.1121  0.2342
22000SOL    HW177654   8.282   3.235   4.091 -1.1574  2.5105  0.8791
22000SOL    HW277655   8.256   3.299   3.943  0.7560  2.8520  0.6818
22001SOL     OW77656   1.134   5.053   3.059 -0.3256 -0.1505  0.5199
22001SOL    HW177657   1.056   5.104   3.095 -2.0538 -2.1674 -0.3175
22001SOL    HW277658   1.160   5.090   2.969 -0.0551  0.7649  0.9700
22002SOL     OW77659   1.967   2.994   4.923  0.0623  0.3129 -0.0032
22002SOL    HW177660   1.898   3.059   4.954  0.1639  1.0069 -1.1781
22002SOL    HW277661   2.031   3.041   4.861 -0.2913 -1.0595 -1.4481
22003SOL     OW77662   1.384   8.600   4.028 -0.2552  0.0207  0.1261
22003SOL    HW177663   1.476   8.618   4.060  0.9057 -1.7998 -2.0014
22003SOL    HW277664   1.342   8.686   3.997  0.2089  1.0607  2.2797
22004SOL     OW77665   3.707   3.356   7.018  0.0404  0.2803  0.1831
22004SOL    HW177666   3.803   3.385   7.012  1.0238 -2.2034  2.9801
22004SOL    HW277667   3.694   3.271   6.968 -0.0681 -0.8044  2.0062
22005SOL     OW77668   3.427   5.846   1.589  0.8598  0.2645  0.1626
22005SOL    HW177669   3.474   5.831   1.502  1.1299  0.6635  0.2376
22005SOL    HW277670   3.338   5.887   1.574  1.1678  0.9144  0.1143
22006SOL     OW77671   3.076   0.599   6.438 -0.1025  0.1438  0.0761
22006SOL    HW177672   2.980   0.573   6.452 -0.1560  0.5614  0.4953
22006SOL    HW277673   3.081   0.684   6.387  0.0819 -0.7878 -1.5010
22007SOL     OW77674   6.062   4.922   1.883  0.3260 -0.3297  0.4749
22007SOL    HW177675   5.968   4.943   1.912  0.2342 -0.5963  0.3777
22007SOL    HW277676   6.126   4.951   1.954  0.1216 -0.7395  0.8319
22008SOL     OW77677   9.848   4.695   6.046  0.1003 -0.1755 -0.3150
22008SOL    HW177678   9.876   4.698   5.950  0.3110 -0.1331 -0.2532
22008SOL    HW277679   9.776   4.627   6.059  2.2932 -2.4899  0.0664
22009SOL     OW77680   5.654   2.445   0.716  0.3919  0.1846 -1.2177
22009SOL    HW177681   5.556   2.431   0.731  0.6291 -0.1005  0.1159
22009SOL    HW277682   5.691   2.502   0.789  1.3796 -0.3687 -1.2794
22010SOL     OW77683   5.765   7.306   3.437 -0.1730 -0.2621 -0.0748
22010SOL    HW177684   5.708   7.382   3.404 -0.3029 -0.8069 -1.1300
22010SOL    HW277685   5.835   7.286   3.368  1.9030  1.0044  1.5837
22011SOL     OW77686   9.071   7.326   0.725  0.1313 -0.2431 -0.4032
22011SOL    HW177687   9.092   7.282   0.638 -2.5215  3.3309 -2.9715
22011SOL    HW277688   9.112   7.417   0.727  0.2791 -0.3218  2.1956
22012SOL     OW77689   4.180   5.612   4.019  0.2429  0.2339 -0.3494
22012SOL    HW177690   4.224   5.613   3.928  0.7691  0.7094 -0.0954
22012SOL    HW277691   4.229   5.548   4.078 -0.5058 -0.5670 -0.5976
22013SOL     OW77692   0.484   3.353   0.435 -0.7760 -0.2449 -0.0346
22013SOL    HW177693   0.390   3.377   0.459 -0.2569  0.5214  1.3360
22013SOL    HW277694   0.533   3.328   0.519  0.7850  1.3359 -0.4437
22014SOL     OW77695   4.266   4.361   7.408  0.4195  0.7841  0.4777
22014SOL    HW177696   4.295   4.456   7.413 -1.3797  1.3425  0.5860
22014SOL    HW277697   4.199   4.343   7.480 -0.1158 -0.2461 -0.2681
22015SOL     OW77698   0.081   3.187   5.346  0.9292  0.4488 -0.4627
22015SOL    HW177699   0.126   3.276   5.340  0.2586  0.7356 -1.4450
22015SOL    HW277700  -0.002   3.188   5.291 -0.5719  0.0971  1.7417
22016SOL     OW77701   2.457   9.224   2.865  0.3366 -0.7566  0.7256
22016SOL    HW177702   2.479   9.320   2.885 -0.5649 -0.0543 -1.4723
22016SOL    HW277703   2.531   9.183   2.812 -1.4001  0.2228 -2.5984
22017SOL     OW77704   2.088   9.843   3.073  0.3537  0.2064  0.3969
22017SOL    HW177705   2.059   9.938   3.062  2.1267  0.7281 -0.0172
22017SOL    HW277706   2.105   9.803   2.982 -1.1426 -0.7603  0.5301
22018SOL     OW77707   8.426   5.588   0.132 -0.1547 -0.2983 -0.6459
22018SOL    HW177708   8.328   5.609   0.140  0.3795  1.7691  0.6814
22018SOL    HW277709   8.468   5.649   0.066  0.6652  0.2678  0.3898
22019SOL     OW77710   0.392   1.274   0.619  0.3598  0.2151 -0.0352
22019SOL    HW177711   0.488   1.260   0.596  0.5567  0.3328  0.7009
22019SOL    HW277712   0.362   1.364   0.584  0.6102  0.3274  0.0380
22020SOL     OW77713   3.835   0.543   4.404  0.2689  0.2978 -0.1925
22020SOL    HW177714   3.864   0.625   4.453  0.2931 -0.7001  1.5205
22020SOL    HW277715   3.899   0.524   4.329  0.9530  1.1544  0.1715
22021SOL     OW77716   8.018   3.852   6.671  0.3772  0.6227  0.0843
22021SOL    HW177717   7.949   3.883   6.736  0.8675  0.4979  0.6805
22021SOL    HW277718   7.979   3.782   6.612  0.0492  0.4051  0.5523
22022SOL     OW77719   5.826   9.181   1.746  0.2395 -0.1625 -0.0201
22022SOL    HW177720   5.862   9.274   1.746 -0.7720  0.2687  1.9113
22022SOL    HW277721   5.774   9.165   1.831 -1.2349 -1.8464 -1.1950
22023SOL     OW77722   7.574   0.631   1.541 -0.2200 -0.2112 -0.3140
22023SOL    HW177723   7.505   0.703   1.542 -0.5094 -0.4853 -0.9536
22023SOL    HW277724   7.530   0.542   1.553 -0.0184 -0.4214 -1.1262
22024SOL     OW77725   6.480   0.175   6.825  0.0860 -0.0209  0.3204
22024SOL    HW177726   6.548   0.243   6.797 -0.9806  1.2487  0.7595
22024SOL    HW277727   6.507   0.085   6.791  1.4718  0.6293 -0.3502
22025SOL     OW77728   8.304   2.350   0.525 -0.4901  0.3749 -0.2771
22025SOL    HW177729   8.351   2.304   0.449  0.2911  0.6293  0.0455
22025SOL    HW277730   8.214   2.382   0.494  0.5141  1.9992 -1.6289
22026SOL     OW77731   7.944   5.455   1.702 -0.1657  0.0003 -0.6452
22026SOL    HW177732   7.899   5.450   1.791  1.3612 -0.8512  0.0999
22026SOL    HW277733   8.005   5.534   1.700  0.9247 -0.8242 -0.3878
22027SOL     OW77734   1.618   1.388   1.748  0.2780 -0.5602  0.0557
22027SOL    HW177735   1.632   1.289   1.736 -0.4532 -0.6769  0.1637
22027SOL    HW277736   1.611   1.431   1.659  0.3355 -0.6460  0.0094
22028SOL     OW77737   4.741   1.091   0.420  0.1579 -0.2258  0.0541
22028SOL    HW177738   4.824   1.135   0.386  0.5906 -0.8937  0.2271
22028SOL    HW277739   4.714   1.132   0.507  1.5154 -1.4261  1.0566
22029SOL     OW77740   7.396   8.510   3.785 -0.0878 -0.1588  0.1751
22029SOL    HW177741   7.307   8.550   3.764 -0.4033 -1.9361 -2.0797
22029SOL    HW277742   7.467   8.580   3.775 -1.2387  1.4881  2.7709
22030SOL     OW77743   7.279   1.069   3.768 -0.1598  0.1771 -0.2209
22030SOL    HW177744   7.307   1.033   3.679 -2.1863 -1.0281 -0.3854
22030SOL    HW277745   7.187   1.037   3.790  0.1824  0.7295  2.1663
22031SOL     OW77746   7.600   6.022   7.444  0.0053  0.8529  0.5274
22031SOL    HW177747   7.596   6.095   7.512 -1.8988  0.1445  1.2098
22031SOL    HW277748   7.521   6.029   7.383 -0.9261 -1.4018  1.4235
22032SOL     OW77749   2.103   7.896   3.177 -0.3315 -0.2021  0.3727
22032SOL    HW177750   2.188   7.846   3.157 -0.1683 -0.8801  2.5955
22032SOL    HW277751   2.050   7.906   3.093  1.6543 -0.3147 -0.9436
22033SOL     OW77752   8.874   3.023   6.124 -0.4552  0.0001  0.0753
22033SOL    HW177753   8.797   3.044   6.184 -2.2492 -2.8724 -1.1293
22033SOL    HW277754   8.845   3.029   6.028  0.9736 -0.5835 -0.4188
22034SOL     OW77755   1.044   6.695   1.905 -0.1208 -0.1906  0.0784
22034SOL    HW177756   1.039   6.605   1.948 -1.1566 -0.5740 -0.8192
22034SOL    HW277757   1.102   6.689   1.823 -1.3819 -0.4142 -0.8258
22035SOL     OW77758   1.006   3.880   0.083  0.0406 -0.1423 -0.4303
22035SOL    HW177759   1.033   3.794   0.039  1.7639 -0.4132  1.1064
22035SOL    HW277760   1.086   3.923   0.124 -0.8386  2.1372 -1.0349
22036SOL     OW77761   7.101   7.320   6.916 -0.1891  0.1780 -0.1382
22036SOL    HW177762   7.030   7.253   6.895  0.6409 -1.5630  2.4169
22036SOL    HW277763   7.095   7.346   7.013  3.2958 -0.8157  0.4050
22037SOL     OW77764   1.467   1.781   4.032 -0.7639  0.0494 -0.0427
22037SOL    HW177765   1.527   1.848   3.987 -3.6904  1.0308 -2.6782
22037SOL    HW277766   1.413   1.827   4.102  1.4118 -0.8213  2.2848
22038SOL     OW77767   3.906   5.146   0.636  0.3651  0.1075 -0.1057
22038SOL    HW177768   3.978   5.096   0.686 -0.3427  0.2821  1.1072
22038SOL    HW277769   3.866   5.215   0.696 -0.2960  0.5266 -1.0257
22039SOL     OW77770   3.646   4.702   5.408 -0.5596  0.0144 -0.1942
22039SOL    HW177771   3.568   4.761   5.390 -0.7291  0.9157  3.1749
22039SOL    HW277772   3.731   4.754   5.395 -0.5992 -0.2083 -1.3185
22040SOL     OW77773   1.664   4.829   1.912  0.0183  0.3657  0.4794
22040SOL    HW177774   1.668   4.849   1.814 -1.3513 -2.1989 -0.1445
22040SOL    HW277775   1.581   4.776   1.932  2.3522 -2.7879  2.3329
22041SOL     OW77776   4.447   8.533   3.141  0.1385 -0.5020  0.3334
22041SOL    HW177777   4.499   8.615   3.118 -0.1691 -0.8779 -1.8294
22041SOL    HW277778   4.454   8.515   3.239  3.2393  0.0344  0.2555
22042SOL     OW77779   9.824   7.099   2.288  0.1872  0.1425 -0.0307
22042SOL    HW177780   9.811   7.198   2.298  1.0247  0.1184  1.3411
22042SOL    HW277781   9.780   7.052   2.364  0.9144 -0.4703  0.0109
22043SOL     OW77782   7.420   2.631   5.211 -0.0813  0.3190 -0.3202
22043SOL    HW177783   7.479   2.711   5.203 -3.1983  2.5888 -2.0506
22043SOL    HW277784   7.381   2.610   5.121 -2.6966 -0.4075  0.9334
22044SOL     OW77785   9.576   1.416   6.360  0.0767 -0.4361 -0.9981
22044SOL    HW177786   9.518   1.430   6.280 -0.7390  0.1759 -0.3024
22044SOL    HW277787   9.649   1.351   6.337 -1.2654 -1.7309 -1.6903
22045SOL     OW77788   2.053   2.811   3.506  0.2456  0.1988  0.3728
22045SOL    HW177789   2.087   2.717   3.517 -0.2424 -0.1663 -1.1128
22045SOL    HW277790   1.980   2.812   3.438  0.2854  1.6815  0.3406
22046SOL     OW77791   2.946   4.242   3.564 -0.7195  0.4277 -0.7252
22046SOL    HW177792   2.905   4.155   3.536 -0.5598 -0.2821  1.2153
22046SOL    HW277793   3.017   4.268   3.498  1.8348 -2.7904  0.6449
22047SOL     OW77794   1.731   9.270   4.336  0.0538 -0.4870 -0.4801
22047SOL    HW177795   1.694   9.347   4.283  1.7277  0.0387 -0.8970
22047SOL    HW277796   1.684   9.266   4.424 -0.2495  0.8429 -0.5602
22048SOL     OW77797   1.529   0.486   2.046 -0.0101  0.3915  0.6467
22048SOL    HW177798   1.476   0.566   2.076 -0.3538  0.3060  0.2596
22048SOL    HW277799   1.487   0.446   1.965  0.8336  0.5233  0.1402
22049SOL     OW77800   5.342   9.682   1.137  0.0253 -0.0635  0.0707
22049SOL    HW177801   5.301   9.592   1.123  1.0159 -1.1377  3.6056
22049SOL    HW277802   5.318   9.715   1.229  2.0204  2.0170 -0.1254
22050SOL     OW77803   1.742   4.601   3.391  0.6252  0.0135 -0.2785
22050SOL    HW177804   1.777   4.604   3.298 -0.6080 -0.7776 -0.7789
22050SOL    HW277805   1.642   4.596   3.389  0.4087  2.7938  1.1123
22051SOL     OW77806   4.478   0.985   4.644  0.3353 -0.0316  0.3645
22051SOL    HW177807   4.451   1.065   4.591  0.4342 -0.7152 -0.7392
22051SOL    HW277808   4.397   0.931   4.667  0.3284  0.0899  0.6272
22052SOL     OW77809   4.279   9.992   5.436  0.5955 -0.1025  0.0002
22052SOL    HW177810   4.309  10.023   5.346  0.4837 -0.4451 -0.1551
22052SOL    HW277811   4.250  10.070   5.491 -1.1207 -0.0852 -0.9120
22053SOL     OW77812   6.631   8.693   6.027  0.4796 -0.0698 -0.0717
22053SOL    HW177813   6.599   8.685   5.932  0.3260 -1.0394  0.0652
22053SOL    HW277814   6.561   8.658   6.089  0.2169  1.3661  0.4587
22054SOL     OW77815   4.076   2.853   5.631 -0.4462 -0.1514 -1.0373
22054SOL    HW177816   4.007   2.781   5.641 -0.3857 -0.3983 -2.3285
22054SOL    HW277817   4.110   2.853   5.537  2.1796 -0.8256 -0.1340
22055SOL     OW77818   0.218   3.275   7.153 -0.7217  0.1560 -0.1911
22055SOL    HW177819   0.311   3.237   7.155 -0.0416  1.8348  1.5261
22055SOL    HW277820   0.185   3.278   7.059  1.7937  1.4867 -1.0715
22056SOL     OW77821   3.733   8.545   7.842 -0.2245  0.6550 -0.0072
22056SOL    HW177822   3.807   8.507   7.898  0.3677  4.1085  1.6863
22056SOL    HW277823   3.763   8.551   7.746 -0.1773 -2.6024 -0.2298
22057SOL     OW77824   0.368   1.419   3.254  0.1522  0.4157 -0.7545
22057SOL    HW177825   0.437   1.360   3.211  1.2420  1.0867  0.0623
22057SOL    HW277826   0.405   1.458   3.338 -1.9944 -0.9311  0.8649
22058SOL     OW77827   2.644   7.113   3.430 -0.3637 -0.0741  0.0664
22058SOL    HW177828   2.636   7.136   3.333  0.0500  0.0512  0.0606
22058SOL    HW277829   2.595   7.180   3.485  1.1652  1.0472  0.0768
22059SOL     OW77830   0.714   0.905   4.505 -0.1710  0.0990 -0.1434
22059SOL    HW177831   0.743   0.810   4.513  3.1401  0.9632 -0.8034
22059SOL    HW277832   0.735   0.953   4.590 -0.6126  0.5162 -0.2723
22060SOL     OW77833   7.744   2.762   4.396 -0.6725  0.4667 -0.2226
22060SOL    HW177834   7.656   2.770   4.350 -0.8518  0.5389  0.1387
22060SOL    HW277835   7.804   2.837   4.366 -1.5376  1.8006  1.3401
22061SOL     OW77836   8.569   1.876   4.727 -0.4069  0.3521  0.7399
22061SOL    HW177837   8.541   1.972   4.735 -0.7553  0.4845 -1.7448
22061SOL    HW277838   8.625   1.864   4.645 -0.3028 -1.5793  1.0661
22062SOL     OW77839   2.738   4.776   6.981 -0.1698 -0.4441  0.1039
22062SOL    HW177840   2.820   4.786   6.926  0.5796  2.2617  1.6036
22062SOL    HW277841   2.760   4.726   7.065  0.1327  0.8164  0.7958
22063SOL     OW77842   0.724   5.635   5.907  0.5190 -0.7802  0.0468
22063SOL    HW177843   0.775   5.674   5.831  3.0062 -2.5816  0.7178
22063SOL    HW277844   0.645   5.584   5.872  0.7990 -0.3536 -1.2220
22064SOL     OW77845   0.117   9.653   7.623  0.4454 -0.2250 -0.4901
22064SOL    HW177846   0.210   9.647   7.658  0.0411 -0.6605  0.5543
22064SOL    HW277847   0.065   9.572   7.652 -1.5262  2.0859  2.8627
22065SOL     OW77848   4.594   7.447   2.763  0.0643  0.2279  0.0155
22065SOL    HW177849   4.517   7.511   2.766 -2.2210 -2.3167 -1.3773
22065SOL    HW277850   4.615   7.426   2.668  1.6239 -0.1345  0.4370
22066SOL     OW77851   7.891   3.371   0.137 -0.3127 -0.8932 -0.2412
22066SOL    HW177852   7.964   3.438   0.140  0.3236 -1.6337  1.4502
22066SOL    HW277853   7.806   3.415   0.108  0.4616  0.2733 -0.7654
22067SOL     OW77854   2.551   8.740   5.213 -0.0866 -0.2131  0.4103
22067SOL    HW177855   2.478   8.785   5.265 -0.8711  0.4525 -1.2232
22067SOL    HW277856   2.632   8.798   5.213 -0.7119  0.6660 -0.7077
22068SOL     OW77857   2.601   1.273   4.295 -0.3707  0.3943  0.5729
22068SOL    HW177858   2.528   1.273   4.226  0.3436  1.7306 -0.2095
22068SOL    HW277859   2.655   1.190   4.285 -0.4852  0.4111 -0.2500
22069SOL     OW77860   7.847   0.759   5.353 -0.1313  0.3649  0.0720
22069SOL    HW177861   7.883   0.734   5.263  0.3415 -0.4566  0.4873
22069SOL    HW277862   7.838   0.677   5.410  0.3623  0.9880  1.0608
22070SOL     OW77863   6.004   0.980   4.547  0.0104  0.1204 -0.0913
22070SOL    HW177864   5.930   1.031   4.591  0.3099 -0.6917  1.3991
22070SOL    HW277865   6.084   1.038   4.539 -0.5057  0.7295 -0.9061
22071SOL     OW77866   1.358   3.577   2.783  0.2282  0.2991 -0.0877
22071SOL    HW177867   1.413   3.628   2.716  0.0056 -0.7414 -1.0621
22071SOL    HW277868   1.264   3.570   2.750  0.2317 -0.6431  0.0911
22072SOL     OW77869   6.120   4.419   2.132 -0.1046  0.1668  0.4619
22072SOL    HW177870   6.120   4.320   2.146 -1.6544  0.0065 -0.5430
22072SOL    HW277871   6.207   4.447   2.092  0.6210 -0.6757  1.4169
22073SOL     OW77872   2.872   5.637   3.684  0.7045 -0.1681 -0.5818
22073SOL    HW177873   2.895   5.558   3.741 -1.1140 -0.9778 -0.9306
22073SOL    HW277874   2.841   5.713   3.742  1.3710 -0.0951 -0.3221
22074SOL     OW77875   1.870   4.447   6.662  0.8248  0.6028  0.1730
22074SOL    HW177876   1.875   4.376   6.592  1.8195  1.1828 -0.3578
22074SOL    HW277877   1.941   4.515   6.645  0.7853  0.9807  1.4975
22075SOL     OW77878   0.333   8.630   2.929  0.5626 -0.0187 -0.2030
22075SOL    HW177879   0.403   8.643   2.859 -1.1016  2.6299 -1.4930
22075SOL    HW277880   0.310   8.533   2.937  1.4714 -0.4503 -2.6268
22076SOL     OW77881   7.231   2.308   2.897 -0.2365  0.1560  0.3283
22076SOL    HW177882   7.329   2.291   2.890 -0.3040  0.2981 -1.1661
22076SOL    HW277883   7.202   2.368   2.822 -1.7124 -1.0513 -0.0943
22077SOL     OW77884   6.353   5.065   1.844 -0.0001 -0.7904 -0.0100
22077SOL    HW177885   6.365   5.044   1.747 -3.8404 -0.2741 -0.7015
22077SOL    HW277886   6.367   5.162   1.859 -0.5928 -0.6571 -0.2965
22078SOL     OW77887   2.529   0.932   2.428  0.1582 -0.1955  0.2344
22078SOL    HW177888   2.610   0.874   2.422  0.7278  0.7098 -1.5103
22078SOL    HW277889   2.476   0.924   2.343  0.2756  1.8219 -0.0629
22079SOL     OW77890   7.197   2.112   5.853 -0.5067  0.3117 -0.1766
22079SOL    HW177891   7.267   2.060   5.902 -0.7788 -0.3996 -0.5263
22079SOL    HW277892   7.114   2.056   5.844  0.4156 -0.6285 -3.7500
22080SOL     OW77893   9.673   9.475   0.258 -0.6575  0.2213  0.6951
22080SOL    HW177894   9.652   9.568   0.229 -1.7272 -0.7656 -1.8637
22080SOL    HW277895   9.589   9.420   0.258  0.0293 -0.8618  1.7385
22081SOL     OW77896   9.123   9.805   2.101  0.1094  0.1706  0.3577
22081SOL    HW177897   9.097   9.781   2.194 -0.3748 -1.9521 -0.2925
22081SOL    HW277898   9.217   9.838   2.100  0.0143  0.5080  1.6393
22082SOL     OW77899   1.742   1.604   5.798  0.2165 -0.7243 -0.1679
22082SOL    HW177900   1.686   1.544   5.855 -0.2566 -0.7450 -0.6501
22082SOL    HW277901   1.732   1.699   5.830  1.5259 -0.9819  1.0460
22083SOL     OW77902   8.674   6.971   5.966  0.0746 -0.3845  0.0362
22083SOL    HW177903   8.588   6.946   5.922  0.7484 -0.0596 -1.4767
22083SOL    HW277904   8.731   7.023   5.903  0.7758  0.6939  1.5163
22084SOL     OW77905   3.744   1.139   1.266  0.0225 -0.1211 -0.0160
22084SOL    HW177906   3.794   1.225   1.280  0.4280 -0.2777 -0.4695
22084SOL    HW277907   3.810   1.064   1.256 -0.3206 -0.4180 -0.0515
22085SOL     OW77908   7.566   1.496   6.695 -0.4053  0.1664  0.8280
22085SOL    HW177909   7.608   1.562   6.633 -1.9573 -1.3992 -1.9764
22085SOL    HW277910   7.515   1.544   6.766  0.7011  1.9907  0.4064
22086SOL     OW77911   2.047   5.592   6.476 -0.5184 -0.1877  0.2056
22086SOL    HW177912   2.075   5.682   6.508 -0.4726 -0.8494  2.1090
22086SOL    HW277913   1.963   5.564   6.523  0.5884 -1.9830  1.2096
22087SOL     OW77914   1.845   7.546   0.259 -0.3821 -0.0075  0.2875
22087SOL    HW177915   1.824   7.449   0.270  1.7197 -0.5341 -0.2640
22087SOL    HW277916   1.930   7.568   0.307 -0.0908  1.2619 -0.7756
22088SOL     OW77917   9.007   2.104   5.081  0.4186  0.2218  0.0475
22088SOL    HW177918   8.998   2.118   5.179  2.5752 -0.9707  0.4335
22088SOL    HW277919   9.065   2.176   5.042 -1.8306  1.7144 -0.6856
22089SOL     OW77920   4.746   4.229   2.163  0.3863 -0.1853  0.5309
22089SOL    HW177921   4.690   4.264   2.238  0.3130 -0.2145  0.4900
22089SOL    HW277922   4.842   4.253   2.178  0.5151 -1.0654  1.1520
22090SOL     OW77923   1.874   0.012   4.312  0.2751  0.4020  0.4904
22090SOL    HW177924   1.935  -0.011   4.388  0.5349 -0.4171  0.0378
22090SOL    HW277925   1.792  -0.045   4.316  0.2217  0.4603  0.2422
22091SOL     OW77926   9.400   5.465   4.640  0.4613 -0.8137 -0.6666
22091SOL    HW177927   9.472   5.401   4.669  2.0187  0.6714 -1.1784
22091SOL    HW277928   9.383   5.453   4.543  0.2228 -0.9610 -0.6065
22092SOL     OW77929   6.533   9.083   5.034 -0.1825 -0.0705 -0.1694
22092SOL    HW177930   6.601   9.151   5.065 -1.9370  0.5504  2.5320
22092SOL    HW277931   6.463   9.129   4.980  0.8574 -0.5012 -1.9183
22093SOL     OW77932   7.728   5.479   7.639  0.5895  0.0809  0.2593
22093SOL    HW177933   7.712   5.533   7.556 -3.0236 -1.1585  0.0397
22093SOL    HW277934   7.643   5.473   7.691  1.8086 -2.4556  2.0510
22094SOL     OW77935   0.074   2.660   5.298  0.2169 -0.0517  0.1785
22094SOL    HW177936   0.126   2.745   5.309  0.9377 -0.4888  0.1763
22094SOL    HW277937   0.003   2.673   5.229 -0.1266  0.7597  0.6744
22095SOL     OW77938   4.069   9.982   7.162 -0.5485 -0.0268 -0.1513
22095SOL    HW177939   3.989   9.936   7.124 -0.3738 -0.0958 -0.4351
22095SOL    HW277940   4.143   9.916   7.175  0.1977  0.4293 -1.9258
22096SOL     OW77941   2.534   8.340   0.402 -0.6416 -0.0810 -0.5202
22096SOL    HW177942   2.449   8.384   0.374 -0.0252  0.8607 -0.9399
22096SOL    HW277943   2.561   8.273   0.333  0.0756  1.1540 -1.4632
22097SOL     OW77944   0.295   9.350   6.971  0.5150 -0.1076  0.2612
22097SOL    HW177945   0.378   9.383   6.925  0.8744  0.0719  1.0400
22097SOL    HW277946   0.308   9.254   6.998 -0.2664 -0.6840 -1.3687
22098SOL     OW77947   7.260   5.794   2.706 -0.2118 -0.5239  0.8127
22098SOL    HW177948   7.243   5.766   2.801 -0.8286 -0.0860  0.8381
22098SOL    HW277949   7.358   5.804   2.691 -0.0692 -1.2758  1.2092
22099SOL     OW77950   7.922   5.614   2.725 -0.0359 -0.3241 -0.1580
22099SOL    HW177951   7.929   5.704   2.768 -0.3572 -0.8881  1.0869
22099SOL    HW277952   7.932   5.624   2.626 -2.1738  1.3335 -0.2383
22100SOL     OW77953   7.563   2.121   2.364  0.2072  0.0948 -0.1740
22100SOL    HW177954   7.618   2.199   2.335  1.4060 -0.2316  1.1970
22100SOL    HW277955   7.619   2.058   2.419 -0.6761 -1.8555 -1.4358
22101SOL     OW77956   6.089   5.565   0.571 -0.3640 -0.0674  0.4287
22101SOL    HW177957   6.166   5.562   0.635  1.6583 -1.6845 -1.9579
22101SOL    HW277958   6.042   5.653   0.579  2.2610  1.3037  1.3545
22102SOL     OW77959   2.794   0.826   5.001  0.8436 -0.2205 -0.7177
22102SOL    HW177960   2.873   0.859   4.948  0.0741  1.1291 -1.0552
22102SOL    HW277961   2.824   0.799   5.092  1.5929  0.9938 -0.5896
22103SOL     OW77962   8.280   3.544   4.011 -0.1134 -0.5558 -0.5073
22103SOL    HW177963   8.183   3.531   4.032  0.0106 -1.6836 -0.5842
22103SOL    HW277964   8.327   3.456   4.019  0.8070 -0.1055 -0.9692
22104SOL     OW77965   8.646   0.644   5.555 -0.1217  0.8185 -0.3260
22104SOL    HW177966   8.646   0.606   5.648 -0.4477  0.2387 -0.5598
22104SOL    HW277967   8.564   0.614   5.507  0.2680  0.7542 -0.9510
22105SOL     OW77968   4.238   3.743   4.899 -0.0092  0.3009  0.3834
22105SOL    HW177969   4.168   3.768   4.833  0.8421  0.4019 -0.5038
22105SOL    HW277970   4.281   3.825   4.936  0.8801  0.2060 -0.4362
22106SOL     OW77971   3.122   4.745   0.568  0.0432 -0.1212 -0.4615
22106SOL    HW177972   3.207   4.771   0.522  1.0584 -0.8951  0.9413
22106SOL    HW277973   3.047   4.801   0.532  0.9200 -0.2047 -2.5142
22107SOL     OW77974   0.914   1.993   6.070 -0.1929 -0.5901 -0.1186
22107SOL    HW177975   0.916   1.919   6.003 -1.5970 -0.1611 -0.6731
22107SOL    HW277976   0.946   1.960   6.158  0.5581 -1.4729 -0.7148
22108SOL     OW77977   9.403   7.930   5.965  0.2161  0.1614 -0.0337
22108SOL    HW177978   9.372   7.836   5.949  1.2535  0.2205 -2.6843
22108SOL    HW277979   9.462   7.933   6.045 -1.8499 -0.9689  1.6047
22109SOL     OW77980   7.038   9.531   7.996  0.3405 -0.3773  0.3288
22109SOL    HW177981   7.091   9.597   7.943 -1.2084  0.6897  0.0747
22109SOL    HW277982   7.050   9.440   7.957  0.6522  0.1218 -0.7612
22110SOL     OW77983   4.173   0.391   5.489 -0.2773 -0.2922 -0.8342
22110SOL    HW177984   4.190   0.434   5.578 -0.7496  0.7340 -1.2287
22110SOL    HW277985   4.171   0.292   5.499 -0.4842 -0.1727  0.3193
22111SOL     OW77986   0.580   7.685   0.153 -0.1203 -0.3717 -0.0988
22111SOL    HW177987   0.499   7.636   0.121 -0.3255 -0.8166  1.0466
22111SOL    HW277988   0.560   7.783   0.158  0.1330 -0.2139 -1.9207
22112SOL     OW77989   9.706   4.737   1.067  0.0766 -0.8656 -0.4555
22112SOL    HW177990   9.766   4.660   1.086 -0.9301 -1.8829 -1.3496
22112SOL    HW277991   9.749   4.796   0.999  0.3987 -1.1844 -0.5304
22113SOL     OW77992   6.187   0.250   4.085 -0.5351  0.3685  0.6459
22113SOL    HW177993   6.193   0.251   3.985 -2.2365 -0.9884  0.5197
22113SOL    HW277994   6.095   0.279   4.113 -0.3718 -0.2090  1.7876
22114SOL     OW77995   2.182   4.729   0.731 -0.4311 -0.1804 -0.3769
22114SOL    HW177996   2.089   4.712   0.697  0.2654 -0.2098 -2.3586
22114SOL    HW277997   2.229   4.790   0.667  1.0205 -0.4172  0.4582
22115SOL     OW77998   0.698   8.739   4.510  0.5463  0.0408  0.2536
22115SOL    HW177999   0.656   8.648   4.504  0.1708  0.1538  1.1612
22115SOL    HW278000   0.628   8.807   4.530  1.1184  0.2660  1.5200
22116SOL     OW78001   6.451   0.405   1.056  0.6932 -0.4921 -0.4299
22116SOL    HW178002   6.409   0.352   1.130  1.0845  0.0225  0.1570
22116SOL    HW278003   6.531   0.356   1.021  0.1907 -0.9994 -0.8888
22117SOL     OW78004   0.538   0.326   6.450  0.1520 -0.2755 -0.0647
22117SOL    HW178005   0.528   0.415   6.405 -0.5523  0.6006  1.7611
22117SOL    HW278006   0.456   0.271   6.433  0.8405 -0.8338 -1.6933
22118SOL     OW78007   7.783   2.142   7.236  0.5749 -0.1116 -0.2226
22118SOL    HW178008   7.859   2.199   7.269  1.2115 -1.0242 -0.1010
22118SOL    HW278009   7.796   2.048   7.267 -0.1204 -0.4625 -0.9892
22119SOL     OW78010   2.916   7.935   3.700  0.2052 -0.4239 -0.2127
22119SOL    HW178011   2.866   7.853   3.670 -1.6099  1.0486 -1.3709
22119SOL    HW278012   3.003   7.941   3.651  0.0233 -1.2900 -0.6471
22120SOL     OW78013   2.055   0.962   3.116  0.4356  0.1622  0.2973
22120SOL    HW178014   2.076   0.994   3.024  1.9496 -0.8861  0.2585
22120SOL    HW278015   2.024   1.039   3.171  0.3383  0.9615 -0.8551
22121SOL     OW78016   2.867   7.361   1.998 -0.2125 -0.3829 -0.3007
22121SOL    HW178017   2.813   7.312   2.066  0.4431  0.4989  0.8604
22121SOL    HW278018   2.866   7.459   2.017  0.2076 -0.1514 -1.3912
22122SOL     OW78019   3.145   1.596   4.650  0.0678  0.5111 -0.2619
22122SOL    HW178020   3.050   1.627   4.656  0.2524  0.8087  1.3374
22122SOL    HW278021   3.196   1.658   4.591 -0.6659  0.5174 -0.8992
22123SOL     OW78022   2.922   1.103   5.114 -0.7691 -0.2907  0.1210
22123SOL    HW178023   2.882   1.045   5.043 -0.1785  0.6876 -1.0237
22123SOL    HW278024   3.014   1.070   5.137 -0.7004 -0.2053 -0.0364
22124SOL     OW78025   1.416   0.029   3.850 -0.4526  0.5413 -0.3017
22124SOL    HW178026   1.441   0.011   3.755 -0.1808  1.3012 -0.3768
22124SOL    HW278027   1.336   0.089   3.853  0.1277  1.3132 -0.0539
22125SOL     OW78028   3.770   6.864   2.432  0.1044 -0.2085 -0.4271
22125SOL    HW178029   3.862   6.841   2.464 -0.3538 -0.4331  0.7949
22125SOL    HW278030   3.705   6.847   2.506 -0.9103  0.0136 -1.2583
22126SOL     OW78031   8.665   8.616   4.737 -0.1130 -0.3234 -0.0113
22126SOL    HW178032   8.593   8.655   4.795  0.3608  1.5073 -0.6085
22126SOL    HW278033   8.627   8.595   4.647  0.4289  2.1444 -0.8505
22127SOL     OW78034   9.408   4.095   5.876  0.0634 -0.2485  0.0053
22127SOL    HW178035   9.391   4.186   5.912  1.7878 -0.1929  0.6802
22127SOL    HW278036   9.351   4.029   5.924  0.7980  0.1086  1.3714
22128SOL     OW78037   9.151   8.393   3.268 -0.5967  0.3957 -0.1680
22128SOL    HW178038   9.141   8.318   3.202 -1.0397  1.0830 -0.8932
22128SOL    HW278039   9.071   8.453   3.262  0.4946  1.8197 -0.7223
22129SOL     OW78040   8.975   0.190   4.692 -0.2686 -0.1978 -0.6492
22129SOL    HW178041   9.049   0.256   4.704 -0.9640  0.2868  1.1326
22129SOL    HW278042   9.008   0.112   4.640  1.4678  0.0824  0.0021
22130SOL     OW78043   9.309   0.342   7.483  0.1092 -0.0666  0.8575
22130SOL    HW178044   9.405   0.344   7.454 -0.1887  0.4026 -0.1415
22130SOL    HW278045   9.281   0.433   7.513 -0.9754  0.6789 -2.1665
22131SOL     OW78046   4.566   6.857   9.971  0.5741 -0.3191 -0.4552
22131SOL    HW178047   4.588   6.944  10.014  0.8773 -0.0007 -1.2486
22131SOL    HW278048   4.470   6.857   9.943  0.9418  0.2952 -1.7167
22132SOL     OW78049   6.239   1.319   7.699 -0.0066 -0.1608 -0.8392
22132SOL    HW178050   6.186   1.385   7.646 -0.8614 -1.1540 -1.2465
22132SOL    HW278051   6.178   1.269   7.761  0.5283 -0.9795 -0.9547
22133SOL     OW78052   0.309   1.190   7.508 -0.0600 -0.4256  0.4483
22133SOL    HW178053   0.227   1.225   7.462 -1.2945 -1.5625  1.7233
22133SOL    HW278054   0.309   1.090   7.504 -0.0569 -0.5415  2.6445
22134SOL     OW78055   0.812   8.991   6.867  0.1601  0.1949  0.4270
22134SOL    HW178056   0.834   8.900   6.902  1.0880  0.7475  1.2926
22134SOL    HW278057   0.713   9.004   6.867 -0.0451 -1.2153 -0.7259
22135SOL     OW78058   1.316   7.774   4.823 -0.1240  0.2271  0.3826
22135SOL    HW178059   1.322   7.853   4.884 -1.9689  0.9766 -0.3756
22135SOL    HW278060   1.274   7.698   4.872  2.3406 -0.5441  1.3437
22136SOL     OW78061   6.416   5.936   2.010  0.1417  0.1612 -0.6831
22136SOL    HW178062   6.445   6.027   2.041 -0.4011  0.5072 -1.1874
22136SOL    HW278063   6.322   5.941   1.977 -0.5858 -0.9944  1.1477
22137SOL     OW78064   2.866   6.484   1.983  0.2684 -0.0575  0.0433
22137SOL    HW178065   2.835   6.420   2.053  0.4773  0.4433  0.5956
22137SOL    HW278066   2.801   6.485   1.907 -0.8601  0.6698  1.0040
22138SOL     OW78067   7.439   6.587   7.925 -0.7861  0.6188 -0.3304
22138SOL    HW178068   7.454   6.582   8.024 -1.4800 -0.5697 -0.2771
22138SOL    HW278069   7.527   6.587   7.878 -0.4943 -1.0957  0.1946
22139SOL     OW78070   1.271   0.389   3.781 -0.1142  0.1530 -0.3386
22139SOL    HW178071   1.273   0.489   3.792 -1.4735 -0.0126  1.8880
22139SOL    HW278072   1.354   0.359   3.735  1.0320  2.1726  0.3200
22140SOL     OW78073   8.574   5.522   7.283 -0.2345 -0.2082  0.2605
22140SOL    HW178074   8.667   5.557   7.273  0.1735 -1.4963 -0.6196
22140SOL    HW278075   8.508   5.595   7.265  0.6018  0.2775 -0.8852
22141SOL     OW78076   7.791   8.201   5.759 -0.0824 -0.1678 -0.0817
22141SOL    HW178077   7.770   8.138   5.834  1.6227 -0.2532  0.3347
22141SOL    HW278078   7.843   8.153   5.688  0.0343  0.4162 -0.3954
22142SOL     OW78079   1.869   6.753   1.533 -0.2652 -0.4591 -0.6946
22142SOL    HW178080   1.793   6.779   1.474 -0.1543 -2.0755 -1.5784
22142SOL    HW278081   1.918   6.675   1.493  1.5225  0.2101  0.1317
22143SOL     OW78082   4.592   2.557   6.975  0.5526 -0.1167  0.7325
22143SOL    HW178083   4.645   2.473   6.984 -1.1837 -1.4412 -1.1049
22143SOL    HW278084   4.578   2.579   6.879 -1.6790  0.5270  1.1587
22144SOL     OW78085   3.723   8.118   0.850  0.9853 -0.0934 -0.1872
22144SOL    HW178086   3.747   8.033   0.898  0.8642 -0.2151 -0.3441
22144SOL    HW278087   3.624   8.133   0.856  0.7903 -0.7948 -1.5362
22145SOL     OW78088   1.852   7.759   2.828  0.4037  0.0402  0.0032
22145SOL    HW178089   1.935   7.746   2.883 -0.4887  0.7085  1.5087
22145SOL    HW278090   1.859   7.846   2.778  0.2611  0.4996  0.7700
22146SOL     OW78091   9.145   9.916  10.004 -0.1313  0.0722 -0.0144
22146SOL    HW178092   9.204   9.954   9.933  0.1153  1.8180  1.0972
22146SOL    HW278093   9.068   9.978  10.020 -1.5103 -1.4969 -0.4522
22147SOL     OW78094   9.853   6.556   1.167  0.0801 -0.1787  0.1088
22147SOL    HW178095   9.760   6.578   1.194  0.0731  1.2882 -1.0683
22147SOL    HW278096   9.906   6.529   1.248 -1.2195 -0.5480  0.8411
22148SOL     OW78097   7.988   4.273   0.994 -0.4198 -0.1284  0.2641
22148SOL    HW178098   7.976   4.187   1.044 -1.8320  0.1356  0.4039
22148SOL    HW278099   7.905   4.328   1.004 -0.2676  0.4156 -1.4370
22149SOL     OW78100   1.553   8.430   0.551  0.3657  0.1149 -0.7055
22149SOL    HW178101   1.512   8.361   0.612  2.3985  0.9561  1.6854
22149SOL    HW278102   1.484   8.460   0.485 -2.5408  0.5521  2.3683
22150SOL     OW78103   2.104   2.794   5.841 -0.1056 -0.7539 -0.1710
22150SOL    HW178104   2.189   2.742   5.846  1.4536  1.8457  1.3522
22150SOL    HW278105   2.087   2.822   5.746  2.0227  0.7169 -0.1437
22151SOL     OW78106   7.096   1.144   7.744 -0.8499  0.8117 -0.2904
22151SOL    HW178107   7.009   1.149   7.694 -1.3066  0.2528  0.4282
22151SOL    HW278108   7.089   1.198   7.828 -0.9574 -0.2788  0.4157
22152SOL     OW78109   1.826   6.274   2.387  0.5178  0.5594  0.4586
22152SOL    HW178110   1.763   6.213   2.436  0.9025 -0.2808 -0.0762
22152SOL    HW278111   1.888   6.219   2.330 -0.0793  1.5357 -1.1648
22153SOL     OW78112   2.733   4.641   6.294  0.2583 -0.3361  0.1836
22153SOL    HW178113   2.717   4.551   6.252  1.0316 -0.7525  0.7638
22153SOL    HW278114   2.830   4.665   6.284 -0.1539  0.9341 -0.9236
22154SOL     OW78115   8.017   0.829   6.784  0.1637 -0.1752  0.1986
22154SOL    HW178116   8.010   0.916   6.735  0.5904 -0.3173 -0.1170
22154SOL    HW278117   8.021   0.847   6.883 -5.1532 -0.0836  0.5313
22155SOL     OW78118   4.087   0.493   4.832  0.8662 -0.3161  0.0050
22155SOL    HW178119   4.093   0.564   4.761  0.4188 -0.4754 -0.1964
22155SOL    HW278120   4.172   0.441   4.835  0.7063 -0.6300 -0.7547
22156SOL     OW78121   0.630   0.654   5.736 -0.2436 -0.1948 -0.0615
22156SOL    HW178122   0.656   0.559   5.752  4.0340  0.6570 -1.3964
22156SOL    HW278123   0.685   0.714   5.794 -0.4395  1.6348 -1.7033
22157SOL     OW78124   0.851   0.805   6.389  0.2948 -0.1581  0.1977
22157SOL    HW178125   0.811   0.809   6.480 -0.8885 -0.4794 -0.3052
22157SOL    HW278126   0.933   0.748   6.392  0.0757 -0.4450  0.9873
22158SOL     OW78127   9.390   3.548   4.907  0.0981 -0.8222 -0.0236
22158SOL    HW178128   9.329   3.485   4.955  0.1956 -1.6872 -1.0093
22158SOL    HW278129   9.468   3.571   4.966 -0.5752 -0.6412  0.7992
22159SOL     OW78130   1.285   4.559   0.814  0.0275  0.1637 -0.2524
22159SOL    HW178131   1.315   4.464   0.818 -0.7758 -0.0519  1.0185
22159SOL    HW278132   1.365   4.618   0.803  0.6445 -0.5813  0.1482
22160SOL     OW78133   3.287   4.738   1.574  0.4917  0.0716  0.6088
22160SOL    HW178134   3.374   4.770   1.537 -0.0821  0.5725 -0.3371
22160SOL    HW278135   3.302   4.658   1.633  1.4347 -0.6957 -0.6514
22161SOL     OW78136   4.449   8.114   3.595  0.4325  0.3297  0.1629
22161SOL    HW178137   4.444   8.190   3.661  1.5260 -0.6446  1.3971
22161SOL    HW278138   4.536   8.118   3.546  0.4750 -0.0982  0.2023
22162SOL     OW78139   4.360   0.777   2.557 -0.2685 -0.3235  0.2733
22162SOL    HW178140   4.337   0.841   2.629  1.3481  1.7114 -0.9595
22162SOL    HW278141   4.440   0.723   2.585  0.3835  0.4940  0.0242
22163SOL     OW78142   1.543   7.242   4.174 -0.0996 -0.1187  0.1608
22163SOL    HW178143   1.500   7.153   4.158 -2.9914  0.9255  1.7144
22163SOL    HW278144   1.590   7.240   4.263  2.1060 -0.8504 -0.9653
22164SOL     OW78145   2.567   4.199   2.445 -0.1708  0.1984 -0.2220
22164SOL    HW178146   2.547   4.149   2.528 -0.5167 -1.0682 -1.0611
22164SOL    HW278147   2.489   4.192   2.382  0.1732  0.9671 -0.7438
22165SOL     OW78148   8.425   2.665   5.618 -0.6191 -0.5184 -0.0040
22165SOL    HW178149   8.356   2.730   5.650  0.3392 -0.2147  1.5271
22165SOL    HW278150   8.408   2.576   5.660  0.2727 -0.2777  0.9110
22166SOL     OW78151   7.000   9.924   2.061 -0.1086 -0.1204  0.0439
22166SOL    HW178152   6.971   9.860   2.132 -2.0166  1.4893  0.7795
22166SOL    HW278153   6.922   9.946   2.002  0.3229  1.9604  0.1834
22167SOL     OW78154   1.631   9.076   4.941  0.0307 -0.6129  0.4453
22167SOL    HW178155   1.555   9.011   4.931 -0.8824  0.6600 -1.1654
22167SOL    HW278156   1.714   9.036   4.903 -0.6017 -0.7263 -0.8545
22168SOL     OW78157   1.974   0.669   6.705 -0.5097  0.4893  0.4461
22168SOL    HW178158   1.940   0.722   6.782 -1.1622 -0.7070  1.0040
22168SOL    HW278159   1.899   0.651   6.642 -0.6327 -0.9872  0.9907
22169SOL     OW78160   7.425   8.727   2.199 -0.4695  0.3759 -0.1826
22169SOL    HW178161   7.332   8.704   2.170 -0.7002 -0.4280  1.1151
22169SOL    HW278162   7.488   8.656   2.168 -0.6368 -0.2112  0.7794
22170SOL     OW78163   8.866   9.416   0.178 -0.2017 -0.2522 -0.2745
22170SOL    HW178164   8.797   9.485   0.158  0.4836  0.5352  0.0654
22170SOL    HW278165   8.866   9.397   0.277  0.0196 -0.3033 -0.2846
22171SOL     OW78166   1.574   5.795   4.306  0.4276  0.6456 -0.4094
22171SOL    HW178167   1.531   5.856   4.240  0.5516  1.5996  0.3864
22171SOL    HW278168   1.580   5.703   4.267  0.3052  1.1514 -1.6436
22172SOL     OW78169   4.234   3.642   6.030  0.1264  0.2858 -0.0859
22172SOL    HW178170   4.157   3.704   6.026  0.0465  0.1367 -0.7823
22172SOL    HW278171   4.235   3.595   6.119 -0.5033  0.3829 -0.0322
22173SOL     OW78172   4.044   8.363   0.433 -0.2838  0.2521  0.1358
22173SOL    HW178173   3.961   8.306   0.432 -1.5332  1.9107 -4.7024
22173SOL    HW278174   4.021   8.455   0.464 -0.1365  0.5626 -0.6725
22174SOL     OW78175   8.310   7.841   8.203 -0.1295  0.3156  0.2119
22174SOL    HW178176   8.276   7.802   8.118 -0.6666  0.0805  0.5319
22174SOL    HW278177   8.239   7.835   8.273  1.0459 -1.5175  1.3007
22175SOL     OW78178   2.302   4.406   2.473 -0.5223 -0.1597 -0.3155
22175SOL    HW178179   2.311   4.343   2.396  0.5243  0.9558 -1.1153
22175SOL    HW278180   2.220   4.462   2.462 -1.2047 -1.0374  0.1662
22176SOL     OW78181   1.181   7.431   4.534  0.0962  0.6627  0.5816
22176SOL    HW178182   1.247   7.415   4.461  0.4299  1.7101  0.6397
22176SOL    HW278183   1.219   7.400   4.621  0.4066  1.0484  0.5791
22177SOL     OW78184   1.289   5.585   6.309 -0.1121 -0.5735 -0.2217
22177SOL    HW178185   1.257   5.494   6.332  0.0407 -0.7660 -0.7516
22177SOL    HW278186   1.273   5.602   6.211 -0.7997  0.2367  0.0329
22178SOL     OW78187   0.180   9.222   5.837  0.3639 -0.1751 -0.1432
22178SOL    HW178188   0.217   9.171   5.915  1.3750  1.8903  0.7678
22178SOL    HW278189   0.111   9.287   5.869  1.9824  1.8988 -0.6703
22179SOL     OW78190   3.261   4.973   2.061  0.1019  0.1763  0.4882
22179SOL    HW178191   3.296   5.058   2.022  0.9939 -0.9702 -1.2514
22179SOL    HW278192   3.161   4.980   2.070 -0.2618  0.0816 -3.0320
22180SOL     OW78193   9.169   1.141   2.345 -0.0510 -0.4090  0.4077
22180SOL    HW178194   9.147   1.051   2.381 -0.0633 -0.9236 -0.8779
22180SOL    HW278195   9.249   1.135   2.286  0.3399  0.5389  0.8179
22181SOL     OW78196   9.155   8.832   4.308 -0.2491 -0.7234  0.3622
22181SOL    HW178197   9.122   8.920   4.276  0.7677 -0.0479  1.1582
22181SOL    HW278198   9.078   8.768   4.315 -1.2569  0.5742  1.3820
22182SOL     OW78199   8.421   0.949   1.402  0.2882  0.3971 -0.5551
22182SOL    HW178200   8.514   0.984   1.411 -0.0980  1.6713 -1.2869
22182SOL    HW278201   8.359   1.026   1.386 -0.4807 -0.6972 -3.0730
22183SOL     OW78202   2.223   2.978   7.290 -0.3448 -0.1243 -0.2955
22183SOL    HW178203   2.283   3.021   7.357  0.7204 -0.4177 -1.0380
22183SOL    HW278204   2.198   2.886   7.321 -0.2699 -0.0644 -0.0632
22184SOL     OW78205   2.113   2.275   3.525 -0.0950 -0.0738  0.0772
22184SOL    HW178206   2.212   2.280   3.543  0.4621 -1.4981 -2.3760
22184SOL    HW278207   2.069   2.219   3.595  0.7299  1.0371  1.5135
22185SOL     OW78208   1.535   9.175   1.962 -0.1427  0.4352  0.3117
22185SOL    HW178209   1.469   9.134   2.025  0.4716 -1.0194  0.0258
22185SOL    HW278210   1.502   9.264   1.932 -1.3021  0.3323  1.2753
22186SOL     OW78211   6.555   8.166   3.068 -0.0769  0.3997 -0.0266
22186SOL    HW178212   6.606   8.164   3.154 -2.3983 -3.8316  1.3833
22186SOL    HW278213   6.469   8.214   3.081 -1.7107 -2.6934  0.8448
22187SOL     OW78214   9.527   1.320   2.741  0.2340  0.7205  0.0096
22187SOL    HW178215   9.618   1.314   2.699  0.7214 -1.9284  1.3110
22187SOL    HW278216   9.536   1.354   2.835 -0.3406  2.2637 -0.4875
22188SOL     OW78217   9.101   7.053   3.207  0.0736  0.0095 -0.2017
22188SOL    HW178218   9.040   7.110   3.154  0.0101  0.5806  0.4799
22188SOL    HW278219   9.158   6.998   3.146  0.1853  0.8517 -0.8549
22189SOL     OW78220   1.109   2.041   5.023  0.1274  0.3466 -0.5429
22189SOL    HW178221   1.179   2.020   4.955  0.4205  1.0050 -0.4463
22189SOL    HW278222   1.018   2.029   4.983  0.2946  1.3176 -1.2361
22190SOL     OW78223   1.131   7.577   1.256  0.0248 -0.0276 -0.4999
22190SOL    HW178224   1.130   7.547   1.351 -0.8465 -1.0872 -0.8396
22190SOL    HW278225   1.222   7.561   1.217 -0.2084 -1.5289 -0.4460
22191SOL     OW78226   3.743   5.086   0.920 -0.1387 -1.0216 -0.0343
22191SOL    HW178227   3.765   5.178   0.887 -0.2457 -0.8229  0.4377
22191SOL    HW278228   3.805   5.063   0.995 -0.1241 -1.3278 -0.1423
22192SOL     OW78229   3.100   6.642   2.938  0.0611 -0.6746  0.0159
22192SOL    HW178230   3.032   6.646   2.865  0.4265 -0.6609 -0.3254
22192SOL    HW278231   3.095   6.552   2.983 -0.6212 -0.4417  0.4256
22193SOL     OW78232   1.512   4.184   0.319 -0.1799 -0.1949 -0.4319
22193SOL    HW178233   1.526   4.091   0.286 -1.6650 -0.7558  0.4558
22193SOL    HW278234   1.431   4.186   0.379 -0.0369  1.6188 -0.2806
22194SOL     OW78235   1.883   0.228   3.780  0.3033 -0.7260 -0.0281
22194SOL    HW178236   1.832   0.165   3.722 -0.0807 -0.6034  0.1764
22194SOL    HW278237   1.972   0.248   3.738  0.6595 -1.8468  0.1880
22195SOL     OW78238   8.723   1.220   5.931 -0.4582 -0.6048 -0.3151
22195SOL    HW178239   8.794   1.223   5.861  0.9955  1.9221  1.1524
22195SOL    HW278240   8.653   1.288   5.910  0.8518  1.3615  1.4859
22196SOL     OW78241   2.382   0.781   5.740 -0.2059 -0.0731 -0.0991
22196SOL    HW178242   2.385   0.864   5.796 -0.4022 -0.2473  0.1726
22196SOL    HW278243   2.322   0.714   5.783 -2.1019  0.5928 -1.6545
22197SOL     OW78244   0.043   9.980   4.709  0.0691 -0.0172  1.0359
22197SOL    HW178245   0.102   9.904   4.681 -0.5141 -0.9996  2.3696
22197SOL    HW278246   0.050   9.993   4.808 -1.1466  0.5286  1.0655
22198SOL     OW78247   7.351   0.404   3.712  0.3279  0.2742  0.9158
22198SOL    HW178248   7.385   0.401   3.618  0.0836 -0.7549  0.8531
22198SOL    HW278249   7.270   0.464   3.716 -0.9538 -1.3505  0.0279
22199SOL     OW78250   2.913   5.325   5.402  0.0214  0.3081  0.0702
22199SOL    HW178251   2.876   5.416   5.419  0.1395  0.6121 -1.3026
22199SOL    HW278252   2.960   5.323   5.314  0.1256 -1.0484  0.1424
22200SOL     OW78253   9.947   4.434   3.671  0.5716  0.0091 -0.0115
22200SOL    HW178254   9.986   4.486   3.596 -0.0939  1.1463  0.4291
22200SOL    HW278255   9.949   4.336   3.649  0.3154  0.3469 -1.5328
22201SOL     OW78256   8.601   2.840   0.665  0.0093  0.0605  0.4265
22201SOL    HW178257   8.565   2.759   0.619 -0.7581  1.4012 -1.3687
22201SOL    HW278258   8.549   2.857   0.748  0.6421 -1.6923  1.2073
22202SOL     OW78259   7.302   6.553   8.307  0.3883 -0.3776 -0.1805
22202SOL    HW178260   7.245   6.473   8.286  0.9051 -0.7804 -0.0485
22202SOL    HW278261   7.381   6.555   8.245 -0.4149  0.8717 -1.2131
22203SOL     OW78262   5.473   7.459   6.976 -0.1776  0.5903  0.2224
22203SOL    HW178263   5.476   7.499   6.884 -0.1130  0.9787  0.3950
22203SOL    HW278264   5.377   7.441   7.001 -0.4080  2.9016  1.1267
22204SOL     OW78265   7.908   7.696   6.800 -0.5133 -0.7382 -0.2079
22204SOL    HW178266   8.005   7.686   6.778 -0.3256 -1.8782  1.1087
22204SOL    HW278267   7.898   7.741   6.889 -1.1719 -1.3307  0.0251
22205SOL     OW78268   7.375   6.918   8.347  0.4346 -0.2995  0.1145
22205SOL    HW178269   7.321   6.852   8.399 -0.8736 -0.3871 -1.3027
22205SOL    HW278270   7.429   6.870   8.278 -0.2958  0.0693 -0.7256
22206SOL     OW78271   3.376   0.247   0.308  0.1390  0.9111  0.1424
22206SOL    HW178272   3.451   0.228   0.371  0.0656  1.8877  0.5381
22206SOL    HW278273   3.322   0.323   0.343 -3.1509 -2.0180  1.6688
22207SOL     OW78274   2.748   5.131   2.378  0.6085 -0.1320  0.3397
22207SOL    HW178275   2.816   5.202   2.394 -1.3192  1.9116 -0.4058
22207SOL    HW278276   2.701   5.110   2.464  1.2087 -0.5769  0.5683
22208SOL     OW78277   2.674   6.049   1.100  0.4870  0.2159 -0.4707
22208SOL    HW178278   2.593   6.096   1.133 -1.0158 -1.6905 -1.3178
22208SOL    HW278279   2.672   6.047   1.000  2.2914  1.3360 -0.5494
22209SOL     OW78280   0.174   4.054   6.316 -0.3842  0.1400  0.0337
22209SOL    HW178281   0.078   4.027   6.320 -0.5915  0.3841 -2.4538
22209SOL    HW278282   0.206   4.050   6.222  1.9618  0.4308  0.7753
22210SOL     OW78283   6.403   3.002   1.404 -0.0618  0.2092 -0.2019
22210SOL    HW178284   6.467   2.983   1.479 -0.3016 -0.0462 -0.0600
22210SOL    HW278285   6.341   3.075   1.432 -0.3343 -0.0814 -0.0427
22211SOL     OW78286   9.099   0.306   2.785  0.6351 -0.2686  0.4664
22211SOL    HW178287   9.175   0.250   2.751 -0.3836 -1.3078 -0.1553
22211SOL    HW278288   9.126   0.402   2.788  0.6596 -0.0606 -3.7142
22212SOL     OW78289   8.227   3.527   5.423 -0.3989  0.2439 -0.0037
22212SOL    HW178290   8.232   3.623   5.397  1.4684  0.1459 -0.0286
22212SOL    HW278291   8.137   3.491   5.398 -0.4739  1.4978 -1.5931
22213SOL     OW78292   7.801   0.366   3.959  0.5040  0.5040 -0.0486
22213SOL    HW178293   7.719   0.308   3.962  0.7127  0.2726  1.5090
22213SOL    HW278294   7.781   0.449   3.907  0.1556 -0.8642 -2.1849
22214SOL     OW78295   5.864   2.982   1.312  0.4510 -0.9201  0.1120
22214SOL    HW178296   5.913   3.002   1.227  0.8721  1.7981  0.9669
22214SOL    HW278297   5.774   2.944   1.291  0.8121 -0.8908 -1.5265
22215SOL     OW78298   5.208   9.959   5.596 -0.1796  0.2252 -0.1530
22215SOL    HW178299   5.112   9.933   5.581 -0.6749  1.4529  0.8084
22215SOL    HW278300   5.215  10.016   5.678  1.3625  0.2659 -0.2957
22216SOL     OW78301   3.282   4.506   1.865 -0.2624 -0.5782  0.0572
22216SOL    HW178302   3.237   4.437   1.808 -0.6981  0.2599 -0.6209
22216SOL    HW278303   3.363   4.466   1.908 -1.1918 -1.8640  0.6463
22217SOL     OW78304   5.938   0.770   0.677  0.6043 -0.4863  0.2358
22217SOL    HW178305   5.902   0.800   0.589 -1.3193 -1.3109  0.7063
22217SOL    HW278306   6.038   0.768   0.674  0.5598 -0.1814 -1.8070
22218SOL     OW78307   7.453   3.172   2.265 -0.0372 -0.3483  0.5495
22218SOL    HW178308   7.496   3.121   2.190  2.8021  2.8440 -0.1301
22218SOL    HW278309   7.445   3.268   2.238 -1.6334  0.3306  3.3061
22219SOL     OW78310   1.982   1.012   7.757  0.1864 -0.0871  0.2978
22219SOL    HW178311   2.007   0.921   7.790 -2.2016 -0.5364  0.9385
22219SOL    HW278312   1.886   1.012   7.729  0.2640  2.1465 -0.0335
22220SOL     OW78313   1.538   6.356   6.629  0.3041  0.0903  0.1441
22220SOL    HW178314   1.461   6.298   6.604  0.7859 -0.2970 -0.4551
22220SOL    HW278315   1.507   6.427   6.692 -0.5631  0.0148 -0.1897
22221SOL     OW78316   7.152   2.343   6.250 -0.0948  0.6453  0.4740
22221SOL    HW178317   7.127   2.404   6.326  0.7105  1.7577 -0.1492
22221SOL    HW278318   7.209   2.392   6.185  1.3950 -1.0609  0.4427
22222SOL     OW78319   3.241   6.050   3.685 -0.1956 -0.2461 -0.4150
22222SOL    HW178320   3.150   6.086   3.666 -0.5525 -2.2386 -2.7009
22222SOL    HW278321   3.310   6.113   3.647 -0.6187  0.7060  0.3564
22223SOL     OW78322   7.972   1.281   2.109  0.6127  0.3247 -0.2426
22223SOL    HW178323   7.953   1.379   2.118 -0.6788 -0.0132  0.7917
22223SOL    HW278324   7.940   1.249   2.019  0.8098  0.8046 -0.4826
22224SOL     OW78325   5.628   1.737   5.424 -0.2030  0.6140 -0.4573
22224SOL    HW178326   5.595   1.740   5.330 -0.4826 -1.0479 -0.4115
22224SOL    HW278327   5.552   1.721   5.486  0.5738 -2.8771 -0.3228
22225SOL     OW78328   1.966   6.027   5.883  0.4929  0.5798  0.2116
22225SOL    HW178329   1.894   5.996   5.945 -1.7680  1.0427 -2.0880
22225SOL    HW278330   1.943   6.118   5.848  1.1041 -0.1247 -2.1546
22226SOL     OW78331   6.945   2.072   1.714 -0.3970  0.1376  0.6721
22226SOL    HW178332   7.005   2.150   1.693 -1.9489  1.2937  0.4230
22226SOL    HW278333   6.929   2.019   1.631 -1.2636  0.9420  0.3182
22227SOL     OW78334   8.915   1.294   2.956 -0.2707 -0.0253  0.7566
22227SOL    HW178335   8.869   1.334   2.876  1.4662  1.6495  0.5506
22227SOL    HW278336   8.879   1.202   2.973 -1.8502  0.2483 -0.9284
22228SOL     OW78337   2.777   4.311   5.369 -0.0766  0.8414  0.0951
22228SOL    HW178338   2.737   4.371   5.439 -0.6309  0.3887  0.1696
22228SOL    HW278339   2.810   4.366   5.293 -2.8169  1.0761 -0.9656
22229SOL     OW78340   0.945   3.801   0.754  0.0621 -0.1246 -0.4151
22229SOL    HW178341   0.926   3.884   0.701 -0.5596  0.0858  0.1395
22229SOL    HW278342   0.881   3.795   0.830 -0.4520 -1.5538 -0.9495
22230SOL     OW78343   1.364   2.181   4.325 -0.2926 -0.0532  0.4131
22230SOL    HW178344   1.280   2.234   4.322  0.1488  0.6060 -0.8121
22230SOL    HW278345   1.440   2.236   4.291  0.2034 -1.3855 -0.7421
22231SOL     OW78346   3.471   2.205   7.046 -0.2459 -0.6936 -0.4113
22231SOL    HW178347   3.469   2.303   7.063 -2.0605 -0.7806 -0.0314
22231SOL    HW278348   3.448   2.188   6.950 -3.1834 -0.8874  0.2796
22232SOL     OW78349   3.883   1.975   1.534 -0.1808 -0.0863 -0.5291
22232SOL    HW178350   3.962   1.913   1.533 -1.2429 -1.5577  1.8430
22232SOL    HW278351   3.898   2.046   1.603 -0.4522  0.2740 -0.8405
22233SOL     OW78352   8.423   1.686   0.864 -0.3555  0.1034  0.1866
22233SOL    HW178353   8.338   1.738   0.862 -0.6948 -0.4062  1.3757
22233SOL    HW278354   8.403   1.588   0.856  0.0411 -0.0944  1.5108
22234SOL     OW78355   1.561   4.219   3.491  0.2852 -0.7934 -0.4796
22234SOL    HW178356   1.636   4.267   3.444  0.2013 -1.8457 -1.7282
22234SOL    HW278357   1.594   4.183   3.578  0.3187  1.5988  0.5360
22235SOL     OW78358   1.451   4.442  10.036 -0.2937  0.3710  0.3369
22235SOL    HW178359   1.471   4.455  10.133  4.0817  0.2891 -0.4777
22235SOL    HW278360   1.413   4.351  10.021  0.1421 -0.0522  1.7900
22236SOL     OW78361   0.197   2.265   5.883  0.2968  0.3517  0.0289
22236SOL    HW178362   0.266   2.250   5.954  0.9315  0.3007 -0.5962
22236SOL    HW278363   0.107   2.277   5.926  0.0860 -3.0429  0.6901
22237SOL     OW78364   7.231   1.326   4.567 -0.0448  0.0908 -0.5118
22237SOL    HW178365   7.298   1.318   4.640 -0.1167 -0.7458 -0.5319
22237SOL    HW278366   7.267   1.384   4.494  0.0571  0.8590  0.1508
22238SOL     OW78367   6.098   9.411   2.373 -0.1237 -0.1562 -0.1546
22238SOL    HW178368   6.012   9.394   2.421 -0.9530  1.5412 -1.0107
22238SOL    HW278369   6.171   9.424   2.440 -1.1373  1.5019  0.6401
22239SOL     OW78370   0.484   0.671   4.566  0.1316  0.4188 -0.2652
22239SOL    HW178371   0.573   0.660   4.612  0.1067 -0.9741 -0.5178
22239SOL    HW278372   0.415   0.699   4.633  0.5946  0.6970  0.0940
22240SOL     OW78373   1.602   2.582   9.932 -0.1243 -0.0475 -0.2186
22240SOL    HW178374   1.635   2.657   9.989 -1.7429  0.4223  0.1404
22240SOL    HW278375   1.561   2.511   9.990  0.0475 -0.5145 -0.6598
22241SOL     OW78376   7.092   8.176   8.540  1.0421  0.0660  0.3495
22241SOL    HW178377   7.070   8.145   8.632  1.2111 -3.3267 -0.6828
22241SOL    HW278378   7.157   8.113   8.498 -0.3405  0.5735 -2.7148
22242SOL     OW78379   3.363   6.395   2.909  0.3627  0.0611 -0.1434
22242SOL    HW178380   3.420   6.385   2.990 -1.1100 -1.9038  0.6883
22242SOL    HW278381   3.334   6.490   2.900  3.1056  0.9229 -0.1565
22243SOL     OW78382   2.383   9.819   4.727 -0.0891  0.0271 -0.1244
22243SOL    HW178383   2.334   9.883   4.786  0.9308  0.5570  0.1553
22243SOL    HW278384   2.427   9.869   4.652 -1.1183 -0.6082 -1.1708
22244SOL     OW78385   9.926   7.853   2.753  0.2900  0.1761 -0.5587
22244SOL    HW178386   9.915   7.888   2.660  0.9051 -1.1559 -1.1398
22244SOL    HW278387   9.999   7.784   2.755 -0.9772 -1.1746  0.5399
22245SOL     OW78388   2.933   4.040   0.566  0.2697  0.0320 -0.0085
22245SOL    HW178389   2.862   3.972   0.554 -0.2684  0.6920 -0.6050
22245SOL    HW278390   2.943   4.093   0.482 -2.9618  4.1742  2.0515
22246SOL     OW78391   6.907   1.053   1.254 -0.0397 -0.3420  0.6454
22246SOL    HW178392   6.874   0.976   1.308 -0.3648 -0.8116 -0.2303
22246SOL    HW278393   6.840   1.076   1.183  1.4631 -1.2852 -1.1245
22247SOL     OW78394   2.833   9.440   6.975 -0.0581 -0.8550  0.0982
22247SOL    HW178395   2.807   9.529   7.013  1.7523 -0.8732  1.4184
22247SOL    HW278396   2.849   9.375   7.049  2.0616 -1.2948 -0.7006
22248SOL     OW78397   8.944   6.590   4.701  0.0003 -0.0893  0.0968
22248SOL    HW178398   8.959   6.556   4.608  0.1241  0.7058 -0.1808
22248SOL    HW278399   8.882   6.668   4.697 -0.0129 -0.0732  0.6893
22249SOL     OW78400   0.099   6.413   6.998  0.0250 -0.5791  0.0552
22249SOL    HW178401   0.034   6.337   7.009  0.7254 -1.2587 -0.4319
22249SOL    HW278402   0.158   6.418   7.079 -1.1558  0.5543  0.8618
22250SOL     OW78403   1.802   5.948   4.383 -0.5858 -0.4123  1.1222
22250SOL    HW178404   1.724   5.895   4.352 -0.3475 -1.2912  1.9903
22250SOL    HW278405   1.886   5.906   4.350 -0.4132 -0.3855  1.5189
22251SOL     OW78406   5.635   9.090   6.622  0.4646 -0.4834  0.0193
22251SOL    HW178407   5.621   9.139   6.708 -0.0138 -1.0113  0.2449
22251SOL    HW278408   5.703   9.018   6.635  1.7486  0.6268 -0.5114
22252SOL     OW78409   9.075   9.138   4.483  0.3562 -0.3640 -0.0159
22252SOL    HW178410   9.098   9.216   4.424  1.7385 -1.4585 -0.9562
22252SOL    HW278411   9.048   9.060   4.426  1.8003 -1.4650  0.7990
22253SOL     OW78412   7.133   8.216   7.389 -0.3827  0.1782 -0.0003
22253SOL    HW178413   7.131   8.236   7.291 -0.6332 -0.4479 -0.1266
22253SOL    HW278414   7.154   8.299   7.440 -0.9452  0.6629 -0.5468
22254SOL     OW78415   7.753   4.948   2.744 -0.0462 -0.3519  0.2309
22254SOL    HW178416   7.663   4.961   2.786 -0.2823 -1.4900  0.1000
22254SOL    HW278417   7.813   4.902   2.809  0.7100  1.1726  0.6250
22255SOL     OW78418   8.172   9.050   1.204  0.4496  0.5361  0.7485
22255SOL    HW178419   8.141   9.144   1.190  0.1954  0.8149  2.9962
22255SOL    HW278420   8.142   9.018   1.294  2.0145 -1.0825  0.7219
22256SOL     OW78421   5.642   8.942   4.215 -0.0446  0.2423  0.5126
22256SOL    HW178422   5.718   8.885   4.184 -0.2465  0.2641 -0.0258
22256SOL    HW278423   5.677   9.026   4.255  0.1248  1.8768 -2.9277
22257SOL     OW78424   7.346   6.806   4.274 -0.0349  0.0873  0.4046
22257SOL    HW178425   7.426   6.791   4.216 -0.4091  0.1890 -0.1425
22257SOL    HW278426   7.375   6.823   4.368  0.4586 -2.9041  0.8325
22258SOL     OW78427   7.088   1.351   7.943 -0.0393  0.7095 -0.5169
22258SOL    HW178428   7.172   1.405   7.934 -0.1192  1.4378  2.5527
22258SOL    HW278429   7.072   1.329   8.039 -4.2394  2.0359 -0.7678
22259SOL     OW78430   7.514   9.924   2.947  0.4630 -0.4274  0.2607
22259SOL    HW178431   7.440   9.891   2.889  1.1193 -1.4043 -0.0434
22259SOL    HW278432   7.484   9.928   3.042 -0.0934 -0.4414  0.0872
22260SOL     OW78433   6.262   4.311   0.620  0.3544  0.1817 -0.1873
22260SOL    HW178434   6.334   4.251   0.584  0.8128 -0.5874  1.9476
22260SOL    HW278435   6.175   4.262   0.620  0.6536 -0.3678  1.1836
22261SOL     OW78436   1.889   5.344   2.291 -0.1187 -1.2429 -0.4439
22261SOL    HW178437   1.800   5.332   2.336 -1.1873  0.6355 -1.9671
22261SOL    HW278438   1.932   5.255   2.278 -1.5158 -2.1332  0.8046
22262SOL     OW78439   4.386   1.572   7.434  0.3454 -0.3225 -0.1481
22262SOL    HW178440   4.408   1.624   7.351 -0.2959 -0.2166 -0.2558
22262SOL    HW278441   4.405   1.475   7.418 -1.7267 -0.5868 -1.1335
22263SOL     OW78442   6.641   0.977   3.670  0.0825  0.1088  0.3915
22263SOL    HW178443   6.637   1.029   3.585  1.7227  0.9782  0.8111
22263SOL    HW278444   6.603   0.886   3.656 -2.5499  1.2822 -0.4403
22264SOL     OW78445   9.264   6.180   2.334 -0.6438  0.2188  0.0507
22264SOL    HW178446   9.245   6.087   2.364 -2.0984  0.6053  0.3642
22264SOL    HW278447   9.178   6.228   2.317  0.1022  0.6218 -2.8798
22265SOL     OW78448   9.706   2.323   3.193 -0.3817 -0.1302  0.1450
22265SOL    HW178449   9.644   2.376   3.251 -2.7873 -2.2110 -0.4187
22265SOL    HW278450   9.792   2.308   3.241 -1.2066  0.7602  1.9499
22266SOL     OW78451   8.683   7.326   5.874 -0.1635 -0.3092 -0.0570
22266SOL    HW178452   8.718   7.418   5.857  2.3846 -1.2457 -0.0672
22266SOL    HW278453   8.740   7.259   5.828 -1.2439 -1.9961  0.9907
22267SOL     OW78454   9.527   6.807   5.924  0.1674  0.5002  0.0984
22267SOL    HW178455   9.484   6.885   5.878  2.8300  2.3784  0.7056
22267SOL    HW278456   9.544   6.830   6.020 -1.2083 -1.7454  0.9364
22268SOL     OW78457   4.311   0.825   3.097  0.2479 -0.7451  0.1864
22268SOL    HW178458   4.261   0.757   3.150 -1.8988 -0.3957 -1.3255
22268SOL    HW278459   4.367   0.780   3.028  1.9514 -1.1320  1.7868
22269SOL     OW78460   4.763   0.973   6.707 -0.1516 -0.0401  0.5479
22269SOL    HW178461   4.741   0.886   6.661  1.3137 -1.0803  1.7775
22269SOL    HW278462   4.720   1.048   6.657  0.9911 -1.1808 -2.2631
22270SOL     OW78463   5.591   5.426   1.870  0.0241  0.5121 -0.1876
22270SOL    HW178464   5.528   5.504   1.862 -0.2256  0.3072 -0.2240
22270SOL    HW278465   5.665   5.436   1.803 -0.0529  0.6758 -0.2499
22271SOL     OW78466   6.398   7.677   2.571 -0.3654  0.2982  0.8159
22271SOL    HW178467   6.397   7.602   2.637  1.6153  0.1473  0.7184
22271SOL    HW278468   6.340   7.653   2.493 -1.5156 -0.1700  1.8010
22272SOL     OW78469   1.780   0.453   5.430  0.1805 -0.4507 -0.3134
22272SOL    HW178470   1.781   0.510   5.348  0.7329  0.6880  0.4795
22272SOL    HW278471   1.698   0.472   5.483  0.8830  0.3862  0.4876
22273SOL     OW78472   8.245   7.672   7.142 -0.4425 -0.0794  0.0026
22273SOL    HW178473   8.304   7.701   7.066 -0.9991  1.4347  0.1302
22273SOL    HW278474   8.189   7.595   7.113 -0.6332  0.4767 -1.1249
22274SOL     OW78475   3.541   2.463   2.436 -0.2188 -0.1090  0.1516
22274SOL    HW178476   3.537   2.561   2.419  0.4129  0.0099  0.6584
22274SOL    HW278477   3.532   2.414   2.349 -1.4142  0.3686  0.0014
22275SOL     OW78478   2.289   2.858   3.336  0.7090  0.0069  0.0107
22275SOL    HW178479   2.291   2.957   3.344  1.8230 -0.1812  2.3886
22275SOL    HW278480   2.218   2.821   3.397  0.6612 -0.6990 -0.4594
22276SOL     OW78481   1.683   8.263   2.251 -0.3111 -0.5274  0.8179
22276SOL    HW178482   1.669   8.164   2.257 -2.5076 -0.2659  0.1916
22276SOL    HW278483   1.598   8.310   2.271  1.0163  1.3008  2.3258
22277SOL     OW78484   8.596   5.070   1.216 -0.2719 -0.8723 -0.6672
22277SOL    HW178485   8.646   5.122   1.284 -0.3593 -0.1295 -1.1609
22277SOL    HW278486   8.637   5.084   1.126 -0.6007 -1.2560 -0.8811
22278SOL     OW78487   3.499   7.637   2.626 -0.4280 -0.0974 -0.7015
22278SOL    HW178488   3.527   7.549   2.664 -0.9860 -0.9907 -2.2840
22278SOL    HW278489   3.402   7.653   2.646 -0.5956 -0.3430 -1.2824
22279SOL     OW78490   7.748   0.659   4.287  0.0290  0.2608  0.0556
22279SOL    HW178491   7.763   0.701   4.197 -0.5842 -0.7097 -0.5043
22279SOL    HW278492   7.665   0.604   4.285  0.0298  0.2034  1.2162
22280SOL     OW78493   3.910   8.180   5.936  0.6095 -0.6581 -0.4693
22280SOL    HW178494   3.880   8.275   5.944  2.1288 -0.1659 -0.4419
22280SOL    HW278495   3.917   8.156   5.839 -2.1579 -1.5395 -0.4940
22281SOL     OW78496   3.087   2.652   5.238  0.5064 -0.2092 -0.5712
22281SOL    HW178497   3.018   2.649   5.165  0.0743  0.5592 -0.1938
22281SOL    HW278498   3.124   2.560   5.252 -1.4600 -0.8992  0.1982
22282SOL     OW78499   1.073   5.295   0.531 -0.1844  0.0733  0.1601
22282SOL    HW178500   1.024   5.280   0.445 -1.5836  1.1993  0.7362
22282SOL    HW278501   1.148   5.360   0.515 -1.1700  1.2043  0.0099
22283SOL     OW78502   1.591   3.509   7.415  0.1647 -0.2359 -0.3864
22283SOL    HW178503   1.607   3.602   7.383  1.9060 -0.6721 -0.8230
22283SOL    HW278504   1.576   3.510   7.514 -1.0704  0.6365 -0.5709
22284SOL     OW78505   0.496   9.315   6.184 -0.3281 -0.6228 -0.0212
22284SOL    HW178506   0.537   9.237   6.232  2.1199  0.8571  0.3961
22284SOL    HW278507   0.553   9.339   6.106 -1.8714 -0.1684 -1.0114
22285SOL     OW78508   3.751   8.397   4.145 -0.3193 -0.7148 -0.5497
22285SOL    HW178509   3.782   8.335   4.073  0.8744 -0.0681 -0.6033
22285SOL    HW278510   3.823   8.408   4.213 -0.1475  1.3496 -1.0404
22286SOL     OW78511   0.720   7.776   6.132 -0.2527  0.8925  0.0561
22286SOL    HW178512   0.813   7.811   6.121 -0.5075  1.1321 -1.4392
22286SOL    HW278513   0.694   7.780   6.228  1.1879  1.0662  0.4483
22287SOL     OW78514   4.298   4.667   1.322 -0.3048 -0.9442 -0.0079
22287SOL    HW178515   4.204   4.646   1.295  0.1792 -0.8986 -1.8560
22287SOL    HW278516   4.343   4.585   1.356 -0.6418 -1.2601 -0.3251
22288SOL     OW78517   1.444   0.827   3.922 -0.2206 -0.1816  0.3427
22288SOL    HW178518   1.518   0.840   3.987  0.5263 -1.2251 -0.2908
22288SOL    HW278519   1.479   0.782   3.840 -1.3348  0.2935 -0.4048
22289SOL     OW78520   4.886   1.030   5.448  0.2457  0.4179  0.2532
22289SOL    HW178521   4.847   1.074   5.368  0.6690 -0.8731 -0.6938
22289SOL    HW278522   4.853   0.936   5.454  0.6517  0.3283  1.2809
22290SOL     OW78523   1.218   3.504   1.117  0.4322 -0.0778 -0.2432
22290SOL    HW178524   1.294   3.463   1.167  1.7340  3.0053  0.4579
22290SOL    HW278525   1.145   3.529   1.180 -0.8643 -2.2681 -0.8119
22291SOL     OW78526   2.277   6.912   5.346  0.1844 -0.6702 -0.7303
22291SOL    HW178527   2.375   6.897   5.364  0.4465  0.8193 -0.8415
22291SOL    HW278528   2.263   7.007   5.316 -1.2358 -1.0186 -1.1811
22292SOL     OW78529   7.521   8.816   4.597 -0.3727 -0.3065  0.1177
22292SOL    HW178530   7.463   8.842   4.675  0.7370  0.8164  0.5852
22292SOL    HW278531   7.533   8.717   4.597  2.5534 -0.0686  3.5344
22293SOL     OW78532   0.274   3.577   2.727 -0.1484  0.0123  0.7691
22293SOL    HW178533   0.225   3.648   2.777  0.3215  0.0327  1.1933
22293SOL    HW278534   0.209   3.505   2.701 -0.4066  0.0415  1.3272
22294SOL     OW78535   0.332   1.464   2.558  0.1404  0.4298 -0.7750
22294SOL    HW178536   0.240   1.500   2.545 -0.4606 -1.6924 -2.6853
22294SOL    HW278537   0.328   1.380   2.611  0.9809  0.3503 -0.8284
22295SOL     OW78538   7.004   1.419   7.567  0.3368  0.4489  0.1523
22295SOL    HW178539   7.020   1.348   7.635 -0.7715 -0.9561 -1.0179
22295SOL    HW278540   7.087   1.433   7.513  0.1201 -0.9969 -0.5646
22296SOL     OW78541   8.288   3.430   2.216 -0.5469  0.2802 -0.2753
22296SOL    HW178542   8.299   3.529   2.218  4.0904 -0.1184 -0.6790
22296SOL    HW278543   8.256   3.401   2.126  2.2147  1.0965 -1.5444
22297SOL     OW78544   0.728   0.300   1.421  0.3524 -0.0390 -0.4339
22297SOL    HW178545   0.703   0.250   1.504  0.7517  0.3779 -0.0690
22297SOL    HW278546   0.716   0.239   1.342 -2.7319  0.3954 -0.3788
22298SOL     OW78547   1.771   2.948   6.095  0.4170 -0.3850  0.5393
22298SOL    HW178548   1.802   2.867   6.045  0.3230 -0.8321  1.2028
22298SOL    HW278549   1.672   2.943   6.107  0.3789 -0.0507  0.3731
22299SOL     OW78550   2.856   0.942   5.337  0.5191  0.0807 -0.2283
22299SOL    HW178551   2.871   1.024   5.282  0.5465 -0.3005 -0.7941
22299SOL    HW278552   2.921   0.871   5.309  1.0010  0.1185  0.7754
22300SOL     OW78553   0.826   3.319   2.025 -0.1606  0.1216 -0.4511
22300SOL    HW178554   0.771   3.314   2.108  0.2606 -0.8344 -0.2217
22300SOL    HW278555   0.849   3.227   1.994  0.0903  0.4792 -1.3622
22301SOL     OW78556   3.177   0.592   2.627  0.2257  0.0615 -0.8224
22301SOL    HW178557   3.098   0.540   2.660  1.3568 -0.2373  1.5160
22301SOL    HW278558   3.193   0.670   2.688  1.7319  0.1377 -1.2964
22302SOL     OW78559   7.280   3.946   0.821  0.3488  0.1237 -0.2589
22302SOL    HW178560   7.229   4.003   0.756  0.6910  0.3077 -0.3671
22302SOL    HW278561   7.216   3.894   0.877  0.0411  0.3398 -0.4090
22303SOL     OW78562   6.709   6.560   7.615  0.4270  0.1593  0.2101
22303SOL    HW178563   6.720   6.583   7.711 -2.2882 -0.8870  0.8372
22303SOL    HW278564   6.656   6.632   7.569  3.5692  1.7269 -1.0481
22304SOL     OW78565   4.862   0.208   6.648  0.4042 -0.0250  0.3132
22304SOL    HW178566   4.956   0.202   6.614  0.1919  0.1775 -0.3133
22304SOL    HW278567   4.818   0.118   6.641 -0.3962  0.5098 -2.1831
22305SOL     OW78568   4.504   2.667   4.014  0.8763  0.5809 -0.2486
22305SOL    HW178569   4.533   2.713   3.930 -0.8145 -0.3638 -1.3777
22305SOL    HW278570   4.420   2.710   4.048 -1.1130 -1.9765 -1.6878
22306SOL     OW78571   0.967   5.163   5.393 -0.8310 -0.4190  0.0336
22306SOL    HW178572   0.897   5.183   5.462 -1.4047 -2.1807 -0.0368
22306SOL    HW278573   0.957   5.070   5.360  0.4927 -0.1361 -1.2386
22307SOL     OW78574   2.422   9.996   6.112  0.4281 -0.3539  0.4036
22307SOL    HW178575   2.508  10.038   6.082  1.1955 -1.4968  0.9316
22307SOL    HW278576   2.375   9.957   6.032  0.2556  0.5364  0.0713
22308SOL     OW78577   4.982   2.090   5.896 -0.0463 -0.5676  0.1287
22308SOL    HW178578   5.006   2.177   5.939 -0.2316  0.0715 -1.0357
22308SOL    HW278579   5.031   2.016   5.941 -0.1528  0.0978  1.3554
22309SOL     OW78580   4.613   3.781   2.401 -0.3971 -0.1860 -0.3611
22309SOL    HW178581   4.654   3.704   2.450  0.3297  1.3822  1.5226
22309SOL    HW278582   4.684   3.837   2.359 -0.9215 -0.4929 -1.7024
22310SOL     OW78583   8.298   2.127   6.039 -0.1125 -0.4118  0.4436
22310SOL    HW178584   8.393   2.145   6.064 -0.3104 -0.3903  1.1909
22310SOL    HW278585   8.295   2.058   5.966  0.5294  0.6135 -0.5673
22311SOL     OW78586   6.938   8.828   6.655 -0.2340  0.0437  0.3913
22311SOL    HW178587   6.885   8.757   6.608  0.1537 -0.5066  0.7792
22311SOL    HW278588   7.033   8.826   6.622 -0.0684 -0.0483  0.8656
22312SOL     OW78589   4.270   0.613   1.413  0.3781  0.4065 -0.4718
22312SOL    HW178590   4.269   0.530   1.470 -0.5934 -0.2671 -1.4432
22312SOL    HW278591   4.250   0.693   1.470 -1.0045 -0.3075  0.0556
22313SOL     OW78592   6.700   8.239   2.843  0.0271 -0.2821 -0.2580
22313SOL    HW178593   6.645   8.220   2.924 -1.2102 -0.0866 -1.0317
22313SOL    HW278594   6.739   8.154   2.807 -0.0868 -0.4747  0.0776
22314SOL     OW78595   7.366   0.486   5.440 -0.5889  0.1816  0.2679
22314SOL    HW178596   7.436   0.442   5.496  1.7962  1.5606 -1.5137
22314SOL    HW278597   7.350   0.579   5.474 -2.2443 -0.4309  1.2118
22315SOL     OW78598   0.562   9.234   0.244 -0.1432 -0.1435  0.2962
22315SOL    HW178599   0.480   9.278   0.280  1.1430  0.7889  2.1876
22315SOL    HW278600   0.639   9.298   0.248  0.3337 -0.4238 -3.0758
22316SOL     OW78601   0.677   2.752   1.935 -0.0536  0.0752 -0.4935
22316SOL    HW178602   0.650   2.830   1.991 -2.4633 -0.7012 -0.4939
22316SOL    HW278603   0.741   2.781   1.864 -0.5172  1.9320 -0.1692
22317SOL     OW78604   3.197   7.520   1.948  0.2946 -0.0206  0.9015
22317SOL    HW178605   3.174   7.557   2.038 -1.2071 -0.5468  0.7563
22317SOL    HW278606   3.186   7.421   1.948  0.8153 -0.0824  0.2962
22318SOL     OW78607   1.523   0.504   1.317  0.2748 -0.1864 -0.1573
22318SOL    HW178608   1.600   0.558   1.352  0.5853  0.1371 -1.3407
22318SOL    HW278609   1.443   0.520   1.375  0.2417  1.8817 -0.7221
22319SOL     OW78610   1.408   9.866   6.533 -0.3669  0.1041  0.0042
22319SOL    HW178611   1.506   9.856   6.515 -0.6280 -0.4210 -1.1751
22319SOL    HW278612   1.389   9.846   6.629  0.5509 -0.7364  0.0158
22320SOL     OW78613   8.110   5.514   2.308  0.4163  1.0416 -0.6418
22320SOL    HW178614   8.116   5.418   2.333 -0.2127  1.0799 -0.3505
22320SOL    HW278615   8.174   5.533   2.233  0.7349  0.4617 -0.5162
22321SOL     OW78616   3.762   4.452   7.426  0.1977  0.0958  0.3206
22321SOL    HW178617   3.786   4.531   7.482  1.7041  0.6866 -1.1052
22321SOL    HW278618   3.833   4.437   7.357 -0.2983 -2.2359  0.2782
22322SOL     OW78619   3.741   8.345   5.222  0.1041 -0.0196 -0.4975
22322SOL    HW178620   3.821   8.287   5.235 -0.8163 -1.2887 -0.3461
22322SOL    HW278621   3.759   8.437   5.257  1.1669 -0.5539  0.3816
22323SOL     OW78622   7.552   2.369   5.550  0.0032 -0.4473  0.2075
22323SOL    HW178623   7.540   2.271   5.568 -2.5341 -0.2603 -0.2146
22323SOL    HW278624   7.553   2.384   5.451 -1.2705  0.0909  0.2590
22324SOL     OW78625   0.255   1.712   5.007 -0.4171 -0.1214  0.2494
22324SOL    HW178626   0.225   1.644   5.074  0.0209  0.7124  1.3017
22324SOL    HW278627   0.184   1.725   4.938 -0.8068 -1.1027  0.4589
22325SOL     OW78628   8.605   9.153   3.126  0.0617 -0.0037  0.0801
22325SOL    HW178629   8.659   9.202   3.058 -0.5755  0.7030  0.0725
22325SOL    HW278630   8.615   9.197   3.216 -1.4885  0.9118 -0.1735
22326SOL     OW78631   9.578   9.281   4.583  0.7169  0.4833 -0.3100
22326SOL    HW178632   9.479   9.279   4.598  0.6453 -0.2424 -0.8640
22326SOL    HW278633   9.615   9.188   4.590  1.7782  1.0659  2.5940
22327SOL     OW78634   1.048   5.019   0.574 -0.3994 -0.3532 -0.4417
22327SOL    HW178635   1.064   5.117   0.572 -0.1498 -0.3826  0.2503
22327SOL    HW278636   1.109   4.974   0.509  1.4777 -0.3381  1.2673
22328SOL     OW78637   3.755   5.476   7.528 -0.2758 -0.3789  0.0444
22328SOL    HW178638   3.669   5.430   7.507  0.9227 -2.0571 -1.2991
22328SOL    HW278639   3.828   5.437   7.472  1.3155  1.2181  0.9678
22329SOL     OW78640   9.916   7.939   1.292 -0.4106 -0.0841  0.2393
22329SOL    HW178641   9.824   7.914   1.321 -0.0462  0.1011  1.6186
22329SOL    HW278642   9.959   7.994   1.364 -0.1662  2.0670 -1.4954
22330SOL     OW78643   3.621   9.674   4.650 -0.0668  0.5581 -0.1029
22330SOL    HW178644   3.546   9.608   4.657 -0.5441  1.2189  1.1199
22330SOL    HW278645   3.584   9.766   4.634  0.6079  0.5139 -2.1187
22331SOL     OW78646   5.981   9.383   5.505 -0.0829  0.1485  0.5513
22331SOL    HW178647   6.059   9.398   5.566  1.1134 -0.7762 -0.7148
22331SOL    HW278648   5.952   9.470   5.466  1.1409  0.3531  0.0607
22332SOL     OW78649   5.118   9.011   4.641  0.0056  0.8228 -0.1876
22332SOL    HW178650   5.174   9.072   4.697  0.9768  0.8939 -1.2150
22332SOL    HW278651   5.178   8.948   4.591 -0.9837 -0.8673  0.7349
22333SOL     OW78652   5.316   5.648   1.491 -0.3533 -0.4080  0.3106
22333SOL    HW178653   5.217   5.649   1.478 -0.2538 -0.8694 -0.5158
22333SOL    HW278654   5.348   5.741   1.514 -0.5727  0.4988 -2.7107
22334SOL     OW78655   4.427   9.796   7.892  0.0893 -0.0844  0.0494
22334SOL    HW178656   4.397   9.714   7.843  0.5027  0.1166 -0.5522
22334SOL    HW278657   4.415   9.783   7.990 -1.3834 -0.2378 -0.1421
22335SOL     OW78658   4.211   7.005   4.341  0.1043  0.0815  0.8241
22335SOL    HW178659   4.257   7.072   4.399 -1.5684  1.0454  1.0550
22335SOL    HW278660   4.141   6.957   4.394 -1.3373  0.8674 -0.3504
22336SOL     OW78661   4.187   2.164   4.636  0.2506 -0.1880  0.0169
22336SOL    HW178662   4.271   2.219   4.633 -0.0225  0.2549  0.4741
22336SOL    HW278663   4.142   2.176   4.724  1.0047 -2.3972  0.7213
22337SOL     OW78664   2.637   0.556   3.715  0.4637  0.3698 -0.0602
22337SOL    HW178665   2.544   0.592   3.700  0.7869  1.4602  0.4654
22337SOL    HW278666   2.679   0.535   3.626 -1.8369 -4.3180 -0.1940
22338SOL     OW78667   9.538   4.345   3.810 -0.3484 -0.3969 -0.4457
22338SOL    HW178668   9.596   4.298   3.743 -0.2014  0.6870 -1.0922
22338SOL    HW278669   9.443   4.341   3.780 -0.2330  0.4420 -0.9351
22339SOL     OW78670   8.876   0.512   0.252  0.7166 -0.0184  0.2640
22339SOL    HW178671   8.867   0.589   0.315  1.2908 -0.6103  1.0755
22339SOL    HW278672   8.905   0.431   0.302  0.3133 -0.7190 -0.6199
22340SOL     OW78673   0.442   6.326   1.684  0.5153  0.0751 -0.0353
22340SOL    HW178674   0.526   6.279   1.656  0.1389 -0.5408 -0.1462
22340SOL    HW278675   0.374   6.320   1.611 -0.3754 -1.3026  0.8727
22341SOL     OW78676   6.028   8.155   5.478 -0.4272 -0.7520 -0.1663
22341SOL    HW178677   5.939   8.178   5.517  0.3342 -1.9253  2.3537
22341SOL    HW278678   6.089   8.234   5.484 -0.9286 -0.2985 -0.8852
22342SOL     OW78679   3.320   1.846   2.240 -0.4701 -0.1956 -0.6200
22342SOL    HW178680   3.257   1.875   2.312 -0.6110  2.0024 -1.5814
22342SOL    HW278681   3.297   1.893   2.155  2.5428  0.8381 -0.9347
22343SOL     OW78682   1.017   6.636   9.826  0.0787 -0.3777 -0.3056
22343SOL    HW178683   1.108   6.631   9.866  0.3391 -0.7231 -0.9239
22343SOL    HW278684   0.948   6.611   9.894  0.4942 -0.7009 -0.0032
22344SOL     OW78685   5.716   0.404   6.625 -0.4726 -0.1924 -0.2134
22344SOL    HW178686   5.809   0.375   6.602 -0.1959  0.8178 -0.3833
22344SOL    HW278687   5.698   0.387   6.722  0.1955  0.4466  0.0202
22345SOL     OW78688   2.217   3.856   4.317  0.1077  0.1888 -0.6413
22345SOL    HW178689   2.223   3.828   4.413 -1.7695  0.5923 -0.3703
22345SOL    HW278690   2.154   3.794   4.269  2.3560 -1.0723 -2.0531
22346SOL     OW78691   7.563   2.615   5.687  0.4137  0.1733 -0.0460
22346SOL    HW178692   7.559   2.525   5.643 -2.7005 -0.8271  2.1335
22346SOL    HW278693   7.658   2.635   5.713  1.7969 -0.6636 -4.0911
22347SOL     OW78694   0.257   7.102   5.142 -0.4008 -0.0277  0.0137
22347SOL    HW178695   0.249   7.006   5.171  0.3603  0.1782  0.9271
22347SOL    HW278696   0.353   7.130   5.147 -0.5157  0.5498 -1.0029
22348SOL     OW78697   4.618   8.623   6.237  0.6882 -0.3131 -0.2222
22348SOL    HW178698   4.587   8.540   6.284 -1.2356  1.5419  1.8866
22348SOL    HW278699   4.621   8.606   6.139 -0.0992 -2.7609  0.1378
22349SOL     OW78700   9.001   2.527   5.588  0.3622 -0.0600  0.2628
22349SOL    HW178701   8.903   2.537   5.572  0.5728  1.3310 -0.1657
22349SOL    HW278702   9.018   2.441   5.637 -0.8652 -1.3586 -1.5252
22350SOL     OW78703   0.940   8.395   4.004  0.1417  0.0945 -0.3732
22350SOL    HW178704   0.876   8.380   3.928  0.5225  1.2240 -0.9210
22350SOL    HW278705   1.033   8.399   3.968  0.3284  0.5801  0.1695
22351SOL     OW78706   3.324   9.544   2.120 -0.8887 -0.1156 -0.1104
22351SOL    HW178707   3.275   9.620   2.164 -1.6862 -0.7592  0.1197
22351SOL    HW278708   3.258   9.485   2.073 -0.5340 -1.9324  1.6319
22352SOL     OW78709   8.167   5.806   1.896  0.2907 -0.3725  0.4014
22352SOL    HW178710   8.112   5.797   1.980  0.9346 -3.7276  0.5569
22352SOL    HW278711   8.260   5.834   1.920  0.3979 -1.0596  0.8302
22353SOL     OW78712   6.210   7.618   7.237  0.6481 -0.2237 -0.0064
22353SOL    HW178713   6.271   7.648   7.164 -1.6477  0.0865 -1.8521
22353SOL    HW278714   6.178   7.698   7.289  0.6723 -0.2469  0.0441
22354SOL     OW78715   0.975   1.921   2.994 -0.4046  0.0817 -0.5014
22354SOL    HW178716   0.984   2.013   2.955  0.2765 -0.4371 -1.6121
22354SOL    HW278717   0.890   1.914   3.045  0.0172  1.6408  0.4402
22355SOL     OW78718   6.710   9.908   1.049  0.1475  0.3763 -0.0739
22355SOL    HW178719   6.784   9.969   1.078  1.3375 -0.4971 -1.2087
22355SOL    HW278720   6.749   9.831   0.997 -1.5844  0.0982 -0.9827
22356SOL     OW78721   8.036   6.176   3.594  0.2232  0.5705  0.1868
22356SOL    HW178722   8.120   6.182   3.540  1.2544  0.1193  1.7250
22356SOL    HW278723   8.050   6.222   3.682 -1.3679  1.0992  0.1678
22357SOL     OW78724   3.163   3.246   1.544 -0.2774  0.5860 -0.1757
22357SOL    HW178725   3.078   3.193   1.547 -0.7126  1.2522 -0.6882
22357SOL    HW278726   3.229   3.200   1.485  0.5190 -1.0876  1.9237
22358SOL     OW78727   3.605   9.654   2.307 -0.2807 -0.6846 -0.5285
22358SOL    HW178728   3.525   9.713   2.308 -0.0248 -0.3241 -1.0428
22358SOL    HW278729   3.666   9.678   2.384 -0.6128 -0.8936 -0.1985
22359SOL     OW78730   0.788   8.708   4.827  0.1723  0.0192 -0.5743
22359SOL    HW178731   0.777   8.731   4.731 -1.0790  0.5980 -0.3060
22359SOL    HW278732   0.876   8.741   4.861 -0.2748  1.6518 -0.9863
22360SOL     OW78733   4.883   1.080   5.823 -0.1181 -0.4270 -0.3165
22360SOL    HW178734   4.785   1.092   5.811 -0.4399 -2.2134  0.3623
22360SOL    HW278735   4.915   1.140   5.897 -0.8905 -0.5781  0.1462
22361SOL     OW78736   0.078   3.494   2.408  0.0738  0.2220 -0.0650
22361SOL    HW178737   0.154   3.466   2.350  1.4002  0.7677  1.3470
22361SOL    HW278738  -0.008   3.487   2.358  0.9325 -1.4926 -1.3220
22362SOL     OW78739   8.681   0.738   6.390 -0.1796 -1.1721 -0.6396
22362SOL    HW178740   8.684   0.794   6.308  1.0336 -0.1270  0.1005
22362SOL    HW278741   8.682   0.641   6.364  1.1394 -0.8582 -1.8323
22363SOL     OW78742   4.025   4.624   7.406 -0.0780 -0.3580 -0.7870
22363SOL    HW178743   3.969   4.698   7.370 -0.8086 -0.5117  0.0086
22363SOL    HW278744   4.027   4.548   7.340  0.4422  0.2508 -1.4758
22364SOL     OW78745   1.278   8.843   4.718 -0.1410  0.0603  0.3435
22364SOL    HW178746   1.348   8.783   4.678 -1.3478 -0.9726 -0.2713
22364SOL    HW278747   1.253   8.913   4.651 -0.8328 -0.5537 -0.0590
22365SOL     OW78748   1.375   9.612   5.948 -0.8732 -0.2519 -0.0922
22365SOL    HW178749   1.281   9.581   5.965 -0.3163 -0.4381  2.9070
22365SOL    HW278750   1.391   9.698   5.998  0.1307  0.5529 -1.7450
22366SOL     OW78751   1.031   0.745   7.389 -0.2418 -0.2222 -0.4637
22366SOL    HW178752   0.978   0.682   7.332  1.2076 -1.6453 -0.2463
22366SOL    HW278753   0.969   0.794   7.450 -1.3580 -1.6433 -0.4334
22367SOL     OW78754   3.475   9.846   0.362  0.2647  0.3198  1.3589
22367SOL    HW178755   3.550   9.877   0.419  0.1231  1.5525  0.8869
22367SOL    HW278756   3.392   9.836   0.417  0.7248 -0.8832  1.8458
22368SOL     OW78757   8.819   7.237   3.290 -0.1462  0.0599 -0.6978
22368SOL    HW178758   8.812   7.310   3.222  1.0508 -1.0145 -2.0038
22368SOL    HW278759   8.862   7.273   3.373 -0.1267  0.9955 -1.1031
22369SOL     OW78760   8.044   6.704   6.151 -0.1063  0.2033 -0.2267
22369SOL    HW178761   8.081   6.732   6.239 -0.4544 -0.6617  0.1989
22369SOL    HW278762   8.084   6.761   6.079  0.3510  0.7621  0.4559
22370SOL     OW78763   2.070   6.401   1.571 -0.1721 -0.2907 -0.0379
22370SOL    HW178764   2.089   6.478   1.633  1.2632 -0.5660 -0.1277
22370SOL    HW278765   1.979   6.413   1.531 -0.2085  1.0481  0.4155
22371SOL     OW78766   3.518   4.827   6.085  0.1009  0.4011  0.1294
22371SOL    HW178767   3.542   4.835   6.182  2.7437  0.5658 -0.4937
22371SOL    HW278768   3.548   4.910   6.037 -0.6736  0.0660 -0.9537
22372SOL     OW78769   2.897   4.725   6.018  0.5014  0.4613 -0.0406
22372SOL    HW178770   2.965   4.794   5.994  0.3932 -0.0685 -1.9600
22372SOL    HW278771   2.807   4.754   5.986 -0.4340  1.6425  3.3847
22373SOL     OW78772   1.691   4.770   4.083 -0.4323  0.1811 -0.7507
22373SOL    HW178773   1.750   4.837   4.038 -2.2843  1.1529 -1.7721
22373SOL    HW278774   1.690   4.686   4.030  0.1635  0.0969 -0.6343
22374SOL     OW78775   5.799   8.122   3.861 -0.8598  0.0705 -0.0900
22374SOL    HW178776   5.838   8.146   3.772 -2.0454 -0.3459 -0.7461
22374SOL    HW278777   5.745   8.199   3.895  1.5266  1.1297  1.4209
22375SOL     OW78778   3.492   5.822   4.476  0.2399 -0.4268  0.5668
22375SOL    HW178779   3.573   5.794   4.527  0.4754  0.9151  0.9419
22375SOL    HW278780   3.441   5.741   4.447  0.1826 -1.2229  2.7850
22376SOL     OW78781   3.325   2.758   5.095  0.7535  0.7535 -0.5076
22376SOL    HW178782   3.305   2.759   4.997  0.9102  0.8954 -0.5396
22376SOL    HW278783   3.245   2.726   5.145  1.7280 -2.4908 -0.9044
22377SOL     OW78784   0.666   4.479   3.039  0.3900 -0.5640  0.3124
22377SOL    HW178785   0.749   4.512   2.994  0.5667  0.0227  1.0567
22377SOL    HW278786   0.662   4.379   3.032  1.0189 -0.5720  0.0333
22378SOL     OW78787   2.632   2.568   7.043  0.1796  0.6249 -0.2541
22378SOL    HW178788   2.550   2.521   7.008  1.9071 -2.2438 -0.6238
22378SOL    HW278789   2.668   2.517   7.121  0.7015  2.7903  0.9502
22379SOL     OW78790   0.189   3.079   0.474 -0.0140 -0.2156  0.0703
22379SOL    HW178791   0.223   3.081   0.568 -1.0288  2.9066  0.4221
22379SOL    HW278792   0.265   3.066   0.410  0.9523 -0.0546  1.1816
22380SOL     OW78793   1.543   2.287   4.097  0.5098  0.2755  0.1152
22380SOL    HW178794   1.588   2.265   4.010  0.0489 -0.1561 -0.0203
22380SOL    HW278795   1.462   2.343   4.078  0.6225  0.4997  0.3005
22381SOL     OW78796   1.154   3.301   8.157  0.4149  0.2247 -0.2324
22381SOL    HW178797   1.123   3.225   8.099  0.2350 -0.1012  0.2839
22381SOL    HW278798   1.134   3.279   8.253 -0.5316  1.3516 -0.1580
22382SOL     OW78799   4.192   1.495   5.353  0.3531 -0.3824 -0.2961
22382SOL    HW178800   4.113   1.523   5.407 -0.1213 -3.1502  0.5411
22382SOL    HW278801   4.166   1.489   5.257 -1.2119 -3.6434  0.2671
22383SOL     OW78802   6.692   7.924   7.785  0.1034  0.1403 -0.9598
22383SOL    HW178803   6.703   7.849   7.850 -1.4393  0.4007 -0.3800
22383SOL    HW278804   6.641   7.892   7.705 -1.0409  0.7188 -0.4571
22384SOL     OW78805   0.311   4.252   4.280  0.2569 -0.3950  0.5312
22384SOL    HW178806   0.251   4.272   4.202  1.4052 -1.6732 -0.7208
22384SOL    HW278807   0.369   4.332   4.299  2.0223 -1.0361 -1.8531
22385SOL     OW78808   7.998   4.527   0.639 -0.1189  0.7883 -0.1757
22385SOL    HW178809   7.990   4.573   0.551  3.5736 -1.1250 -1.6368
22385SOL    HW278810   8.072   4.568   0.693  0.6198 -0.8359  0.1127
22386SOL     OW78811   1.092   5.469   4.092 -0.2586 -0.0007 -0.1463
22386SOL    HW178812   1.077   5.566   4.070  0.6344  0.0820 -0.4138
22386SOL    HW278813   1.078   5.455   4.190  0.4892  0.5744  0.0458
22387SOL     OW78814   2.087   8.251   5.014 -0.0560 -0.2692  0.2304
22387SOL    HW178815   2.168   8.308   5.002  0.8875 -1.8904 -1.2479
22387SOL    HW278816   2.009   8.293   4.966  0.3885  0.2627 -0.0282
22388SOL     OW78817   5.442   9.267   3.159 -0.0784  0.7281 -0.4629
22388SOL    HW178818   5.421   9.363   3.142 -0.4219  0.5747 -0.9226
22388SOL    HW278819   5.365   9.210   3.128 -0.4217  0.3959  0.9891
22389SOL     OW78820   9.926   9.916   2.350  0.0988  0.8137  0.0126
22389SOL    HW178821   9.853   9.947   2.288 -0.6981 -1.4109 -0.2071
22389SOL    HW278822  10.012   9.959   2.324 -0.6334  1.4839 -1.3668
22390SOL     OW78823   3.684   1.301   3.716  0.1641  0.0932 -0.2648
22390SOL    HW178824   3.731   1.279   3.630  1.7000  1.9685  0.0593
22390SOL    HW278825   3.751   1.326   3.785 -1.1546 -0.1213  1.1212
22391SOL     OW78826   0.877   3.112   3.189  0.5009 -0.0046 -0.2095
22391SOL    HW178827   0.970   3.110   3.225  1.0338 -1.3608 -1.6114
22391SOL    HW278828   0.845   3.018   3.176 -1.1259  0.4494  0.4104
22392SOL     OW78829   1.132   7.213   1.984 -0.1049 -0.0555 -0.4861
22392SOL    HW178830   1.049   7.206   1.929 -1.7623  1.9847  1.6147
22392SOL    HW278831   1.107   7.217   2.081  2.4252  0.8122  0.1645
22393SOL     OW78832   4.104   4.189   1.225  0.0017  0.1252  0.0319
22393SOL    HW178833   4.094   4.095   1.193 -0.2271 -0.2968  1.2918
22393SOL    HW278834   4.195   4.201   1.266  1.2329  1.3346 -2.9196
22394SOL     OW78835   7.380   1.031   4.843  0.2556 -0.3021 -0.3390
22394SOL    HW178836   7.372   0.937   4.875 -0.3748 -0.2001 -0.1901
22394SOL    HW278837   7.367   1.034   4.744  0.4646 -0.3957 -0.3697
22395SOL     OW78838   2.431   0.084   5.527 -0.2163  0.1637 -0.3867
22395SOL    HW178839   2.415   0.122   5.436 -0.0819  1.0979 -0.0243
22395SOL    HW278840   2.520   0.114   5.561 -0.5696  0.3840  0.3481
22396SOL     OW78841   7.361   8.492   1.555 -0.2601 -0.3524 -0.6457
22396SOL    HW178842   7.413   8.434   1.618 -0.0769 -0.3044 -0.7517
22396SOL    HW278843   7.316   8.566   1.606  0.3642  0.0305 -0.6480
  10.00000  10.00000  10.08169
