chitosan Film  in water:acetic acid 2%
38571
    1CHTO  H203    1   6.243   6.353   3.158  1.4370  1.3304  2.1026
    1CHTO   O82    2   6.209   6.283   3.210  0.3654  0.3772  0.1813
    1CHTO  C123    3   6.321   6.198   3.231 -0.3195 -0.2875  0.0896
    1CHTO  H227    4   6.391   6.245   3.302 -0.6968  1.2743 -0.5414
    1CHTO   O77    5   6.251   6.089   3.296  0.4673  0.0504 -0.1010
    1CHTO  C118    6   6.327   5.985   3.366 -0.3802  0.3010 -0.0838
    1CHTO  H222    7   6.396   6.020   3.444  0.4657  0.2264 -0.7839
    1CHTO  C125    8   6.212   5.893   3.435 -0.3742  0.2014 -0.1792
    1CHTO   O84    9   6.264   5.801   3.528 -0.4626 -0.7683 -0.1766
    1CHTO  H205   10   6.205   5.745   3.575  0.2995 -2.0127 -0.6740
    1CHTO  C114   11   6.407   5.922   3.247  0.4533 -0.2196 -0.6783
    1CHTO  H218   12   6.335   5.865   3.187 -2.6368 -0.0015  2.6338
    1CHTO  C116   13   6.487   6.027   3.164  0.1945 -0.2887 -0.0271
    1CHTO  H220   14   6.565   6.072   3.229 -0.0666 -0.0950  0.1562
    1CHTO   O79   15   6.549   5.957   3.054 -0.6736 -0.0673 -0.1947
    1CHTO  H201   16   6.623   6.000   3.015 -1.4110  1.2899 -0.1381
    1CHTO  C120   17   6.396   6.139   3.111  0.1329 -0.3257 -0.8825
    1CHTO  H224   18   6.324   6.093   3.041  0.5986  2.6089 -3.3840
    1CHTO   N21   19   6.470   6.241   3.032  1.2653 -0.6525 -0.2037
    1CHTO  H211   20   6.486   6.198   2.935  0.2956 -3.9007  1.0033
    1CHTO  H212   21   6.424   6.338   3.042  2.1545  0.0264 -2.5119
    1CHTO   O75   22   6.491   5.826   3.327  0.0405  0.0935 -0.8383
    1CHTO  C112   23   6.528   5.692   3.251 -0.2298 -0.0364 -0.4286
    1CHTO  H216   24   6.506   5.712   3.146 -0.3973 -0.2237 -0.4278
    1CHTO   O73   25   6.439   5.593   3.312 -0.0266 -0.0403 -0.5080
    1CHTO  C113   26   6.470   5.456   3.272  0.0916 -0.5754 -0.0033
    1CHTO  H217   27   6.439   5.457   3.165 -2.1680  0.1688  0.6217
    1CHTO  C124   28   6.369   5.363   3.334 -0.4161 -0.2068  0.2356
    1CHTO   O83   29   6.360   5.360   3.478 -0.3845  0.1326 -0.3034
    1CHTO  H204   30   6.432   5.311   3.512 -0.9044  0.0874  0.7478
    1CHTO  C109   31   6.616   5.417   3.310  0.3580 -0.7763  0.1033
    1CHTO  H213   32   6.623   5.435   3.418  1.3478 -1.3344  0.1436
    1CHTO  C110   33   6.717   5.508   3.233  0.5815 -0.3737  0.3323
    1CHTO  H214   34   6.699   5.488   3.127  1.2581 -0.5808  0.2551
    1CHTO   O78   35   6.852   5.476   3.275 -0.3061  0.5425  0.0144
    1CHTO  H200   36   6.866   5.384   3.279 -2.4781  0.1461 -1.0487
    1CHTO  C111   37   6.682   5.657   3.270  0.9373  0.2258 -0.6884
    1CHTO  H215   38   6.706   5.682   3.374  0.0298  4.3492 -1.3958
    1CHTO   N19   39   6.764   5.748   3.186 -0.2020 -0.1793 -0.0088
    1CHTO  H207   40   6.793   5.708   3.090  2.2537  0.2521  0.5365
    1CHTO  H208   41   6.853   5.774   3.242 -0.8846  2.0631  0.1035
    1CHTO   O74   42   6.643   5.276   3.286  0.0462 -0.1609  0.0782
    1CHTO  C115   43   6.739   5.204   3.363 -1.2189 -0.5810  0.7940
    1CHTO  H219   44   6.783   5.271   3.436 -0.8640  1.0433 -0.8589
    1CHTO   O76   45   6.677   5.094   3.443 -0.1132  0.5482 -0.0425
    1CHTO  C122   46   6.590   5.007   3.368 -0.1926  0.1228 -0.4865
    1CHTO  H226   47   6.499   5.057   3.333 -0.3712  0.1484  0.0132
    1CHTO  C126   48   6.551   4.902   3.475  0.7364 -0.3643 -0.4101
    1CHTO   O85   49   6.478   4.958   3.593 -0.1116  0.0800  0.6423
    1CHTO  H206   50   6.432   4.888   3.635  1.0675 -0.8776  0.3692
    1CHTO  C121   51   6.661   4.943   3.242 -0.1924  0.1984 -0.1357
    1CHTO  H225   52   6.653   4.833   3.239  0.5723 -0.0166  3.2932
    1CHTO   O81   53   6.592   4.994   3.131 -0.3979 -0.3064  0.5648
    1CHTO  H202   54   6.635   4.987   3.048 -0.8717 -1.8850  0.4501
    1CHTO  C119   55   6.810   4.984   3.238 -0.2041 -0.7171  0.0558
    1CHTO  H223   56   6.853   4.933   3.324 -1.6925 -2.5610 -0.2643
    1CHTO  C117   57   6.839   5.143   3.259 -0.0354 -0.5171  0.0020
    1CHTO  H221   58   6.825   5.203   3.169 -1.1243 -1.9676 -0.8221
    1CHTO   N20   59   6.983   5.164   3.299 -0.1202  0.1255  0.1808
    1CHTO  H209   60   7.001   5.270   3.302 -0.5864  0.1763  1.9494
    1CHTO  H210   61   7.064   5.134   3.234  1.6964 -0.2999  2.5799
    1CHTO   O80   62   6.891   4.921   3.114  0.7732  0.0452  0.2432
    1CHTO  C103   63   6.906   4.766   3.104  0.1939 -0.3569  0.2223
    1CHTO  H190   64   6.882   4.713   3.196  2.1623 -1.6944  0.0015
    1CHTO  C101   65   6.835   4.700   2.987 -0.0591 -0.0766  0.0434
    1CHTO  H188   66   6.853   4.760   2.897  2.1292 -2.6784 -1.3085
    1CHTO   O68   67   6.689   4.703   3.004 -0.7009 -0.2958  0.1974
    1CHTO  H168   68   6.651   4.670   2.925  1.5995 -1.7175 -0.3591
    1CHTO   C99   69   6.896   4.548   2.963  0.5774  0.7835 -0.4840
    1CHTO  H186   70   6.876   4.483   3.051 -0.1992  2.0955  0.3300
    1CHTO   N17   71   6.842   4.479   2.852 -0.2006 -0.1705  0.0408
    1CHTO  H174   72   6.735   4.470   2.843 -0.2594  1.0716 -0.4656
    1CHTO  H175   73   6.893   4.533   2.773  2.3712 -2.7957 -0.2140
    1CHTO   C97   74   7.051   4.559   2.949 -0.0816  0.1209  0.0855
    1CHTO  H184   75   7.081   4.616   2.860  0.6656  0.0518  0.2880
    1CHTO   O64   76   7.106   4.614   3.068 -0.3388 -0.1153  0.5029
    1CHTO  C104   77   7.061   4.748   3.083 -0.6158 -0.2565 -0.6501
    1CHTO  H191   78   7.097   4.793   2.991 -0.9756  0.0779 -0.6312
    1CHTO  C108   79   7.146   4.813   3.201 -0.7603  0.1255  0.5414
    1CHTO   O71   80   7.131   4.737   3.321  0.2180  0.0949 -0.1391
    1CHTO  H171   81   7.130   4.645   3.301  3.2494  0.3761 -1.8854
    1CHTO   O62   82   7.122   4.436   2.956  0.1731  0.5352 -0.2928
    1CHTO   C91   83   7.254   4.437   2.898  1.2129  0.0669 -0.3236
    1CHTO  H178   84   7.284   4.539   2.876  0.0982  0.8274  1.5542
    1CHTO   C92   85   7.249   4.348   2.773 -0.6625  0.6604 -0.5556
    1CHTO  H179   86   7.166   4.369   2.704 -0.2647  3.1018 -0.3272
    1CHTO   O66   87   7.367   4.375   2.700 -0.2989 -0.0710  0.4452
    1CHTO  H166   88   7.366   4.464   2.670 -0.5500 -0.1493  0.2144
    1CHTO   C93   89   7.244   4.191   2.802  0.1751 -0.0783  0.3336
    1CHTO  H180   90   7.269   4.133   2.712 -1.5178  2.1686 -1.6511
    1CHTO   N16   91   7.103   4.146   2.812 -0.4986  0.0120  0.3865
    1CHTO  H172   92   7.026   4.221   2.813  0.1964  0.7327  1.7471
    1CHTO  H173   93   7.090   4.082   2.898 -0.7285 -0.3170  0.1074
    1CHTO   C94   94   7.336   4.153   2.925  0.8723 -0.2254 -0.3098
    1CHTO  H181   95   7.276   4.116   3.008  1.5266  2.4247  1.3728
    1CHTO   O61   96   7.417   4.267   2.963 -0.0741 -0.4436 -0.0753
    1CHTO   C95   97   7.354   4.382   3.011 -0.1422 -0.2052  1.0281
    1CHTO  H182   98   7.293   4.357   3.098 -0.2599  1.2772  1.3910
    1CHTO  C106   99   7.451   4.491   3.066 -0.2329  0.4947  0.9017
    1CHTO   O69  100   7.377   4.575   3.155  0.1646 -0.1358  0.0254
    1CHTO  H169  101   7.420   4.650   3.193  1.1297 -1.4008  1.5033
    1CHTO   O63  102   7.432   4.024   2.879  0.2592  0.1570  0.1385
    1CHTO   C96  103   7.579   4.016   2.929 -0.2418 -0.1756 -0.3570
    1CHTO  H183  104   7.582   4.038   3.036  0.0241  0.8818 -0.5772
    1CHTO   C98  105   7.671   4.114   2.849  0.5578 -0.2018  0.2528
    1CHTO  H185  106   7.608   4.204   2.842  0.2405 -0.4371  0.0939
    1CHTO   O67  107   7.796   4.162   2.919  0.2548  0.6917  0.5580
    1CHTO  H167  108   7.779   4.234   2.977 -2.6420  0.8151 -0.3593
    1CHTO  C102  109   7.696   4.063   2.702 -0.1147  0.3704  0.4239
    1CHTO  H189  110   7.769   4.130   2.654 -2.7613  2.0507 -1.4364
    1CHTO   N18  111   7.580   4.057   2.605 -0.1378  0.1898 -0.1125
    1CHTO  H176  112   7.482   4.080   2.643 -1.3782 -1.8445 -1.9179
    1CHTO  H177  113   7.588   4.099   2.506  0.8436  1.2235  0.3868
    1CHTO  C105  114   7.760   3.923   2.719  0.2245 -0.2894 -0.2509
    1CHTO  H192  115   7.768   3.877   2.620 -1.1359 -3.6873  1.1575
    1CHTO   O65  116   7.690   3.823   2.792 -0.0851  0.0974 -0.2903
    1CHTO  C100  117   7.623   3.867   2.907  0.4718  0.2574  0.5096
    1CHTO  H187  118   7.530   3.807   2.911  0.0839  0.8095 -0.2027
    1CHTO  C107  119   7.699   3.824   3.043  0.1138 -0.3538  0.3823
    1CHTO   O70  120   7.663   3.688   3.064 -0.8034  0.3786  0.2827
    1CHTO  H170  121   7.684   3.637   2.988 -0.0418  0.6779  0.2850
    1CHTO   O57  122   7.926   3.961   2.790  0.1110  0.4950  0.4129
    1CHTO   C85  123   8.050   3.903   2.753 -0.0818 -0.0329  0.2762
    1CHTO  H157  124   8.081   3.947   2.655  1.6873 -0.4359  0.6430
    1CHTO   C83  125   8.032   3.751   2.730  1.2849 -0.3517  0.0565
    1CHTO  H155  126   7.965   3.733   2.647 -0.0197  2.6986  0.3865
    1CHTO   O56  127   7.958   3.693   2.840  0.1578  0.9722  0.6397
    1CHTO  H135  128   7.898   3.623   2.821 -1.3267  3.0542 -2.8107
    1CHTO   C81  129   8.168   3.682   2.698 -0.9758  0.0105 -0.1975
    1CHTO  H153  130   8.209   3.722   2.605 -1.6237 -0.6183 -0.7608
    1CHTO   N14  131   8.165   3.534   2.688 -0.3758  0.4664  0.2349
    1CHTO  H141  132   8.086   3.503   2.623  0.6214  0.2602 -0.9044
    1CHTO  H142  133   8.148   3.494   2.786 -0.2955 -0.5055 -0.1424
    1CHTO   C79  134   8.267   3.723   2.817 -0.0714 -0.1457 -0.4203
    1CHTO  H151  135   8.368   3.693   2.787  1.1809  1.9575  1.5508
    1CHTO   O52  136   8.281   3.868   2.836 -0.3626 -0.4995 -0.7967
    1CHTO   C86  137   8.155   3.929   2.864 -0.6043  0.1178 -0.0251
    1CHTO  H158  138   8.132   3.877   2.959 -1.6671  0.9604  0.1822
    1CHTO   C90  139   8.176   4.086   2.890  0.0896 -0.3696 -0.0543
    1CHTO   O60  140   8.289   4.109   2.977  0.3155  0.0337 -0.2706
    1CHTO  H138  141   8.286   4.202   2.989 -0.4890  0.0638 -0.6672
    1CHTO   O50  142   8.248   3.662   2.953 -0.1396 -0.4837 -0.1516
    1CHTO   C73  143   8.296   3.593   3.075  0.2791  0.0228  0.1118
    1CHTO  H145  144   8.388   3.537   3.054  0.6089 -0.2489  2.2169
    1CHTO   C74  145   8.184   3.484   3.119  0.0138 -0.9867 -0.3164
    1CHTO  H146  146   8.171   3.406   3.043 -3.2179 -0.7607 -0.0529
    1CHTO   O54  147   8.233   3.422   3.240 -0.1724  0.2108 -0.2285
    1CHTO  H133  148   8.170   3.359   3.268 -1.6342  1.8682  0.2979
    1CHTO   C75  149   8.045   3.556   3.145 -0.4862  0.2669  0.4638
    1CHTO  H147  150   8.019   3.608   3.051  2.2234  1.7808  0.5091
    1CHTO   N13  151   7.924   3.474   3.171  0.3407  0.8416  0.3527
    1CHTO  H139  152   7.932   3.406   3.255  0.7765  2.4848  1.6827
    1CHTO  H140  153   7.832   3.527   3.189 -0.0919  0.8455 -1.7469
    1CHTO   C76  154   8.072   3.674   3.253 -0.2075 -0.8876  0.2652
    1CHTO  H148  155   8.077   3.632   3.353  0.1658 -3.1434 -0.6677
    1CHTO   O49  156   8.196   3.757   3.235  0.6575  0.6531 -0.3027
    1CHTO   C77  157   8.320   3.691   3.199  1.0898 -0.5107 -0.0128
    1CHTO  H149  158   8.351   3.629   3.283  0.6520 -0.5197  0.1417
    1CHTO   C88  159   8.419   3.805   3.166 -0.1316  0.4464  0.6381
    1CHTO   O58  160   8.445   3.872   3.297  0.1708 -0.2616  0.1345
    1CHTO  H136  161   8.479   3.957   3.276 -0.3117 -0.5832 -2.0318
    1CHTO   O51  162   7.965   3.778   3.227  0.4407  0.3838 -0.7255
    1CHTO   C78  163   7.930   3.839   3.369 -0.6293 -0.6991 -0.0341
    1CHTO  H150  164   8.016   3.834   3.439 -0.5244  0.4485 -0.0708
    1CHTO   C80  165   7.819   3.756   3.436 -0.2667  0.1070  0.0672
    1CHTO  H152  166   7.738   3.731   3.364 -0.5813 -2.5053  1.2689
    1CHTO   O55  167   7.871   3.628   3.477  0.7932 -0.4462 -0.6435
    1CHTO  H134  168   7.942   3.643   3.537 -0.4150  0.7230  0.5447
    1CHTO   C84  169   7.748   3.828   3.557  0.0878 -0.0494  0.3261
    1CHTO  H156  170   7.821   3.832   3.638  0.6042  0.4800 -0.1652
    1CHTO   N15  171   7.628   3.760   3.613  0.6293 -0.0550  0.0526
    1CHTO  H143  172   7.587   3.797   3.705 -1.5085 -1.9396 -0.0737
    1CHTO  H144  173   7.550   3.726   3.548  1.7354 -3.7554  0.5544
    1CHTO   C87  174   7.698   3.965   3.524  0.0683 -0.0791  0.7375
    1CHTO  H159  175   7.626   3.957   3.443  1.6418  0.7233 -0.7795
    1CHTO   O53  176   7.824   4.040   3.472 -0.5512 -0.1801  0.0866
    1CHTO   C82  177   7.875   3.986   3.346 -0.1098 -0.5942 -0.1613
    1CHTO  H154  178   7.798   3.994   3.270  0.8426 -1.7685 -1.2751
    1CHTO   C89  179   7.995   4.083   3.302  0.2363  0.4641 -0.0357
    1CHTO   O59  180   8.043   4.044   3.175  0.0528  0.7865 -0.0065
    1CHTO  H137  181   8.117   4.101   3.164  0.3170  0.3062 -0.7435
    1CHTO   O45  182   7.640   4.058   3.668  0.9562 -0.3170  0.4418
    1CHTO   C67  183   7.514   4.132   3.641  0.8227  0.5524  0.5134
    1CHTO  H124  184   7.467   4.097   3.549  1.3094  1.1327  0.0417
    1CHTO   C65  185   7.417   4.126   3.760  0.4723  1.4930  0.7615
    1CHTO  H122  186   7.397   4.022   3.782 -4.2715  2.2124  0.2968
    1CHTO   O44  187   7.293   4.173   3.707  0.3958 -0.1865  0.5793
    1CHTO  H102  188   7.224   4.123   3.746 -0.1943 -1.1425 -1.5961
    1CHTO   C63  189   7.481   4.194   3.890 -0.0516 -0.3502 -0.0038
    1CHTO  H120  190   7.574   4.141   3.912 -1.3419 -1.9997  1.6420
    1CHTO   N11  191   7.400   4.165   4.021  0.4725  0.2796  0.2129
    1CHTO  H108  192   7.295   4.181   4.012  0.2081 -1.7989 -0.5815
    1CHTO  H109  193   7.454   4.206   4.104 -1.3508  0.4142  1.3454
    1CHTO   C61  194   7.522   4.344   3.853 -0.7018 -0.3971 -0.1523
    1CHTO  H118  195   7.591   4.377   3.931 -0.9992  0.6899 -0.3414
    1CHTO   O40  196   7.605   4.338   3.730 -0.0137 -0.7356 -0.1668
    1CHTO   C68  197   7.559   4.274   3.606  0.0367 -0.4158 -0.6629
    1CHTO  H125  198   7.652   4.272   3.546  0.8045 -0.2361  0.5123
    1CHTO   C72  199   7.450   4.350   3.524 -0.1058 -0.3015 -0.4726
    1CHTO   O48  200   7.418   4.310   3.389 -0.6634  0.2264 -0.2281
    1CHTO  H105  201   7.358   4.367   3.344 -2.3279 -0.9899  0.3575
    1CHTO   O38  202   7.399   4.418   3.861  0.1462  0.1968 -0.2487
    1CHTO   C55  203   7.413   4.557   3.898  0.0242 -0.0534 -0.2446
    1CHTO  H112  204   7.510   4.570   3.949 -2.0168  0.3588  3.7165
    1CHTO   C56  205   7.297   4.588   3.998  0.0816  0.6839 -0.5205
    1CHTO  H113  206   7.205   4.550   3.951  0.6214 -0.9046 -0.3396
    1CHTO   O42  207   7.331   4.504   4.109  0.1298  0.1038 -0.7078
    1CHTO  H100  208   7.267   4.523   4.175 -0.5025 -3.6437 -0.1689
    1CHTO   C57  209   7.293   4.735   4.046  0.3231  0.1175 -0.0889
    1CHTO  H114  210   7.382   4.759   4.104  1.0487 -1.8922 -0.3190
    1CHTO   N10  211   7.180   4.760   4.134 -0.0303 -0.3060  0.1436
    1CHTO  H106  212   7.145   4.674   4.189 -1.9940 -0.0816 -0.7021
    1CHTO  H107  213   7.102   4.798   4.070 -0.1499  0.5035  0.7594
    1CHTO   C58  214   7.295   4.830   3.923  0.1305 -0.2523  1.1758
    1CHTO  H115  215   7.203   4.812   3.863 -0.1839  1.0031  1.2786
    1CHTO   O37  216   7.410   4.802   3.846 -0.9979 -0.2951 -0.8573
    1CHTO   C59  217   7.403   4.665   3.790 -0.6198  0.0423  0.2405
    1CHTO  H116  218   7.317   4.656   3.724 -1.1586 -0.4413  1.0107
    1CHTO   C70  219   7.518   4.648   3.691 -0.3583 -1.1114 -0.3439
    1CHTO   O46  220   7.501   4.747   3.586 -0.4818 -0.2622  0.3401
    1CHTO  H103  221   7.539   4.828   3.615  0.2183 -0.6304  0.4751
    1CHTO   O39  222   7.304   4.995   3.955  0.3469  0.0967 -0.2178
    1CHTO   C60  223   7.257   5.084   3.853  0.2872  0.2370  0.6459
    1CHTO  H117  224   7.280   5.040   3.755  2.1245  0.6952  0.8458
    1CHTO   C62  225   7.112   5.119   3.874  0.5806  0.2203  0.0656
    1CHTO  H119  226   7.057   5.024   3.856 -2.7552  1.8286  1.3605
    1CHTO   O43  227   7.072   5.164   4.007 -0.0188 -0.4972  0.1637
    1CHTO  H101  228   6.980   5.181   4.014 -0.0588 -0.7526  0.2634
    1CHTO   C66  229   7.062   5.222   3.756  0.2742 -0.8971  0.3351
    1CHTO  H123  230   7.087   5.174   3.661 -1.2413 -0.9720 -0.0332
    1CHTO   N12  231   6.913   5.242   3.741 -0.1361 -0.1101 -0.6213
    1CHTO  H110  232   6.879   5.302   3.824 -1.0056  1.1527 -1.8697
    1CHTO  H111  233   6.909   5.309   3.657  3.0423  0.5849 -0.2654
    1CHTO   C69  234   7.130   5.360   3.778 -0.6634  0.2889 -0.2744
    1CHTO  H126  235   7.084   5.401   3.870 -0.4766 -1.0120  0.4089
    1CHTO   O41  236   7.281   5.337   3.787  0.1736  0.2830  0.1895
    1CHTO   C64  237   7.336   5.219   3.859  0.8849  1.0192 -0.4143
    1CHTO  H121  238   7.335   5.239   3.968  0.2663  0.2584 -0.2736
    1CHTO   C71  239   7.477   5.194   3.805  0.1888 -0.8320  0.2469
    1CHTO   O47  240   7.549   5.317   3.820  0.7296 -0.8583  0.6244
    1CHTO  H104  241   7.614   5.329   3.753 -1.9223  2.3400 -1.5400
    1CHTO   O34  242   7.097   5.468   3.665 -0.7326 -0.7329 -0.1782
    1CHTO   C49  243   7.167   5.573   3.635 -0.1697 -0.0658  0.2694
    1CHTO   H91  244   7.270   5.541   3.624  0.2496  1.8109 -1.6155
    1CHTO   C47  245   7.154   5.682   3.744 -0.5250 -0.7211  0.1753
    1CHTO   H89  246   7.222   5.765   3.718 -2.1045  1.4824  2.7799
    1CHTO   O33  247   7.186   5.635   3.872  0.0793 -0.0506 -0.5487
    1CHTO   H70  248   7.279   5.623   3.879 -0.0751 -0.4564  1.1980
    1CHTO   C45  249   7.008   5.744   3.739  0.0514  0.7722 -0.1882
    1CHTO   H87  250   6.947   5.654   3.760  1.0919  0.2210  0.5034
    1CHTO    N8  251   6.984   5.844   3.847  0.1371  1.1041 -0.4668
    1CHTO   H75  252   6.916   5.815   3.925 -0.2271  2.5822 -0.2277
    1CHTO   H76  253   6.966   5.939   3.799  0.8238 -0.4265 -3.9345
    1CHTO   C43  254   6.967   5.799   3.597  0.3216 -0.2463  1.1907
    1CHTO   H85  255   6.863   5.831   3.605 -0.0844 -1.3176  0.2322
    1CHTO   O29  256   6.991   5.706   3.496 -0.2618  0.3118 -0.5019
    1CHTO   C50  257   7.115   5.636   3.502 -0.8630 -1.2019 -0.6717
    1CHTO   H92  258   7.113   5.551   3.432  0.2456  0.1984 -2.4474
    1CHTO   C54  259   7.219   5.732   3.441 -0.3621  0.0287  0.1190
    1CHTO   O36  260   7.186   5.765   3.302  0.0679  0.3764 -0.2446
    1CHTO   H72  261   7.112   5.823   3.310 -1.4898 -1.5643 -0.0975
    1CHTO   O27  262   7.024   5.931   3.574  0.4143 -0.1388  0.0130
    1CHTO   C37  263   7.001   6.038   3.483 -0.8686  0.6556  0.0567
    1CHTO   H79  264   7.036   6.003   3.385 -0.4855  1.2001 -0.0056
    1CHTO   C38  265   6.856   6.095   3.469 -0.6362  1.3562 -0.4243
    1CHTO   H80  266   6.817   6.117   3.569 -1.7279  1.6537 -0.9145
    1CHTO   O31  267   6.761   5.998   3.410  0.3751  0.0665 -0.3038
    1CHTO   H68  268   6.679   6.042   3.400 -0.5298 -1.1986  1.4329
    1CHTO   C39  269   6.851   6.223   3.380 -0.0082  0.0117  0.2859
    1CHTO   H81  270   6.868   6.206   3.273  1.3940  0.6745  0.3920
    1CHTO    N7  271   6.712   6.277   3.382  0.4740 -0.3140 -0.1343
    1CHTO   H73  272   6.708   6.373   3.433 -1.9017  0.8017 -2.3324
    1CHTO   H74  273   6.640   6.216   3.435  0.8127  0.2850  1.0529
    1CHTO   C40  274   6.965   6.332   3.415 -0.2254 -0.2239 -0.1134
    1CHTO   H82  275   6.928   6.374   3.508  2.6114 -0.5644  1.2227
    1CHTO   O26  276   7.093   6.262   3.435 -0.4818  0.4212  0.0062
    1CHTO   C41  277   7.104   6.151   3.523  0.3266 -0.4797  0.0059
    1CHTO   H83  278   7.074   6.193   3.621  1.5038  0.1149  0.1202
    1CHTO   C52  279   7.247   6.099   3.526 -0.5501 -0.1900  0.2168
    1CHTO   O35  280   7.350   6.206   3.590  0.6957  0.1272 -0.2639
    1CHTO   H71  281   7.310   6.233   3.671  0.5676 -2.0869  0.4334
    1CHTO   O28  282   6.972   6.447   3.322  0.3330  0.2841 -0.1338
    1CHTO   C42  283   7.052   6.445   3.204 -0.2507  0.0976 -0.4891
    1CHTO   H84  284   7.063   6.341   3.172  0.3391 -0.0317  0.1305
    1CHTO   C44  285   7.200   6.508   3.207 -0.2719  0.0883  0.5760
    1CHTO   H86  286   7.197   6.616   3.220  0.3506  0.3077 -1.1004
    1CHTO   O32  287   7.264   6.448   3.319  0.2428 -0.0985  0.1762
    1CHTO   H69  288   7.344   6.496   3.327 -0.2416  0.5224  1.3601
    1CHTO   C48  289   7.280   6.471   3.067 -0.0050  0.4472  0.7415
    1CHTO   H90  290   7.298   6.364   3.056 -0.7984  0.4400 -0.4884
    1CHTO    N9  291   7.421   6.522   3.064  0.2443  0.3819  0.6728
    1CHTO   H77  292   7.486   6.456   3.119  1.2071 -1.2713 -2.3383
    1CHTO   H78  293   7.450   6.538   2.961 -0.1593  0.8796  0.6367
    1CHTO   C51  294   7.195   6.521   2.949 -0.1788 -0.3740 -0.0471
    1CHTO   H93  295   7.197   6.629   2.934 -0.2791 -0.6481 -2.0454
    1CHTO   O30  296   7.058   6.470   2.956  0.4189 -0.3165 -0.0987
    1CHTO   C46  297   6.978   6.512   3.085 -0.0424 -0.1000 -0.5728
    1CHTO   H88  298   6.980   6.621   3.087  0.0677 -0.0677 -2.0707
    1CHTO   C53  299   6.839   6.452   3.048  0.2248  0.0604  0.1358
    1CHTO   O72  300   6.830   6.313   3.026  0.0262  0.2942 -0.0318
    1CHTO  H199  301   6.792   6.296   2.942 -1.7975 -1.5140  1.1219
    1CHTO   O22  302   7.241   6.464   2.827  0.2566 -0.1226  0.0842
    1CHTO   C31  303   7.210   6.514   2.694  0.5250 -0.2635 -0.0275
    1CHTO   H59  304   7.106   6.478   2.681  0.4353 -0.3132  0.8084
    1CHTO   C29  305   7.209   6.670   2.679  0.0152 -0.1396 -0.4476
    1CHTO   H57  306   7.296   6.709   2.732 -0.8699 -1.4448  2.0719
    1CHTO   O21  307   7.097   6.721   2.755  0.0525  0.0690  0.4816
    1CHTO   H37  308   7.011   6.705   2.720 -0.3197  0.6443  1.0838
    1CHTO   C27  309   7.214   6.721   2.527 -0.2480  0.6706 -0.3237
    1CHTO   H55  310   7.119   6.700   2.476  0.5870 -2.1947 -0.7928
    1CHTO    N5  311   7.248   6.864   2.500 -0.3823 -0.0001 -0.3169
    1CHTO   H43  312   7.234   6.885   2.395 -0.6664 -1.1414 -0.5163
    1CHTO   H44  313   7.194   6.922   2.572 -1.9008  0.4595 -1.7842
    1CHTO   C25  314   7.307   6.624   2.443  0.2794 -0.0955 -0.5789
    1CHTO   H53  315   7.412   6.631   2.477  0.0322 -0.8482  0.3606
    1CHTO   O17  316   7.255   6.488   2.461  0.2793  0.1286 -0.0822
    1CHTO   C32  317   7.289   6.430   2.592  0.3631 -0.6981 -0.3154
    1CHTO   H60  318   7.394   6.446   2.614 -0.0876  0.1029  1.2847
    1CHTO   C36  319   7.231   6.288   2.589  0.6933  0.4718  0.4849
    1CHTO   O25  320   7.350   6.213   2.576 -0.0608  0.0254 -0.1016
    1CHTO   H40  321   7.325   6.134   2.533 -1.1367  0.2412  0.1232
    1CHTO   O15  322   7.307   6.648   2.308 -0.2226  0.1544  0.5852
    1CHTO   C19  323   7.323   6.570   2.189 -0.8129 -0.4610  0.4296
    1CHTO   H47  324   7.297   6.644   2.112 -0.9492 -1.2829 -0.3189
    1CHTO   C20  325   7.468   6.506   2.176  0.0041 -0.2623 -0.1775
    1CHTO   H48  326   7.478   6.416   2.239 -0.8570  0.4348  0.9794
    1CHTO   O19  327   7.563   6.613   2.201  0.3432 -0.2004 -0.8256
    1CHTO   H35  328   7.556   6.627   2.294 -2.4921 -2.3960 -0.6370
    1CHTO   C21  329   7.474   6.463   2.023  0.1835  0.0643  0.4533
    1CHTO   H49  330   7.451   6.548   1.960  1.2838  1.3030  1.6843
    1CHTO    N4  331   7.611   6.424   1.972 -0.6281  0.4977 -0.3552
    1CHTO   H41  332   7.665   6.516   1.955  0.2529  1.1029  4.9099
    1CHTO   H42  333   7.670   6.362   2.038  0.3107  1.1922 -0.5331
    1CHTO   C22  334   7.371   6.347   2.002 -0.1623 -0.1494 -0.2003
    1CHTO   H50  335   7.409   6.261   2.057 -0.3438 -0.5839 -0.7413
    1CHTO   O14  336   7.241   6.385   2.046 -0.1853  0.0462  0.3884
    1CHTO   C23  337   7.221   6.451   2.177  0.3816  0.0358  0.2246
    1CHTO   H51  338   7.236   6.377   2.256 -2.2921 -1.2684 -0.4355
    1CHTO   C34  339   7.085   6.507   2.187  0.5295  0.1449  0.0366
    1CHTO   O23  340   6.985   6.408   2.208 -0.1484  0.0092  0.5835
    1CHTO   H38  341   6.904   6.438   2.173  0.6698 -0.3327 -1.6885
    1CHTO   O16  342   7.347   6.310   1.864 -0.1317 -0.4371 -0.1657
    1CHTO   C24  343   7.291   6.188   1.820 -0.1701  0.5786 -0.1351
    1CHTO   H52  344   7.227   6.142   1.895  0.8967 -2.0446 -0.7964
    1CHTO   C26  345   7.401   6.089   1.774  0.1775  0.4261 -0.6464
    1CHTO   H54  346   7.471   6.146   1.709  1.5047 -0.5594 -0.1082
    1CHTO   O20  347   7.489   6.054   1.890 -0.5855  0.2771  0.1881
    1CHTO   H36  348   7.578   6.047   1.862 -1.0048  0.5207 -1.2099
    1CHTO   C30  349   7.342   5.967   1.696 -0.0250 -0.5651  0.4499
    1CHTO   H58  350   7.308   5.886   1.763 -2.1889 -2.0901 -2.4036
    1CHTO    N6  351   7.448   5.907   1.609 -0.0615  0.5017  0.0630
    1CHTO   H45  352   7.506   5.982   1.559 -0.8516 -0.3408 -2.1690
    1CHTO   H46  353   7.403   5.841   1.535 -1.3576  1.5032 -0.0586
    1CHTO   C33  354   7.223   6.009   1.600 -0.3766 -0.1954  0.6114
    1CHTO   H61  355   7.253   6.056   1.506  0.9909  3.0925  2.5888
    1CHTO   O18  356   7.139   6.099   1.666  0.2613 -0.3214  0.4790
    1CHTO   C28  357   7.199   6.224   1.699  0.1628 -0.2279  0.3045
    1CHTO   H56  358   7.257   6.262   1.615  0.6018  1.0410  1.1706
    1CHTO   C35  359   7.097   6.339   1.749 -0.1003 -0.6571 -1.0199
    1CHTO   O24  360   7.003   6.297   1.849 -0.3089  0.1888 -0.1907
    1CHTO   H39  361   6.971   6.370   1.899 -1.1046  0.7414 -1.4673
    1CHTO    O9  362   7.149   5.888   1.559 -0.7782 -0.5087  0.0772
    1CHTO   C13  363   7.016   5.911   1.468  0.2194  0.0565  0.6953
    1CHTO   H26  364   7.014   6.020   1.446 -1.2515 -0.7131 -3.4437
    1CHTO   C11  365   6.889   5.871   1.559 -0.6956 -0.6253 -0.2506
    1CHTO   H24  366   6.849   5.954   1.618 -0.7692  0.9984 -2.5158
    1CHTO    O8  367   6.923   5.763   1.650 -0.1971 -0.7159  0.0095
    1CHTO    H3  368   6.891   5.680   1.619 -1.8717  0.2393 -0.8600
    1CHTO    C9  369   6.765   5.832   1.474  0.0582 -0.5459 -0.8565
    1CHTO   H22  370   6.748   5.915   1.403 -0.8189  1.1459  1.2519
    1CHTO    N2  371   6.634   5.828   1.540  0.9148  0.5287  0.2605
    1CHTO   H10  372   6.633   5.802   1.645  0.0276 -1.5127 -0.2163
    1CHTO   H11  373   6.574   5.747   1.500  0.1684  1.8113 -1.2630
    1CHTO    C7  374   6.809   5.707   1.392  0.0124  0.7275  0.1336
    1CHTO   H20  375   6.742   5.705   1.303 -1.0897  0.4403  0.9626
    1CHTO    O4  376   6.945   5.706   1.342  0.2865  0.1928  0.0749
    1CHTO   C14  377   7.022   5.834   1.331  0.0087  0.3544  0.3017
    1CHTO   H27  378   6.987   5.896   1.246 -0.3807 -0.0274  0.1786
    1CHTO   C18  379   7.168   5.793   1.292 -0.2353  0.3495  0.0555
    1CHTO   O13  380   7.248   5.915   1.284  0.7556  0.5086 -0.0465
    1CHTO    H7  381   7.336   5.882   1.285  0.7121  0.3646 -0.6454
    1CHTO    O2  382   6.779   5.572   1.460 -0.2677 -0.0317  0.4874
    1CHTO    C1  383   6.756   5.466   1.365  0.2617 -0.0448 -0.4821
    1CHTO   H14  384   6.792   5.489   1.263  0.0991 -1.3290 -0.8397
    1CHTO    C2  385   6.600   5.430   1.354  0.3439 -0.1165  0.1620
    1CHTO   H15  386   6.559   5.414   1.454  0.5708 -2.2073 -0.0586
    1CHTO    O6  387   6.537   5.546   1.303 -0.1370  0.4976 -0.1592
    1CHTO    H1  388   6.582   5.579   1.227  0.4010 -0.9655 -0.4892
    1CHTO    C3  389   6.578   5.290   1.270 -0.3776  0.2244  0.0822
    1CHTO   H16  390   6.598   5.315   1.164  1.3842 -1.1475  0.0751
    1CHTO    N1  391   6.436   5.250   1.273  0.3317 -0.1248 -0.6442
    1CHTO    H8  392   6.419   5.158   1.327  0.1775  1.0523  1.3654
    1CHTO    H9  393   6.392   5.241   1.175  2.5325 -0.7899 -1.6012
    1CHTO    C4  394   6.673   5.176   1.311  0.3131  0.0092  0.0989
    1CHTO   H17  395   6.655   5.140   1.413 -0.8170 -0.5769 -0.2998
    1CHTO    O1  396   6.805   5.228   1.319 -1.1384 -0.1534  0.1370
    1CHTO    C5  397   6.830   5.336   1.408  0.4680 -0.3774 -0.0452
    1CHTO   H18  398   6.798   5.314   1.510 -0.9427  1.8261  0.0298
    1CHTO   C16  399   6.980   5.370   1.415  0.1999 -0.0594  0.0710
    1CHTO   O11  400   7.003   5.443   1.536 -0.0117 -0.3691 -0.4207
    1CHTO    H5  401   7.097   5.450   1.543 -0.0603 -0.7703  0.8007
    1CHTO    O3  402   6.685   5.070   1.212 -0.2594  0.0518  0.1128
    1CHTO    C6  403   6.715   4.934   1.264 -0.8938 -0.0542 -0.0367
    1CHTO   H19  404   6.764   4.929   1.362 -0.4117 -1.9875 -0.3692
    1CHTO    C8  405   6.580   4.847   1.267 -1.4370  0.1155  0.2125
    1CHTO   H21  406   6.531   4.866   1.171  0.8264 -1.0512 -1.2063
    1CHTO    O7  407   6.493   4.902   1.372 -0.1305 -0.0300  0.0358
    1CHTO    H2  408   6.462   4.987   1.352 -0.7076 -0.3183 -0.2982
    1CHTO   C12  409   6.610   4.692   1.292  0.4731  0.1421 -0.4923
    1CHTO   H25  410   6.656   4.680   1.393 -1.0296 -0.6941  0.0965
    1CHTO    N3  411   6.485   4.609   1.306  0.2011  0.6382  0.6811
    1CHTO   H12  412   6.433   4.604   1.212 -1.6112 -0.1750  1.7138
    1CHTO   H13  413   6.423   4.658   1.380 -0.7515  1.7310 -0.8203
    1CHTO   C15  414   6.716   4.639   1.181  0.7892  0.0263  0.0193
    1CHTO   H28  415   6.669   4.646   1.083  0.3979 -2.6953 -0.0024
    1CHTO   O10  416   6.764   4.504   1.199 -0.2822  0.5290 -0.5385
    1CHTO    H4  417   6.699   4.451   1.240  2.1321 -0.8191  1.7050
    1CHTO    O5  418   6.837   4.718   1.189 -0.0825 -0.1491 -0.4243
    1CHTO   C10  419   6.815   4.862   1.163 -0.2784 -0.8667 -0.4041
    1CHTO   H23  420   6.774   4.874   1.063 -1.8101 -0.2759  0.2762
    1CHTO   C17  421   6.959   4.924   1.169 -0.1221  0.0439  0.2465
    1CHTO   O12  422   6.957   5.059   1.126  0.0970 -0.1290  0.1135
    1CHTO    H6  423   7.016   5.112   1.176  1.1540 -0.1760 -1.0727
    2CHTO  H203  424   5.832   3.055   0.126  0.1328 -0.2592  0.0462
    2CHTO   O82  425   5.739   3.057   0.123  0.1482 -0.1931 -0.3767
    2CHTO  C123  426   5.696   3.159   0.031 -0.5396  0.3797  0.0942
    2CHTO  H227  427   5.731   3.132  -0.070  1.2927  1.0407  0.5348
    2CHTO   O77  428   5.555   3.148   0.033  0.3431 -0.3882  0.7925
    2CHTO  C118  429   5.472   3.233  -0.050 -0.3569  0.1727 -0.3209
    2CHTO  H222  430   5.491   3.186  -0.148 -0.2536 -0.6406  0.0865
    2CHTO  C125  431   5.314   3.220  -0.026 -0.0427  0.2630 -0.0895
    2CHTO   O84  432   5.259   3.088  -0.028  0.2587  0.1291 -0.0687
    2CHTO  H205  433   5.281   3.042   0.051 -1.2526  0.9342  0.8462
    2CHTO  C114  434   5.523   3.384  -0.042 -0.2873  0.6421 -0.5498
    2CHTO  H218  435   5.482   3.432   0.047  1.7614 -0.0893  0.8353
    2CHTO  C116  436   5.677   3.398  -0.041 -0.3188 -0.8219 -0.0197
    2CHTO  H220  437   5.721   3.379  -0.141 -0.5290 -0.6666 -0.1420
    2CHTO   O79  438   5.702   3.535  -0.011  0.4058 -0.2119  0.3325
    2CHTO  H201  439   5.794   3.551   0.000  0.3435  2.3559 -2.3931
    2CHTO  C120  440   5.739   3.302   0.063 -0.4082 -0.1131  0.1330
    2CHTO  H224  441   5.702   3.332   0.163  2.5461  3.8719  0.1736
    2CHTO   N21  442   5.889   3.313   0.069  0.0289  0.0014 -0.0942
    2CHTO  H211  443   5.927   3.384   0.141  1.7740  0.5538 -1.5123
    2CHTO  H212  444   5.932   3.219   0.101  0.6067 -0.1305 -1.2177
    2CHTO   O75  445   5.476   3.446  -0.161  0.2632 -0.0932  0.3289
    2CHTO  C112  446   5.338   3.554  -0.146  0.0567 -0.1098 -0.2293
    2CHTO  H216  447   5.314   3.577  -0.041 -3.7132 -1.7655 -0.6606
    2CHTO   O73  448   5.228   3.483  -0.207  0.1923 -0.8273 -0.0601
    2CHTO  C113  449   5.115   3.562  -0.251  0.1074 -0.6950  0.7995
    2CHTO  H217  450   5.068   3.587  -0.154  0.3362 -0.1098  0.7644
    2CHTO  C124  451   5.020   3.469  -0.331 -0.6353 -0.0237  0.4850
    2CHTO   O83  452   4.955   3.371  -0.256  0.2825 -0.2413 -0.1688
    2CHTO  H204  453   4.879   3.408  -0.217  0.6102 -0.7960  1.0317
    2CHTO  C109  454   5.159   3.691  -0.340 -0.3954 -0.0763 -0.2825
    2CHTO  H213  455   5.204   3.655  -0.433 -0.4222  1.8394 -1.0773
    2CHTO  C110  456   5.256   3.778  -0.249  1.1393  0.5431 -0.5694
    2CHTO  H214  457   5.206   3.800  -0.155  2.1505  1.7810 -0.2982
    2CHTO   O78  458   5.298   3.897  -0.322 -0.0904 -0.1099 -0.3410
    2CHTO  H200  459   5.324   3.869  -0.408  1.0198 -1.1931  0.3214
    2CHTO  C111  460   5.381   3.691  -0.222  0.5395  0.1238 -0.3680
    2CHTO  H215  461   5.425   3.666  -0.319  0.5724 -1.3101  0.0118
    2CHTO   N19  462   5.484   3.768  -0.146 -0.4316 -0.4251  0.3656
    2CHTO  H207  463   5.579   3.751  -0.195 -0.1485  0.2638  0.6776
    2CHTO  H208  464   5.505   3.710  -0.057  3.0336 -0.3444 -0.3293
    2CHTO   O74  465   5.040   3.760  -0.379 -0.1021  0.5037  0.1498
    2CHTO  C115  466   5.044   3.849  -0.500 -0.0681  0.7017 -0.0708
    2CHTO  H219  467   5.147   3.867  -0.532  0.8891  0.1339  2.6366
    2CHTO   O76  468   4.982   3.782  -0.622  0.0095 -0.5544  0.1491
    2CHTO  C122  469   4.846   3.744  -0.596  0.4324 -0.2873  0.4489
    2CHTO  H226  470   4.857   3.652  -0.539 -0.0732 -0.1598  0.7581
    2CHTO  C126  471   4.779   3.700  -0.736  0.9159  0.2049  0.0515
    2CHTO   O85  472   4.849   3.588  -0.795  0.0866 -0.2632 -0.1877
    2CHTO  H206  473   4.807   3.546  -0.868 -0.3285  0.0530 -0.1277
    2CHTO  C121  474   4.762   3.858  -0.525 -0.3880  0.2159  0.4016
    2CHTO  H225  475   4.663   3.868  -0.574 -0.0170 -0.6809 -0.5399
    2CHTO   O81  476   4.721   3.827  -0.388  0.0382 -0.3128  0.3280
    2CHTO  H202  477   4.766   3.889  -0.335  0.5220 -0.7962  0.4842
    2CHTO  C119  478   4.834   3.992  -0.542  1.1242 -0.6719  0.4973
    2CHTO  H223  479   4.847   4.008  -0.649  0.1017 -0.8740  0.3401
    2CHTO  C117  480   4.974   3.987  -0.475  0.4455  0.2499  0.8959
    2CHTO  H221  481   4.968   3.985  -0.366 -0.1836  0.2205  0.8585
    2CHTO   N20  482   5.059   4.102  -0.508  0.2787  0.9044 -0.4808
    2CHTO  H209  483   5.036   4.200  -0.469 -0.5987  0.3646  0.3778
    2CHTO  H210  484   5.050   4.117  -0.615 -2.2835 -0.6535 -0.5226
    2CHTO   O80  485   4.736   4.098  -0.504 -0.4800  0.0720  0.0426
    2CHTO  C103  486   4.720   4.223  -0.583 -0.3745 -0.3080  0.0460
    2CHTO  H190  487   4.799   4.244  -0.656  0.3853 -0.2469  0.8851
    2CHTO  C101  488   4.594   4.232  -0.675  0.1909  0.3173  0.0232
    2CHTO  H188  489   4.501   4.225  -0.618  0.1194  0.3639 -0.0867
    2CHTO   O68  490   4.593   4.119  -0.757 -0.5826 -0.2146 -0.1018
    2CHTO  H168  491   4.611   4.147  -0.845 -0.1599 -1.5712 -0.4614
    2CHTO   C99  492   4.575   4.370  -0.748 -0.3410  0.3965 -0.3008
    2CHTO  H186  493   4.668   4.390  -0.805  0.3683  2.7393  1.6102
    2CHTO   N17  494   4.449   4.386  -0.839 -0.0702 -0.2948 -0.4390
    2CHTO  H174  495   4.452   4.322  -0.926  0.7679  1.8165 -2.0085
    2CHTO  H175  496   4.401   4.483  -0.849 -2.8964 -1.7414 -1.4009
    2CHTO   C97  497   4.583   4.483  -0.640  0.0066  0.1105  0.3423
    2CHTO  H184  498   4.495   4.482  -0.574  0.5842 -1.6149  1.1084
    2CHTO   O64  499   4.705   4.467  -0.562  0.0530 -0.0419  0.1729
    2CHTO  C104  500   4.713   4.346  -0.481  0.2543 -0.2292  0.1127
    2CHTO  H191  501   4.622   4.329  -0.424  0.4847  0.7009  0.7645
    2CHTO  C108  502   4.820   4.358  -0.391 -0.0564  0.1845 -0.4841
    2CHTO   O71  503   4.797   4.463  -0.305  0.0733 -0.2324  0.1465
    2CHTO  H171  504   4.871   4.477  -0.250  0.8033  4.0019 -1.7679
    2CHTO   O62  505   4.610   4.611  -0.704 -0.4583  0.7956 -0.9454
    2CHTO   C91  506   4.567   4.720  -0.626 -0.2093  0.8259 -0.3419
    2CHTO  H178  507   4.538   4.688  -0.525 -0.2203  0.8761 -0.3296
    2CHTO   C92  508   4.437   4.774  -0.694 -0.2236  0.6549 -0.5176
    2CHTO  H179  509   4.376   4.690  -0.730  1.3516  0.4111 -2.6979
    2CHTO   O66  510   4.360   4.833  -0.593 -0.1294  0.1685 -0.4736
    2CHTO  H166  511   4.287   4.876  -0.633 -0.3915 -0.6558 -0.8974
    2CHTO   C93  512   4.463   4.874  -0.809 -0.7187  0.5835  0.1128
    2CHTO  H180  513   4.364   4.919  -0.825  0.2857  2.4886 -0.8149
    2CHTO   N16  514   4.511   4.816  -0.942  1.1253 -0.2408 -0.5419
    2CHTO  H172  515   4.420   4.784  -0.990  0.4697  0.4858  0.1904
    2CHTO  H173  516   4.579   4.734  -0.925  0.8402 -0.2848  0.3841
    2CHTO   C94  517   4.564   4.988  -0.756  0.1842  0.7614 -0.5907
    2CHTO  H181  518   4.647   5.001  -0.826  2.2526 -1.1985  1.4228
    2CHTO   O61  519   4.628   4.956  -0.632  0.1266 -0.3563  0.4120
    2CHTO   C95  520   4.675   4.827  -0.616  0.0700 -0.0671 -0.5971
    2CHTO  H182  521   4.754   4.803  -0.686  0.4700 -0.9634  0.1519
    2CHTO  C106  522   4.738   4.822  -0.471 -0.0652  0.5695  0.1935
    2CHTO   O69  523   4.651   4.844  -0.360  0.1602 -0.2566  0.1570
    2CHTO  H169  524   4.673   4.778  -0.297  0.5446 -0.3912 -0.1197
    2CHTO   O63  525   4.495   5.108  -0.740  1.0170  0.6220  0.0311
    2CHTO   C96  526   4.583   5.242  -0.759 -0.3217  0.1341  0.1628
    2CHTO  H183  527   4.657   5.229  -0.838  0.3853 -0.7086  0.9554
    2CHTO   C98  528   4.668   5.282  -0.635  0.1458  0.8446 -0.1959
    2CHTO  H185  529   4.607   5.288  -0.544  0.8899  0.5964  0.3247
    2CHTO   O67  530   4.770   5.185  -0.624  0.1664  0.2652  0.1947
    2CHTO  H167  531   4.751   5.114  -0.565  1.3246 -2.4205 -2.5486
    2CHTO  C102  532   4.736   5.420  -0.646 -0.5084 -0.1896 -0.7572
    2CHTO  H189  533   4.815   5.411  -0.722 -0.1698 -0.4994 -0.3673
    2CHTO   N18  534   4.803   5.469  -0.524  0.0760 -0.1445 -0.6389
    2CHTO  H176  535   4.756   5.431  -0.435  2.8208 -1.5392  0.2640
    2CHTO  H177  536   4.812   5.577  -0.520  0.4730 -0.2259  1.2788
    2CHTO  C105  537   4.635   5.522  -0.705 -0.7088  0.4638 -0.2123
    2CHTO  H192  538   4.562   5.537  -0.626  0.9406 -2.0900  1.8640
    2CHTO   O65  539   4.567   5.481  -0.824  0.1424  0.2990  0.6044
    2CHTO  C100  540   4.492   5.359  -0.810  0.3591 -0.8367  0.7415
    2CHTO  H187  541   4.414   5.383  -0.736 -0.2441  1.5577 -0.6375
    2CHTO  C107  542   4.449   5.335  -0.954  0.2061 -0.1544  0.1494
    2CHTO   O70  543   4.376   5.448  -1.013  0.1992 -0.6279  0.2977
    2CHTO  H170  544   4.373   5.436  -1.106 -0.7516 -0.3145  0.2901
    2CHTO   O57  545   4.712   5.653  -0.740 -0.0285 -0.4319  0.5911
    2CHTO   C85  546   4.643   5.780  -0.777  0.4647  0.2034 -0.1976
    2CHTO  H157  547   4.552   5.781  -0.712  0.9240 -0.4303  0.4662
    2CHTO   C83  548   4.581   5.789  -0.918 -0.0010 -0.3356 -0.1465
    2CHTO  H155  549   4.492   5.726  -0.915 -0.1916 -0.1823 -1.8739
    2CHTO   O56  550   4.675   5.729  -1.014 -0.6642 -0.7280  0.3113
    2CHTO  H135  551   4.641   5.714  -1.100 -0.7254 -1.8928  0.5305
    2CHTO   C81  552   4.533   5.934  -0.955  1.0213  0.6456  0.4602
    2CHTO  H153  553   4.456   5.958  -0.882  0.0392  0.8791 -0.6319
    2CHTO   N14  554   4.465   5.942  -1.091 -0.1498 -1.0434 -0.5557
    2CHTO  H141  555   4.540   5.920  -1.165  1.8586  1.1995  0.7237
    2CHTO  H142  556   4.381   5.876  -1.095 -0.4967 -0.6617  0.3212
    2CHTO   C79  557   4.650   6.028  -0.939 -0.3773  0.4534 -0.0630
    2CHTO  H151  558   4.610   6.127  -0.960  1.4091  1.4229  0.9857
    2CHTO   O52  559   4.697   6.030  -0.796 -0.2932  0.0298  0.0078
    2CHTO   C86  560   4.741   5.898  -0.742  0.3466  0.2705 -0.1707
    2CHTO  H158  561   4.838   5.890  -0.794 -0.7078  1.0995 -2.3360
    2CHTO   C90  562   4.766   5.907  -0.586  0.5008  0.4031 -0.2321
    2CHTO   O60  563   4.875   5.997  -0.563  0.3812 -0.3736 -0.3067
    2CHTO  H138  564   4.957   5.956  -0.546  0.9775 -0.3321 -2.9467
    2CHTO   O50  565   4.764   6.011  -1.032  0.3879 -0.6547  0.2625
    2CHTO   C73  566   4.868   6.094  -1.095  0.0470  0.0236 -0.3779
    2CHTO  H145  567   4.835   6.197  -1.115  0.4344 -0.2204 -2.3790
    2CHTO   C74  568   4.892   6.029  -1.230 -0.2433 -0.1046  0.1802
    2CHTO  H146  569   4.791   6.020  -1.272  0.1865 -2.0895 -0.4724
    2CHTO   O54  570   4.968   6.133  -1.305 -0.1682 -0.1531  0.0647
    2CHTO  H133  571   4.922   6.215  -1.314 -0.8583 -0.3489  1.7626
    2CHTO   C75  572   4.960   5.888  -1.222  0.2680  0.5417  0.5939
    2CHTO  H147  573   4.889   5.819  -1.174  0.5738  0.1577  0.4946
    2CHTO   N13  574   4.992   5.841  -1.360 -0.3704  0.6406 -0.4033
    2CHTO  H139  575   4.929   5.758  -1.390  0.3662  0.0221 -0.2590
    2CHTO  H140  576   5.090   5.795  -1.356 -0.3777  0.4440 -2.1013
    2CHTO   C76  577   5.085   5.892  -1.129  0.6268 -0.1614 -0.1869
    2CHTO  H148  578   5.168   5.953  -1.166  0.3942  1.4382  1.8073
    2CHTO   O49  579   5.048   5.953  -1.005 -0.1771  0.4256  0.1407
    2CHTO   C77  580   5.005   6.089  -1.010  0.4391 -0.7485 -0.1539
    2CHTO  H149  581   5.079   6.150  -1.061  0.5067  0.6910  1.6250
    2CHTO   C88  582   4.984   6.143  -0.869  0.0834 -0.3675  0.1904
    2CHTO   O58  583   4.933   6.285  -0.869 -0.2030  0.2047 -0.2577
    2CHTO  H136  584   4.986   6.345  -0.918 -0.2146 -0.1390 -0.6837
    2CHTO   O51  585   5.151   5.738  -1.095  0.0378  0.0927 -0.0383
    2CHTO   C78  586   5.241   5.730  -0.966 -0.5293  0.0640  0.7033
    2CHTO  H150  587   5.246   5.825  -0.908  0.4204 -0.9268  2.3052
    2CHTO   C80  588   5.387   5.700  -1.007  0.3398 -0.4213 -0.0317
    2CHTO  H152  589   5.384   5.614  -1.076  1.0048 -0.5436  0.0847
    2CHTO   O55  590   5.446   5.811  -1.081 -0.1271 -0.3829  0.0804
    2CHTO  H134  591   5.387   5.849  -1.143  0.0435  1.3336  0.9426
    2CHTO   C84  592   5.474   5.655  -0.875  0.2576 -0.3269 -0.4666
    2CHTO  H156  593   5.477   5.737  -0.802 -2.0252 -1.2636  0.7140
    2CHTO   N15  594   5.616   5.613  -0.902  0.0061 -0.1281 -0.3988
    2CHTO  H143  595   5.679   5.636  -0.818  0.8503  0.7653 -1.2501
    2CHTO  H144  596   5.631   5.512  -0.932  3.0567 -1.1149  4.1327
    2CHTO   C87  597   5.393   5.543  -0.806  0.3429 -0.2521  0.0789
    2CHTO  H159  598   5.379   5.471  -0.887  2.9991 -1.2707  0.4702
    2CHTO   O53  599   5.262   5.591  -0.767  0.0641  0.8831  0.7028
    2CHTO   C82  600   5.172   5.622  -0.876  0.1831 -0.0380 -0.0561
    2CHTO  H154  601   5.149   5.540  -0.944  0.6075  0.3178 -0.6421
    2CHTO   C89  602   5.040   5.666  -0.814  0.0538  0.5667  0.2822
    2CHTO   O59  603   4.932   5.668  -0.907 -0.3444 -0.7374 -0.5389
    2CHTO  H137  604   4.865   5.732  -0.892 -0.3210 -1.0269  0.8989
    2CHTO   O45  605   5.472   5.487  -0.658  0.6151  0.0994  0.0816
    2CHTO   C67  606   5.399   5.399  -0.581  0.3615 -0.9229 -0.7614
    2CHTO  H124  607   5.303   5.438  -0.548  1.5612  0.1210  1.6485
    2CHTO   C65  608   5.365   5.264  -0.645 -0.1637 -0.7418  0.6540
    2CHTO  H122  609   5.429   5.257  -0.732 -1.3836 -0.0079 -0.3208
    2CHTO   O44  610   5.228   5.267  -0.682 -0.3066 -0.3320  0.1734
    2CHTO  H102  611   5.205   5.226  -0.764  1.8038  0.1096 -0.6783
    2CHTO   C63  612   5.407   5.141  -0.561 -0.3406 -0.0154  0.2644
    2CHTO  H120  613   5.516   5.133  -0.561 -0.4127 -1.5226  2.8355
    2CHTO   N11  614   5.366   5.003  -0.609 -0.0615  0.0478 -0.0460
    2CHTO  H108  615   5.434   4.946  -0.669 -0.1698 -0.3541  0.2111
    2CHTO  H109  616   5.277   5.010  -0.667  0.2823  1.0016 -0.4678
    2CHTO   C61  617   5.368   5.165  -0.415 -0.1672 -0.7037 -0.2073
    2CHTO  H118  618   5.409   5.082  -0.356  0.7698 -1.6074 -2.0836
    2CHTO   O40  619   5.410   5.292  -0.355 -0.2830 -0.2223  0.1229
    2CHTO   C68  620   5.477   5.386  -0.447 -0.3168  0.2885 -0.1054
    2CHTO  H125  621   5.580   5.347  -0.462 -0.5191 -0.2354 -0.1597
    2CHTO   C72  622   5.491   5.512  -0.365 -0.2047  0.3723  0.3364
    2CHTO   O48  623   5.596   5.503  -0.276 -0.0785  0.2767 -0.0641
    2CHTO  H105  624   5.562   5.465  -0.197  0.7981 -0.6449 -0.1360
    2CHTO   O38  625   5.223   5.162  -0.397  0.0800  0.5107  0.0288
    2CHTO   C55  626   5.169   5.143  -0.262  0.7509  0.0169 -0.8809
    2CHTO  H112  627   5.237   5.171  -0.181  0.2761 -0.8735 -0.1581
    2CHTO   C56  628   5.120   4.992  -0.243 -0.3033  0.3418 -0.6000
    2CHTO  H113  629   5.078   4.960  -0.339 -0.8406 -0.5884 -0.0758
    2CHTO   O42  630   5.228   4.900  -0.229  0.4695 -0.4099  0.0411
    2CHTO  H100  631   5.292   4.894  -0.297 -0.1296 -1.9908 -0.4310
    2CHTO   C57  632   5.028   4.978  -0.118  0.4487  0.3942  0.0123
    2CHTO  H114  633   5.086   4.998  -0.028  0.6256  1.5556 -0.3436
    2CHTO   N10  634   4.966   4.842  -0.098 -0.1023  0.0300 -0.8046
    2CHTO  H106  635   5.036   4.778  -0.045  0.2615  1.3875  0.4039
    2CHTO  H107  636   4.880   4.849  -0.033 -0.4299 -0.9093 -1.1271
    2CHTO   C58  637   4.913   5.077  -0.129  0.2877 -0.4050 -0.5674
    2CHTO  H115  638   4.864   5.058  -0.227  1.5098  2.2573 -1.7414
    2CHTO   O37  639   4.973   5.209  -0.119  0.4143  0.8834 -0.6791
    2CHTO   C59  640   5.047   5.245  -0.238  0.0717 -0.0797  0.5292
    2CHTO  H116  641   4.975   5.238  -0.320  1.6401 -0.8971 -0.8165
    2CHTO   C70  642   5.103   5.384  -0.227  0.8930  0.5683  0.6169
    2CHTO   O46  643   5.216   5.407  -0.142  0.0180  0.0299  0.0052
    2CHTO  H103  644   5.209   5.366  -0.058 -0.6925  0.0381 -0.0450
    2CHTO   O39  645   4.789   5.065  -0.016  0.4039  0.1636  0.2310
    2CHTO   C60  646   4.656   5.086  -0.066 -0.3523  0.0978  0.1492
    2CHTO  H117  647   4.646   5.040  -0.165 -1.5131  1.4716 -0.3845
    2CHTO   C62  648   4.564   5.011   0.024  0.6913 -1.1584  0.4435
    2CHTO  H119  649   4.603   4.907   0.020 -0.1477 -1.4785  0.4321
    2CHTO   O43  650   4.571   5.060   0.157  0.1668 -0.2277  0.2233
    2CHTO  H101  651   4.549   4.995   0.221 -0.2848  0.8688  1.2112
    2CHTO   C66  652   4.413   5.015  -0.034 -0.6833 -0.8334  0.2226
    2CHTO  H123  653   4.412   4.977  -0.136  2.0603 -2.4973  0.7751
    2CHTO   N12  654   4.329   4.914   0.031  0.0390  0.3332 -0.6314
    2CHTO  H110  655   4.382   4.820   0.037  1.5116  1.1858 -0.0765
    2CHTO  H111  656   4.243   4.903  -0.034 -0.3921 -1.7026  0.2405
    2CHTO   C69  657   4.366   5.166  -0.037  0.2286  0.4239 -0.2913
    2CHTO  H126  658   4.348   5.187   0.071 -1.3598 -2.9880  0.2057
    2CHTO   O41  659   4.451   5.253  -0.098  0.5198  0.1602 -0.0863
    2CHTO   C64  660   4.608   5.230  -0.076  0.0660  0.3232 -0.0702
    2CHTO  H121  661   4.655   5.284   0.009  1.7985  1.0548 -1.4316
    2CHTO   C71  662   4.661   5.302  -0.202 -0.1919 -0.2014  0.0299
    2CHTO   O47  663   4.670   5.451  -0.200 -0.5784  0.2050  0.4321
    2CHTO  H104  664   4.701   5.479  -0.283  0.0149 -2.2752 -0.2266
    2CHTO   O34  665   4.230   5.176  -0.095  0.0985  0.3134 -0.3954
    2CHTO   C49  666   4.125   5.281  -0.176  0.4733 -0.5265 -0.1243
    2CHTO   H91  667   4.024   5.271  -0.136  0.0844  1.3908 -0.5947
    2CHTO   C47  668   4.125   5.231  -0.324 -0.2130 -0.2677  0.3612
    2CHTO   H89  669   4.057   5.292  -0.387  0.6075  0.7611  0.4622
    2CHTO   O33  670   4.082   5.091  -0.316 -0.5664  0.2197  0.6714
    2CHTO   H70  671   4.050   5.069  -0.402 -2.8103  2.7404  0.8029
    2CHTO   C45  672   4.276   5.244  -0.381  0.2277 -1.0478  0.1059
    2CHTO   H87  673   4.351   5.198  -0.315 -0.3286 -1.8416  0.1892
    2CHTO    N8  674   4.297   5.175  -0.515  0.2219  0.0682  0.2951
    2CHTO   H75  675   4.212   5.198  -0.578 -0.2736 -1.8606  0.2181
    2CHTO   H76  676   4.388   5.205  -0.564  1.5452 -1.6314  1.6641
    2CHTO   C43  677   4.312   5.400  -0.375 -0.1439 -0.1338  0.3662
    2CHTO   H85  678   4.415   5.410  -0.411 -0.1514 -2.0003 -0.2060
    2CHTO   O29  679   4.298   5.454  -0.241 -0.0516 -0.2685 -0.4719
    2CHTO   C50  680   4.176   5.426  -0.171  1.0745 -0.3029 -0.4364
    2CHTO   H92  681   4.204   5.434  -0.065  0.0782  0.1513 -0.2064
    2CHTO   C54  682   4.071   5.543  -0.197  0.0853  0.2362  0.1178
    2CHTO   O36  683   4.084   5.647  -0.103  0.0573 -0.0270 -0.2142
    2CHTO   H72  684   4.100   5.727  -0.150  0.9045 -0.0298  0.0686
    2CHTO   O27  685   4.240   5.482  -0.474  0.2212 -0.6489 -0.0288
    2CHTO   C37  686   4.253   5.583  -0.575 -0.1955 -1.1646 -0.2141
    2CHTO   H79  687   4.347   5.567  -0.629 -0.6514  0.2782 -1.4436
    2CHTO   C38  688   4.148   5.585  -0.684 -0.3947  0.2696  0.0109
    2CHTO   H80  689   4.048   5.584  -0.637 -0.6992  1.9388 -0.5775
    2CHTO   O31  690   4.161   5.462  -0.760  0.3261  0.0443  0.1889
    2CHTO   H68  691   4.126   5.461  -0.847  3.1648 -3.5395 -1.0293
    2CHTO   C39  692   4.160   5.710  -0.774  0.0011  0.0710  0.0210
    2CHTO   H81  693   4.251   5.700  -0.833 -1.7315 -0.2074 -2.7143
    2CHTO    N7  694   4.056   5.715  -0.876 -1.0234  0.5194  0.4420
    2CHTO   H73  695   3.959   5.727  -0.830 -1.9229 -1.6615 -0.8039
    2CHTO   H74  696   4.076   5.780  -0.960 -2.9122 -0.2465 -0.6337
    2CHTO   C40  697   4.163   5.836  -0.685  0.2024 -0.2333 -0.5257
    2CHTO   H82  698   4.068   5.864  -0.640  0.4480 -0.8133  0.3421
    2CHTO   O26  699   4.269   5.826  -0.589 -0.5523  0.0890  0.1809
    2CHTO   C41  700   4.262   5.718  -0.502  0.0084  0.4832 -0.3538
    2CHTO   H83  701   4.176   5.717  -0.432  2.0359  3.6148  2.3430
    2CHTO   C52  702   4.394   5.725  -0.413  0.2168  0.1530 -0.1024
    2CHTO   O35  703   4.415   5.850  -0.353 -0.1364  0.3551 -0.1015
    2CHTO   H71  704   4.508   5.856  -0.361  0.1348 -2.7637  0.0884
    2CHTO   O28  705   4.198   5.950  -0.760  0.0513 -0.3411 -0.4348
    2CHTO   C42  706   4.190   6.087  -0.709 -0.1130  0.3776 -0.6450
    2CHTO   H84  707   4.209   6.149  -0.796  1.3203  1.9327  0.7518
    2CHTO   C44  708   4.289   6.132  -0.599  0.0517 -0.1219  0.3044
    2CHTO   H86  709   4.268   6.077  -0.507 -0.5953 -0.5964 -0.1258
    2CHTO   O32  710   4.425   6.106  -0.633 -0.5310  0.4133 -0.4715
    2CHTO   H69  711   4.454   6.024  -0.598  0.6138  1.1007  0.2070
    2CHTO   C48  712   4.270   6.291  -0.566 -0.1401 -0.8503 -0.8227
    2CHTO   H90  713   4.293   6.351  -0.654 -1.0456  0.2760 -0.3035
    2CHTO    N9  714   4.365   6.345  -0.462 -0.0990 -1.5728  0.9410
    2CHTO   H77  715   4.466   6.365  -0.497 -1.0095  3.8042  0.9779
    2CHTO   H78  716   4.359   6.291  -0.369 -1.9741 -0.6366  1.3714
    2CHTO   C51  717   4.121   6.325  -0.529  1.4946 -0.5589  0.5233
    2CHTO   H93  718   4.104   6.276  -0.433  1.2541  1.1481  1.3551
    2CHTO   O30  719   4.038   6.274  -0.633 -0.7037 -0.0069 -0.0589
    2CHTO   C46  720   4.045   6.119  -0.657 -0.5220 -0.1618 -0.4064
    2CHTO   H88  721   4.027   6.071  -0.560 -0.4783 -1.5607 -1.0810
    2CHTO   C53  722   3.929   6.091  -0.757 -0.2671 -0.0456 -0.1205
    2CHTO   O72  723   3.804   6.118  -0.695 -0.3885  0.2265 -0.1884
    2CHTO  H199  724   3.740   6.049  -0.691  0.0488 -0.1072  1.3851
    2CHTO   O22  725   4.088   6.466  -0.510  0.0020  0.6215  0.4305
    2CHTO   C31  726   3.964   6.507  -0.432 -0.0506  0.5634  0.0867
    2CHTO   H59  727   3.952   6.617  -0.444 -2.1850  0.2119 -1.3453
    2CHTO   C29  728   3.829   6.447  -0.484 -0.4592 -0.2993  0.0539
    2CHTO   H57  729   3.838   6.337  -0.480  0.1433 -0.2346  0.7339
    2CHTO   O21  730   3.819   6.499  -0.619  0.0633  0.0750 -0.5674
    2CHTO   H37  731   3.890   6.463  -0.668 -0.3330  0.0788 -1.1563
    2CHTO   C27  732   3.702   6.483  -0.397 -0.8462  0.3353 -0.0736
    2CHTO   H55  733   3.691   6.592  -0.400  0.9980  0.5145 -0.7939
    2CHTO    N5  734   3.581   6.420  -0.449  0.2284 -0.1710  0.2789
    2CHTO   H43  735   3.558   6.320  -0.416 -2.7378  0.6406  0.8619
    2CHTO   H44  736   3.571   6.447  -0.553  1.8018 -1.0477 -0.1162
    2CHTO   C25  737   3.739   6.461  -0.247  0.3334  0.0273  0.5573
    2CHTO   H53  738   3.757   6.353  -0.232  0.5181  0.0146  0.2481
    2CHTO   O17  739   3.862   6.528  -0.208 -0.8711 -0.6343 -0.1004
    2CHTO   C32  740   3.980   6.481  -0.277  0.7567  0.0198  0.5063
    2CHTO   H60  741   4.000   6.375  -0.259  0.8390  0.0314  0.4830
    2CHTO   C36  742   4.111   6.548  -0.226 -0.5767 -0.8176  0.4684
    2CHTO   O25  743   4.103   6.689  -0.243 -0.0847 -0.0258  0.1014
    2CHTO   H40  744   4.157   6.717  -0.315 -0.8763  1.6184  0.1160
    2CHTO   O15  745   3.637   6.516  -0.155 -0.2572 -0.3444 -0.7178
    2CHTO   C19  746   3.543   6.471  -0.042  0.3531 -0.0711  0.7950
    2CHTO   H47  747   3.485   6.554   0.001 -1.8072 -2.1128  1.9228
    2CHTO   C20  748   3.428   6.367  -0.081 -0.4245 -0.5752  0.0833
    2CHTO   H48  749   3.468   6.282  -0.139 -1.9923 -0.2015 -1.5836
    2CHTO   O19  750   3.343   6.437  -0.181  0.6979 -0.0956 -0.0754
    2CHTO   H35  751   3.392   6.447  -0.261  1.9330  2.0816  0.9157
    2CHTO   C21  752   3.346   6.316   0.043 -0.2205 -0.1989  0.4364
    2CHTO   H49  753   3.284   6.396   0.084 -0.4765 -0.2480  0.1463
    2CHTO    N4  754   3.253   6.205   0.008 -0.1479  0.0849  0.3207
    2CHTO   H41  755   3.185   6.222  -0.074  1.0590  1.4310 -0.4311
    2CHTO   H42  756   3.303   6.110   0.006 -0.2402  0.0151  0.9983
    2CHTO   C22  757   3.438   6.269   0.159  0.6208 -0.3007  0.3526
    2CHTO   H50  758   3.486   6.172   0.146 -0.6576 -1.0246  0.9407
    2CHTO   O14  759   3.532   6.374   0.185 -0.2053 -0.0525  0.4110
    2CHTO   C23  760   3.622   6.398   0.071  0.6513 -0.2800 -0.3945
    2CHTO   H51  761   3.663   6.300   0.041 -1.6459 -1.3743 -0.0480
    2CHTO   C34  762   3.724   6.502   0.114 -0.1877  0.2006 -0.2974
    2CHTO   O23  763   3.814   6.447   0.214 -0.2310 -0.8188 -0.1635
    2CHTO   H38  764   3.903   6.460   0.187 -0.2171 -0.4435  0.0480
    2CHTO   O16  765   3.355   6.266   0.274  0.0299 -0.1401 -0.3495
    2CHTO   C24  766   3.423   6.211   0.413  0.1286  0.2804  0.2600
    2CHTO   H52  767   3.532   6.212   0.406  0.1320  1.7570  0.5283
    2CHTO   C26  768   3.381   6.065   0.447  0.3769 -0.9135 -0.2352
    2CHTO   H54  769   3.272   6.071   0.467  0.3296  1.3720 -1.0092
    2CHTO   O20  770   3.403   5.977   0.334  0.2383  0.9344  0.7149
    2CHTO   H36  771   3.397   5.884   0.348 -1.9501  1.1186  1.2326
    2CHTO   C30  772   3.451   6.020   0.582 -0.7055 -0.1754 -0.5303
    2CHTO   H58  773   3.561   6.015   0.581 -0.7622 -2.4488  0.9064
    2CHTO    N6  774   3.417   5.883   0.629 -0.1726 -0.0859  0.0485
    2CHTO   H45  775   3.472   5.804   0.580 -0.5458  0.2315 -0.8962
    2CHTO   H46  776   3.424   5.880   0.737  0.1754 -2.1589 -0.0076
    2CHTO   C33  777   3.422   6.125   0.697 -0.6745  0.0640  0.2251
    2CHTO   H61  778   3.315   6.127   0.723 -0.4098 -3.2606  1.8259
    2CHTO   O18  779   3.457   6.253   0.644 -0.4449  0.4934  0.8310
    2CHTO   C28  780   3.379   6.300   0.530  0.3775 -0.4270  1.1407
    2CHTO   H56  781   3.272   6.289   0.551  0.4366  0.5386  2.0157
    2CHTO   C35  782   3.408   6.456   0.500 -0.1715  0.0975 -0.4346
    2CHTO   O24  783   3.347   6.553   0.577 -0.5424  0.1349 -0.3941
    2CHTO   H39  784   3.260   6.576   0.550 -0.2731 -0.4732 -1.8072
    2CHTO    O9  785   3.487   6.100   0.823 -0.2513 -0.8848  0.3203
    2CHTO   C13  786   3.440   6.177   0.951  0.3506  0.9540  0.1205
    2CHTO   H26  787   3.332   6.198   0.941 -0.2740 -0.8715  2.5378
    2CHTO   C11  788   3.520   6.310   0.973  0.0495 -0.3122 -0.1693
    2CHTO   H24  789   3.500   6.376   0.888 -0.6293 -1.5257 -0.9774
    2CHTO    O8  790   3.662   6.275   0.967  0.1934  0.6393 -0.0878
    2CHTO    H3  791   3.686   6.201   0.915 -0.0519 -0.9109  1.9303
    2CHTO    C9  792   3.484   6.376   1.104 -0.0066 -0.4392  0.2951
    2CHTO   H22  793   3.375   6.388   1.097  0.2540  0.8625 -2.3507
    2CHTO    N2  794   3.536   6.514   1.109 -0.2617 -0.8399  0.0267
    2CHTO   H10  795   3.591   6.534   1.200  0.0003  1.3432 -0.5805
    2CHTO   H11  796   3.462   6.586   1.077  1.2328  0.3077 -0.8669
    2CHTO    C7  797   3.505   6.282   1.222  0.5203  1.1426 -0.1856
    2CHTO   H20  798   3.451   6.331   1.305 -0.6825 -0.3624 -0.0635
    2CHTO    O4  799   3.445   6.149   1.205  0.1600 -0.3516 -0.2544
    2CHTO   C14  800   3.449   6.080   1.079  0.2476 -0.1197 -0.0283
    2CHTO   H27  801   3.356   6.020   1.070  0.8207 -0.8824 -0.9664
    2CHTO   C18  802   3.570   5.972   1.072  0.1643  0.4612 -0.1482
    2CHTO   O13  803   3.528   5.864   1.153  0.1166 -0.1118 -0.3294
    2CHTO    H7  804   3.601   5.822   1.195  0.7503  1.3951  0.1276
    2CHTO    O2  805   3.651   6.261   1.266  0.2745 -0.0197  0.2059
    2CHTO    C1  806   3.670   6.250   1.414  0.1590 -0.1444 -0.5448
    2CHTO   H14  807   3.581   6.202   1.459  0.6597 -1.0265 -0.4811
    2CHTO    C2  808   3.690   6.391   1.484  0.0018 -0.4259 -0.3845
    2CHTO   H15  809   3.772   6.445   1.432 -1.0530  1.5490 -0.0639
    2CHTO    O6  810   3.565   6.472   1.474 -0.5228 -0.2640 -0.0590
    2CHTO    H1  811   3.583   6.564   1.479 -4.1025  0.4338  0.9882
    2CHTO    C3  812   3.730   6.376   1.640  0.0636  0.3784 -0.3680
    2CHTO   H16  813   3.638   6.343   1.691 -1.3425  1.8233 -1.9132
    2CHTO    N1  814   3.766   6.504   1.713 -0.1647  0.1080 -0.0136
    2CHTO    H8  815   3.737   6.594   1.662  0.3882 -0.2608 -1.0027
    2CHTO    H9  816   3.745   6.509   1.819  0.0485 -1.4017  0.1152
    2CHTO    C4  817   3.840   6.262   1.662  0.5050 -0.2853  0.3983
    2CHTO   H17  818   3.940   6.305   1.660  1.3847 -2.2072  1.1124
    2CHTO    O1  819   3.835   6.147   1.576 -0.2867 -0.5116  0.3293
    2CHTO    C5  820   3.797   6.171   1.437  0.1665  0.7056 -0.1916
    2CHTO   H18  821   3.883   6.221   1.392 -0.5128  1.8384 -0.2434
    2CHTO   C16  822   3.788   6.026   1.381  0.1331  0.4931 -0.1928
    2CHTO   O11  823   3.914   5.963   1.368  0.4449 -0.4143  1.1049
    2CHTO    H5  824   3.898   5.875   1.339  2.2366 -0.1786 -0.7590
    2CHTO    O3  825   3.820   6.200   1.792 -0.2059  0.1508 -0.4371
    2CHTO    C6  826   3.945   6.157   1.850  0.5604  0.3097 -0.1138
    2CHTO   H19  827   4.025   6.142   1.779  1.3179  0.1610  0.7662
    2CHTO    C8  828   3.977   6.256   1.970  0.7987  0.1070 -0.2877
    2CHTO   H21  829   3.887   6.264   2.032 -0.2282 -1.1384 -1.5720
    2CHTO    O7  830   4.002   6.387   1.915 -0.3340 -0.0853 -0.0341
    2CHTO    H2  831   4.012   6.395   1.822 -2.4700  0.6779 -0.2305
    2CHTO   C12  832   4.099   6.204   2.061  0.2508  0.5913  0.3096
    2CHTO   H25  833   4.196   6.214   2.008 -0.4520 -1.6166 -1.5037
    2CHTO    N3  834   4.102   6.282   2.184  0.6599  0.6011 -0.4539
    2CHTO   H12  835   4.157   6.375   2.173 -1.2439  1.5966 -1.8200
    2CHTO   H13  836   4.136   6.218   2.264 -1.4831 -0.2467 -0.1885
    2CHTO   C15  837   4.079   6.051   2.102  0.3660 -0.1628 -1.3312
    2CHTO   H28  838   4.016   6.034   2.189 -0.4854  0.1473 -1.8799
    2CHTO   O10  839   4.219   5.980   2.128 -0.0832 -0.3962 -0.2546
    2CHTO    H4  840   4.221   5.917   2.197 -1.6750  0.2692  0.4287
    2CHTO    O5  841   4.029   5.975   1.992  0.4763  0.1999 -0.1110
    2CHTO   C10  842   3.917   6.014   1.918  0.2478  0.3543 -0.0044
    2CHTO   H23  843   3.833   6.021   1.987 -2.7527 -1.7619 -3.2452
    2CHTO   C17  844   3.887   5.906   1.812 -0.4277 -0.5136  0.6055
    2CHTO   O12  845   3.832   5.791   1.875  0.6488  0.3166 -0.4802
    2CHTO    H6  846   3.757   5.762   1.828  0.8228 -1.1502  0.1252
    3CHTO  H203  847   6.461   1.506   2.214 -0.8961  0.8145 -0.2018
    3CHTO   O82  848   6.423   1.476   2.134 -0.1058  0.2830 -0.3889
    3CHTO  C123  849   6.516   1.491   2.023 -0.7874  0.1865 -0.1671
    3CHTO  H227  850   6.518   1.397   1.965 -0.1426  0.1892 -0.1528
    3CHTO   O77  851   6.459   1.604   1.945 -0.1869  0.4431  0.4946
    3CHTO  C118  852   6.517   1.632   1.818 -0.1366  0.7292 -0.2767
    3CHTO  H222  853   6.502   1.544   1.752 -0.9363  0.9330 -0.3766
    3CHTO  C125  854   6.447   1.753   1.753  0.7462 -0.0713  0.3599
    3CHTO   O84  855   6.306   1.726   1.737 -0.2915 -0.1692  0.2546
    3CHTO  H205  856   6.262   1.808   1.744 -1.0872 -0.7060  1.5637
    3CHTO  C114  857   6.667   1.670   1.843 -0.1133 -0.3099  0.9995
    3CHTO  H218  858   6.667   1.758   1.907  2.0783 -0.6794  1.5492
    3CHTO  C116  859   6.742   1.563   1.934 -0.5510 -0.4183 -0.2649
    3CHTO  H220  860   6.758   1.466   1.883 -0.3853 -1.9131  2.5830
    3CHTO   O79  861   6.873   1.617   1.967  0.4192 -0.2385  0.6242
    3CHTO  H201  862   6.860   1.683   2.031 -2.6655 -1.8192  1.7291
    3CHTO  C120  863   6.661   1.537   2.064 -0.5025 -0.0594 -0.3284
    3CHTO  H224  864   6.653   1.635   2.117  2.9668 -0.1513  0.4790
    3CHTO   N21  865   6.729   1.449   2.165 -0.2270  0.2862 -0.3425
    3CHTO  H211  866   6.655   1.416   2.235  0.9490  1.4769  1.4979
    3CHTO  H212  867   6.796   1.508   2.226  0.5052 -0.4784 -0.3956
    3CHTO   O75  868   6.722   1.715   1.723 -0.3336  0.1349 -0.4019
    3CHTO  C112  869   6.840   1.653   1.664 -0.1640 -0.7444 -0.2607
    3CHTO  H216  870   6.844   1.544   1.684 -1.8007 -0.8628 -0.4696
    3CHTO   O73  871   6.947   1.722   1.719 -0.1484  0.2738 -0.6822
    3CHTO  C113  872   7.071   1.647   1.703  0.5264  0.0191 -0.2673
    3CHTO  H217  873   7.065   1.565   1.777  3.8205  1.1200  1.3471
    3CHTO  C124  874   7.188   1.740   1.746 -0.0623  0.1931 -0.6491
    3CHTO   O83  875   7.304   1.661   1.750  0.1360  0.0643 -0.0568
    3CHTO  H204  876   7.378   1.715   1.768 -0.3263  0.7566 -0.2061
    3CHTO  C109  877   7.090   1.594   1.555  1.0703 -0.6822  0.2974
    3CHTO  H213  878   7.196   1.606   1.527  0.8899  0.1491 -0.0513
    3CHTO  C110  879   6.997   1.683   1.463  0.6478  0.1178 -0.5870
    3CHTO  H214  880   7.001   1.645   1.361  0.3695 -2.1336  0.2149
    3CHTO   O78  881   7.028   1.825   1.466 -0.2336 -0.3825  0.1105
    3CHTO  H200  882   6.970   1.876   1.412  1.5855  1.9414  0.2386
    3CHTO  C111  883   6.846   1.678   1.511  0.1781  0.1352 -0.0789
    3CHTO  H215  884   6.798   1.776   1.499 -0.3825 -0.2305 -0.9139
    3CHTO   N19  885   6.759   1.591   1.430 -0.9849 -0.1229 -0.1553
    3CHTO  H207  886   6.785   1.488   1.453 -0.4860  0.2729  1.1075
    3CHTO  H208  887   6.760   1.605   1.323  2.2099 -1.6400 -0.3817
    3CHTO   O74  888   7.055   1.454   1.537 -0.4153 -0.1533 -0.2819
    3CHTO  C115  889   7.140   1.340   1.584  0.4469 -0.2834  0.3618
    3CHTO  H219  890   7.245   1.367   1.575 -0.1839  1.8344 -1.1356
    3CHTO   O76  891   7.127   1.324   1.746  0.2181 -0.3351  0.5972
    3CHTO  C122  892   6.991   1.310   1.797 -0.1005 -1.1454  1.0908
    3CHTO  H226  893   6.934   1.403   1.801  1.3251 -0.0303 -2.5495
    3CHTO  C126  894   7.012   1.268   1.942  0.0832 -0.4973 -0.1556
    3CHTO   O85  895   7.063   1.369   2.029  0.0306 -0.4370 -0.7400
    3CHTO  H206  896   7.145   1.334   2.060 -1.8215 -3.7610  0.6264
    3CHTO  C121  897   6.918   1.199   1.706  0.4896 -0.4285 -0.2859
    3CHTO  H225  898   6.860   1.134   1.775  0.6421 -1.5429 -1.1992
    3CHTO   O81  899   6.827   1.278   1.615 -0.2007 -0.0824 -0.0895
    3CHTO  H202  900   6.848   1.369   1.628  0.2685 -0.3126  0.8534
    3CHTO  C119  901   7.013   1.113   1.621  0.2076  0.3541  0.2689
    3CHTO  H223  902   7.076   1.067   1.697  0.4691 -0.4374 -0.4163
    3CHTO  C117  903   7.095   1.200   1.513  0.1175 -0.0431 -0.2593
    3CHTO  H221  904   7.033   1.230   1.429  0.5159 -0.1938 -0.6109
    3CHTO   N20  905   7.215   1.126   1.454  0.1457  0.1496 -0.6385
    3CHTO  H209  906   7.304   1.187   1.457  0.5663 -0.3202 -2.7613
    3CHTO  H210  907   7.195   1.095   1.352 -1.1956 -0.6478 -0.1401
    3CHTO   O80  908   6.936   0.972   1.558 -0.2319 -0.8691 -0.1999
    3CHTO  C103  909   6.947   0.844   1.640  0.3997  0.1581 -0.7779
    3CHTO  H190  910   7.048   0.812   1.666  0.8339  2.3826  0.4272
    3CHTO  C101  911   6.853   0.839   1.771  0.1363 -0.4573  0.0670
    3CHTO  H188  912   6.763   0.897   1.749  0.1438 -1.5366 -3.0396
    3CHTO   O68  913   6.920   0.922   1.873  0.1844 -0.2194  0.3630
    3CHTO  H168  914   6.885   0.917   1.960  0.7194  2.8704  0.8265
    3CHTO   C99  915   6.813   0.689   1.817  0.6277  0.3187  0.1051
    3CHTO  H186  916   6.902   0.632   1.851  1.4555  0.5122 -1.6349
    3CHTO   N17  917   6.727   0.688   1.935  0.3160  0.3371  0.3348
    3CHTO  H174  918   6.625   0.668   1.903  0.5221 -1.6669  0.8091
    3CHTO  H175  919   6.733   0.781   1.989  2.6446  1.4916 -1.8552
    3CHTO   C97  920   6.760   0.611   1.694  0.3015 -0.1103  0.0171
    3CHTO  H184  921   6.669   0.664   1.661 -0.2618 -0.5249  0.8793
    3CHTO   O64  922   6.859   0.613   1.594 -0.1870 -0.0968  0.2652
    3CHTO  C104  923   6.895   0.739   1.535 -0.0343  0.3922 -0.2763
    3CHTO  H191  924   6.806   0.775   1.485 -1.0394  1.0465  1.9460
    3CHTO  C108  925   6.999   0.710   1.427  0.7229  0.0235  0.0123
    3CHTO   O71  926   6.938   0.638   1.320  0.0929  0.1255  0.2037
    3CHTO  H171  927   7.010   0.594   1.278 -0.7276 -0.7697 -0.3091
    3CHTO   O62  928   6.719   0.478   1.719  0.3973 -0.0976 -0.3323
    3CHTO   C91  929   6.612   0.435   1.635  0.6883  0.0740 -0.5467
    3CHTO  H178  930   6.593   0.513   1.561  0.9740 -0.3543 -1.0724
    3CHTO   C92  931   6.488   0.419   1.722 -0.8856  1.1588 -0.8167
    3CHTO  H179  932   6.508   0.338   1.793 -2.3687  3.0901  1.8741
    3CHTO   O66  933   6.473   0.544   1.794 -0.6630  0.1586 -0.2343
    3CHTO  H166  934   6.443   0.615   1.740  2.3488  2.4360  0.9548
    3CHTO   C93  935   6.362   0.377   1.633  0.6923 -0.4978  0.0308
    3CHTO  H180  936   6.339   0.465   1.571 -0.1305 -1.7708 -1.4798
    3CHTO   N16  937   6.251   0.356   1.729 -0.6405  0.5648  0.0242
    3CHTO  H172  938   6.288   0.355   1.830 -1.9359 -1.0966  0.4964
    3CHTO  H173  939   6.199   0.266   1.703 -0.0809 -0.5394  2.6325
    3CHTO   C94  940   6.395   0.252   1.544 -0.4974 -0.5075 -0.3548
    3CHTO  H181  941   6.411   0.162   1.604  2.6334 -1.3182 -2.2601
    3CHTO   O61  942   6.512   0.284   1.468  0.1784 -0.1214  0.6264
    3CHTO   C95  943   6.628   0.302   1.547  0.2835 -0.4372 -0.4842
    3CHTO  H182  944   6.631   0.228   1.627 -3.2371  0.9362  1.0140
    3CHTO  C106  945   6.757   0.297   1.455 -0.6161 -0.9443  0.3827
    3CHTO   O69  946   6.746   0.392   1.350 -0.4557 -0.0747  0.2269
    3CHTO  H169  947   6.821   0.379   1.296  0.9334  1.3529  1.7556
    3CHTO   O63  948   6.268   0.219   1.434 -0.1999  0.6847 -0.0669
    3CHTO   C96  949   6.198   0.092   1.450 -0.3823  0.0995 -0.1963
    3CHTO  H183  950   6.188   0.081   1.558  0.4531  2.2323  0.1221
    3CHTO   C98  951   6.273  -0.031   1.393  0.0592  0.5506  0.2134
    3CHTO  H185  952   6.301  -0.031   1.287  2.3705  0.7922  0.7860
    3CHTO   O67  953   6.401  -0.031   1.461 -0.1221  0.6571 -0.0508
    3CHTO  H167  954   6.447  -0.112   1.466 -1.2709 -0.0542 -1.0027
    3CHTO  C102  955   6.191  -0.162   1.428 -0.0970  0.1265 -0.0121
    3CHTO  H189  956   6.204  -0.186   1.534 -0.2985 -1.1661 -0.2712
    3CHTO   N18  957   6.247  -0.284   1.360  0.7669  0.5207 -0.4211
    3CHTO  H176  958   6.250  -0.259   1.255  2.4266  0.4518 -0.3971
    3CHTO  H177  959   6.192  -0.373   1.384  0.5999  1.0771  1.3289
    3CHTO  C105  960   6.037  -0.144   1.406  0.6807 -0.5332  0.2005
    3CHTO  H192  961   6.007  -0.204   1.320 -2.1629 -0.7866  1.3312
    3CHTO   O65  962   5.967  -0.012   1.401 -0.5900 -0.5442 -0.0457
    3CHTO  C100  963   6.049   0.111   1.384 -0.7674  0.3373  0.4437
    3CHTO  H187  964   6.053   0.141   1.278 -0.7971 -0.2754  0.2674
    3CHTO  C107  965   5.963   0.219   1.448  0.2625 -0.1350  0.0396
    3CHTO   O70  966   6.025   0.347   1.439  0.4909 -0.0565 -0.2040
    3CHTO  H170  967   5.994   0.398   1.511 -1.3744  1.1581 -1.7989
    3CHTO   O57  968   5.977  -0.234   1.545 -0.8096  0.2060 -0.1692
    3CHTO   C85  969   5.859  -0.315   1.541 -0.0106 -0.3461 -0.2736
    3CHTO  H157  970   5.883  -0.382   1.456  0.6710  1.7045 -1.7368
    3CHTO   C83  971   5.737  -0.224   1.508  0.0896 -0.2169  0.0397
    3CHTO  H155  972   5.748  -0.167   1.416  0.4848  0.1353  0.3068
    3CHTO   O56  973   5.727  -0.121   1.602 -0.2714 -0.4075  0.6733
    3CHTO  H135  974   5.706  -0.144   1.690 -1.4515  1.6316  0.9555
    3CHTO   C81  975   5.615  -0.314   1.496  0.7036  0.3004  0.2745
    3CHTO  H153  976   5.637  -0.390   1.421  1.0457  1.7886 -1.1725
    3CHTO   N14  977   5.497  -0.243   1.436  0.0297 -0.0217  0.1013
    3CHTO  H141  978   5.485  -0.153   1.492  0.5778  0.2193 -0.1664
    3CHTO  H142  979   5.402  -0.291   1.433  0.8683 -1.6617 -1.6364
    3CHTO   C79  980   5.589  -0.390   1.639  0.8326 -1.0380  0.1212
    3CHTO  H151  981   5.495  -0.444   1.640 -0.1869  0.5995  4.1918
    3CHTO   O52  982   5.707  -0.477   1.672  0.2665 -0.1392 -0.0749
    3CHTO   C86  983   5.829  -0.399   1.678 -0.0311 -0.4911 -0.1233
    3CHTO  H158  984   5.820  -0.328   1.762 -1.3978  0.6308 -1.1986
    3CHTO   C90  985   5.944  -0.499   1.712  0.0288  0.6173  0.0733
    3CHTO   O60  986   5.937  -0.553   1.847  0.7953 -0.5206  0.7869
    3CHTO  H138  987   5.909  -0.490   1.910 -1.0785  0.6155 -1.1376
    3CHTO   O50  988   5.564  -0.297   1.744 -0.1331  0.3181  0.0661
    3CHTO   C73  989   5.463  -0.288   1.851  0.5735 -0.0625  0.2869
    3CHTO  H145  990   5.428  -0.388   1.881 -3.0131  0.7379 -0.9576
    3CHTO   C74  991   5.339  -0.215   1.786  0.0674 -0.5615  0.1072
    3CHTO  H146  992   5.316  -0.266   1.691  0.7947 -0.7719  0.0393
    3CHTO   O54  993   5.230  -0.236   1.877 -0.7954 -0.2460 -0.4719
    3CHTO  H133  994   5.185  -0.314   1.852  1.3727 -1.8368  0.3904
    3CHTO   C75  995   5.371  -0.049   1.758  0.1657  1.0135  0.1059
    3CHTO  H147  996   5.437  -0.041   1.670  1.2513  1.0033  0.9089
    3CHTO   N13  997   5.245   0.027   1.729 -0.1744 -0.1765 -0.1666
    3CHTO  H139  998   5.199   0.043   1.825  0.4655 -1.7653  0.4267
    3CHTO  H140  999   5.174  -0.047   1.694 -0.3564 -0.6684  1.1875
    3CHTO   C76 1000   5.446   0.009   1.887  0.5343 -0.4174  0.0050
    3CHTO  H148 1001   5.375   0.003   1.969 -0.1818 -2.4358 -0.7412
    3CHTO   O49 1002   5.560  -0.080   1.920  0.4322  0.5266 -0.6978
    3CHTO   C77 1003   5.518  -0.208   1.973 -0.9353 -0.0616  0.3669
    3CHTO  H149 1004   5.439  -0.192   2.046 -1.9478  0.7417 -0.8938
    3CHTO   C88 1005   5.642  -0.270   2.044 -0.2592  0.0633 -0.2135
    3CHTO   O58 1006   5.671  -0.221   2.168  0.2648  0.5038  0.0914
    3CHTO  H136 1007   5.702  -0.133   2.157  0.9706  0.2221 -0.2158
    3CHTO   O51 1008   5.513   0.152   1.840 -0.1848  0.3303 -0.1553
    3CHTO   C78 1009   5.542   0.254   1.970 -0.0615  0.1520 -0.2294
    3CHTO  H150 1010   5.520   0.198   2.063  0.7153 -1.2692 -0.8739
    3CHTO   C80 1011   5.449   0.382   1.966  0.1106 -0.7548 -0.5474
    3CHTO  H152 1012   5.473   0.435   1.872  0.8603  1.2740  0.7631
    3CHTO   O55 1013   5.312   0.338   1.977  0.1417  0.9351  0.4905
    3CHTO  H134 1014   5.261   0.362   1.902 -0.8524  0.3766  0.9723
    3CHTO   C84 1015   5.486   0.477   2.085  0.1765 -0.2311 -0.0054
    3CHTO  H156 1016   5.447   0.439   2.179 -1.0728  0.7416 -0.1219
    3CHTO   N15 1017   5.405   0.603   2.069  0.5214  0.1589 -0.2270
    3CHTO  H143 1018   5.463   0.691   2.050  1.3079  0.0686  1.6789
    3CHTO  H144 1019   5.343   0.623   2.154  1.7472  0.8757  0.5240
    3CHTO   C87 1020   5.642   0.495   2.096  0.3227 -0.1008 -0.0678
    3CHTO  H159 1021   5.669   0.570   2.021  0.2504  0.3922  0.3927
    3CHTO   O53 1022   5.722   0.372   2.075  0.2374  0.2649  0.2697
    3CHTO   C82 1023   5.687   0.292   1.964 -0.3431  0.1178 -0.1861
    3CHTO  H154 1024   5.710   0.346   1.872  0.6245  1.6491  0.9268
    3CHTO   C89 1025   5.786   0.173   1.965 -0.1274  0.0764  0.1427
    3CHTO   O59 1026   5.774   0.098   2.088  0.1805 -0.3189  0.2628
    3CHTO  H137 1027   5.837   0.028   2.089  0.1203 -0.3542  2.3645
    3CHTO   O45 1028   5.680   0.553   2.244  0.2718  0.3553  0.2063
    3CHTO   C67 1029   5.787   0.645   2.265  0.2181 -1.0230 -0.5774
    3CHTO  H124 1030   5.882   0.595   2.248  0.4539 -0.3877 -1.1496
    3CHTO   C65 1031   5.776   0.773   2.177  0.0257  0.1405 -0.1567
    3CHTO  H122 1032   5.671   0.784   2.150 -0.0106 -1.1492 -0.5962
    3CHTO   O44 1033   5.853   0.736   2.063  0.1373 -0.5118  0.0756
    3CHTO  H102 1034   5.840   0.799   1.995 -2.5923 -2.0612 -0.9218
    3CHTO   C63 1035   5.818   0.907   2.254 -0.1841 -0.1033 -0.0926
    3CHTO  H120 1036   5.745   0.942   2.326  0.5989 -2.3801  1.8617
    3CHTO   N11 1037   5.838   1.022   2.170 -0.4559 -0.1300 -0.2308
    3CHTO  H108 1038   5.938   1.059   2.175 -0.7097  0.5164  0.0809
    3CHTO  H109 1039   5.766   1.095   2.201  0.5703  1.5257 -1.6051
    3CHTO   C61 1040   5.940   0.873   2.349 -0.4065  0.2193 -0.3057
    3CHTO  H118 1041   5.944   0.970   2.402 -2.2356  0.6339 -0.8611
    3CHTO   O40 1042   5.911   0.774   2.441  0.1570  0.1317  0.2244
    3CHTO   C68 1043   5.793   0.682   2.421  0.2045  0.1138  0.2791
    3CHTO  H125 1044   5.704   0.737   2.458  0.6721 -0.8952  3.0613
    3CHTO   C72 1045   5.798   0.558   2.509 -0.9981 -0.3616 -0.4141
    3CHTO   O48 1046   5.913   0.474   2.509  0.5735  0.0501 -0.4795
    3CHTO  H105 1047   5.917   0.443   2.421 -1.2229  0.8199 -0.8620
    3CHTO   O38 1048   6.063   0.845   2.283  0.3177 -0.6376  0.2567
    3CHTO   C55 1049   6.176   0.893   2.351  0.2480  0.4092 -0.2101
    3CHTO  H112 1050   6.161   0.901   2.460  1.5332 -0.4674  0.0484
    3CHTO   C56 1051   6.241   1.020   2.293  0.5197 -0.2680 -0.1837
    3CHTO  H113 1052   6.243   1.021   2.183  2.1170  0.4657 -0.1500
    3CHTO   O42 1053   6.149   1.131   2.322 -0.0080  0.3024  0.1966
    3CHTO  H100 1054   6.059   1.105   2.333  0.0855 -0.2063 -0.2519
    3CHTO   C57 1055   6.382   1.057   2.343  0.1787 -0.6619 -0.4714
    3CHTO  H114 1056   6.373   1.093   2.445  1.7544 -0.5083 -0.3726
    3CHTO   N10 1057   6.451   1.157   2.260  0.0893  0.2298 -0.2134
    3CHTO  H106 1058   6.432   1.263   2.274 -1.0671 -0.0869  0.7162
    3CHTO  H107 1059   6.455   1.131   2.155  2.3959 -0.5290  0.0451
    3CHTO   C58 1060   6.467   0.929   2.360  0.3379  0.0031 -0.2476
    3CHTO  H115 1061   6.495   0.894   2.258  3.3047  1.1285  0.1557
    3CHTO   O37 1062   6.395   0.829   2.434  0.4974  0.8404  0.9099
    3CHTO   C59 1063   6.278   0.777   2.362 -0.4048  0.5732 -0.1598
    3CHTO  H116 1064   6.294   0.735   2.263 -2.7405  0.1652 -0.3995
    3CHTO   C70 1065   6.225   0.654   2.432  0.1102  0.1890  0.2611
    3CHTO   O46 1066   6.181   0.551   2.339  0.1955  0.3971  0.2107
    3CHTO  H103 1067   6.241   0.479   2.332  0.4625  0.8040 -1.9543
    3CHTO   O39 1068   6.611   0.964   2.468  0.0921  0.9105  0.3804
    3CHTO   C60 1069   6.731   0.976   2.391  0.1181 -0.2414  0.3312
    3CHTO  H117 1070   6.705   0.980   2.285 -1.5627  1.3005  0.7891
    3CHTO   C62 1071   6.801   1.106   2.428 -0.4229 -0.4770 -0.6062
    3CHTO  H119 1072   6.722   1.182   2.413  0.7311  0.5193 -1.7357
    3CHTO   O43 1073   6.836   1.108   2.568  0.6515 -0.3277  0.3014
    3CHTO  H101 1074   6.831   1.024   2.608  2.2597 -0.9625 -0.7892
    3CHTO   C66 1075   6.928   1.123   2.327  0.2727  0.4336 -0.8109
    3CHTO  H123 1076   6.885   1.120   2.226 -1.6306  2.5854 -0.1178
    3CHTO   N12 1077   7.008   1.248   2.335  0.6545  0.2666  0.2256
    3CHTO  H110 1078   6.943   1.330   2.307  0.2698  0.1611  0.7967
    3CHTO  H111 1079   7.042   1.259   2.436  0.0520  0.7805  0.3771
    3CHTO   C69 1080   7.016   1.001   2.346 -0.2350  0.0644 -0.3328
    3CHTO  H126 1081   7.058   0.997   2.448 -1.9050  0.8353  0.4068
    3CHTO   O41 1082   6.935   0.871   2.308  0.1051 -0.5304  0.3716
    3CHTO   C64 1083   6.830   0.851   2.408 -0.3364 -0.9104 -0.1540
    3CHTO  H121 1084   6.874   0.853   2.510 -1.5165  0.3204  0.3485
    3CHTO   C71 1085   6.744   0.725   2.381 -0.1438 -0.9564  0.8506
    3CHTO   O47 1086   6.824   0.608   2.368 -0.6158  0.8082 -0.0104
    3CHTO  H104 1087   6.798   0.564   2.289  2.6756 -1.2203 -0.0386
    3CHTO   O34 1088   7.137   1.006   2.234  0.5905  0.1259 -0.3361
    3CHTO   C49 1089   7.275   0.922   2.204 -0.3167 -0.8753  0.9157
    3CHTO   H91 1090   7.331   0.933   2.297  1.6255  0.9824 -0.4421
    3CHTO   C47 1091   7.341   0.970   2.073  0.2917 -0.9497  0.5237
    3CHTO   H89 1092   7.435   0.912   2.064 -0.2870 -2.0393  1.3993
    3CHTO   O33 1093   7.374   1.102   2.093  0.3735  0.2749 -0.5699
    3CHTO   H70 1094   7.451   1.116   2.145  0.3971  1.0483 -0.8068
    3CHTO   C45 1095   7.248   0.938   1.949  0.7841 -0.5390  0.3808
    3CHTO   H87 1096   7.149   0.987   1.955 -0.3161 -2.5836 -0.8071
    3CHTO    N8 1097   7.306   0.991   1.826  0.3898  0.3870  0.2721
    3CHTO   H75 1098   7.261   1.086   1.799  2.2747  1.6024  1.3500
    3CHTO   H76 1099   7.414   1.001   1.828  0.2300  2.4725 -0.1180
    3CHTO   C43 1100   7.219   0.780   1.936  0.1058  0.5662 -0.6275
    3CHTO   H85 1101   7.151   0.766   1.852 -0.1090  1.9210 -0.6991
    3CHTO   O29 1102   7.165   0.733   2.059 -0.0035  0.5930 -0.1139
    3CHTO   C50 1103   7.228   0.771   2.184  0.1753 -0.3594  0.0291
    3CHTO   H92 1104   7.165   0.749   2.271  0.5365  2.2788  1.0295
    3CHTO   C54 1105   7.342   0.668   2.209 -0.1178  0.2648  0.6136
    3CHTO   O36 1106   7.394   0.667   2.335 -0.5828 -0.2576  0.1461
    3CHTO   H72 1107   7.354   0.610   2.398 -1.4070  0.4793  0.2985
    3CHTO   O27 1108   7.338   0.705   1.901 -0.4007  0.4874  0.0658
    3CHTO   C37 1109   7.355   0.595   1.814  0.3874 -0.4476  0.8316
    3CHTO   H79 1110   7.442   0.529   1.826  0.0208 -0.8319  1.4269
    3CHTO   C38 1111   7.231   0.495   1.837 -0.4262 -0.3183  0.1385
    3CHTO   H80 1112   7.140   0.552   1.862 -0.3205 -0.3662  0.6357
    3CHTO   O31 1113   7.261   0.430   1.964 -0.5725  0.0643  0.3709
    3CHTO   H68 1114   7.195   0.371   1.998 -0.5263  0.9330  2.0096
    3CHTO   C39 1115   7.217   0.382   1.723 -0.2924  0.2133  0.4282
    3CHTO   H81 1116   7.295   0.311   1.752 -0.6795  0.6436  2.6446
    3CHTO    N7 1117   7.088   0.308   1.741  0.0229 -0.3205  0.1667
    3CHTO   H73 1118   7.100   0.200   1.741 -1.9046 -0.5764  1.7574
    3CHTO   H74 1119   7.009   0.343   1.677 -0.5807 -0.7989  0.6405
    3CHTO   C40 1120   7.244   0.442   1.579 -0.2634  0.4489  0.0791
    3CHTO   H82 1121   7.150   0.477   1.536 -0.4978 -0.2346  0.0219
    3CHTO   O26 1122   7.344   0.539   1.565  0.3673 -0.1370 -0.4730
    3CHTO   C41 1123   7.354   0.645   1.667  0.3663 -0.0602 -0.0914
    3CHTO   H83 1124   7.272   0.718   1.661 -0.1072 -0.6092 -0.3565
    3CHTO   C52 1125   7.477   0.744   1.642 -0.5791  0.8688  0.9351
    3CHTO   O35 1126   7.469   0.823   1.516  0.3100  0.5359 -0.1733
    3CHTO   H71 1127   7.400   0.887   1.521 -0.5344 -0.3762 -0.0745
    3CHTO   O28 1128   7.292   0.328   1.507 -0.0382  0.1105 -0.4546
    3CHTO   C42 1129   7.236   0.304   1.373  0.9078  0.9269 -0.1935
    3CHTO   H84 1130   7.309   0.238   1.326  1.1901 -0.1777  1.7593
    3CHTO   C44 1131   7.226   0.424   1.277  0.7189  0.1605 -0.0674
    3CHTO   H86 1132   7.165   0.500   1.327  0.4585 -0.8577  1.1911
    3CHTO   O32 1133   7.363   0.474   1.258 -0.2258 -0.4288 -0.5786
    3CHTO   H69 1134   7.418   0.413   1.213  2.3380  1.5096 -0.2036
    3CHTO   C48 1135   7.156   0.389   1.135 -0.6286  0.0853 -0.5424
    3CHTO   H90 1136   7.204   0.306   1.083  1.8603  1.8836 -1.2134
    3CHTO    N9 1137   7.158   0.512   1.046 -0.2457  0.3717 -0.8612
    3CHTO   H77 1138   7.227   0.491   0.966 -0.1746 -0.0988 -0.6802
    3CHTO   H78 1139   7.055   0.525   1.015 -0.3282 -2.1445 -1.7660
    3CHTO   C51 1140   7.013   0.326   1.152 -0.1339  1.3156 -0.7727
    3CHTO   H93 1141   6.947   0.396   1.203 -1.2116  0.5938 -1.1657
    3CHTO   O30 1142   7.034   0.207   1.228  0.4345 -0.7411 -0.4398
    3CHTO   C46 1143   7.104   0.232   1.373 -0.1868  0.0233 -0.2567
    3CHTO   H88 1144   7.032   0.295   1.425 -2.1330 -0.4827 -2.2722
    3CHTO   C53 1145   7.118   0.097   1.450 -0.0857  0.2212  0.3517
    3CHTO   O72 1146   7.207   0.005   1.390 -0.1543  0.5638 -0.2581
    3CHTO  H199 1147   7.290   0.027   1.427 -1.0083 -0.1378  2.1193
    3CHTO   O22 1148   6.957   0.292   1.021  0.3309 -0.4114  0.2813
    3CHTO   C31 1149   6.817   0.286   0.986 -0.2889  0.0570  0.0030
    3CHTO   H59 1150   6.812   0.249   0.881  0.4777  1.7596 -0.6571
    3CHTO   C29 1151   6.747   0.182   1.079  0.5544  0.0673  0.8222
    3CHTO   H57 1152   6.771   0.222   1.179  0.5411  0.0503  0.8323
    3CHTO   O21 1153   6.811   0.058   1.054 -0.2193  0.3878  0.8600
    3CHTO   H37 1154   6.801   0.026   0.967 -1.0728  1.8540  0.3929
    3CHTO   C27 1155   6.594   0.175   1.056 -0.1232 -0.0324 -0.1524
    3CHTO   H55 1156   6.579   0.109   0.970  2.0060 -0.1142 -0.5004
    3CHTO    N5 1157   6.539   0.109   1.175  0.8200  0.0837  0.0605
    3CHTO   H43 1158   6.470   0.172   1.230 -1.5453 -1.2470 -1.3596
    3CHTO   H44 1159   6.492   0.018   1.141  1.4566  0.1889 -1.1051
    3CHTO   C25 1160   6.531   0.321   1.034 -0.6761 -0.6394  0.6907
    3CHTO   H53 1161   6.532   0.373   1.131  1.6934  1.1684 -0.2482
    3CHTO   O17 1162   6.612   0.399   0.948 -0.3237 -0.6571  0.0604
    3CHTO   C32 1163   6.751   0.425   0.983 -0.2622 -0.2135 -0.8350
    3CHTO   H60 1164   6.765   0.469   1.082  0.7736 -0.6961 -0.7606
    3CHTO   C36 1165   6.809   0.522   0.879  0.3189 -0.4778 -0.2100
    3CHTO   O25 1166   6.723   0.637   0.840 -0.2881  0.4564  0.4817
    3CHTO   H40 1167   6.658   0.660   0.904 -0.7523 -0.0837  0.2021
    3CHTO   O15 1168   6.383   0.299   0.976  0.5750 -0.1715  0.3983
    3CHTO   C19 1169   6.284   0.411   0.979 -0.8932  0.0896 -1.1046
    3CHTO   H47 1170   6.193   0.368   0.933 -1.1480  0.2026 -0.7111
    3CHTO   C20 1171   6.253   0.456   1.125 -0.2195 -0.5321  1.1593
    3CHTO   H48 1172   6.342   0.496   1.175  0.7540 -0.3822 -0.6179
    3CHTO   O19 1173   6.200   0.339   1.188  0.3032 -0.0054  0.3360
    3CHTO   H35 1174   6.270   0.284   1.218  0.3451 -0.8145 -1.2139
    3CHTO   C21 1175   6.145   0.577   1.124  0.3611 -0.7961  0.1869
    3CHTO   H49 1176   6.055   0.546   1.070 -1.1156  1.1521  1.4408
    3CHTO    N4 1177   6.106   0.624   1.258 -0.0713 -0.2953  0.1206
    3CHTO   H41 1178   6.048   0.715   1.252 -1.5685 -1.2524 -0.2479
    3CHTO   H42 1179   6.052   0.553   1.319  1.1596  0.1543  1.7661
    3CHTO   C22 1180   6.217   0.688   1.044 -0.2368 -1.0541  0.1947
    3CHTO   H50 1181   6.319   0.708   1.078 -1.0919 -1.5158  3.1859
    3CHTO   O14 1182   6.237   0.645   0.909 -0.1530 -0.1347 -0.4521
    3CHTO   C23 1183   6.324   0.534   0.898  0.6293 -0.1247 -0.1668
    3CHTO   H51 1184   6.426   0.569   0.922 -0.2315  2.5425 -0.1954
    3CHTO   C34 1185   6.312   0.505   0.749 -0.2803 -0.0894  0.1200
    3CHTO   O23 1186   6.403   0.584   0.671 -0.1893  0.2878  0.1731
    3CHTO   H38 1187   6.495   0.573   0.690 -0.1622 -0.3851 -0.3659
    3CHTO   O16 1188   6.131   0.801   1.018 -0.4851 -0.1808 -0.4409
    3CHTO   C24 1189   6.225   0.943   1.029 -0.3395  0.2598  0.1307
    3CHTO   H52 1190   6.330   0.919   1.046 -0.6882 -1.5204 -0.0685
    3CHTO   C26 1191   6.168   1.025   1.146 -0.0651  0.3149  0.0370
    3CHTO   H54 1192   6.060   1.036   1.126 -0.2120 -0.9812  0.0745
    3CHTO   O20 1193   6.175   0.960   1.276 -0.0260 -0.2276  0.3228
    3CHTO   H36 1194   6.108   0.895   1.278 -1.3425  0.9299 -2.3213
    3CHTO   C30 1195   6.243   1.163   1.158  0.4765 -0.8201  0.3446
    3CHTO   H58 1196   6.351   1.153   1.177  0.8004  2.4612  0.6163
    3CHTO    N6 1197   6.192   1.249   1.267  0.5953 -0.4575 -0.0087
    3CHTO   H45 1198   6.132   1.330   1.227  0.2877 -0.9476 -0.5575
    3CHTO   H46 1199   6.277   1.296   1.315  0.7948  0.8823 -1.6235
    3CHTO   C33 1200   6.248   1.239   1.017 -0.3827 -0.0192 -0.0464
    3CHTO   H61 1201   6.149   1.284   1.001 -1.2228 -1.4728  0.9582
    3CHTO   O18 1202   6.279   1.148   0.902  0.6762  0.1933 -0.8029
    3CHTO   C28 1203   6.216   1.020   0.893  0.0043  0.2577 -0.1838
    3CHTO   H56 1204   6.111   1.039   0.871  0.6891  0.9843 -2.9724
    3CHTO   C35 1205   6.277   0.923   0.782  0.1142  0.5650 -0.5360
    3CHTO   O24 1206   6.417   0.923   0.768  0.0318  0.2511 -0.4192
    3CHTO   H39 1207   6.446   0.835   0.785 -2.0219 -0.9287 -2.7685
    3CHTO    O9 1208   6.341   1.350   1.026  0.3380  0.1920 -0.1869
    3CHTO   C13 1209   6.293   1.486   0.931 -0.4891  0.6789  0.0141
    3CHTO   H26 1210   6.202   1.540   0.964 -0.4570 -0.1134  1.4514
    3CHTO   C11 1211   6.286   1.445   0.779 -1.3335  0.7783  0.5166
    3CHTO   H24 1212   6.202   1.375   0.763 -0.8201 -0.1858  1.9330
    3CHTO    O8 1213   6.396   1.370   0.734  0.1693  0.1069  0.2042
    3CHTO    H3 1214   6.382   1.281   0.762  2.2022  0.4055  2.2861
    3CHTO    C9 1215   6.252   1.575   0.706 -0.1892 -0.4206 -0.0628
    3CHTO   H22 1216   6.163   1.616   0.757  1.4765  0.6090  2.1081
    3CHTO    N2 1217   6.211   1.554   0.563  0.1696 -0.7298  0.2621
    3CHTO   H10 1218   6.287   1.491   0.517 -0.7925 -2.0375  0.4219
    3CHTO   H11 1219   6.222   1.647   0.510  0.4123 -0.0752  1.4356
    3CHTO    C7 1220   6.367   1.686   0.722  0.2732  0.1733  0.4582
    3CHTO   H20 1221   6.325   1.781   0.683  1.3869 -0.3110 -2.0313
    3CHTO    O4 1222   6.411   1.701   0.859 -0.1559 -0.1700 -0.1190
    3CHTO   C14 1223   6.411   1.595   0.954 -0.0354 -0.0941  0.3605
    3CHTO   H27 1224   6.397   1.634   1.057 -1.6320 -2.4431  1.0707
    3CHTO   C18 1225   6.555   1.533   0.956 -0.0337  0.2728 -0.0845
    3CHTO   O13 1226   6.650   1.618   1.026  0.0362 -0.2054  0.1305
    3CHTO    H7 1227   6.738   1.593   1.008 -0.1604 -0.9397  0.1999
    3CHTO    O2 1228   6.506   1.637   0.636 -0.1419 -0.0791 -0.3872
    3CHTO    C1 1229   6.574   1.751   0.583 -0.5726 -0.5494  0.3127
    3CHTO   H14 1230   6.540   1.842   0.637 -0.7709  1.7167 -3.4387
    3CHTO    C2 1231   6.550   1.765   0.428 -0.2116  0.3833  0.6334
    3CHTO   H15 1232   6.566   1.665   0.385 -1.0645  2.1442 -4.1535
    3CHTO    O6 1233   6.412   1.803   0.413  0.5559  0.7339 -0.7295
    3CHTO    H1 1234   6.357   1.728   0.423  2.1207 -0.4208 -0.4929
    3CHTO    C3 1235   6.647   1.876   0.359 -1.0243 -0.0629 -0.3871
    3CHTO   H16 1236   6.619   1.971   0.407  0.9421  0.2877  0.1140
    3CHTO    N1 1237   6.620   1.889   0.210 -0.0862  0.4041  0.4941
    3CHTO    H8 1238   6.517   1.919   0.197  0.0935  0.2130 -1.4742
    3CHTO    H9 1239   6.682   1.972   0.181  0.2766  0.3014  0.9551
    3CHTO    C4 1240   6.797   1.858   0.408 -0.5286  0.5794  0.0452
    3CHTO   H17 1241   6.838   1.770   0.358 -0.8130 -2.4589  4.8177
    3CHTO    O1 1242   6.800   1.854   0.547 -0.5638  0.0272 -0.6445
    3CHTO    C5 1243   6.728   1.741   0.601  0.5442  0.7439 -0.0472
    3CHTO   H18 1244   6.758   1.649   0.551 -3.4775 -0.4837 -0.3635
    3CHTO   C16 1245   6.762   1.731   0.752  0.1596  0.0685  0.3423
    3CHTO   O11 1246   6.889   1.685   0.779  0.3064 -0.1760  0.1244
    3CHTO    H5 1247   6.909   1.597   0.756 -2.1792 -0.6873 -0.1266
    3CHTO    O3 1248   6.878   1.974   0.370 -0.1821  0.1620  0.5754
    3CHTO    C6 1249   7.018   1.940   0.364 -0.0708 -0.2805 -0.3331
    3CHTO   H19 1250   7.058   1.858   0.424  0.7611  0.4579  0.1168
    3CHTO    C8 1251   7.054   1.931   0.206  0.6016  0.3815  0.2031
    3CHTO   H21 1252   7.026   2.026   0.159  2.3826  0.4427 -0.7723
    3CHTO    O7 1253   6.982   1.818   0.151 -0.1081  0.3969  0.0270
    3CHTO    H2 1254   7.028   1.741   0.180  0.4918  0.3798 -0.9801
    3CHTO   C12 1255   7.214   1.927   0.180  0.4524  0.3374  0.2356
    3CHTO   H25 1256   7.251   1.832   0.222  1.7906  1.4746  1.6903
    3CHTO    N3 1257   7.249   1.932   0.033 -0.5895  0.0048 -0.9008
    3CHTO   H12 1258   7.184   2.006  -0.012 -0.1518  1.8218  1.3245
    3CHTO   H13 1259   7.233   1.837  -0.014 -0.4884 -0.8970  0.8396
    3CHTO   C15 1260   7.271   2.042   0.264  0.6032 -0.5777 -0.0967
    3CHTO   H28 1261   7.244   2.140   0.225  0.2646  0.8504  3.5354
    3CHTO   O10 1262   7.437   2.017   0.298  0.1828 -0.4044  0.1398
    3CHTO    H4 1263   7.479   2.078   0.239  0.3774 -1.6198 -1.0030
    3CHTO    O5 1264   7.226   2.050   0.401  0.2047 -0.1673  0.2091
    3CHTO   C10 1265   7.081   2.069   0.415  0.1854 -0.1528 -0.7096
    3CHTO   H23 1266   7.054   2.159   0.359  1.0733  1.4549  1.3332
    3CHTO   C17 1267   7.043   2.107   0.562  0.2336 -0.6782  0.0883
    3CHTO   O12 1268   7.097   2.235   0.603  0.6185  0.9967 -0.2483
    3CHTO    H6 1269   7.100   2.248   0.696  1.6726 -0.3011 -0.0954
    4CHTO  H203 1270   6.218   6.605   2.331 -0.6880 -2.3783  1.5951
    4CHTO   O82 1271   6.300   6.588   2.374  0.6896 -0.2518 -0.1076
    4CHTO  C123 1272   6.356   6.707   2.445 -0.2404  0.3191  0.4691
    4CHTO  H227 1273   6.322   6.698   2.549 -1.0504  0.6771  0.2382
    4CHTO   O77 1274   6.502   6.689   2.434 -0.1090 -0.5296  0.4369
    4CHTO  C118 1275   6.578   6.796   2.482  0.0152 -0.3644  0.4825
    4CHTO  H222 1276   6.546   6.815   2.585 -0.5809 -2.0999  0.6258
    4CHTO  C125 1277   6.731   6.769   2.477  0.5841 -0.3687 -0.0062
    4CHTO   O84 1278   6.777   6.672   2.571 -0.2420 -0.3967 -0.5537
    4CHTO  H205 1279   6.732   6.683   2.653 -1.8932 -1.9802 -1.2134
    4CHTO  C114 1280   6.551   6.924   2.410  0.0705 -0.3620  0.3997
    4CHTO  H218 1281   6.569   6.908   2.304  0.6830 -1.7706  0.7055
    4CHTO  C116 1282   6.403   6.955   2.436 -0.9117 -0.3733 -0.0055
    4CHTO  H220 1283   6.389   6.973   2.545 -1.0096 -0.5618  0.0121
    4CHTO   O79 1284   6.391   7.080   2.373 -0.0117  0.0346  0.9693
    4CHTO  H201 1285   6.358   7.156   2.418  1.6790  0.7563  1.0089
    4CHTO  C120 1286   6.312   6.843   2.379 -0.4491  0.0114  0.4055
    4CHTO  H224 1287   6.330   6.833   2.270 -0.3228 -1.1121  0.5232
    4CHTO   N21 1288   6.166   6.871   2.385  0.1555  0.0285 -0.5887
    4CHTO  H211 1289   6.141   6.845   2.487 -0.1769  1.8814 -0.1744
    4CHTO  H212 1290   6.144   6.975   2.365 -1.4037 -0.3610 -0.9496
    4CHTO   O75 1291   6.632   7.032   2.455 -0.0993  0.6362  0.0903
    4CHTO  C112 1292   6.710   7.126   2.330  0.0367 -0.0275 -0.0203
    4CHTO  H216 1293   6.637   7.184   2.272 -0.7834 -2.0571 -1.0576
    4CHTO   O73 1294   6.781   7.029   2.250 -0.0445 -0.4868 -0.2101
    4CHTO  C113 1295   6.837   7.098   2.137 -0.0133 -0.1294 -0.0000
    4CHTO  H217 1296   6.760   7.169   2.098  0.7638 -1.0283 -3.2505
    4CHTO  C124 1297   6.871   6.996   2.024 -0.2474  0.0741 -0.3365
    4CHTO   O83 1298   6.956   6.888   2.068 -0.0142 -0.6325  0.2351
    4CHTO  H204 1299   7.047   6.907   2.081 -0.2951 -0.2109  1.6312
    4CHTO  C109 1300   6.965   7.176   2.190  0.9306  0.0388 -0.3789
    4CHTO  H213 1301   7.026   7.101   2.242  4.0728  1.3467 -2.0148
    4CHTO  C110 1302   6.929   7.287   2.293  0.6962 -0.0840  0.0986
    4CHTO  H214 1303   6.881   7.366   2.236  0.6761 -1.1920 -1.4515
    4CHTO   O78 1304   7.045   7.341   2.354  0.0479 -0.5131  0.8677
    4CHTO  H200 1305   7.026   7.403   2.422  0.3137  1.1447 -0.5230
    4CHTO  C111 1306   6.829   7.216   2.395  0.3123 -0.2558  0.6151
    4CHTO  H215 1307   6.888   7.143   2.452 -1.1737 -2.1349 -0.1591
    4CHTO   N19 1308   6.765   7.310   2.490  0.2167 -0.4271  1.0253
    4CHTO  H207 1309   6.835   7.363   2.552  1.1261  0.0693 -0.3852
    4CHTO  H208 1310   6.697   7.379   2.442 -2.1413 -2.7081  0.9354
    4CHTO   O74 1311   7.052   7.230   2.080 -0.3692 -0.2657  0.2271
    4CHTO  C115 1312   7.208   7.261   2.111 -0.0321 -0.1756  0.0832
    4CHTO  H219 1313   7.223   7.324   2.198  1.1712  0.7458 -0.7677
    4CHTO   O76 1314   7.291   7.125   2.146 -0.7067 -0.4818 -0.2777
    4CHTO  C122 1315   7.310   7.036   2.036  0.2201  0.0004 -0.7959
    4CHTO  H226 1316   7.217   6.982   2.021  0.8932 -1.3436 -0.1539
    4CHTO  C126 1317   7.413   6.931   2.083  0.3050  0.0661  0.8735
    4CHTO   O85 1318   7.548   6.984   2.090  0.0477  0.0619 -0.6761
    4CHTO  H206 1319   7.593   6.925   2.147 -0.2383  0.3328 -0.1720
    4CHTO  C121 1320   7.358   7.110   1.899 -1.0371  0.3828  0.1151
    4CHTO  H225 1321   7.451   7.060   1.866 -1.5059  1.2607 -2.6750
    4CHTO   O81 1322   7.252   7.092   1.809  0.0836 -0.0097 -0.1585
    4CHTO  H202 1323   7.218   7.005   1.809 -0.3624  0.1466 -2.0782
    4CHTO  C119 1324   7.385   7.255   1.917  0.0948 -0.2906  0.2581
    4CHTO  H223 1325   7.469   7.252   1.986 -0.6963 -2.7339  1.1801
    4CHTO  C117 1326   7.268   7.333   1.984  0.6664  0.9441 -0.3441
    4CHTO  H221 1327   7.183   7.332   1.916  0.4349 -2.0358 -0.0963
    4CHTO   N20 1328   7.299   7.470   2.018 -0.1078  0.0333 -0.5131
    4CHTO  H209 1329   7.287   7.528   1.927  0.6772  0.2845 -0.4559
    4CHTO  H210 1330   7.396   7.488   2.061  1.1758 -1.6921 -2.5729
    4CHTO   O80 1331   7.447   7.322   1.787 -0.3893  0.8856  0.0864
    4CHTO  C103 1332   7.592   7.320   1.761 -0.6690  0.1906  1.0042
    4CHTO  H190 1333   7.653   7.374   1.834  0.7225  0.5266 -0.4009
    4CHTO  C101 1334   7.669   7.187   1.718 -0.3431 -0.4671  0.5837
    4CHTO  H188 1335   7.607   7.126   1.653  0.8946 -0.0196 -1.0539
    4CHTO   O68 1336   7.689   7.093   1.865 -0.0882  0.3323 -0.8367
    4CHTO  H168 1337   7.729   7.012   1.841 -1.4885  0.2834 -3.1411
    4CHTO   C99 1338   7.801   7.224   1.648 -0.1852  0.4916  0.0726
    4CHTO  H186 1339   7.858   7.286   1.720 -0.6021 -1.0037  1.7334
    4CHTO   N17 1340   7.878   7.101   1.607  0.6152  0.1202  0.5536
    4CHTO  H174 1341   7.836   7.054   1.519 -1.3246 -0.6715  1.8612
    4CHTO  H175 1342   7.981   7.124   1.584  0.9812 -2.0477 -0.1422
    4CHTO   C97 1343   7.780   7.315   1.531 -0.2395  0.9074  0.1575
    4CHTO  H184 1344   7.709   7.258   1.469  0.9491 -1.8580  1.2378
    4CHTO   O64 1345   7.722   7.435   1.579  0.3363 -0.0858  0.1721
    4CHTO  C104 1346   7.588   7.418   1.626  0.2592  0.2066  0.4437
    4CHTO  H191 1347   7.522   7.376   1.550  0.9972  3.4370 -2.0557
    4CHTO  C108 1348   7.534   7.557   1.656  0.7191  0.4218  0.6057
    4CHTO   O71 1349   7.616   7.621   1.748 -0.4536 -0.8817 -0.1860
    4CHTO  H171 1350   7.614   7.570   1.826  1.4800  0.5046  0.8265
    4CHTO   O62 1351   7.895   7.346   1.442 -0.1126  0.3490 -0.5487
    4CHTO   C91 1352   7.887   7.380   1.299  0.0068  0.2897 -0.3769
    4CHTO  H178 1353   7.787   7.375   1.257  0.1211  1.5377 -0.8172
    4CHTO   C92 1354   7.977   7.265   1.232  0.0730 -0.3470 -0.1539
    4CHTO  H179 1355   8.066   7.254   1.295  1.1137 -2.9718 -1.9670
    4CHTO   O66 1356   7.904   7.140   1.238  1.0443  0.2642 -0.0220
    4CHTO  H166 1357   7.887   7.114   1.327  2.1094 -2.4932 -0.5583
    4CHTO   C93 1358   8.003   7.293   1.076  0.2620 -0.1662  0.2077
    4CHTO  H180 1359   7.909   7.265   1.027  1.4157 -2.5002 -0.7535
    4CHTO   N16 1360   8.102   7.199   1.016  0.3187 -0.5424 -1.1453
    4CHTO  H172 1361   8.184   7.194   1.087 -1.2567  0.1144  0.7822
    4CHTO  H173 1362   8.141   7.232   0.921 -1.9305 -0.1105 -1.9338
    4CHTO   C94 1363   8.036   7.443   1.042 -0.0121  0.2718 -0.0540
    4CHTO  H181 1364   8.132   7.474   1.083  0.4240 -1.2853  0.1314
    4CHTO   O61 1365   7.935   7.522   1.116  0.3173 -0.1159  0.2510
    4CHTO   C95 1366   7.934   7.519   1.260 -0.4341  0.2087 -0.4059
    4CHTO  H182 1367   8.035   7.539   1.296 -1.0141  1.1427  0.7766
    4CHTO  C106 1368   7.847   7.641   1.307 -0.5562  0.3717 -0.1637
    4CHTO   O69 1369   7.909   7.768   1.285 -0.5290 -0.7858  1.0492
    4CHTO  H169 1370   7.995   7.758   1.249 -1.7353  1.0792 -2.5661
    4CHTO   O63 1371   8.039   7.474   0.879  0.5181 -0.7041 -0.0101
    4CHTO   C96 1372   7.910   7.493   0.818  0.6310 -0.5184  0.1434
    4CHTO  H183 1373   7.833   7.479   0.895  0.7167 -1.9682 -0.0133
    4CHTO   C98 1374   7.886   7.391   0.698  0.4512  0.5394 -0.0871
    4CHTO  H185 1375   7.962   7.402   0.619  2.0437 -2.5745  0.9481
    4CHTO   O67 1376   7.908   7.258   0.745  0.0059  0.2133  0.0763
    4CHTO  H167 1377   7.835   7.205   0.719 -0.4012  0.5351  0.5540
    4CHTO  C102 1378   7.743   7.414   0.640  0.3249 -0.1352 -0.8043
    4CHTO  H189 1379   7.674   7.388   0.723  2.0138  1.7907  1.2629
    4CHTO   N18 1380   7.710   7.325   0.527 -0.0703 -0.4321  0.1304
    4CHTO  H176 1381   7.756   7.227   0.532  1.2115  0.1778  0.3293
    4CHTO  H177 1382   7.732   7.376   0.434  0.8200 -2.3676 -0.7620
    4CHTO  C105 1383   7.716   7.560   0.609 -0.0894 -0.3956  0.2508
    4CHTO  H192 1384   7.684   7.574   0.506  2.4934 -1.5827 -0.7632
    4CHTO   O65 1385   7.814   7.654   0.649  0.1702 -0.6056 -0.1759
    4CHTO  C100 1386   7.908   7.637   0.759  0.1992 -0.2194 -0.4761
    4CHTO  H187 1387   8.012   7.652   0.728  0.4982  2.2524  1.5735
    4CHTO  C107 1388   7.877   7.738   0.876 -0.1398 -0.3072 -0.4046
    4CHTO   O70 1389   7.912   7.872   0.861  0.0083  0.8752 -0.2261
    4CHTO  H170 1390   8.002   7.896   0.870  0.4701 -0.7146 -0.4963
    4CHTO   O57 1391   7.584   7.585   0.690  0.1352 -0.0561 -0.3687
    4CHTO   C85 1392   7.487   7.680   0.640 -0.5544  0.1276 -0.5796
    4CHTO  H157 1393   7.492   7.678   0.529  1.1070 -0.7173 -0.5100
    4CHTO   C83 1394   7.525   7.831   0.676  0.4540  0.0159 -0.7481
    4CHTO  H155 1395   7.618   7.859   0.627  0.8393  1.5889  0.7950
    4CHTO   O56 1396   7.552   7.853   0.819  0.6755 -0.4943  0.6262
    4CHTO  H135 1397   7.586   7.940   0.832 -2.2169  0.8530 -0.4520
    4CHTO   C81 1398   7.404   7.916   0.623 -0.0800 -0.5098 -0.1017
    4CHTO  H153 1399   7.387   7.893   0.518 -0.6766  0.9503 -0.3368
    4CHTO   N14 1400   7.426   8.065   0.627 -0.3871 -0.0060 -0.5591
    4CHTO  H141 1401   7.514   8.081   0.686 -0.2471 -0.0186 -0.7622
    4CHTO  H142 1402   7.352   8.132   0.664  0.1200  0.2289  0.0355
    4CHTO   C79 1403   7.274   7.877   0.697  0.2195  0.7582 -0.0836
    4CHTO  H151 1404   7.195   7.937   0.652 -2.2637 -1.5621  1.0522
    4CHTO   O52 1405   7.230   7.739   0.669  0.0737  0.5773  0.3821
    4CHTO   C86 1406   7.339   7.646   0.696 -0.6461  0.5802 -0.4791
    4CHTO  H158 1407   7.346   7.645   0.807  2.9169  2.7561 -0.5947
    4CHTO   C90 1408   7.286   7.508   0.650  0.4561 -0.3210  0.7276
    4CHTO   O60 1409   7.350   7.396   0.707 -0.3874 -0.2928  0.0123
    4CHTO  H138 1410   7.423   7.375   0.652 -0.6173  0.6056 -0.6567
    4CHTO   O50 1411   7.285   7.892   0.837 -0.1331 -0.7148 -0.1257
    4CHTO   C73 1412   7.205   7.949   0.938  0.3487  0.3143 -0.2623
    4CHTO  H145 1413   7.159   8.044   0.910 -1.8365 -0.2738  1.1877
    4CHTO   C74 1414   7.296   7.976   1.068 -0.2937 -0.9177  0.5423
    4CHTO  H146 1415   7.372   8.048   1.036  0.8466 -2.4421 -0.2490
    4CHTO   O54 1416   7.223   8.046   1.167  0.2294  0.3974  0.1548
    4CHTO  H133 1417   7.199   8.130   1.134 -0.8083  0.1489  0.2728
    4CHTO   C75 1418   7.365   7.840   1.108 -0.0365 -0.2999 -0.3738
    4CHTO  H147 1419   7.412   7.798   1.018 -0.2368  0.6493 -0.9318
    4CHTO   N13 1420   7.465   7.849   1.219  0.7430  0.1962 -0.3144
    4CHTO  H139 1421   7.561   7.878   1.179  1.6804 -0.3471  1.4920
    4CHTO  H140 1422   7.443   7.924   1.293 -2.5145  0.7943 -1.7818
    4CHTO   C76 1423   7.245   7.742   1.141 -0.0406  0.6219 -0.0487
    4CHTO  H148 1424   7.183   7.779   1.223 -0.1302 -1.9153  1.0614
    4CHTO   O49 1425   7.163   7.724   1.028 -0.1899 -0.2874  0.1712
    4CHTO   C77 1426   7.094   7.845   0.982 -0.0002 -0.2082 -0.1438
    4CHTO  H149 1427   7.032   7.892   1.058 -0.7908 -1.4073 -0.0469
    4CHTO   C88 1428   6.995   7.799   0.874  0.1399 -0.6477 -0.3464
    4CHTO   O58 1429   6.883   7.716   0.933  0.3223  0.0500 -0.0510
    4CHTO  H136 1430   6.848   7.653   0.874 -0.9192 -1.0253  1.7783
    4CHTO   O51 1431   7.302   7.586   1.182 -0.2063  0.1389  0.2260
    4CHTO   C78 1432   7.292   7.462   1.057 -0.2890 -0.7520  0.0127
    4CHTO  H150 1433   7.308   7.501   0.954 -1.8566 -1.4163 -0.4886
    4CHTO   C80 1434   7.166   7.382   1.072  0.7477 -0.0077 -0.7785
    4CHTO  H152 1435   7.141   7.371   1.179 -1.7016  2.2133 -1.0673
    4CHTO   O55 1436   7.056   7.456   1.010 -0.2748 -0.3636  0.5108
    4CHTO  H134 1437   6.979   7.421   1.050  0.0143 -0.9837  0.5349
    4CHTO   C84 1438   7.179   7.240   0.995 -0.9538  0.0352 -0.0395
    4CHTO  H156 1439   7.179   7.273   0.891  1.1944 -4.1316 -1.4504
    4CHTO   N15 1440   7.059   7.156   1.018 -0.3716 -0.0587 -0.1969
    4CHTO  H143 1441   7.036   7.139   1.121 -3.8322  2.0170 -0.5285
    4CHTO  H144 1442   6.995   7.231   0.975 -0.0517  1.5820  2.1290
    4CHTO   C87 1443   7.315   7.167   1.012  0.1410 -0.6706  0.4459
    4CHTO  H159 1444   7.314   7.114   1.107  1.8361 -1.4677  0.0372
    4CHTO   O53 1445   7.435   7.273   0.996  0.7056 -0.4611  0.5680
    4CHTO   C82 1446   7.412   7.375   1.091  0.2639  0.2328 -0.1316
    4CHTO  H154 1447   7.395   7.320   1.184 -0.5779  2.1564  0.8726
    4CHTO   C89 1448   7.546   7.449   1.101 -0.1790 -0.3549 -0.1102
    4CHTO   O59 1449   7.585   7.520   0.978 -0.5861  0.6834 -0.0012
    4CHTO  H137 1450   7.522   7.589   0.975 -3.5282 -1.8813  0.1153
    4CHTO   O45 1451   7.335   7.053   0.900  0.0779  0.4712 -0.0135
    4CHTO   C67 1452   7.465   7.019   0.859  0.0258 -0.2524  0.1710
    4CHTO  H124 1453   7.516   7.107   0.818  1.6885 -1.1086  0.3564
    4CHTO   C65 1454   7.549   6.960   0.979 -0.4102 -0.1892  0.1350
    4CHTO  H122 1455   7.528   7.030   1.060 -3.7016  2.3234 -2.7174
    4CHTO   O44 1456   7.689   6.960   0.948 -0.1824 -0.2687  0.4187
    4CHTO  H102 1457   7.733   6.939   1.027  2.1104  0.5838 -0.5915
    4CHTO   C63 1458   7.478   6.830   1.019  0.4701  0.3897  0.1203
    4CHTO  H120 1459   7.371   6.849   1.035  1.0155  2.9785  1.0452
    4CHTO   N11 1460   7.512   6.776   1.149  0.9942  0.3494 -0.0222
    4CHTO  H108 1461   7.491   6.854   1.218  0.0309 -2.4178  2.9156
    4CHTO  H109 1462   7.449   6.690   1.161 -1.7294  2.1430 -1.0482
    4CHTO   C61 1463   7.478   6.719   0.915  0.1879  0.0522  0.1715
    4CHTO  H118 1464   7.402   6.642   0.938  1.4264 -0.5043  2.6261
    4CHTO   O40 1465   7.437   6.780   0.785  0.0085  0.6295  0.0669
    4CHTO   C68 1466   7.459   6.918   0.740  0.3395 -0.7565  0.3513
    4CHTO  H125 1467   7.378   6.960   0.676  2.7137  1.3635 -1.3969
    4CHTO   C72 1468   7.585   6.923   0.653  0.2276 -0.0425 -0.4225
    4CHTO   O48 1469   7.560   6.863   0.521  0.0483  0.7690 -0.3020
    4CHTO  H105 1470   7.619   6.909   0.465 -0.7990  0.8903 -1.1062
    4CHTO   O38 1471   7.608   6.655   0.888 -0.1485  0.6359  0.6419
    4CHTO   C55 1472   7.613   6.519   0.847  0.0043  0.6299  0.1606
    4CHTO  H112 1473   7.518   6.505   0.795 -1.2854 -1.1348  2.8621
    4CHTO   C56 1474   7.624   6.426   0.974  0.0948 -0.7306  0.1032
    4CHTO  H113 1475   7.701   6.471   1.038 -1.2714  0.9789  0.5992
    4CHTO   O42 1476   7.506   6.450   1.055 -0.0721 -0.7983  0.1650
    4CHTO  H100 1477   7.492   6.377   1.112 -0.4153 -2.3088 -1.7912
    4CHTO   C57 1478   7.635   6.274   0.941 -0.3704 -1.0386 -0.5106
    4CHTO  H114 1479   7.536   6.259   0.897 -0.3875 -1.0534 -0.4681
    4CHTO   N10 1480   7.649   6.183   1.062  0.1497  0.1402 -0.0708
    4CHTO  H106 1481   7.751   6.154   1.081 -0.5192 -2.1153  0.2221
    4CHTO  H107 1482   7.610   6.247   1.139  2.6871  2.3315 -0.5656
    4CHTO   C58 1483   7.735   6.248   0.829 -0.0954  0.6641  0.0104
    4CHTO  H115 1484   7.838   6.244   0.872 -0.2515 -0.0697  0.3298
    4CHTO   O37 1485   7.741   6.337   0.728 -0.1073 -0.3639 -0.1055
    4CHTO   C59 1486   7.726   6.487   0.750  0.2228  0.2508 -0.2002
    4CHTO  H116 1487   7.819   6.522   0.794  0.1239 -1.7942  1.7791
    4CHTO   C70 1488   7.715   6.562   0.619 -0.5782 -0.4024 -0.8784
    4CHTO   O46 1489   7.595   6.527   0.548  0.5308  0.0382  0.2667
    4CHTO  H103 1490   7.612   6.438   0.523  2.3121  0.0634  1.3518
    4CHTO   O39 1491   7.720   6.106   0.755 -0.2026 -0.4233 -0.1354
    4CHTO   C60 1492   7.619   6.082   0.652 -0.0470  0.3857  0.0462
    4CHTO  H117 1493   7.542   6.158   0.666 -0.3645 -0.4109  3.0406
    4CHTO   C62 1494   7.676   6.087   0.509  0.5044 -0.0031  0.3770
    4CHTO  H119 1495   7.706   6.193   0.493 -2.4804  0.4862 -2.5135
    4CHTO   O43 1496   7.794   5.995   0.499  1.1334 -0.9139 -0.0947
    4CHTO  H101 1497   7.857   6.036   0.442  0.2839 -1.6680 -1.6028
    4CHTO   C66 1498   7.566   6.052   0.399 -0.5634  0.1479  0.4785
    4CHTO  H123 1499   7.478   6.115   0.412 -3.2053 -3.2756 -0.1219
    4CHTO   N12 1500   7.613   6.078   0.257 -0.1664  0.2645  0.4272
    4CHTO  H110 1501   7.533   6.054   0.189 -1.2244 -0.3998  1.8917
    4CHTO  H111 1502   7.708   6.036   0.225 -0.7390  0.3973 -1.4958
    4CHTO   C69 1503   7.504   5.907   0.433  0.1839  0.0082 -0.0774
    4CHTO  H126 1504   7.585   5.831   0.430  0.1577 -0.1677  2.7388
    4CHTO   O41 1505   7.448   5.905   0.559  0.3430 -0.3061  0.2613
    4CHTO   C64 1506   7.552   5.941   0.676  0.2387 -0.1459  0.4862
    4CHTO  H121 1507   7.632   5.864   0.679  0.1105 -0.2637  0.9818
    4CHTO   C71 1508   7.477   5.925   0.813 -0.6956  1.0505 -0.1700
    4CHTO   O47 1509   7.420   5.795   0.825 -0.6581  0.3925  0.2569
    4CHTO  H104 1510   7.491   5.739   0.850 -1.4641 -0.3496  0.8988
    4CHTO   O34 1511   7.404   5.864   0.329 -0.2203  0.0339 -0.2643
    4CHTO   C49 1512   7.361   5.735   0.260 -0.5670 -0.9340 -0.1688
    4CHTO   H91 1513   7.344   5.762   0.156  0.4056  2.8346  0.5724
    4CHTO   C47 1514   7.228   5.681   0.320 -0.6843  0.0915 -0.2905
    4CHTO   H89 1515   7.188   5.603   0.251  1.1826 -0.1357 -1.1375
    4CHTO   O33 1516   7.131   5.789   0.325  0.0947  0.2815  0.0857
    4CHTO   H70 1517   7.052   5.765   0.281  0.0534  0.9962 -0.2187
    4CHTO   C45 1518   7.254   5.627   0.466  0.2441 -0.2931 -0.3294
    4CHTO   H87 1519   7.280   5.711   0.531 -1.3635 -0.6370  0.7936
    4CHTO    N8 1520   7.139   5.563   0.528  0.4185  0.0510  0.7605
    4CHTO   H75 1521   7.058   5.635   0.527  0.2264 -0.1667 -1.3374
    4CHTO   H76 1522   7.111   5.468   0.487 -1.0610  0.8560 -0.1291
    4CHTO   C43 1523   7.390   5.535   0.476 -0.2428  0.0945  0.1994
    4CHTO   H85 1524   7.413   5.531   0.582 -1.3743 -1.3467  0.4056
    4CHTO   O29 1525   7.502   5.580   0.398  0.0443 -0.3043  0.0399
    4CHTO   C50 1526   7.479   5.634   0.268  0.7433  0.7486  0.4578
    4CHTO   H92 1527   7.575   5.675   0.234  0.8392  0.4430  0.3520
    4CHTO   C54 1528   7.452   5.520   0.166 -0.6128  0.2508 -1.4099
    4CHTO   O36 1529   7.564   5.428   0.170 -0.1415 -0.7110  0.2164
    4CHTO   H72 1530   7.564   5.368   0.242 -3.0071  2.3350  2.9132
    4CHTO   O27 1531   7.367   5.394   0.442 -0.5234 -0.2266  0.9492
    4CHTO   C37 1532   7.400   5.254   0.439  0.9019  1.0973  0.3872
    4CHTO   H79 1533   7.464   5.228   0.354  1.9926 -1.1892  1.8456
    4CHTO   C38 1534   7.482   5.225   0.575  0.0240  0.1460 -0.7100
    4CHTO   H80 1535   7.420   5.265   0.657 -0.6016 -1.9364 -0.1398
    4CHTO   O31 1536   7.604   5.298   0.562  0.2536 -0.2267 -0.6988
    4CHTO   H68 1537   7.675   5.243   0.589 -1.2952 -2.0002 -0.1714
    4CHTO   C39 1538   7.503   5.067   0.587 -0.1766  0.2878  0.3473
    4CHTO   H81 1539   7.559   5.035   0.499  0.1487  1.7149  0.0299
    4CHTO    N7 1540   7.564   5.018   0.715 -0.4393 -0.2150 -0.5453
    4CHTO   H73 1541   7.666   5.050   0.701 -0.1185 -1.8934 -2.3358
    4CHTO   H74 1542   7.562   4.911   0.731 -0.2652 -0.6898 -3.4286
    4CHTO   C40 1543   7.362   4.995   0.562 -0.2604  0.5575  0.3931
    4CHTO   H82 1544   7.304   5.025   0.649  1.9740 -1.4391  2.6471
    4CHTO   O26 1545   7.301   5.040   0.437 -0.6536 -0.4032  0.4649
    4CHTO   C41 1546   7.268   5.179   0.435  0.0277 -0.2224  0.0689
    4CHTO   H83 1547   7.201   5.215   0.514  0.1067  2.2824 -0.9619
    4CHTO   C52 1548   7.193   5.196   0.298  0.1692  0.1073  1.0141
    4CHTO   O35 1549   7.127   5.347   0.287 -0.1371 -0.2467  0.0415
    4CHTO   H71 1550   7.047   5.350   0.336  0.5963  1.4876  1.1688
    4CHTO   O28 1551   7.373   4.850   0.551  0.4243 -0.4332  0.4368
    4CHTO   C42 1552   7.315   4.747   0.628  0.1047  0.3188 -0.4962
    4CHTO   H84 1553   7.310   4.671   0.550 -3.5609 -0.2640  0.2136
    4CHTO   C44 1554   7.169   4.772   0.681 -0.5659  0.3280  0.1714
    4CHTO   H86 1555   7.173   4.857   0.750 -1.7067 -0.2786  1.0011
    4CHTO   O32 1556   7.089   4.822   0.578 -0.2491  0.2219 -0.2748
    4CHTO   H69 1557   7.051   4.750   0.531  1.1886 -0.9000  0.2647
    4CHTO   C48 1558   7.108   4.644   0.756 -0.2526  0.6384  0.3168
    4CHTO   H90 1559   7.106   4.563   0.683 -3.6133  0.7471  0.2097
    4CHTO    N9 1560   6.964   4.660   0.804 -0.1702 -0.0992  0.0795
    4CHTO   H77 1561   6.930   4.761   0.782 -2.5019 -0.8415  0.1051
    4CHTO   H78 1562   6.953   4.628   0.907 -0.2100  0.6181  0.3019
    4CHTO   C51 1563   7.215   4.604   0.867  0.5149  0.2928  0.5152
    4CHTO   H93 1564   7.224   4.686   0.938  1.4720 -0.5287  1.3563
    4CHTO   O30 1565   7.343   4.571   0.807  0.8856  0.0917  0.2891
    4CHTO   C46 1566   7.408   4.692   0.741 -0.2801  0.4250 -0.4609
    4CHTO   H88 1567   7.422   4.776   0.809 -1.6418  0.6658 -0.4584
    4CHTO   C53 1568   7.540   4.641   0.676 -0.2017 -0.2683  0.3415
    4CHTO   O72 1569   7.624   4.576   0.772  0.3069 -0.3385  0.5700
    4CHTO  H199 1570   7.675   4.508   0.731 -0.4698 -0.0026 -1.0205
    4CHTO   O22 1571   7.167   4.482   0.938  0.1384  0.2280  0.1829
    4CHTO   C31 1572   7.243   4.412   1.044  0.1194  0.3193  0.2306
    4CHTO   H59 1573   7.164   4.346   1.087  1.3137 -1.3172 -0.0697
    4CHTO   C29 1574   7.365   4.326   1.003  0.1596 -0.6246  0.4637
    4CHTO   H57 1575   7.434   4.395   0.952 -1.2942 -0.7532 -1.7594
    4CHTO   O21 1576   7.318   4.230   0.913 -0.1614 -0.1524 -0.0298
    4CHTO   H37 1577   7.384   4.166   0.892 -0.2041  0.5200 -2.3621
    4CHTO   C27 1578   7.442   4.262   1.124  0.0205  0.7755 -0.3197
    4CHTO   H55 1579   7.380   4.179   1.164  0.9258  0.4585  0.4362
    4CHTO    N5 1580   7.566   4.186   1.080 -0.3333  0.4253 -0.0303
    4CHTO   H43 1581   7.652   4.249   1.065 -0.1226 -0.1007 -1.0852
    4CHTO   H44 1582   7.544   4.114   1.003  2.5153  0.0950 -0.5759
    4CHTO   C25 1583   7.473   4.369   1.234 -0.5742 -0.4759 -0.5115
    4CHTO   H53 1584   7.552   4.439   1.204 -2.2030  1.6895  0.0535
    4CHTO   O17 1585   7.345   4.433   1.270  0.3593 -0.3115 -0.1852
    4CHTO   C32 1586   7.282   4.506   1.163 -1.0935  0.4037  0.1660
    4CHTO   H60 1587   7.352   4.585   1.133  2.0658 -1.6822  1.7627
    4CHTO   C36 1588   7.158   4.568   1.228  0.4313 -0.0186  0.0752
    4CHTO   O25 1589   7.205   4.682   1.306 -0.5887 -0.3916 -0.8699
    4CHTO   H40 1590   7.245   4.742   1.246  0.0404 -0.5211 -0.5826
    4CHTO   O15 1591   7.533   4.300   1.370  1.0741  0.1393 -0.5012
    4CHTO   C19 1592   7.593   4.383   1.479 -0.3666 -0.8185  0.0963
    4CHTO   H47 1593   7.604   4.307   1.558 -0.1694 -0.7847  0.0997
    4CHTO   C20 1594   7.728   4.451   1.432  0.4731  0.1796  0.7695
    4CHTO   H48 1595   7.711   4.529   1.356 -1.7762  0.0821  1.1424
    4CHTO   O19 1596   7.796   4.338   1.369  0.6900  0.0588  0.0600
    4CHTO   H35 1597   7.846   4.376   1.299 -0.2394  0.7327 -0.2444
    4CHTO   C21 1598   7.801   4.510   1.552  0.6097  0.0791 -0.6645
    4CHTO   H49 1599   7.820   4.424   1.617  1.3324 -0.7361 -1.9282
    4CHTO    N4 1600   7.937   4.560   1.525 -0.7283 -0.5557  0.2357
    4CHTO   H41 1601   7.933   4.652   1.469  2.3179 -0.7772 -0.4035
    4CHTO   H42 1602   8.004   4.572   1.608 -1.0291  1.9080  0.1672
    4CHTO   C22 1603   7.703   4.615   1.625 -0.9692 -0.0246  0.0619
    4CHTO   H50 1604   7.694   4.696   1.553  0.8899 -0.9826 -1.3112
    4CHTO   O14 1605   7.574   4.568   1.643  0.1117  0.0272 -0.1167
    4CHTO   C23 1606   7.500   4.499   1.544 -0.1930 -0.4666 -0.0230
    4CHTO   H51 1607   7.465   4.569   1.466  0.6066 -0.2743 -0.2077
    4CHTO   C34 1608   7.386   4.439   1.626  0.0144 -0.0862  0.7033
    4CHTO   O23 1609   7.280   4.392   1.540  0.5900 -0.0303 -0.5362
    4CHTO   H38 1610   7.222   4.335   1.587  0.6662  0.6005  0.3486
    4CHTO   O16 1611   7.754   4.645   1.755 -0.1637  0.5701  0.2350
    4CHTO   C24 1612   7.684   4.765   1.827 -0.4676 -0.2699  0.0097
    4CHTO   H52 1613   7.593   4.796   1.775 -0.8474 -0.9770  0.2499
    4CHTO   C26 1614   7.791   4.875   1.821 -0.5532 -0.3101  0.4535
    4CHTO   H54 1615   7.883   4.834   1.868 -0.7139  0.0992  1.1255
    4CHTO   O20 1616   7.823   4.897   1.685 -0.7389 -0.1952  0.1398
    4CHTO   H36 1617   7.867   4.824   1.647 -0.5369 -0.6512  1.2200
    4CHTO   C30 1618   7.747   5.009   1.887  0.0993  0.4527  0.2915
    4CHTO   H58 1619   7.681   5.068   1.822 -4.6113 -4.3050  0.4581
    4CHTO    N6 1620   7.856   5.104   1.906  0.3381  1.0152 -0.1924
    4CHTO   H45 1621   7.951   5.056   1.891 -0.1314 -0.2831  0.8444
    4CHTO   H46 1622   7.844   5.189   1.840 -2.5831  0.9373  0.1779
    4CHTO   C33 1623   7.682   4.973   2.022 -0.5034  0.2798 -0.8554
    4CHTO   H61 1624   7.758   4.947   2.096  1.1470  1.7674 -1.9716
    4CHTO   O18 1625   7.589   4.866   2.019  0.8628  0.2524 -0.2116
    4CHTO   C28 1626   7.648   4.744   1.973 -0.4829  0.9692  0.2778
    4CHTO   H56 1627   7.740   4.722   2.028  0.2262  0.2161 -1.1999
    4CHTO   C35 1628   7.544   4.638   2.015 -0.2560  0.1780 -0.2017
    4CHTO   O24 1629   7.434   4.640   1.924 -0.2413  0.5979  0.2678
    4CHTO   H39 1630   7.388   4.559   1.934 -2.1723  1.3913 -1.6248
    4CHTO    O9 1631   7.624   5.096   2.074 -0.3647 -0.0514 -0.5060
    4CHTO   C13 1632   7.552   5.081   2.234 -0.7119  0.5071 -0.2798
    4CHTO   H26 1633   7.589   4.989   2.284 -0.2659  0.3993 -0.8023
    4CHTO   C11 1634   7.395   5.090   2.231 -0.0008  0.5640 -0.0106
    4CHTO   H24 1635   7.356   4.990   2.204  2.5354 -0.1939 -0.9787
    4CHTO    O8 1636   7.348   5.177   2.128  0.2210 -0.2529  0.3977
    4CHTO    H3 1637   7.256   5.169   2.112 -0.1518 -2.2765  3.1932
    4CHTO    C9 1638   7.339   5.130   2.372 -0.2666  0.6335  0.2212
    4CHTO   H22 1639   7.380   5.058   2.444 -1.0530 -1.5974 -1.5011
    4CHTO    N2 1640   7.191   5.103   2.383  0.0146  0.5682 -0.1721
    4CHTO   H10 1641   7.140   5.179   2.441  2.1407  0.9252  1.2931
    4CHTO   H11 1642   7.137   5.088   2.290 -1.3905  1.7442  0.4358
    4CHTO    C7 1643   7.392   5.271   2.407 -0.0906 -0.4185 -0.2276
    4CHTO   H20 1644   7.408   5.278   2.517  0.3414 -1.8734 -0.1788
    4CHTO    O4 1645   7.517   5.303   2.352 -0.3114 -0.8461 -0.0333
    4CHTO   C14 1646   7.606   5.192   2.331 -1.0531 -0.1431 -0.2073
    4CHTO   H27 1647   7.625   5.154   2.433  0.2635  1.6342  0.2368
    4CHTO   C18 1648   7.739   5.256   2.272 -0.2010  0.0133 -0.1208
    4CHTO   O13 1649   7.850   5.164   2.295  0.2022  0.1625  0.1944
    4CHTO    H7 1650   7.929   5.212   2.278  0.5616  0.3116  2.2188
    4CHTO    O2 1651   7.301   5.367   2.364  0.2301  0.0248 -0.6047
    4CHTO    C1 1652   7.297   5.503   2.413  0.3230 -0.0981  0.0627
    4CHTO   H14 1653   7.304   5.564   2.321  0.4318 -1.4214 -0.8250
    4CHTO    C2 1654   7.413   5.552   2.518  0.1175 -0.0929  0.5771
    4CHTO   H15 1655   7.409   5.488   2.607 -0.3677  0.3515  0.8805
    4CHTO    O6 1656   7.533   5.543   2.451  0.1037 -0.7033  0.5574
    4CHTO    H1 1657   7.554   5.452   2.463 -0.1297 -0.6415  1.3905
    4CHTO    C3 1658   7.396   5.706   2.567  0.0366  0.2912  0.0617
    4CHTO   H16 1659   7.416   5.771   2.480 -1.6576 -0.1754 -0.6992
    4CHTO    N1 1660   7.490   5.737   2.683  0.1600  0.0852  0.7478
    4CHTO    H8 1661   7.459   5.834   2.719 -1.6888 -0.3238  0.3008
    4CHTO    H9 1662   7.482   5.664   2.762  0.0650  0.4585  1.0854
    4CHTO    C4 1663   7.248   5.725   2.612 -0.5262 -0.4135 -0.0506
    4CHTO   H17 1664   7.239   5.665   2.703 -1.5493  2.0705  1.5294
    4CHTO    O1 1665   7.160   5.670   2.508  0.2697 -0.1703  0.1230
    4CHTO    C5 1666   7.165   5.531   2.489  0.0920  0.2143 -0.0271
    4CHTO   H18 1667   7.172   5.489   2.589  0.6096 -1.9320 -0.9343
    4CHTO   C16 1668   7.033   5.491   2.428 -1.0419  0.0316 -0.9655
    4CHTO   O11 1669   7.014   5.551   2.299  0.3268 -0.6587  0.2234
    4CHTO    H5 1670   7.000   5.641   2.320 -1.3741  0.0084 -3.4347
    4CHTO    O3 1671   7.220   5.860   2.632  0.2419  0.8579  0.2366
    4CHTO    C6 1672   7.099   5.879   2.720 -0.1884 -0.1445  0.3065
    4CHTO   H19 1673   7.042   5.795   2.758  1.0339 -0.3525  1.7470
    4CHTO    C8 1674   7.135   5.946   2.856  0.0380 -0.1620  0.0325
    4CHTO   H21 1675   7.201   6.028   2.829 -0.4597  0.3148  0.2478
    4CHTO    O7 1676   7.203   5.852   2.931  0.3863 -0.4363 -0.3027
    4CHTO    H2 1677   7.269   5.809   2.881 -0.6734 -0.9213 -1.2928
    4CHTO   C12 1678   7.003   5.982   2.932  0.1134  0.8636 -0.3075
    4CHTO   H25 1679   6.960   5.884   2.962 -0.6903  1.6315  1.0895
    4CHTO    N3 1680   7.040   6.065   3.052 -0.1511 -0.2364 -0.2200
    4CHTO   H12 1681   7.057   6.170   3.032  0.5307 -0.8914 -3.2621
    4CHTO   H13 1682   6.974   6.051   3.136  0.4157 -1.3632  0.0417
    4CHTO   C15 1683   6.899   6.053   2.840 -0.0414  0.4572 -0.1507
    4CHTO   H28 1684   6.927   6.154   2.809 -4.0507  2.4475  2.3191
    4CHTO   O10 1685   6.762   6.064   2.915 -0.3839 -0.1946  0.4246
    4CHTO    H4 1686   6.727   5.977   2.923  1.1671 -0.9282 -0.5889
    4CHTO    O5 1687   6.878   5.984   2.713 -0.3162 -0.3991 -0.2584
    4CHTO   C10 1688   7.003   5.977   2.641  0.3650 -0.6841 -0.0889
    4CHTO   H23 1689   7.042   6.079   2.630 -1.2737  0.0696  0.8806
    4CHTO   C17 1690   6.965   5.926   2.496  0.6136 -0.4423 -0.2095
    4CHTO   O12 1691   6.912   5.791   2.504  0.0493  0.2992  0.1637
    4CHTO    H6 1692   6.960   5.731   2.451 -0.2209 -0.1754  0.4589
    5CHTO  H203 1693   7.621   2.876   2.094  0.8334  0.7916 -1.4229
    5CHTO   O82 1694   7.697   2.823   2.106  0.1320  0.0762 -0.1279
    5CHTO  C123 1695   7.713   2.795   2.247 -0.1338  0.1918 -0.0801
    5CHTO  H227 1696   7.821   2.780   2.262 -0.0096  0.3463 -0.8290
    5CHTO   O77 1697   7.662   2.913   2.317  0.0706 -0.5683 -0.2144
    5CHTO  C118 1698   7.672   2.899   2.461 -0.3454 -0.2060 -0.0788
    5CHTO  H222 1699   7.776   2.868   2.481  0.2163  1.2490 -0.6374
    5CHTO  C125 1700   7.647   3.053   2.513  0.6690 -0.3924  0.2105
    5CHTO   O84 1701   7.513   3.104   2.487 -0.5577 -0.2390 -0.0954
    5CHTO  H205 1702   7.504   3.095   2.394 -0.4356 -0.4582 -0.0869
    5CHTO  C114 1703   7.571   2.801   2.509  0.3459  0.5560 -0.3112
    5CHTO  H218 1704   7.472   2.832   2.474 -0.8715 -2.2933  0.4577
    5CHTO  C116 1705   7.613   2.664   2.446  0.0833 -0.1371 -0.8528
    5CHTO  H220 1706   7.705   2.628   2.496 -0.4121 -0.3151 -0.0597
    5CHTO   O79 1707   7.505   2.579   2.477 -0.0819 -0.2359 -0.3944
    5CHTO  H201 1708   7.509   2.559   2.569  1.8286  0.7913 -0.2205
    5CHTO  C120 1709   7.636   2.665   2.297  1.1276 -0.2269  0.4399
    5CHTO  H224 1710   7.535   2.673   2.254  1.2230 -1.8055 -0.1142
    5CHTO   N21 1711   7.693   2.536   2.243  0.0143  0.1985 -0.1779
    5CHTO  H211 1712   7.671   2.530   2.137  2.7505  2.1747 -0.9207
    5CHTO  H212 1713   7.649   2.450   2.290 -1.1195  0.4973 -0.6849
    5CHTO   O75 1714   7.579   2.813   2.651 -0.1179  0.3893  0.0215
    5CHTO  C112 1715   7.421   2.810   2.722  0.3459  0.3250 -0.6075
    5CHTO  H216 1716   7.349   2.753   2.661 -0.9760  0.9703  0.3298
    5CHTO   O73 1717   7.381   2.947   2.734 -0.2644 -0.2343 -0.3186
    5CHTO  C113 1718   7.246   2.966   2.771  0.3015 -1.1639  0.2380
    5CHTO  H217 1719   7.180   2.903   2.710 -0.6692  1.8139 -1.8954
    5CHTO  C124 1720   7.208   3.112   2.744 -0.2630 -0.7116 -0.9195
    5CHTO   O83 1721   7.199   3.143   2.601 -0.5473 -0.1084 -0.1416
    5CHTO  H204 1722   7.133   3.090   2.562 -0.3210  0.3738 -1.1948
    5CHTO  C109 1723   7.226   2.924   2.917  0.7442 -0.0581 -0.0223
    5CHTO  H213 1724   7.293   2.985   2.980  1.3941 -0.7807  0.0104
    5CHTO  C110 1725   7.274   2.771   2.935 -0.4419 -0.3996  0.3163
    5CHTO  H214 1726   7.196   2.706   2.895  0.3547 -2.1897  1.6200
    5CHTO   O78 1727   7.287   2.745   3.069  0.1782  0.1248 -0.8252
    5CHTO  H200 1728   7.321   2.816   3.120 -2.0595 -1.0771  2.4915
    5CHTO  C111 1729   7.409   2.740   2.863 -0.5852  0.7578 -0.4229
    5CHTO  H215 1730   7.491   2.790   2.916 -0.4153 -1.1806  1.1978
    5CHTO   N19 1731   7.445   2.597   2.859  1.1173  0.3745  0.2299
    5CHTO  H207 1732   7.479   2.571   2.959  0.4146 -3.1611 -0.3667
    5CHTO  H208 1733   7.528   2.576   2.792  0.5662  0.5476 -0.5076
    5CHTO   O74 1734   7.087   2.960   2.949  0.1409 -0.3456 -0.2935
    5CHTO  C115 1735   7.048   2.987   3.085  0.1826  0.0477  0.5346
    5CHTO  H219 1736   7.120   2.937   3.150  0.6162  0.6332  0.5087
    5CHTO   O76 1737   7.063   3.150   3.118  0.5305  0.4659  0.4201
    5CHTO  C122 1738   6.972   3.229   3.041  0.6296 -0.8792  0.0373
    5CHTO  H226 1739   7.030   3.232   2.948  0.6802  0.4446  0.1029
    5CHTO  C126 1740   6.968   3.378   3.097  0.3556 -0.5889  0.5204
    5CHTO   O85 1741   7.093   3.451   3.101 -0.1673 -0.1898 -0.2414
    5CHTO  H206 1742   7.152   3.400   3.153 -0.5577 -0.8003 -0.3862
    5CHTO  C121 1743   6.823   3.175   3.022 -0.1750 -0.1159 -0.2007
    5CHTO  H225 1744   6.752   3.255   3.048  0.2075 -0.2109  1.2232
    5CHTO   O81 1745   6.805   3.143   2.882  0.0695  0.0885 -0.2026
    5CHTO  H202 1746   6.779   3.216   2.829  0.6338  1.0946  0.8724
    5CHTO  C119 1747   6.796   3.050   3.117 -0.2531 -0.3924  0.1900
    5CHTO  H223 1748   6.819   3.095   3.214 -1.3377  0.9294 -0.1517
    5CHTO  C117 1749   6.897   2.923   3.100  0.1873 -0.6916  0.4244
    5CHTO  H221 1750   6.887   2.858   3.014  2.4906 -0.8485  0.2432
    5CHTO   N20 1751   6.896   2.841   3.223  0.9008  0.2426  0.1775
    5CHTO  H209 1752   6.887   2.887   3.321  1.1152  1.6886 -0.4752
    5CHTO  H210 1753   6.820   2.765   3.209  1.9490 -1.0037  1.0834
    5CHTO   O80 1754   6.631   3.019   3.138 -0.2447  0.0142 -0.9690
    5CHTO  C103 1755   6.537   2.994   3.029 -0.4685  0.4580  0.3316
    5CHTO  H190 1756   6.556   3.065   2.949 -4.2279  0.7214 -0.4293
    5CHTO  C101 1757   6.545   2.860   2.950 -0.3559  0.2532  0.2719
    5CHTO  H188 1758   6.530   2.775   3.016 -0.7696  0.5699  0.5858
    5CHTO   O68 1759   6.682   2.844   2.871  0.2420  0.2113 -0.9672
    5CHTO  H168 1760   6.709   2.756   2.853 -0.2662  0.3661 -2.5445
    5CHTO   C99 1761   6.422   2.847   2.848  0.4000 -0.1370 -1.4531
    5CHTO  H186 1762   6.418   2.932   2.777  1.3501 -0.7946 -2.3143
    5CHTO   N17 1763   6.430   2.720   2.769 -0.4214  0.3429  0.4511
    5CHTO  H174 1764   6.486   2.744   2.680  1.1521 -2.2940  0.6718
    5CHTO  H175 1765   6.485   2.649   2.830 -1.2366 -0.0271  0.7631
    5CHTO   C97 1766   6.294   2.861   2.929  0.1378 -0.4254 -0.3083
    5CHTO  H184 1767   6.294   2.783   3.007  2.3295  0.4433  0.5938
    5CHTO   O64 1768   6.284   2.993   2.982  0.3080 -0.1311 -0.2971
    5CHTO  C104 1769   6.390   3.023   3.081  0.1556 -0.0191  0.0651
    5CHTO  H191 1770   6.377   2.992   3.184  0.6021 -3.2496 -0.7821
    5CHTO  C108 1771   6.380   3.177   3.084  0.3423  0.0220  0.4343
    5CHTO   O71 1772   6.423   3.230   3.204 -0.2933  0.7068 -0.0625
    5CHTO  H171 1773   6.463   3.314   3.191 -0.5720  1.0191  0.9839
    5CHTO   O62 1774   6.170   2.853   2.852 -0.3849 -1.1214 -0.0442
    5CHTO   C91 1775   6.051   2.854   2.927  0.7135 -0.2577 -1.1701
    5CHTO  H178 1776   6.057   2.922   3.012 -0.3359 -2.8623  1.0250
    5CHTO   C92 1777   6.017   2.720   2.997 -0.4608 -0.0713 -0.8795
    5CHTO  H179 1778   6.112   2.691   3.045 -0.7455  0.9298  0.3167
    5CHTO   O66 1779   5.927   2.744   3.101  0.0909  0.6308 -0.1779
    5CHTO  H166 1780   5.858   2.802   3.076 -2.8636 -2.0243  1.4930
    5CHTO   C93 1781   5.970   2.606   2.901 -0.1117 -0.3826 -0.2920
    5CHTO  H180 1782   5.922   2.530   2.964  0.4289 -1.5552 -1.2787
    5CHTO   N16 1783   6.080   2.537   2.831 -0.2891 -0.6051 -0.0167
    5CHTO  H172 1784   6.049   2.436   2.805 -3.2163  0.3228 -0.2878
    5CHTO  H173 1785   6.106   2.595   2.744 -2.0430 -1.1889 -0.9771
    5CHTO   C94 1786   5.860   2.662   2.801 -0.0337 -0.7557  0.2968
    5CHTO  H181 1787   5.899   2.670   2.699 -2.7635  0.0905 -0.7191
    5CHTO   O61 1788   5.816   2.797   2.835  0.6133 -0.0695  0.5724
    5CHTO   C95 1789   5.915   2.898   2.846 -0.3922  0.2927 -0.4126
    5CHTO  H182 1790   5.942   2.927   2.745 -0.5931 -0.9139 -0.8253
    5CHTO  C106 1791   5.840   3.022   2.914  0.1207  0.1298  0.4326
    5CHTO   O69 1792   5.748   3.069   2.812  0.5201  0.1167  0.0496
    5CHTO  H169 1793   5.697   3.144   2.836 -0.8075 -0.4504 -0.9464
    5CHTO   O63 1794   5.733   2.561   2.799 -0.4352 -0.5294  0.2607
    5CHTO   C96 1795   5.691   2.505   2.664  0.1967  0.1976  0.1992
    5CHTO  H183 1796   5.767   2.523   2.589 -0.4322 -0.8630 -0.7122
    5CHTO   C98 1797   5.555   2.549   2.608  0.1460 -0.1530 -0.2959
    5CHTO  H185 1798   5.474   2.510   2.672  0.9777  0.4611  1.1536
    5CHTO   O67 1799   5.541   2.689   2.607 -0.3151  0.8467  0.3570
    5CHTO  H167 1800   5.476   2.724   2.549 -0.4410  1.8502  1.0850
    5CHTO  C102 1801   5.536   2.495   2.461  0.1292  0.3647 -0.0833
    5CHTO  H189 1802   5.626   2.527   2.406  0.6979 -1.5155 -0.2711
    5CHTO   N18 1803   5.421   2.546   2.386  0.5299  0.1964 -0.3864
    5CHTO  H176 1804   5.393   2.489   2.299 -1.0348 -1.2863  1.0392
    5CHTO  H177 1805   5.334   2.546   2.450  1.7731  0.7555  1.3246
    5CHTO  C105 1806   5.532   2.337   2.468  0.3452  0.4263 -0.9777
    5CHTO  H192 1807   5.429   2.308   2.488  0.0265 -0.8667 -4.2023
    5CHTO   O65 1808   5.628   2.278   2.557  0.6003  0.1377  0.3825
    5CHTO  C100 1809   5.673   2.345   2.679  0.4985  0.0129 -0.2856
    5CHTO  H187 1810   5.602   2.323   2.760 -0.3054  1.1122 -0.6866
    5CHTO  C107 1811   5.810   2.288   2.712  0.5306  0.6197  0.2998
    5CHTO   O70 1812   5.809   2.146   2.729 -0.5305 -0.3502  0.6601
    5CHTO  H170 1813   5.883   2.113   2.681  1.0056  2.9564  0.6517
    5CHTO   O57 1814   5.583   2.288   2.311  0.0559  0.1667  0.0964
    5CHTO   C85 1815   5.527   2.171   2.248  0.2166 -0.6309 -0.0626
    5CHTO  H157 1816   5.420   2.167   2.277 -0.2965  2.4991 -1.2685
    5CHTO   C83 1817   5.597   2.047   2.306 -0.6918  0.2202 -0.0046
    5CHTO  H155 1818   5.567   2.049   2.411 -1.7665  2.1614 -0.3332
    5CHTO   O56 1819   5.746   2.051   2.293 -0.3774 -0.7316 -0.0876
    5CHTO  H135 1820   5.783   1.965   2.299 -2.2302 -1.6500 -1.1959
    5CHTO   C81 1821   5.540   1.927   2.234  0.2702 -0.1295  0.6307
    5CHTO  H153 1822   5.433   1.939   2.250  0.3571  0.1800  0.9990
    5CHTO   N14 1823   5.575   1.797   2.303  0.5912  0.0945 -0.2127
    5CHTO  H141 1824   5.680   1.776   2.299  0.8568  1.6859 -2.8934
    5CHTO  H142 1825   5.527   1.710   2.263  0.5980 -0.8647  1.7985
    5CHTO   C79 1826   5.576   1.934   2.083 -0.3606  0.4135  0.1539
    5CHTO  H151 1827   5.519   1.859   2.028  0.4737  0.3035 -0.5772
    5CHTO   O52 1828   5.531   2.053   2.020  0.1787 -0.1346 -0.4187
    5CHTO   C86 1829   5.544   2.175   2.092  0.2952 -0.2799 -0.0736
    5CHTO  H158 1830   5.639   2.222   2.058  0.8802 -0.9077  0.6642
    5CHTO   C90 1831   5.432   2.264   2.029  0.2683 -0.1931 -0.2816
    5CHTO   O60 1832   5.439   2.394   2.091 -0.2674  0.1201 -0.1583
    5CHTO  H138 1833   5.499   2.446   2.041  3.4152 -2.3122  1.5152
    5CHTO   O50 1834   5.706   1.915   2.060 -0.0580 -0.1469 -0.5006
    5CHTO   C73 1835   5.785   1.868   1.942 -0.0171  0.1591 -0.6712
    5CHTO  H145 1836   5.718   1.860   1.855  0.0556 -0.2075 -0.6949
    5CHTO   C74 1837   5.847   1.730   1.975  0.2207 -0.0615 -0.1863
    5CHTO  H146 1838   5.763   1.661   1.991 -0.1418  0.3637 -0.2556
    5CHTO   O54 1839   5.910   1.678   1.857 -0.9897 -0.3847 -0.0584
    5CHTO  H133 1840   5.884   1.589   1.846 -2.6859  0.0584  0.1459
    5CHTO   C75 1841   5.936   1.746   2.100  0.4305 -0.5120 -0.6888
    5CHTO  H147 1842   5.872   1.770   2.186 -1.1722 -0.1748 -1.9550
    5CHTO   N13 1843   5.994   1.618   2.150  0.1729 -0.4600  0.5536
    5CHTO  H139 1844   6.044   1.621   2.246  1.1710 -2.1293  0.1003
    5CHTO  H140 1845   5.920   1.539   2.153  2.0264 -2.2297  0.3883
    5CHTO   C76 1846   6.052   1.861   2.081 -0.2579 -0.3725 -0.1799
    5CHTO  H148 1847   6.121   1.815   2.010  1.1687 -1.6273  1.9659
    5CHTO   O49 1848   5.994   1.982   2.028 -0.5868 -0.2957 -0.5537
    5CHTO   C77 1849   5.908   1.966   1.914 -0.8080  0.6941 -0.0669
    5CHTO  H149 1850   5.970   1.931   1.831 -0.6240 -0.4009  0.5181
    5CHTO   C88 1851   5.854   2.103   1.871  0.1048  0.2657 -0.1883
    5CHTO   O58 1852   5.974   2.185   1.835 -0.1594  0.4235 -0.3568
    5CHTO  H136 1853   5.959   2.277   1.821  2.1329  0.6484 -1.4080
    5CHTO   O51 1854   6.129   1.875   2.234  0.1821 -0.3295  0.5958
    5CHTO   C78 1855   6.255   1.982   2.236 -0.1004 -0.4096  0.0100
    5CHTO  H150 1856   6.235   2.073   2.175 -1.4363 -0.4515  0.3724
    5CHTO   C80 1857   6.389   1.912   2.196  0.0320  0.7638  0.1719
    5CHTO  H152 1858   6.400   1.812   2.242  1.4214 -0.2098 -2.2586
    5CHTO   O55 1859   6.362   1.874   2.061  0.1232 -0.0652  0.2178
    5CHTO  H134 1860   6.432   1.821   2.028  0.0291 -0.1161  0.0963
    5CHTO   C84 1861   6.517   2.003   2.214  0.0665 -0.6471 -0.4664
    5CHTO  H156 1862   6.507   2.085   2.143  1.2562 -1.3828 -1.4890
    5CHTO   N15 1863   6.642   1.935   2.183 -0.4779  0.6917  0.1760
    5CHTO  H143 1864   6.649   1.854   2.252 -2.5047  0.2873 -0.0372
    5CHTO  H144 1865   6.725   2.002   2.194 -1.5226  2.4342 -2.0002
    5CHTO   C87 1866   6.509   2.047   2.362 -0.1902  0.5614 -0.1037
    5CHTO  H159 1867   6.534   1.959   2.421 -0.3803  0.7650  0.2827
    5CHTO   O53 1868   6.373   2.106   2.403 -0.2115 -0.6434 -0.3396
    5CHTO   C82 1869   6.259   2.017   2.394  0.3498  0.0472 -0.1150
    5CHTO  H154 1870   6.268   1.927   2.454 -0.8683  0.6923  1.0536
    5CHTO   C89 1871   6.128   2.088   2.441  0.0429 -0.0049  0.5798
    5CHTO   O59 1872   6.143   2.140   2.577  0.5750 -0.3609 -0.4750
    5CHTO  H137 1873   6.059   2.130   2.618  1.4736 -0.9040  1.2993
    5CHTO   O45 1874   6.625   2.164   2.386 -0.0142 -0.2305 -0.0212
    5CHTO   C67 1875   6.624   2.207   2.531 -0.1703  0.1711  0.0240
    5CHTO  H124 1876   6.521   2.216   2.564 -0.4348 -0.4072 -0.6326
    5CHTO   C65 1877   6.695   2.099   2.618 -0.3917 -0.8668  0.3864
    5CHTO  H122 1878   6.772   2.048   2.561  1.0641  1.0967  0.5433
    5CHTO   O44 1879   6.602   1.995   2.658 -0.4246 -0.4205  0.4727
    5CHTO  H102 1880   6.570   1.958   2.578  2.0767 -1.0365 -0.3013
    5CHTO   C63 1881   6.773   2.163   2.742 -0.3433  0.5693  0.0834
    5CHTO  H120 1882   6.870   2.195   2.705 -0.5332 -0.9859 -1.8533
    5CHTO   N11 1883   6.821   2.065   2.844 -0.0137  0.0225 -0.4287
    5CHTO  H108 1884   6.869   1.981   2.799  1.2239  1.0683 -1.1112
    5CHTO  H109 1885   6.741   2.040   2.910 -1.5128  1.5858 -1.6090
    5CHTO   C61 1886   6.707   2.295   2.796 -0.1064 -0.4659 -0.6534
    5CHTO  H118 1887   6.771   2.345   2.871  1.1004 -0.5709 -1.5875
    5CHTO   O40 1888   6.684   2.398   2.693  0.2998 -0.1964 -0.1275
    5CHTO   C68 1889   6.689   2.350   2.550 -0.1857 -0.3876 -0.4418
    5CHTO  H125 1890   6.796   2.329   2.530 -0.1775  0.6936 -1.5639
    5CHTO   C72 1891   6.638   2.459   2.448 -0.0085  0.4742 -0.1139
    5CHTO   O48 1892   6.683   2.594   2.475  0.1061  0.1409 -0.5284
    5CHTO  H105 1893   6.648   2.637   2.400 -1.8981 -2.8617 -1.4351
    5CHTO   O38 1894   6.573   2.270   2.839  0.6327 -0.1008 -0.9260
    5CHTO   C55 1895   6.491   2.358   2.919  0.4221  0.0223  0.3579
    5CHTO  H112 1896   6.418   2.412   2.856  0.3194 -0.9189 -0.3528
    5CHTO   C56 1897   6.569   2.461   3.020 -0.0749  0.7881 -0.3696
    5CHTO  H113 1898   6.637   2.398   3.080 -0.5370  1.9612  1.4389
    5CHTO   O42 1899   6.649   2.557   2.959 -0.2131  0.4289  0.3745
    5CHTO  H100 1900   6.723   2.510   2.925 -0.6029 -1.6299  2.3006
    5CHTO   C57 1901   6.470   2.533   3.121  0.0388  0.5738 -0.2872
    5CHTO  H114 1902   6.409   2.599   3.059 -0.2755 -1.3089 -2.0447
    5CHTO   N10 1903   6.535   2.606   3.232  0.5717 -0.0536 -0.1905
    5CHTO  H106 1904   6.621   2.556   3.272 -0.4444 -0.9844  0.8787
    5CHTO  H107 1905   6.566   2.701   3.191  1.0022 -0.0182  0.2237
    5CHTO   C58 1906   6.378   2.423   3.175 -0.1041 -0.2435 -0.0710
    5CHTO  H115 1907   6.444   2.358   3.236  1.9460 -0.3923 -2.3565
    5CHTO   O37 1908   6.312   2.353   3.069  0.4007 -0.6607  0.2226
    5CHTO   C59 1909   6.403   2.266   3.001  0.3580  0.1090  0.1438
    5CHTO  H116 1910   6.460   2.201   3.067 -0.9239 -0.6226  0.5516
    5CHTO   C70 1911   6.332   2.172   2.903 -0.4996 -0.3224  0.3169
    5CHTO   O46 1912   6.209   2.112   2.946  0.3302  0.2077  0.4067
    5CHTO  H103 1913   6.136   2.151   2.903  1.4737 -0.8984 -2.6955
    5CHTO   O39 1914   6.254   2.494   3.289  0.1676 -0.0006 -0.1015
    5CHTO   C60 1915   6.113   2.479   3.265  0.2123 -0.3964  0.2434
    5CHTO  H117 1916   6.081   2.511   3.166  0.6869  2.0018  0.8192
    5CHTO   C62 1917   6.070   2.335   3.273 -0.1667  0.1472  0.0819
    5CHTO  H119 1918   6.134   2.282   3.198  0.6834  0.0520  0.8677
    5CHTO   O43 1919   6.089   2.269   3.403  0.1661 -0.2114 -0.1373
    5CHTO  H101 1920   6.028   2.303   3.465  0.2484 -1.1596  0.4790
    5CHTO   C66 1921   5.915   2.316   3.227 -0.1283  0.3834  0.3109
    5CHTO  H123 1922   5.910   2.356   3.126  4.4793  2.6728  0.8497
    5CHTO   N12 1923   5.870   2.175   3.218 -0.7602  0.2747  0.1812
    5CHTO  H110 1924   5.772   2.157   3.260  0.2067 -1.9858  1.5413
    5CHTO  H111 1925   5.866   2.140   3.115 -0.8009 -2.3243  1.0260
    5CHTO   C69 1926   5.830   2.411   3.319  0.1504  0.4856 -0.3579
    5CHTO  H126 1927   5.844   2.358   3.416 -0.4048 -0.9360 -1.0487
    5CHTO   O41 1928   5.879   2.559   3.323 -0.6280 -1.3095 -0.1687
    5CHTO   C64 1929   6.028   2.564   3.369  0.0089  0.1721 -0.1437
    5CHTO  H121 1930   6.028   2.513   3.468 -0.1372 -0.0070 -0.2352
    5CHTO   C71 1931   6.070   2.711   3.384 -0.1296 -0.1736 -0.4440
    5CHTO   O47 1932   5.990   2.796   3.455  0.7724  0.2115 -0.0204
    5CHTO  H104 1933   6.008   2.885   3.432  1.3062  0.0497 -0.2421
    5CHTO   O34 1934   5.684   2.396   3.280 -0.0968 -0.4531 -0.6007
    5CHTO   C49 1935   5.559   2.461   3.269  0.7840 -0.7752  0.1196
    5CHTO   H91 1936   5.481   2.386   3.261  0.4614 -0.2851 -1.5389
    5CHTO   C47 1937   5.555   2.539   3.139  0.5439 -0.9549  0.0803
    5CHTO   H89 1938   5.537   2.463   3.059 -1.3210 -0.4939  0.0280
    5CHTO   O33 1939   5.669   2.600   3.103 -0.3543  0.0084  0.4068
    5CHTO   H70 1940   5.689   2.674   3.157 -1.2046 -0.0045  0.7444
    5CHTO   C45 1941   5.434   2.647   3.135  1.1522 -0.5927 -0.3578
    5CHTO   H87 1942   5.479   2.744   3.160 -1.4709 -0.1879  3.2630
    5CHTO    N8 1943   5.370   2.656   3.001 -0.2514 -0.6821 -0.2619
    5CHTO   H75 1944   5.366   2.760   2.970  0.1174  0.3307  2.8659
    5CHTO   H76 1945   5.272   2.611   2.996 -1.6908  1.9363  2.5664
    5CHTO   C43 1946   5.333   2.619   3.257  0.0180 -0.2850 -0.3420
    5CHTO   H85 1947   5.265   2.704   3.250  0.6689  0.1645 -1.2418
    5CHTO   O29 1948   5.390   2.608   3.387  0.0831  0.1491  0.5193
    5CHTO   C50 1949   5.524   2.548   3.394  0.0153  0.4674 -0.9260
    5CHTO   H92 1950   5.595   2.632   3.395  1.1627 -0.4285 -2.9318
    5CHTO   C54 1951   5.522   2.473   3.519 -0.7735 -0.0151  0.4798
    5CHTO   O36 1952   5.639   2.409   3.576 -0.3543  0.6692  0.5482
    5CHTO   H72 1953   5.653   2.336   3.518  1.1342 -0.0455  1.7508
    5CHTO   O27 1954   5.259   2.499   3.235 -0.0730  0.0676  0.3910
    5CHTO   C37 1955   5.124   2.493   3.278  0.3315  0.0272  0.1908
    5CHTO   H79 1956   5.103   2.567   3.356 -2.9413  2.7909 -3.0976
    5CHTO   C38 1957   5.030   2.533   3.160 -0.7537 -0.4011  0.3321
    5CHTO   H80 1958   5.062   2.482   3.068  0.2368 -0.9866  0.9843
    5CHTO   O31 1959   5.049   2.678   3.129  0.2715 -0.1009  0.4477
    5CHTO   H68 1960   5.002   2.718   3.058  2.2503 -0.5293 -1.1558
    5CHTO   C39 1961   4.881   2.509   3.195  0.5841 -0.4060  0.0366
    5CHTO   H81 1962   4.863   2.586   3.270  1.2366 -0.6776  0.4814
    5CHTO    N7 1963   4.788   2.535   3.077 -0.1642 -0.3140 -0.3945
    5CHTO   H73 1964   4.729   2.448   3.055 -0.8513 -0.0110  0.2400
    5CHTO   H74 1965   4.710   2.599   3.115  0.1571 -0.5302  0.6523
    5CHTO   C40 1966   4.854   2.364   3.255 -0.1407 -0.4055 -0.2174
    5CHTO   H82 1967   4.872   2.290   3.177  2.0908 -1.2390  1.0570
    5CHTO   O26 1968   4.942   2.353   3.375  0.0532 -0.1815  0.2061
    5CHTO   C41 1969   5.078   2.356   3.333  0.0626  0.1090  0.1310
    5CHTO   H83 1970   5.088   2.284   3.250  0.0592  0.2964 -0.0325
    5CHTO   C52 1971   5.167   2.298   3.444  0.0836  0.1453  0.6720
    5CHTO   O35 1972   5.105   2.160   3.495 -0.3502 -0.1543  0.0874
    5CHTO   H71 1973   5.170   2.094   3.479  2.1314  1.5605  2.6850
    5CHTO   O28 1974   4.724   2.346   3.315 -0.2476  0.3677  1.0446
    5CHTO   C42 1975   4.680   2.320   3.454 -0.3333  0.5244 -0.0960
    5CHTO   H84 1976   4.573   2.305   3.438  0.2285 -1.8340 -2.0172
    5CHTO   C44 1977   4.690   2.436   3.556  0.6913  0.4358  0.0187
    5CHTO   H86 1978   4.796   2.457   3.563  0.8263  0.1439 -1.0218
    5CHTO   O32 1979   4.624   2.545   3.491 -0.1910  0.2224 -0.3474
    5CHTO   H69 1980   4.611   2.613   3.555 -2.0067  0.4080 -0.8826
    5CHTO   C48 1981   4.634   2.397   3.703 -0.4779  0.0211  0.0315
    5CHTO   H90 1982   4.527   2.376   3.690 -0.1299 -2.1513  0.3667
    5CHTO    N9 1983   4.646   2.502   3.807  0.5708  0.4451  0.4029
    5CHTO   H77 1984   4.650   2.602   3.767  2.3031  0.5815  0.8739
    5CHTO   H78 1985   4.560   2.495   3.871  0.1145  1.7042 -0.0582
    5CHTO   C51 1986   4.721   2.269   3.752  0.0325 -0.3798  0.1159
    5CHTO   H93 1987   4.827   2.291   3.744 -0.1618  0.3324 -0.6847
    5CHTO   O30 1988   4.679   2.174   3.654  0.1563  0.0161 -0.2806
    5CHTO   C46 1989   4.735   2.192   3.519  0.0719  0.2082  0.3567
    5CHTO   H88 1990   4.843   2.182   3.517 -0.1352 -2.0478 -2.3349
    5CHTO   C53 1991   4.691   2.075   3.431  0.6518 -0.0195  0.0244
    5CHTO   O72 1992   4.710   1.943   3.498  0.1993  0.3055  0.1538
    5CHTO  H199 1993   4.633   1.908   3.539 -0.6967  0.1005 -1.6621
    5CHTO   O22 1994   4.698   2.217   3.887  0.1974 -0.9441 -0.2426
    5CHTO   C31 1995   4.796   2.143   3.971  0.0560 -0.0167  0.0581
    5CHTO   H59 1996   4.741   2.113   4.063  0.8232  1.4395  1.0160
    5CHTO   C29 1997   4.852   2.009   3.898  0.4868  0.3131 -0.1679
    5CHTO   H57 1998   4.887   2.036   3.797  2.1070 -0.4040  0.1926
    5CHTO   O21 1999   4.742   1.919   3.880 -0.0634 -0.1054 -0.0881
    5CHTO   H37 2000   4.750   1.842   3.933  1.1708 -0.1685 -0.3444
    5CHTO   C27 2001   4.977   1.948   3.976  0.6719  0.7197 -0.6161
    5CHTO   H55 2002   4.942   1.907   4.073  2.5001 -0.3104 -0.3642
    5CHTO    N5 2003   5.035   1.836   3.901  0.1648  0.3674  0.1836
    5CHTO   H43 2004   4.958   1.764   3.877  0.7480 -0.0154 -0.5628
    5CHTO   H44 2005   5.110   1.787   3.963 -1.0893  0.8407  2.1308
    5CHTO   C25 2006   5.080   2.066   3.989 -0.4752 -0.1398 -0.5844
    5CHTO   H53 2007   5.098   2.104   3.887 -0.1306 -3.5947 -1.8936
    5CHTO   O17 2008   5.029   2.176   4.070  0.4075 -0.2929  0.2156
    5CHTO   C32 2009   4.906   2.234   4.021  0.1206 -0.1613 -0.0180
    5CHTO   H60 2010   4.930   2.301   3.940 -0.5935  1.7222  1.3016
    5CHTO   C36 2011   4.857   2.339   4.134 -0.0743  0.3115 -0.3062
    5CHTO   O25 2012   4.814   2.267   4.258  0.0054  0.1752 -0.0834
    5CHTO   H40 2013   4.756   2.313   4.316  0.0060  0.7038 -0.5072
    5CHTO   O15 2014   5.210   2.017   4.066  0.2234  1.0457 -0.0779
    5CHTO   C19 2015   5.324   2.097   4.104 -0.1114 -0.2148 -0.6159
    5CHTO   H47 2016   5.279   2.195   4.126  3.2370  0.9462  1.3336
    5CHTO   C20 2017   5.398   2.044   4.232 -0.2246 -0.0059 -0.1389
    5CHTO   H48 2018   5.421   1.937   4.225 -0.5619 -0.0775 -0.1344
    5CHTO   O19 2019   5.293   2.049   4.334  0.5436 -0.1346 -0.0592
    5CHTO   H35 2020   5.273   2.139   4.352  0.0917 -0.5612  1.7133
    5CHTO   C21 2021   5.526   2.125   4.268  0.2825  1.0833 -0.0299
    5CHTO   H49 2022   5.489   2.223   4.298  0.0917  0.9114  0.2933
    5CHTO    N4 2023   5.591   2.067   4.382 -0.3791  0.1496 -0.0926
    5CHTO   H41 2024   5.674   2.133   4.406 -1.7331  1.0857  2.1365
    5CHTO   H42 2025   5.627   1.970   4.352 -1.4383 -0.6588  1.1968
    5CHTO   C22 2026   5.614   2.144   4.139 -0.4125 -0.8510 -0.3342
    5CHTO   H50 2027   5.637   2.043   4.107 -0.6514 -1.3130  0.9180
    5CHTO   O14 2028   5.536   2.205   4.034  0.6200  0.1877 -0.2837
    5CHTO   C23 2029   5.424   2.121   3.986  0.2394  0.4747 -0.1552
    5CHTO   H51 2030   5.470   2.026   3.955  2.7363  1.7203 -0.3696
    5CHTO   C34 2031   5.382   2.195   3.858  0.1189  0.0711 -0.0433
    5CHTO   O23 2032   5.307   2.309   3.889  0.0440  0.3086 -0.3889
    5CHTO   H38 2033   5.251   2.295   3.963 -2.0099  3.1441 -1.2866
    5CHTO   O16 2034   5.731   2.226   4.159  1.1358  0.1919  0.5082
    5CHTO   C24 2035   5.832   2.199   4.035  0.5319 -0.4384 -0.5819
    5CHTO   H52 2036   5.785   2.150   3.950 -0.5081  1.7647 -1.3160
    5CHTO   C26 2037   5.946   2.116   4.098  0.3018  0.8200  0.1327
    5CHTO   H54 2038   5.963   2.149   4.203  0.3765 -0.2265  0.4588
    5CHTO   O20 2039   5.908   1.983   4.107 -0.0922 -0.3795  0.2192
    5CHTO   H36 2040   5.875   1.967   4.193  1.9937  1.9524  1.5092
    5CHTO   C30 2041   6.086   2.145   4.028  0.1559 -0.2843  0.6418
    5CHTO   H58 2042   6.079   2.096   3.930  2.9913 -2.3101  1.3647
    5CHTO    N6 2043   6.197   2.079   4.098 -0.2911  0.3721 -0.3947
    5CHTO   H45 2044   6.293   2.087   4.050  0.6691 -1.3127  1.2051
    5CHTO   H46 2045   6.183   1.975   4.123  0.3376  0.3206 -0.2604
    5CHTO   C33 2046   6.107   2.292   3.989  0.9408 -0.0040 -0.9988
    5CHTO   H61 2047   6.113   2.348   4.083 -0.4460 -0.5172 -0.5897
    5CHTO   O18 2048   5.996   2.339   3.914 -0.3523 -0.0165  0.6322
    5CHTO   C28 2049   5.874   2.340   3.985  0.4021 -0.5345  0.2941
    5CHTO   H56 2050   5.895   2.405   4.071  1.6087  0.0501 -0.4268
    5CHTO   C35 2051   5.749   2.396   3.900  0.0139  0.3848 -0.4217
    5CHTO   O24 2052   5.794   2.522   3.853 -0.5640  0.0639 -0.3624
    5CHTO   H39 2053   5.871   2.511   3.801 -0.0838  2.3315 -0.1900
    5CHTO    O9 2054   6.229   2.323   3.920  0.1369  0.6898  0.3864
    5CHTO   C13 2055   6.237   2.269   3.767  0.4828 -0.3787 -0.5101
    5CHTO   H26 2056   6.138   2.229   3.737 -0.1486  3.2178 -3.5597
    5CHTO   C11 2057   6.352   2.162   3.756  0.1993  0.1174 -0.1628
    5CHTO   H24 2058   6.328   2.068   3.808 -0.0360 -0.3144 -1.0393
    5CHTO    O8 2059   6.478   2.193   3.822 -0.3879 -0.1939 -0.2886
    5CHTO    H3 2060   6.504   2.279   3.796  1.2256 -0.6388 -0.2384
    5CHTO    C9 2061   6.383   2.152   3.602 -0.0168 -0.1146  0.0404
    5CHTO   H22 2062   6.288   2.134   3.550  0.7994 -2.6304 -0.6556
    5CHTO    N2 2063   6.461   2.034   3.553  0.0889  0.3191  0.4672
    5CHTO   H10 2064   6.562   2.034   3.590  0.0307  0.1370  0.6257
    5CHTO   H11 2065   6.412   1.947   3.594 -1.4590  1.8414  1.9272
    5CHTO    C7 2066   6.448   2.281   3.546 -0.7412  1.5757  0.5831
    5CHTO   H20 2067   6.421   2.270   3.439 -0.7643  0.1049  0.7234
    5CHTO    O4 2068   6.379   2.398   3.593  0.4526 -0.7970 -0.0831
    5CHTO   C14 2069   6.257   2.391   3.666 -0.4943  0.2030  0.3308
    5CHTO   H27 2070   6.178   2.383   3.588 -0.0504 -0.4474 -0.0519
    5CHTO   C18 2071   6.237   2.530   3.729  0.8302  0.2725 -0.3185
    5CHTO   O13 2072   6.336   2.563   3.825 -0.4438  0.3138 -0.3816
    5CHTO    H7 2073   6.318   2.651   3.855  1.1395  0.4759  0.1533
    5CHTO    O2 2074   6.599   2.291   3.575 -1.0704  0.6028  0.7654
    5CHTO    C1 2075   6.688   2.357   3.487 -0.6515 -0.4929  0.2133
    5CHTO   H14 2076   6.629   2.435   3.435  0.4015  0.1888  0.0272
    5CHTO    C2 2077   6.753   2.265   3.364  0.2403 -0.0963 -0.8858
    5CHTO   H15 2078   6.791   2.171   3.408  2.7712  0.3403 -2.0537
    5CHTO    O6 2079   6.646   2.225   3.272 -0.4414 -0.7614  0.0713
    5CHTO    H1 2080   6.594   2.298   3.243 -0.6860 -0.7309  0.5862
    5CHTO    C3 2081   6.872   2.339   3.288  0.6863 -0.4062 -0.5262
    5CHTO   H16 2082   6.838   2.425   3.228  2.3663  1.3893  1.0310
    5CHTO    N1 2083   6.947   2.244   3.193  0.8953 -0.1626  0.0985
    5CHTO    H8 2084   6.940   2.289   3.095 -1.3332 -0.1797  0.2248
    5CHTO    H9 2085   7.048   2.225   3.225  0.6392 -0.3666  0.7813
    5CHTO    C4 2086   6.972   2.401   3.395 -0.2103 -0.2093  0.3104
    5CHTO   H17 2087   7.006   2.319   3.459 -0.8008 -0.2556  0.5637
    5CHTO    O1 2088   6.893   2.490   3.474  0.6555 -0.2397 -0.0624
    5CHTO    C5 2089   6.807   2.426   3.569 -0.5952  0.0353  0.2252
    5CHTO   H18 2090   6.858   2.351   3.630  0.8912  0.8049 -0.0578
    5CHTO   C16 2091   6.761   2.541   3.660  0.6890 -0.7244  0.1001
    5CHTO   O11 2092   6.707   2.487   3.778  0.8309  0.0441 -0.0306
    5CHTO    H5 2093   6.628   2.441   3.759  0.0311  1.4975 -0.2562
    5CHTO    O3 2094   7.084   2.469   3.342  0.0246  0.8507 -0.0461
    5CHTO    C6 2095   7.202   2.471   3.428 -0.0668 -0.2077 -0.2412
    5CHTO   H19 2096   7.199   2.413   3.520  0.9718 -0.3257 -0.2724
    5CHTO    C8 2097   7.322   2.410   3.352  0.1247  0.4297 -0.4688
    5CHTO   H21 2098   7.335   2.470   3.261 -0.3430  0.9977 -0.1627
    5CHTO    O7 2099   7.280   2.278   3.304  0.2073  0.0875 -0.5345
    5CHTO    H2 2100   7.272   2.283   3.211  1.3699 -2.6065 -0.8432
    5CHTO   C12 2101   7.460   2.415   3.434  0.0140  0.0836  0.0889
    5CHTO   H25 2102   7.460   2.349   3.522 -1.4236  1.2507  0.9926
    5CHTO    N3 2103   7.577   2.355   3.354 -0.0306  0.3834 -0.5078
    5CHTO   H12 2104   7.617   2.432   3.290  2.3144  0.1167  0.5773
    5CHTO   H13 2105   7.550   2.271   3.292 -2.2618 -0.1102  1.0770
    5CHTO   C15 2106   7.483   2.566   3.476 -0.8123 -0.1654 -0.4357
    5CHTO   H28 2107   7.513   2.631   3.394  0.7597  1.6697  1.5408
    5CHTO   O10 2108   7.588   2.578   3.607  0.3733 -0.1770 -0.5577
    5CHTO    H4 2109   7.645   2.650   3.588  0.7101 -0.4316 -0.5299
    5CHTO    O5 2110   7.363   2.622   3.539  0.2119  0.3130  0.6163
    5CHTO   C10 2111   7.237   2.615   3.469  0.0829  0.6223  0.1591
    5CHTO   H23 2112   7.245   2.675   3.378 -0.9731 -1.3934 -1.3316
    5CHTO   C17 2113   7.125   2.677   3.559 -0.1969  1.3037 -0.1922
    5CHTO   O12 2114   7.125   2.613   3.687 -0.3290 -0.4868  0.2643
    5CHTO    H6 2115   7.170   2.665   3.750  0.7516 -1.1769  0.0792
    6CHTO  H203 2116   6.749   3.627   0.911 -1.0017  3.1471 -0.3843
    6CHTO   O82 2117   6.668   3.587   0.887  0.2369 -0.0187  0.4744
    6CHTO  C123 2118   6.561   3.682   0.868  0.1981  0.0427  0.0080
    6CHTO  H227 2119   6.586   3.746   0.782 -1.0415 -2.4900 -2.3310
    6CHTO   O77 2120   6.448   3.605   0.827 -0.4691  0.5478  0.0350
    6CHTO  C118 2121   6.334   3.678   0.780 -0.2340 -0.2214 -0.0706
    6CHTO  H222 2122   6.378   3.720   0.689 -0.3142  0.2078  0.0890
    6CHTO  C125 2123   6.219   3.575   0.739 -0.9319 -0.0660 -0.6205
    6CHTO   O84 2124   6.099   3.641   0.710  0.1668  0.5555 -0.8130
    6CHTO  H205 2125   6.034   3.581   0.678 -1.1440  1.2609  0.4675
    6CHTO  C114 2126   6.288   3.775   0.893  0.2449  0.4903 -0.1608
    6CHTO  H218 2127   6.236   3.714   0.967  1.9972 -0.8651 -0.0076
    6CHTO  C116 2128   6.402   3.853   0.965 -0.3908 -0.4838 -0.5060
    6CHTO  H220 2129   6.420   3.944   0.904 -0.6787 -0.0927 -0.0091
    6CHTO   O79 2130   6.359   3.897   1.098 -0.9584 -0.1768 -0.3964
    6CHTO  H201 2131   6.273   3.933   1.100 -0.6693  0.7045 -2.8034
    6CHTO  C120 2132   6.531   3.769   1.000  0.2009 -0.0314  0.2328
    6CHTO  H224 2133   6.498   3.701   1.081 -1.4559  0.3819 -0.0592
    6CHTO   N21 2134   6.648   3.851   1.040  0.1336 -0.2761  0.0508
    6CHTO  H211 2135   6.615   3.925   1.111 -0.3004  0.3074 -0.7558
    6CHTO  H212 2136   6.683   3.908   0.956 -0.3465 -2.9211 -2.0050
    6CHTO   O75 2137   6.199   3.863   0.818  0.0923 -0.0909 -0.1348
    6CHTO  C112 2138   6.071   3.906   0.924 -0.1724  0.7144 -0.8222
    6CHTO  H216 2139   6.108   3.936   1.023 -0.7310 -1.0987 -0.0619
    6CHTO   O73 2140   5.987   3.791   0.932 -0.1232 -0.3122 -0.2336
    6CHTO  C113 2141   5.870   3.806   1.005 -0.5821  0.1032  0.2321
    6CHTO  H217 2142   5.896   3.837   1.109 -0.7337 -0.2702  0.3827
    6CHTO  C124 2143   5.805   3.668   1.022 -0.7242 -0.5271  0.1667
    6CHTO   O83 2144   5.724   3.640   1.134  0.6877  0.4555 -0.5455
    6CHTO  H204 2145   5.638   3.677   1.133 -0.1571 -1.4031 -0.3764
    6CHTO  C109 2146   5.775   3.911   0.937 -0.5213 -0.2945  0.1467
    6CHTO  H213 2147   5.748   3.871   0.838 -2.1502  0.8297  0.1293
    6CHTO  C110 2148   5.855   4.043   0.925 -0.1998 -0.1250 -0.3797
    6CHTO  H214 2149   5.869   4.081   1.026 -0.2219  1.1108 -0.8200
    6CHTO   O78 2150   5.769   4.134   0.857  0.0083 -0.7486  0.0241
    6CHTO  H200 2151   5.814   4.215   0.844 -0.0473 -0.5561  0.9863
    6CHTO  C111 2152   5.995   4.029   0.862  0.3620  0.2653  0.5871
    6CHTO  H215 2153   5.986   3.994   0.758 -2.0427  0.3433  0.7396
    6CHTO   N19 2154   6.087   4.141   0.862  0.2575  0.9274  0.1946
    6CHTO  H207 2155   6.181   4.100   0.829 -0.0052  0.1581  0.3956
    6CHTO  H208 2156   6.112   4.189   0.955  1.5301  1.2162 -0.2868
    6CHTO   O74 2157   5.654   3.934   1.013 -0.0650  0.0416  0.2296
    6CHTO  C115 2158   5.656   3.981   1.174 -0.3829  0.5300  0.2518
    6CHTO  H219 2159   5.732   3.929   1.232  0.1728  1.1966  0.1280
    6CHTO   O76 2160   5.694   4.133   1.187  0.1137  0.3274  0.2278
    6CHTO  C122 2161   5.592   4.234   1.187 -0.1386  0.4368 -0.1350
    6CHTO  H226 2162   5.561   4.232   1.083 -1.1698  2.2424  0.1213
    6CHTO  C126 2163   5.664   4.375   1.208 -0.6058 -0.1120  0.2348
    6CHTO   O85 2164   5.590   4.479   1.138 -0.2829 -0.4727  0.4326
    6CHTO  H206 2165   5.517   4.506   1.191 -2.9086 -3.5487 -1.4204
    6CHTO  C121 2166   5.477   4.200   1.289 -0.1896  0.4033 -0.3347
    6CHTO  H225 2167   5.472   4.280   1.366 -1.6814 -0.3450  0.3807
    6CHTO   O81 2168   5.350   4.194   1.225  0.2914 -0.0318 -0.2536
    6CHTO  H202 2169   5.331   4.266   1.169  0.2338  1.1266  1.2370
    6CHTO  C119 2170   5.489   4.057   1.357 -0.0437 -0.0573  0.2798
    6CHTO  H223 2171   5.578   4.056   1.420  0.6220 -0.6818 -0.6574
    6CHTO  C117 2172   5.509   3.952   1.238  0.8289  0.0727 -0.2615
    6CHTO  H221 2173   5.430   3.958   1.163 -1.7919  0.8816  2.4809
    6CHTO   N20 2174   5.508   3.807   1.279 -0.1741  0.2568  0.3385
    6CHTO  H209 2175   5.601   3.786   1.331 -0.5015  0.1460  0.8857
    6CHTO  H210 2176   5.487   3.737   1.200  0.6624 -0.0749  0.3927
    6CHTO   O80 2177   5.365   4.032   1.470 -0.9075 -0.2734  0.1163
    6CHTO  C103 2178   5.380   4.059   1.603  0.6924  0.2839 -0.4069
    6CHTO  H190 2179   5.479   4.037   1.641 -0.0797 -1.0287  0.9235
    6CHTO  C101 2180   5.342   4.204   1.650  0.0922  0.3214  0.0384
    6CHTO  H188 2181   5.243   4.227   1.611  0.1002 -1.6639 -1.1911
    6CHTO   O68 2182   5.441   4.304   1.601 -0.2779 -0.2682 -0.6797
    6CHTO  H168 2183   5.391   4.366   1.553  0.2963  1.7231  1.2183
    6CHTO   C99 2184   5.327   4.208   1.813 -0.1715 -0.5249  0.0125
    6CHTO  H186 2185   5.424   4.177   1.855 -0.0675  0.0413  0.2027
    6CHTO   N17 2186   5.301   4.351   1.869 -0.1445  0.0542  0.3666
    6CHTO  H174 2187   5.383   4.380   1.933 -0.3432 -1.4431  1.3317
    6CHTO  H175 2188   5.209   4.369   1.923  1.0332 -1.9798  3.1891
    6CHTO   C97 2189   5.226   4.095   1.850  0.8326 -0.5823 -0.0892
    6CHTO  H184 2190   5.130   4.120   1.803  1.8936  0.8842 -1.5733
    6CHTO   O64 2191   5.271   3.972   1.811  0.2086  1.0511  0.4417
    6CHTO  C104 2192   5.279   3.956   1.667 -0.0372 -0.8383  0.3891
    6CHTO  H191 2193   5.185   3.974   1.615  1.4127  0.9358 -1.6969
    6CHTO  C108 2194   5.322   3.810   1.637 -0.1669  0.0161 -0.4488
    6CHTO   O71 2195   5.224   3.701   1.632 -0.2418  0.3657 -0.0523
    6CHTO  H171 2196   5.232   3.657   1.550 -0.4151  0.6230 -0.2080
    6CHTO   O62 2197   5.214   4.083   1.996  0.1294  0.5175  0.3266
    6CHTO   C91 2198   5.081   4.064   2.045  0.5336  0.3895  0.4671
    6CHTO  H178 2199   5.036   4.163   2.046 -3.4718 -1.3388  1.1321
    6CHTO   C92 2200   5.088   4.030   2.201 -0.4425 -0.1158 -0.0627
    6CHTO  H179 2201   5.151   4.105   2.251 -1.5826  1.4002 -0.8413
    6CHTO   O66 2202   4.960   4.049   2.264  0.3356 -0.0389 -0.6237
    6CHTO  H166 2203   4.884   4.042   2.210 -0.1772  1.2349 -0.0954
    6CHTO   C93 2204   5.141   3.884   2.229 -0.2472 -0.7544 -0.0595
    6CHTO  H180 2205   5.076   3.846   2.309 -2.2557  1.5843 -0.5279
    6CHTO   N16 2206   5.276   3.872   2.286  0.1429 -0.2462 -0.5949
    6CHTO  H172 2207   5.287   3.951   2.358 -1.2308 -1.9228  1.4957
    6CHTO  H173 2208   5.354   3.882   2.211 -0.4997 -0.2624 -1.2721
    6CHTO   C94 2209   5.117   3.791   2.104 -0.0196  0.1810  0.4688
    6CHTO  H181 2210   5.193   3.808   2.027 -0.0995 -0.0143  0.3456
    6CHTO   O61 2211   4.995   3.835   2.048 -0.0260 -0.0336 -0.1571
    6CHTO   C95 2212   4.993   3.954   1.976 -0.1076  0.0334 -0.4150
    6CHTO  H182 2213   5.038   3.930   1.880  1.9682  0.9344  0.3120
    6CHTO  C106 2214   4.846   3.998   1.944 -0.3255  0.5674  0.4275
    6CHTO   O69 2215   4.852   4.118   1.859 -0.3202  0.2111 -0.2446
    6CHTO  H169 2216   4.767   4.152   1.835 -0.5192 -1.0402 -1.3164
    6CHTO   O63 2217   5.107   3.637   2.143 -0.8594 -0.2279  0.6395
    6CHTO   C96 2218   5.175   3.531   2.027  0.5039 -0.5456 -0.7213
    6CHTO  H183 2219   5.261   3.582   1.982 -1.1252  1.4034 -1.6999
    6CHTO   C98 2220   5.075   3.507   1.921  0.3342  0.5477  0.0299
    6CHTO  H185 2221   4.986   3.466   1.970  0.2624  2.4033  1.5374
    6CHTO   O67 2222   5.038   3.641   1.875  0.6560 -0.1103 -0.5628
    6CHTO  H167 2223   4.945   3.637   1.866  0.1045 -0.3757  4.1428
    6CHTO  C102 2224   5.127   3.401   1.810  0.0160 -0.2877  0.3034
    6CHTO  H189 2225   5.224   3.439   1.772  1.4774 -4.0320  0.0205
    6CHTO   N18 2226   5.039   3.379   1.689  0.5610  0.2869 -0.3926
    6CHTO  H176 2227   4.988   3.463   1.643 -3.0009 -1.6111 -0.1047
    6CHTO  H177 2228   5.086   3.321   1.611  1.9644 -1.3022  1.5819
    6CHTO  C105 2229   5.167   3.268   1.879 -0.4475 -0.0107 -0.4417
    6CHTO  H192 2230   5.104   3.186   1.843  1.1980 -1.4172 -0.1526
    6CHTO   O65 2231   5.154   3.274   2.026 -0.3589  0.2148  0.2654
    6CHTO  C100 2232   5.206   3.394   2.096  0.6567 -0.1042  0.2571
    6CHTO  H187 2233   5.159   3.397   2.195 -0.0488  0.4671 -0.0828
    6CHTO  C107 2234   5.354   3.390   2.127 -0.7268  0.1052  0.7193
    6CHTO   O70 2235   5.399   3.284   2.209  0.0632  0.1543  0.0023
    6CHTO  H170 2236   5.429   3.218   2.150  0.6417  0.3523  0.0788
    6CHTO   O57 2237   5.313   3.233   1.835 -0.4886  0.3240 -0.5180
    6CHTO   C85 2238   5.347   3.111   1.762  0.1207 -0.2176 -0.2366
    6CHTO  H157 2239   5.253   3.066   1.724 -0.2510 -1.8966  2.5316
    6CHTO   C83 2240   5.398   3.005   1.867  0.4598 -0.4300 -0.1550
    6CHTO  H155 2241   5.312   2.974   1.927 -0.1961 -1.2981 -1.5118
    6CHTO   O56 2242   5.491   3.064   1.952  0.0935  0.2104  0.5325
    6CHTO  H135 2243   5.574   3.069   1.908  1.2647 -0.0763  2.6270
    6CHTO   C81 2244   5.450   2.875   1.795  0.3375 -0.3306 -0.2468
    6CHTO  H153 2245   5.376   2.834   1.726 -2.1641  3.5874 -0.0482
    6CHTO   N14 2246   5.489   2.759   1.878  0.1109 -0.8881 -0.3428
    6CHTO  H141 2247   5.552   2.688   1.830  2.1980 -1.6531  3.3105
    6CHTO  H142 2248   5.396   2.712   1.903  0.3433 -0.7646  0.8110
    6CHTO   C79 2249   5.573   2.912   1.701 -0.4377 -0.2571  0.1103
    6CHTO  H151 2250   5.604   2.822   1.648 -3.0810 -1.5883  0.7333
    6CHTO   O52 2251   5.523   3.008   1.605 -0.9835 -0.6214  0.1926
    6CHTO   C86 2252   5.456   3.129   1.644 -0.6806  0.0502 -0.2240
    6CHTO  H158 2253   5.533   3.195   1.689  1.2554 -2.2002 -0.1408
    6CHTO   C90 2254   5.407   3.204   1.518 -0.1584 -0.1384  0.7224
    6CHTO   O60 2255   5.372   3.336   1.560 -0.1781  0.3697  0.7151
    6CHTO  H138 2256   5.431   3.395   1.517  1.0597 -3.2413 -2.8997
    6CHTO   O50 2257   5.691   2.961   1.769  0.9482  0.1559 -0.2411
    6CHTO   C73 2258   5.831   3.003   1.793  0.0074 -0.2255  0.3202
    6CHTO  H145 2259   5.901   2.919   1.793  0.7919  0.4214  0.4303
    6CHTO   C74 2260   5.849   3.079   1.928  0.3694 -0.5515 -0.7106
    6CHTO  H146 2261   5.816   3.020   2.015 -0.3451  0.3834 -0.3299
    6CHTO   O54 2262   5.994   3.107   1.946 -0.2769 -0.0427  0.7234
    6CHTO  H133 2263   6.006   3.172   1.881  0.3958  1.4155  2.2839
    6CHTO   C75 2264   5.769   3.219   1.920  0.8838  0.6370 -0.3819
    6CHTO  H147 2265   5.664   3.186   1.913  0.5631  1.1026  1.8152
    6CHTO   N13 2266   5.780   3.304   2.037  0.2363 -0.0040  0.7682
    6CHTO  H139 2267   5.836   3.266   2.121  0.4507  1.4623  1.3059
    6CHTO  H140 2268   5.686   3.349   2.064  0.5370  1.1202 -0.0143
    6CHTO   C76 2269   5.797   3.308   1.792 -0.0395 -0.0867  0.6846
    6CHTO  H148 2270   5.894   3.356   1.796 -2.0000  4.0447  1.8611
    6CHTO   O49 2271   5.794   3.225   1.667  0.0507  0.8038 -0.0988
    6CHTO   C77 2272   5.872   3.105   1.676 -0.4805  0.0098  0.6376
    6CHTO  H149 2273   5.977   3.132   1.688 -0.0687 -1.6685  0.8532
    6CHTO   C88 2274   5.861   3.032   1.542 -0.0598  0.2155 -0.2576
    6CHTO   O58 2275   5.903   3.127   1.416  0.1637 -0.1336 -0.1041
    6CHTO  H136 2276   5.841   3.119   1.347  1.6990  0.2608 -1.5762
    6CHTO   O51 2277   5.676   3.418   1.763 -0.0506 -0.3087  0.3830
    6CHTO   C78 2278   5.735   3.580   1.736  0.2359  0.3802 -0.3495
    6CHTO  H150 2279   5.840   3.585   1.773 -0.4087  0.1418  1.5422
    6CHTO   C80 2280   5.648   3.681   1.819 -0.1913  0.5600 -1.0796
    6CHTO  H152 2281   5.546   3.680   1.776 -0.3761 -1.3963 -0.6600
    6CHTO   O55 2282   5.644   3.632   1.956 -0.2901 -0.7006  0.1926
    6CHTO  H134 2283   5.731   3.646   1.989 -0.6476 -0.8731  1.2334
    6CHTO   C84 2284   5.712   3.830   1.802 -0.4365 -0.1981  0.2249
    6CHTO  H156 2285   5.815   3.825   1.835 -0.4568 -2.2048  0.0803
    6CHTO   N15 2286   5.644   3.936   1.881  0.3310  0.1085 -0.4083
    6CHTO  H143 2287   5.620   3.909   1.981 -0.0858 -1.1655 -0.8506
    6CHTO  H144 2288   5.701   4.027   1.883 -1.7157  1.3713  2.3329
    6CHTO   C87 2289   5.717   3.863   1.653 -0.2924 -0.5781 -0.2499
    6CHTO  H159 2290   5.617   3.876   1.612  0.0330 -2.0125 -1.5535
    6CHTO   O53 2291   5.795   3.738   1.573  0.3896 -0.1396 -0.0047
    6CHTO   C82 2292   5.727   3.612   1.587  0.1772 -0.0710  0.4294
    6CHTO  H154 2293   5.624   3.627   1.555  0.8316  0.8563 -1.3334
    6CHTO   C89 2294   5.792   3.506   1.494  0.2039 -0.1321 -0.2553
    6CHTO   O59 2295   5.708   3.390   1.464 -0.0685 -0.3885  0.1826
    6CHTO  H137 2296   5.618   3.395   1.489  0.4463  2.3421  1.6580
    6CHTO   O45 2297   5.786   3.999   1.629  0.1263 -0.3442  0.3076
    6CHTO   C67 2298   5.920   4.016   1.578 -0.1175 -0.1910 -0.0741
    6CHTO  H124 2299   5.982   3.933   1.612  1.7162  0.7879 -0.8905
    6CHTO   C65 2300   5.927   4.030   1.421 -0.5342  0.6662 -0.3662
    6CHTO  H122 2301   5.826   4.064   1.398 -1.1241 -1.3559 -0.8481
    6CHTO   O44 2302   5.956   3.900   1.359 -0.1429  0.4224  0.1053
    6CHTO  H102 2303   5.896   3.836   1.392 -0.6472  0.7057 -0.2544
    6CHTO   C63 2304   6.004   4.154   1.372 -0.4111 -0.4664  0.5299
    6CHTO  H120 2305   5.945   4.242   1.397  0.1906  0.0622  0.1001
    6CHTO   N11 2306   6.018   4.169   1.223 -0.0403 -0.4725  0.0598
    6CHTO  H108 2307   5.921   4.184   1.182 -0.5640 -1.4149  0.9281
    6CHTO  H109 2308   6.090   4.240   1.188  0.1252 -2.1681 -3.3306
    6CHTO   C61 2309   6.140   4.175   1.450  0.4334  0.8348 -0.0182
    6CHTO  H118 2310   6.179   4.274   1.422 -0.9503  1.3122 -0.3340
    6CHTO   O40 2311   6.127   4.174   1.602  0.2298  0.1914  0.2765
    6CHTO   C68 2312   5.993   4.146   1.644 -0.1736 -0.1469  0.0311
    6CHTO  H125 2313   5.929   4.235   1.625  1.5044  1.8094  3.1101
    6CHTO   C72 2314   5.998   4.126   1.798 -0.5288 -0.1691  0.9349
    6CHTO   O48 2315   6.052   4.238   1.876 -0.6473 -0.5740  0.1112
    6CHTO  H105 2316   6.013   4.320   1.852 -1.0092 -0.3170  1.5504
    6CHTO   O38 2317   6.226   4.069   1.407  0.3127 -0.0577  0.0830
    6CHTO   C55 2318   6.361   4.063   1.459 -0.0582 -0.0384  0.2512
    6CHTO  H112 2319   6.371   4.116   1.554 -0.2474  0.9231 -0.2532
    6CHTO   C56 2320   6.461   4.111   1.358  0.5424  0.4023  0.1671
    6CHTO  H113 2321   6.442   4.038   1.277 -0.6617  1.0385 -0.1428
    6CHTO   O42 2322   6.436   4.247   1.317 -0.5350  0.3617 -0.7239
    6CHTO  H100 2323   6.517   4.288   1.295 -0.8017  2.7260  2.4068
    6CHTO   C57 2324   6.609   4.102   1.409 -0.3938 -0.5371 -0.0676
    6CHTO  H114 2325   6.609   4.171   1.493 -1.2806  0.6344 -1.0151
    6CHTO   N10 2326   6.715   4.150   1.314  0.0632  0.3792 -0.2849
    6CHTO  H106 2327   6.806   4.094   1.329 -0.7005 -0.3885  1.5228
    6CHTO  H107 2328   6.734   4.252   1.343  0.3654 -1.0671  5.0452
    6CHTO   C58 2329   6.640   3.959   1.463 -0.3827 -0.0012 -0.1109
    6CHTO  H115 2330   6.657   3.889   1.379  1.2970  2.0866 -1.5536
    6CHTO   O37 2331   6.534   3.912   1.543  0.3460  0.2611  0.1918
    6CHTO   C59 2332   6.407   3.914   1.488  0.5007  0.1108 -0.5058
    6CHTO  H116 2333   6.397   3.852   1.399 -0.4766 -0.2928 -0.1275
    6CHTO   C70 2334   6.307   3.851   1.587  0.1366  0.6687  0.1743
    6CHTO   O46 2335   6.330   3.711   1.598  0.0017  0.6119 -0.3710
    6CHTO  H103 2336   6.268   3.663   1.545 -1.6122 -2.7641  4.2684
    6CHTO   O39 2337   6.777   3.969   1.554  0.0759  0.4131  0.2591
    6CHTO   C60 2338   6.841   3.843   1.566 -0.0239 -1.1176 -0.8371
    6CHTO  H117 2339   6.769   3.765   1.591 -1.3091  0.8017  1.7420
    6CHTO   C62 2340   6.915   3.811   1.436  0.2521 -0.4862 -0.2304
    6CHTO  H119 2341   6.841   3.812   1.354  0.0456  2.9804 -0.0820
    6CHTO   O43 2342   6.998   3.913   1.382  0.3970  0.0020 -0.0054
    6CHTO  H101 2343   6.963   4.000   1.394 -0.4131 -0.4550  1.0693
    6CHTO   C66 2344   6.974   3.668   1.446  0.1833 -0.0572 -0.0942
    6CHTO  H123 2345   6.900   3.598   1.484 -0.3269  0.2609 -0.4835
    6CHTO   N12 2346   7.021   3.616   1.316  0.2041  0.1796  0.0181
    6CHTO  H110 2347   7.040   3.511   1.332 -2.6873 -0.2621  0.9394
    6CHTO  H111 2348   7.104   3.676   1.282  0.3556 -0.2341 -0.3321
    6CHTO   C69 2349   7.094   3.666   1.552 -0.1993 -0.2338 -0.1464
    6CHTO  H126 2350   7.159   3.750   1.521  0.4338 -0.6479  0.0416
    6CHTO   O41 2351   7.028   3.704   1.682 -0.0443 -0.3619  1.0965
    6CHTO   C64 2352   6.953   3.848   1.675  0.2526  0.1723  0.5266
    6CHTO  H121 2353   7.028   3.927   1.655 -0.6400  1.0172  0.4566
    6CHTO   C71 2354   6.885   3.875   1.814 -0.1534 -0.1053 -0.3444
    6CHTO   O47 2355   6.982   3.865   1.922  0.2693  0.6477  0.4984
    6CHTO  H104 2356   6.955   3.816   1.997  0.4556 -0.9828 -0.4770
    6CHTO   O34 2357   7.166   3.547   1.572 -0.2049 -0.5185  0.2528
    6CHTO   C49 2358   7.285   3.455   1.519  0.6896 -0.4137 -0.1886
    6CHTO   H91 2359   7.234   3.394   1.445 -1.0149  1.6730 -0.7855
    6CHTO   C47 2360   7.341   3.376   1.640 -0.1677 -0.3488 -0.3500
    6CHTO   H89 2361   7.414   3.310   1.589  1.1658  1.1824 -0.4381
    6CHTO   O33 2362   7.242   3.291   1.698 -0.5829  0.5001 -0.1653
    6CHTO   H70 2363   7.245   3.210   1.650  1.0803  1.7732 -2.3021
    6CHTO   C45 2364   7.408   3.478   1.739  0.4649 -0.1940  0.2799
    6CHTO   H87 2365   7.326   3.521   1.799 -0.3498 -0.3068 -0.7433
    6CHTO    N8 2366   7.495   3.401   1.823  0.0219  0.2210  0.3743
    6CHTO   H75 2367   7.592   3.395   1.777 -0.5382 -0.7617 -0.7033
    6CHTO   H76 2368   7.491   3.461   1.913  4.1622  0.8669  0.2037
    6CHTO   C43 2369   7.479   3.603   1.654  0.0167 -0.4182 -0.7531
    6CHTO   H85 2370   7.401   3.678   1.659 -0.2905 -0.8523  1.4693
    6CHTO   O29 2371   7.515   3.570   1.523 -0.4595 -0.1599  0.2334
    6CHTO   C50 2372   7.404   3.526   1.446  0.1595 -0.4241  0.1431
    6CHTO   H92 2373   7.372   3.615   1.390 -0.5795 -2.9309 -3.5880
    6CHTO   C54 2374   7.463   3.448   1.331 -0.0571  0.3670 -0.3487
    6CHTO   O36 2375   7.541   3.336   1.375  0.0349 -0.1529  0.0668
    6CHTO   H72 2376   7.502   3.257   1.342 -3.5149  0.6969  1.9759
    6CHTO   O27 2377   7.592   3.657   1.730 -0.3398  0.2741 -0.3188
    6CHTO   C37 2378   7.679   3.774   1.728 -0.6061 -0.0839  0.5581
    6CHTO   H79 2379   7.734   3.786   1.633 -0.5188 -1.4447  0.4333
    6CHTO   C38 2380   7.599   3.904   1.750  0.3239 -0.3334  0.2925
    6CHTO   H80 2381   7.547   3.895   1.847  0.1477 -0.9285  0.1394
    6CHTO   O31 2382   7.509   3.925   1.635  0.2897  0.1434 -1.0669
    6CHTO   H68 2383   7.466   3.844   1.613  0.0246 -0.2259  0.7775
    6CHTO   C39 2384   7.701   4.025   1.770  0.0099  0.2846  0.1363
    6CHTO   H81 2385   7.758   4.033   1.677  2.2322 -0.2506  1.4141
    6CHTO    N7 2386   7.634   4.155   1.798  0.0658  0.4285  0.2430
    6CHTO   H73 2387   7.558   4.181   1.726 -0.0896  0.4094  0.3994
    6CHTO   H74 2388   7.682   4.221   1.869 -2.8711  1.0030  1.7656
    6CHTO   C40 2389   7.800   3.989   1.889  0.2099 -0.2824 -0.0052
    6CHTO   H82 2390   7.741   3.980   1.980  0.2717  1.2165  0.2033
    6CHTO   O26 2391   7.870   3.872   1.860 -0.3564  0.6530  0.5471
    6CHTO   C41 2392   7.784   3.755   1.842  0.4719 -0.5884  0.1167
    6CHTO   H83 2393   7.738   3.722   1.937  1.5464 -2.9326 -0.1361
    6CHTO   C52 2394   7.884   3.649   1.794 -0.2663 -0.3041 -0.1360
    6CHTO   O35 2395   7.915   3.655   1.661 -0.7190 -0.1512  0.2537
    6CHTO   H71 2396   8.002   3.623   1.643 -1.2096 -0.3612 -1.8865
    6CHTO   O28 2397   7.903   4.089   1.911 -0.2203 -0.1210 -0.3597
    6CHTO   C42 2398   7.969   4.149   2.030 -0.2081  0.6363  0.2456
    6CHTO   H84 2399   8.073   4.159   2.000 -0.7732 -0.3638 -2.1681
    6CHTO   C44 2400   7.963   4.060   2.160 -0.3151 -0.4459  0.6733
    6CHTO   H86 2401   7.857   4.039   2.179 -0.5886  0.3857  0.0580
    6CHTO   O32 2402   8.028   3.933   2.133  0.3277  0.2555 -0.2532
    6CHTO   H69 2403   8.016   3.902   2.046 -0.8743  1.4525 -0.5240
    6CHTO   C48 2404   8.026   4.127   2.287  0.7599  0.3410  0.3482
    6CHTO   H90 2405   8.132   4.105   2.272  0.1774 -3.8959  1.7138
    6CHTO    N9 2406   8.003   4.050   2.410  0.5167 -0.4687  0.1252
    6CHTO   H77 2407   8.091   4.006   2.454  0.4829 -1.8890 -1.1750
    6CHTO   H78 2408   7.947   4.101   2.487 -0.3470  0.4988 -1.1243
    6CHTO   C51 2409   7.975   4.273   2.294  0.0646  0.3143 -0.2601
    6CHTO   H93 2410   7.872   4.270   2.331 -0.0827 -0.3461 -0.7174
    6CHTO   O30 2411   7.987   4.340   2.165  0.8242  0.3662 -0.2005
    6CHTO   C46 2412   7.917   4.287   2.064  1.3738  0.0216  0.1089
    6CHTO   H88 2413   7.809   4.290   2.078  1.2632 -0.9775 -0.4289
    6CHTO   C53 2414   7.927   4.383   1.941  0.5785  0.4413  0.9531
    6CHTO   O72 2415   8.068   4.395   1.912  0.2030 -0.3443  0.2628
    6CHTO  H199 2416   8.089   4.405   1.821 -0.7032  1.7833  0.2524
    6CHTO   O22 2417   8.060   4.337   2.386  0.6228  0.1710 -0.4975
    6CHTO   C31 2418   8.005   4.447   2.468  0.5502 -0.1416 -0.8487
    6CHTO   H59 2419   8.096   4.488   2.517  0.1263  2.4676 -2.1709
    6CHTO   C29 2420   7.954   4.556   2.381  0.2053  0.3673  0.4568
    6CHTO   H57 2421   7.879   4.516   2.311  2.3436 -0.9124 -1.1471
    6CHTO   O21 2422   8.065   4.601   2.296 -0.4635 -0.3241  0.5268
    6CHTO   H37 2423   8.067   4.694   2.294  0.6998 -0.3539 -0.3329
    6CHTO   C27 2424   7.890   4.680   2.468 -0.0978 -0.4906 -0.2798
    6CHTO   H55 2425   7.969   4.724   2.531  0.3049 -0.2033 -0.9864
    6CHTO    N5 2426   7.839   4.797   2.388 -0.4752 -0.4988  0.0839
    6CHTO   H43 2427   7.766   4.770   2.313  1.3506 -3.0681 -0.8404
    6CHTO   H44 2428   7.910   4.876   2.368 -1.6150  0.3089 -0.8370
    6CHTO   C25 2429   7.794   4.616   2.580 -0.1673  0.7898  0.3802
    6CHTO   H53 2430   7.711   4.560   2.534  1.3165 -1.4408  0.3073
    6CHTO   O17 2431   7.861   4.517   2.662 -0.1351 -0.0790 -0.1684
    6CHTO   C32 2432   7.907   4.405   2.582  0.2274  0.1438  0.1974
    6CHTO   H60 2433   7.823   4.354   2.535  0.6587 -1.1602  0.8315
    6CHTO   C36 2434   7.970   4.318   2.688  0.2616  0.6935  0.0792
    6CHTO   O25 2435   8.056   4.391   2.776 -0.0841 -0.0624 -0.4303
    6CHTO   H40 2436   8.056   4.354   2.863 -1.8896 -0.9942 -0.7784
    6CHTO   O15 2437   7.722   4.735   2.661  0.5345  0.2315 -0.2469
    6CHTO   C19 2438   7.603   4.755   2.750  0.0033 -0.0865  0.2654
    6CHTO   H47 2439   7.565   4.653   2.764 -0.4980  0.0167 -0.3118
    6CHTO   C20 2440   7.634   4.819   2.886 -0.2842  0.7760 -0.1206
    6CHTO   H48 2441   7.698   4.908   2.876  1.9738 -0.8676 -0.3909
    6CHTO   O19 2442   7.714   4.722   2.956  0.1089 -0.3950  0.2710
    6CHTO   H35 2443   7.748   4.754   3.037  0.9109 -1.7345  0.4858
    6CHTO   C21 2444   7.502   4.867   2.964 -0.2031  0.0397 -0.4894
    6CHTO   H49 2445   7.448   4.778   2.997 -0.7684  1.1019  1.5588
    6CHTO    N4 2446   7.541   4.944   3.090 -0.0132 -0.5124  0.2446
    6CHTO   H41 2447   7.467   5.011   3.130 -0.9770 -1.6089  0.3042
    6CHTO   H42 2448   7.588   4.891   3.171  1.8741 -0.6841 -0.9289
    6CHTO   C22 2449   7.411   4.944   2.866 -0.2254 -0.1684 -0.2873
    6CHTO   H50 2450   7.468   5.033   2.837  2.8105 -1.6473  0.9290
    6CHTO   O14 2451   7.383   4.871   2.751 -0.1565  0.5203  0.5137
    6CHTO   C23 2452   7.489   4.833   2.670  0.1793  0.0082 -0.2356
    6CHTO   H51 2453   7.526   4.929   2.630 -1.1342  0.5796 -0.0946
    6CHTO   C34 2454   7.416   4.751   2.559 -0.3047 -0.1994 -0.0509
    6CHTO   O23 2455   7.477   4.788   2.437  0.1400 -0.6524 -0.4395
    6CHTO   H38 2456   7.431   4.749   2.365 -0.3438 -3.0078  1.0918
    6CHTO   O16 2457   7.292   4.981   2.934  1.2147 -0.4862 -0.5066
    6CHTO   C24 2458   7.226   5.106   2.860  0.0773  0.9347 -0.1387
    6CHTO   H52 2459   7.270   5.122   2.762 -0.4518 -0.2004 -0.5633
    6CHTO   C26 2460   7.244   5.224   2.959 -0.5536  0.8909  1.0020
    6CHTO   H54 2461   7.201   5.198   3.058 -2.4235  2.6018  0.6898
    6CHTO   O20 2462   7.384   5.242   2.960 -0.4387 -0.0350 -0.0676
    6CHTO   H36 2463   7.395   5.328   2.923 -1.9800 -0.2510 -1.0699
    6CHTO   C30 2464   7.166   5.350   2.899 -0.0839  0.5844  0.2023
    6CHTO   H58 2465   7.206   5.385   2.803  0.1324  0.6341  0.3120
    6CHTO    N6 2466   7.165   5.470   2.985 -0.1234 -0.3119  0.4021
    6CHTO   H45 2467   7.075   5.462   3.044 -1.3007  3.5746 -0.7027
    6CHTO   H46 2468   7.248   5.482   3.053  0.4112 -0.2957 -0.2477
    6CHTO   C33 2469   7.023   5.299   2.864  0.6659  0.9616 -0.2310
    6CHTO   H61 2470   6.977   5.266   2.958 -0.4439  2.3073 -0.2806
    6CHTO   O18 2471   7.024   5.189   2.779 -0.1992 -0.0662  0.1270
    6CHTO   C28 2472   7.073   5.077   2.838  0.2488  0.5309 -0.1274
    6CHTO   H56 2473   7.021   5.051   2.931 -1.8969  1.0845 -1.1258
    6CHTO   C35 2474   7.045   4.972   2.734  0.3896 -0.3832 -0.3872
    6CHTO   O24 2475   6.911   4.969   2.695  0.4860 -0.0803 -0.3744
    6CHTO   H39 2476   6.888   5.012   2.615 -0.1156  0.5478  0.1275
    6CHTO    O9 2477   6.936   5.400   2.807 -0.0968  0.0143  0.2606
    6CHTO   C13 2478   6.770   5.378   2.870  0.2347  0.4881  0.1609
    6CHTO   H26 2479   6.771   5.360   2.980  3.1330  0.9887  0.2352
    6CHTO   C11 2480   6.695   5.266   2.796 -0.4525  0.6037  0.3404
    6CHTO   H24 2481   6.752   5.172   2.800  0.2855  1.0724  0.8829
    6CHTO    O8 2482   6.689   5.295   2.656 -0.0834  0.3243  0.1178
    6CHTO    H3 2483   6.767   5.280   2.606  1.1544  4.5486  0.6065
    6CHTO    C9 2484   6.559   5.232   2.853  0.3363 -0.5525 -0.2825
    6CHTO   H22 2485   6.573   5.224   2.962 -1.8722  1.7491  0.2256
    6CHTO    N2 2486   6.490   5.109   2.807 -0.1855 -0.4665 -0.6606
    6CHTO   H10 2487   6.469   5.129   2.703 -0.9729  2.7403  0.0675
    6CHTO   H11 2488   6.566   5.033   2.817  0.3465  0.2221  0.5541
    6CHTO    C7 2489   6.474   5.370   2.853 -0.5166  0.4465 -1.1175
    6CHTO   H20 2490   6.462   5.387   2.962 -0.4300 -0.3204 -0.9817
    6CHTO    O4 2491   6.543   5.490   2.809 -0.3475 -0.2307  0.4118
    6CHTO   C14 2492   6.682   5.514   2.850  0.9220 -0.0901  0.8699
    6CHTO   H27 2493   6.682   5.564   2.950  4.0964  0.2036  0.7811
    6CHTO   C18 2494   6.749   5.612   2.750 -0.7277  0.4635 -0.2357
    6CHTO   O13 2495   6.681   5.736   2.768  0.3017 -0.4744 -0.5997
    6CHTO    H7 2496   6.690   5.794   2.695  4.1660  0.7951  0.7921
    6CHTO    O2 2497   6.313   5.366   2.768 -0.0524  0.3862  0.3993
    6CHTO    C1 2498   6.205   5.415   2.849  0.2771 -0.5679  0.7493
    6CHTO   H14 2499   6.114   5.420   2.786  0.2593 -0.0150  0.8211
    6CHTO    C2 2500   6.225   5.560   2.911 -0.5886  0.2391  0.3072
    6CHTO   H15 2501   6.325   5.565   2.957 -0.6127  0.1083  0.3754
    6CHTO    O6 2502   6.226   5.649   2.795  0.4573  0.0842  0.2053
    6CHTO    H1 2503   6.260   5.611   2.716 -1.0092 -0.8495 -0.0079
    6CHTO    C3 2504   6.103   5.595   3.009  0.3339 -0.4904 -0.9416
    6CHTO   H16 2505   6.009   5.605   2.954 -0.5144  0.7033  0.6929
    6CHTO    N1 2506   6.128   5.730   3.072  0.4863  0.2366  0.3229
    6CHTO    H8 2507   6.122   5.717   3.179  1.1184  1.1977  0.4793
    6CHTO    H9 2508   6.049   5.793   3.033  0.4173  0.2107  0.4189
    6CHTO    C4 2509   6.079   5.471   3.110 -0.5132 -0.5173  0.5206
    6CHTO   H17 2510   6.172   5.447   3.163  0.5891 -0.4587 -1.3427
    6CHTO    O1 2511   6.054   5.355   3.033  0.2702 -0.2265  0.7100
    6CHTO    C5 2512   6.169   5.312   2.958  0.3893 -0.0488 -0.0174
    6CHTO   H18 2513   6.261   5.292   3.014  1.4626  1.3267 -1.2184
    6CHTO   C16 2514   6.117   5.175   2.901 -0.0629 -0.3615 -0.1217
    6CHTO   O11 2515   6.127   5.076   3.000  0.2938 -0.1339 -0.0455
    6CHTO    H5 2516   6.058   5.012   2.998  0.4982 -0.3198 -1.6245
    6CHTO    O3 2517   5.967   5.487   3.197  0.0013 -0.2435 -0.3682
    6CHTO    C6 2518   5.965   5.407   3.326 -0.2170 -0.6874  0.4451
    6CHTO   H19 2519   6.035   5.325   3.313 -1.1088 -1.4045  0.0719
    6CHTO    C8 2520   6.008   5.498   3.447  0.1010  0.0230 -0.0212
    6CHTO   H21 2521   5.926   5.566   3.468 -1.5063 -2.0964  0.7546
    6CHTO    O7 2522   6.132   5.567   3.411  0.1911  0.3020  0.3280
    6CHTO    H2 2523   6.167   5.614   3.484 -1.3402  0.1440  1.1882
    6CHTO   C12 2524   6.014   5.407   3.580  0.0900  1.1472  0.5895
    6CHTO   H25 2525   6.099   5.340   3.559  0.7919  2.5307 -1.1808
    6CHTO    N3 2526   6.049   5.477   3.703 -0.8325 -0.1681  0.2111
    6CHTO   H12 2527   5.993   5.566   3.727  0.7443  1.0234 -0.4451
    6CHTO   H13 2528   6.051   5.412   3.789  0.3035  0.2483  0.5186
    6CHTO   C15 2529   5.876   5.327   3.586 -0.6128  0.7865 -0.9444
    6CHTO   H28 2530   5.799   5.394   3.623 -0.2945  0.8206 -0.3293
    6CHTO   O10 2531   5.887   5.208   3.670 -0.1540 -0.5410 -0.6660
    6CHTO    H4 2532   5.800   5.188   3.697 -0.4283  2.2505  0.7024
    6CHTO    O5 2533   5.842   5.260   3.466 -0.0823  0.1624 -0.5631
    6CHTO   C10 2534   5.824   5.349   3.351  0.5126  1.5427 -0.3144
    6CHTO   H23 2535   5.743   5.420   3.369 -0.3105  1.1624 -2.3408
    6CHTO   C17 2536   5.779   5.266   3.227  0.3546  0.2538 -0.6718
    6CHTO   O12 2537   5.661   5.193   3.249  0.3355  0.1613 -0.0273
    6CHTO    H6 2538   5.593   5.235   3.298  0.1867 -0.7332  0.5623
    7CHTO  H203 2539   5.061   1.805   2.754 -1.0089 -0.2820  1.4433
    7CHTO   O82 2540   5.116   1.741   2.797  0.1424 -0.0570  0.3483
    7CHTO  C123 2541   5.225   1.728   2.716 -0.1792 -0.1780  0.0719
    7CHTO  H227 2542   5.194   1.725   2.610 -0.8881  0.0106  0.2677
    7CHTO   O77 2543   5.293   1.853   2.737  0.2445  0.4152 -0.3895
    7CHTO  C118 2544   5.416   1.863   2.665 -0.0476  0.3238 -0.0947
    7CHTO  H222 2545   5.381   1.849   2.561 -2.0884 -0.9353  0.7483
    7CHTO  C125 2546   5.453   2.011   2.672 -0.0558 -0.8138  0.0753
    7CHTO   O84 2547   5.346   2.100   2.651  0.2742 -0.3985 -0.0336
    7CHTO  H205 2548   5.377   2.178   2.608 -2.8667  0.9643  0.0421
    7CHTO  C114 2549   5.520   1.756   2.713  0.0105 -0.9446 -0.2745
    7CHTO  H218 2550   5.537   1.780   2.818  0.6141  0.7781 -0.7410
    7CHTO  C116 2551   5.466   1.612   2.695  0.0894  0.2954 -0.0267
    7CHTO  H220 2552   5.460   1.590   2.586  0.6435  2.2774 -0.4757
    7CHTO   O79 2553   5.553   1.517   2.752  0.1802 -0.3174  0.2356
    7CHTO  H201 2554   5.521   1.430   2.764  1.1923 -0.5211  1.5247
    7CHTO  C120 2555   5.314   1.603   2.753  0.2677  0.5556 -0.6590
    7CHTO  H224 2556   5.325   1.601   2.864 -1.4508 -0.7825 -0.4898
    7CHTO   N21 2557   5.246   1.474   2.720  0.2401  0.3256  0.3226
    7CHTO  H211 2558   5.270   1.443   2.619 -0.4516 -0.5316  0.4272
    7CHTO  H212 2559   5.265   1.393   2.788 -1.5944 -1.3980 -1.1730
    7CHTO   O75 2560   5.640   1.779   2.640 -0.0832 -0.1072 -0.0108
    7CHTO  C112 2561   5.766   1.718   2.703 -0.0861  0.9634  0.5595
    7CHTO  H216 2562   5.763   1.608   2.696 -1.6223  0.9920  0.6486
    7CHTO   O73 2563   5.777   1.752   2.837  0.2835 -0.3986  0.7356
    7CHTO  C113 2564   5.883   1.674   2.897  0.0903 -0.5211 -0.5918
    7CHTO  H217 2565   5.886   1.570   2.859  0.7653 -0.8293  0.2742
    7CHTO  C124 2566   5.879   1.669   3.052  0.2730  0.0774 -0.4223
    7CHTO   O83 2567   5.902   1.791   3.113 -0.9399 -0.4198 -0.3985
    7CHTO  H204 2568   5.983   1.775   3.159 -0.5398 -2.6010 -1.7930
    7CHTO  C109 2569   6.024   1.735   2.860  0.0853 -0.2954 -1.0151
    7CHTO  H213 2570   6.024   1.840   2.891 -0.3957 -0.6983  0.3943
    7CHTO  C110 2571   6.035   1.724   2.704  0.1043 -0.5423 -0.0633
    7CHTO  H214 2572   6.050   1.617   2.690 -0.0650 -0.5133 -0.4920
    7CHTO   O78 2573   6.145   1.799   2.652 -0.2063  0.3300  0.0784
    7CHTO  H200 2574   6.143   1.801   2.558  2.5392 -0.0212 -0.0220
    7CHTO  C111 2575   5.899   1.772   2.630  0.4260  0.5284  0.4049
    7CHTO  H215 2576   5.893   1.882   2.637 -1.8361  0.4502  0.2891
    7CHTO   N19 2577   5.897   1.737   2.483 -0.0224  0.3464  0.4362
    7CHTO  H207 2578   5.990   1.690   2.455 -0.4704  0.4193 -1.2594
    7CHTO  H208 2579   5.814   1.676   2.451  1.6962 -0.8782 -1.8420
    7CHTO   O74 2580   6.142   1.663   2.927  0.1089  0.2531  0.3517
    7CHTO  C115 2581   6.261   1.745   2.941  0.0001 -0.1205  0.2145
    7CHTO  H219 2582   6.282   1.796   2.847 -2.0322 -0.5441 -0.5059
    7CHTO   O76 2583   6.246   1.863   3.042  0.0014  0.1011 -0.6226
    7CHTO  C122 2584   6.247   1.820   3.175 -0.1772  0.0427 -0.3806
    7CHTO  H226 2585   6.162   1.754   3.192  0.3765 -0.6191 -0.1559
    7CHTO  C126 2586   6.218   1.948   3.252 -0.2518 -0.2586 -0.2324
    7CHTO   O85 2587   6.334   2.035   3.253 -0.1506 -0.3720 -0.0249
    7CHTO  H206 2588   6.323   2.103   3.317 -1.4866 -0.8523  0.2756
    7CHTO  C121 2589   6.376   1.746   3.208  0.6738  0.1061 -0.2590
    7CHTO  H225 2590   6.471   1.801   3.193  1.6647 -1.6452 -0.6170
    7CHTO   O81 2591   6.383   1.706   3.342 -0.7374 -0.0173 -0.1187
    7CHTO  H202 2592   6.307   1.662   3.375 -1.1868 -0.1122 -1.2538
    7CHTO  C119 2593   6.380   1.623   3.116 -0.4731 -0.0017  0.0182
    7CHTO  H223 2594   6.476   1.579   3.144  1.0348  3.7176  1.0258
    7CHTO  C117 2595   6.386   1.659   2.963 -0.8838 -0.8144  0.6499
    7CHTO  H221 2596   6.369   1.580   2.890  0.5203  1.2432 -1.9996
    7CHTO   N20 2597   6.518   1.725   2.923  0.4319 -0.7542  0.0329
    7CHTO  H209 2598   6.503   1.782   2.833 -0.4132  1.6971  1.6964
    7CHTO  H210 2599   6.587   1.771   2.992  1.3044 -1.1664 -0.5432
    7CHTO   O80 2600   6.275   1.508   3.153 -0.0580  0.0138  0.1944
    7CHTO  C103 2601   6.301   1.342   3.101 -0.4607 -0.0516  0.4786
    7CHTO  H190 2602   6.290   1.337   2.992 -1.5271 -3.1366  0.6576
    7CHTO  C101 2603   6.441   1.274   3.150  0.2216  0.3165  0.4291
    7CHTO  H188 2604   6.455   1.285   3.258  1.3793 -0.9442  0.4180
    7CHTO   O68 2605   6.552   1.352   3.088  0.3154 -0.2085  0.3807
    7CHTO  H168 2606   6.631   1.309   3.117  2.4011  2.5661 -1.0236
    7CHTO   C99 2607   6.436   1.115   3.114 -0.5610 -0.0114 -0.2466
    7CHTO  H186 2608   6.428   1.104   3.004 -0.3458  0.6872 -0.3369
    7CHTO   N17 2609   6.556   1.043   3.167 -0.2031 -0.5400  0.3624
    7CHTO  H174 2610   6.576   1.043   3.273 -2.4091  1.9629  0.8169
    7CHTO  H175 2611   6.564   0.945   3.121  1.4900  0.0081 -0.5464
    7CHTO   C97 2612   6.301   1.050   3.161 -1.0805  0.9014  0.7085
    7CHTO  H184 2613   6.314   1.056   3.270  1.5475  1.4162  0.4011
    7CHTO   O64 2614   6.187   1.120   3.108  0.0479 -0.0383 -0.4294
    7CHTO  C104 2615   6.175   1.256   3.161 -0.4887 -0.1085 -0.0689
    7CHTO  H191 2616   6.181   1.259   3.270 -1.5085 -0.7172  0.0091
    7CHTO  C108 2617   6.047   1.323   3.111 -0.2563 -0.3728 -0.1086
    7CHTO   O71 2618   5.933   1.247   3.124 -0.2956  1.0733  0.1138
    7CHTO  H171 2619   5.915   1.212   3.039 -0.6998 -1.4486  1.1717
    7CHTO   O62 2620   6.293   0.907   3.122  0.5222  0.8003 -0.1976
    7CHTO   C91 2621   6.228   0.822   3.220  0.7491  0.3839  0.4374
    7CHTO  H178 2622   6.238   0.725   3.170  1.7718  0.9563 -0.4982
    7CHTO   C92 2623   6.073   0.856   3.227  1.0198  0.4197 -0.6599
    7CHTO  H179 2624   6.070   0.956   3.273  0.4314 -0.0821  0.4436
    7CHTO   O66 2625   6.019   0.877   3.092 -0.3046  0.4348  0.0615
    7CHTO  H166 2626   6.010   0.803   3.036  0.5079  0.5690 -0.2519
    7CHTO   C93 2627   5.990   0.751   3.311 -0.0644 -0.2850  0.9884
    7CHTO  H180 2628   5.974   0.667   3.242  1.2910 -0.5038  0.9263
    7CHTO   N16 2629   5.867   0.809   3.353 -0.1214  0.1016 -0.2702
    7CHTO  H172 2630   5.904   0.896   3.406  3.0184 -0.9909 -0.5401
    7CHTO  H173 2631   5.805   0.848   3.273  0.0241 -0.2355 -0.5464
    7CHTO   C94 2632   6.074   0.706   3.438 -0.4346  0.3522 -0.3372
    7CHTO  H181 2633   6.073   0.784   3.514  0.0946  0.8851 -0.8742
    7CHTO   O61 2634   6.210   0.698   3.419  0.0332  0.0606  0.2257
    7CHTO   C95 2635   6.285   0.811   3.373  0.1128  0.2453  0.2393
    7CHTO  H182 2636   6.257   0.899   3.431 -0.2877  0.5748 -0.4565
    7CHTO  C106 2637   6.440   0.781   3.393 -0.5004  0.1446 -0.3026
    7CHTO   O69 2638   6.463   0.768   3.534  0.6566  0.0092 -0.3093
    7CHTO  H169 2639   6.398   0.713   3.574  0.5107  0.0961 -0.4288
    7CHTO   O63 2640   6.017   0.576   3.502 -0.4847  0.3596 -0.2561
    7CHTO   C96 2641   5.975   0.576   3.643 -0.2071 -0.5117  0.3999
    7CHTO  H183 2642   5.907   0.660   3.653 -1.0050 -1.0936 -0.0424
    7CHTO   C98 2643   6.097   0.598   3.735  0.7721 -0.0485  0.5040
    7CHTO  H185 2644   6.163   0.677   3.695  0.9520 -0.7294 -0.5384
    7CHTO   O67 2645   6.050   0.644   3.863 -0.4853  0.7583 -0.4096
    7CHTO  H167 2646   6.119   0.702   3.890  0.3387 -0.6856  0.6144
    7CHTO  C102 2647   6.182   0.470   3.744  0.1451 -0.5106 -0.1297
    7CHTO  H189 2648   6.211   0.466   3.850  1.4236 -0.1508 -0.4601
    7CHTO   N18 2649   6.306   0.472   3.665 -0.0167 -0.1327  0.1347
    7CHTO  H176 2650   6.285   0.500   3.563  0.8694 -0.9970 -0.2960
    7CHTO  H177 2651   6.373   0.546   3.707  0.2044 -0.1240 -0.2317
    7CHTO  C105 2652   6.104   0.336   3.727 -1.0386 -0.1746  0.4156
    7CHTO  H192 2653   6.113   0.301   3.624  0.0903 -0.1658  0.5095
    7CHTO   O65 2654   5.968   0.359   3.762  0.8543  0.6026 -0.0353
    7CHTO  C100 2655   5.902   0.438   3.661 -0.0832  0.3819 -0.2206
    7CHTO  H187 2656   5.906   0.385   3.565 -1.2408  1.8238 -1.0874
    7CHTO  C107 2657   5.757   0.470   3.700  0.3943  0.0567 -0.1919
    7CHTO   O70 2658   5.691   0.354   3.753  0.5256  0.4762 -0.0904
    7CHTO  H170 2659   5.643   0.313   3.684 -1.4311  3.3945 -0.5810
    7CHTO   O57 2660   6.162   0.237   3.832 -1.2027 -0.0614  0.4675
    7CHTO   C85 2661   6.144   0.097   3.800 -0.3717 -0.1955  0.1190
    7CHTO  H157 2662   6.144   0.074   3.691  0.4138 -0.8374  0.2515
    7CHTO   C83 2663   6.004   0.047   3.843  1.1072 -0.0619  0.2012
    7CHTO  H155 2664   5.926   0.085   3.777  0.0550 -2.1818  0.1875
    7CHTO   O56 2665   5.983   0.094   3.981  0.2285 -0.3011  0.5349
    7CHTO  H135 2666   5.906   0.058   4.020  0.3006  1.2968  2.2234
    7CHTO   C81 2667   5.994  -0.109   3.839  0.1053 -0.4315  0.1245
    7CHTO  H153 2668   6.008  -0.146   3.737 -1.3085 -1.8372  0.4140
    7CHTO   N14 2669   5.854  -0.157   3.868 -0.2895 -0.2121 -0.3735
    7CHTO  H141 2670   5.789  -0.083   3.910  2.5551  2.0317  0.2244
    7CHTO  H142 2671   5.802  -0.204   3.787 -1.0622  0.3233 -0.1978
    7CHTO   C79 2672   6.102  -0.174   3.936  0.1876 -0.1511 -0.4845
    7CHTO  H151 2673   6.093  -0.282   3.931 -0.5668  0.0044 -4.3548
    7CHTO   O52 2674   6.233  -0.134   3.884 -0.0476  0.6879  0.0438
    7CHTO   C86 2675   6.253   0.011   3.880  0.0595  0.2673 -0.2440
    7CHTO  H158 2676   6.242   0.036   3.988 -1.4255  0.6160 -0.4708
    7CHTO   C90 2677   6.401   0.043   3.839 -0.4835 -0.1972 -0.7232
    7CHTO   O60 2678   6.406   0.025   3.698 -0.3576  0.0528 -0.7356
    7CHTO  H138 2679   6.479   0.072   3.665  0.6157 -0.6884  0.3279
    7CHTO   O50 2680   6.082  -0.159   4.077  0.2678 -0.1012  0.1948
    7CHTO   C73 2681   6.129  -0.235   4.182 -0.2141  0.1303 -0.4894
    7CHTO  H145 2682   6.226  -0.283   4.162 -0.6639 -3.1524  4.5061
    7CHTO   C74 2683   6.026  -0.347   4.224  0.1308 -0.5869  0.1353
    7CHTO  H146 2684   6.015  -0.422   4.144  1.2409 -2.2170  1.4654
    7CHTO   O54 2685   6.083  -0.430   4.328  0.1750  0.0717  0.1352
    7CHTO  H133 2686   6.049  -0.517   4.328  0.1776  0.0665  1.3732
    7CHTO   C75 2687   5.896  -0.271   4.254 -0.0599 -0.1359  0.3236
    7CHTO  H147 2688   5.865  -0.215   4.164 -1.4898 -1.5262 -0.0747
    7CHTO   N13 2689   5.784  -0.363   4.275  0.0022 -0.5668 -0.2684
    7CHTO  H139 2690   5.708  -0.292   4.304  1.7318  0.2724  2.4116
    7CHTO  H140 2691   5.810  -0.422   4.362 -0.1821  0.6762  0.6523
    7CHTO   C76 2692   5.925  -0.170   4.374 -0.1755 -0.6567  0.2042
    7CHTO  H148 2693   5.956  -0.231   4.459 -0.5486 -0.8373  0.2132
    7CHTO   O49 2694   6.028  -0.076   4.341 -0.5049  0.2936 -0.4919
    7CHTO   C77 2695   6.152  -0.149   4.312 -0.5203  0.3636 -0.8095
    7CHTO  H149 2696   6.173  -0.215   4.396 -2.5892  0.4029 -0.2235
    7CHTO   C88 2697   6.263  -0.043   4.292  0.1369  0.3313 -0.2191
    7CHTO   O58 2698   6.408  -0.085   4.299 -0.1666 -0.0986 -0.4404
    7CHTO  H136 2699   6.430  -0.127   4.219  1.6738  0.3283 -0.1722
    7CHTO   O51 2700   5.801  -0.087   4.386  0.0740  0.7985 -0.7297
    7CHTO   C78 2701   5.778  -0.023   4.532  0.2908 -0.2681 -0.4479
    7CHTO  H150 2702   5.856  -0.049   4.606  0.4896  0.8091 -0.2722
    7CHTO   C80 2703   5.638  -0.076   4.575  0.3600 -0.6265 -0.6924
    7CHTO  H152 2704   5.563  -0.041   4.501 -2.1994 -2.1219  1.0993
    7CHTO   O55 2705   5.637  -0.220   4.585  0.2956  0.0007 -0.2312
    7CHTO  H134 2706   5.558  -0.242   4.539 -1.1331  2.6756  0.8871
    7CHTO   C84 2707   5.603  -0.013   4.715 -0.1704  0.0255  0.0432
    7CHTO  H156 2708   5.684  -0.047   4.779  1.1129  1.0092 -1.0328
    7CHTO   N15 2709   5.474  -0.059   4.779  0.0411  0.0746  0.4049
    7CHTO  H143 2710   5.462   0.015   4.855  1.4921  1.7049 -0.9048
    7CHTO  H144 2711   5.496  -0.152   4.827 -0.7638  0.3183  1.2432
    7CHTO   C87 2712   5.610   0.145   4.710 -0.1615 -0.9071 -0.4236
    7CHTO  H159 2713   5.529   0.185   4.649  0.8176 -1.9495 -2.4833
    7CHTO   O53 2714   5.736   0.187   4.650  0.3837 -0.1007 -0.3646
    7CHTO   C82 2715   5.772   0.137   4.518 -0.5041  0.6185  0.4940
    7CHTO  H154 2716   5.703   0.169   4.441 -0.4229 -0.7084 -0.1447
    7CHTO   C89 2717   5.915   0.188   4.475  0.0360  0.5647 -0.0900
    7CHTO   O59 2718   5.923   0.329   4.469  0.1610 -0.9721 -0.4184
    7CHTO  H137 2719   5.992   0.374   4.423 -0.8538  0.3800 -0.6411
    7CHTO   O45 2720   5.615   0.210   4.830 -0.1844 -0.5018 -0.7694
    7CHTO   C67 2721   5.599   0.349   4.826  0.0963 -0.1418 -0.3108
    7CHTO  H124 2722   5.667   0.382   4.747  0.2590 -2.2636 -1.0906
    7CHTO   C65 2723   5.455   0.393   4.795 -0.4873 -0.1961 -0.3156
    7CHTO  H122 2724   5.396   0.305   4.820  0.0568 -0.4011  0.2793
    7CHTO   O44 2725   5.457   0.421   4.655 -0.9154 -0.2570 -0.2172
    7CHTO  H102 2726   5.479   0.511   4.647  0.5417 -0.7224 -1.6627
    7CHTO   C63 2727   5.392   0.496   4.889  0.4358  0.0199 -0.1377
    7CHTO  H120 2728   5.385   0.456   4.990  0.5221  3.3176  1.2566
    7CHTO   N11 2729   5.251   0.540   4.865  0.1065  0.1615 -0.5132
    7CHTO  H108 2730   5.233   0.644   4.877 -1.9397 -0.3955  1.7211
    7CHTO  H109 2731   5.201   0.509   4.776  0.7160 -1.0785 -0.4426
    7CHTO   C61 2732   5.497   0.609   4.914  0.1917  0.4182  0.0246
    7CHTO  H118 2733   5.455   0.680   4.987  0.5681  0.8200 -0.1459
    7CHTO   O40 2734   5.615   0.553   4.979  0.1949  0.3420 -0.8168
    7CHTO   C68 2735   5.654   0.414   4.959  0.3802  0.2745  0.6202
    7CHTO  H125 2736   5.603   0.355   5.038 -0.7300 -2.1043 -1.7994
    7CHTO   C72 2737   5.808   0.385   4.981 -0.4686 -0.2730  0.4919
    7CHTO   O48 2738   5.849   0.409   5.114 -0.0392 -0.1081  0.4298
    7CHTO  H105 2739   5.820   0.496   5.136 -0.9146  0.3040 -2.2237
    7CHTO   O38 2740   5.528   0.672   4.793  0.5233 -0.4435 -0.1024
    7CHTO   C55 2741   5.592   0.796   4.791 -0.5202 -0.4015  0.1153
    7CHTO  H112 2742   5.645   0.813   4.886  1.2505 -5.4970  0.1989
    7CHTO   C56 2743   5.483   0.908   4.754 -0.5508 -0.3739 -0.3084
    7CHTO  H113 2744   5.429   0.877   4.664  0.6417  0.7485 -1.4334
    7CHTO   O42 2745   5.382   0.931   4.857 -0.7122 -0.1346 -0.6085
    7CHTO  H100 2746   5.360   1.018   4.883 -0.4998 -0.7752  1.8348
    7CHTO   C57 2747   5.560   1.039   4.716 -0.3526  0.2036  0.0713
    7CHTO  H114 2748   5.601   1.092   4.803 -1.3979  2.6431 -0.8692
    7CHTO   N10 2749   5.462   1.137   4.664  0.1635  0.1183 -0.5147
    7CHTO  H106 2750   5.369   1.134   4.718  1.1444  1.6968  1.3645
    7CHTO  H107 2751   5.504   1.236   4.681 -0.6357  0.4476 -0.4535
    7CHTO   C58 2752   5.677   1.013   4.619 -0.3263 -0.1721  1.1119
    7CHTO  H115 2753   5.636   0.975   4.523  0.7022  0.9188  0.2234
    7CHTO   O37 2754   5.767   0.917   4.665 -0.5160  0.0491  0.3635
    7CHTO   C59 2755   5.698   0.789   4.681  0.4984 -0.1424 -0.0200
    7CHTO  H116 2756   5.657   0.751   4.588 -2.8139 -1.7313  2.0011
    7CHTO   C70 2757   5.809   0.688   4.721  0.0221  0.6291 -0.0052
    7CHTO   O46 2758   5.914   0.741   4.805  0.0126 -0.2041  0.0017
    7CHTO  H103 2759   5.987   0.755   4.748 -0.7911 -1.2845 -1.3221
    7CHTO   O39 2760   5.757   1.147   4.586 -0.2214 -1.2388  0.0501
    7CHTO   C60 2761   5.853   1.143   4.480 -0.3295 -0.0756  0.0546
    7CHTO  H117 2762   5.895   1.043   4.489  1.4305  0.7578  1.2454
    7CHTO   C62 2763   5.789   1.167   4.343  0.5260 -0.4134  0.9860
    7CHTO  H119 2764   5.703   1.098   4.337 -0.1096  0.5455 -2.0008
    7CHTO   O43 2765   5.728   1.298   4.336  0.7388  0.5912 -0.1158
    7CHTO  H101 2766   5.774   1.371   4.372  1.7883  1.1380 -2.5300
    7CHTO   C66 2767   5.895   1.161   4.227  0.1834  0.3676  0.2319
    7CHTO  H123 2768   5.948   1.066   4.234  0.2411  0.2421 -1.5524
    7CHTO   N12 2769   5.844   1.165   4.085 -0.3293  0.2878 -0.5979
    7CHTO  H110 2770   5.779   1.083   4.058 -2.1907  1.3592  0.5204
    7CHTO  H111 2771   5.806   1.261   4.053  0.2303  0.0768 -1.9256
    7CHTO   C69 2772   6.003   1.265   4.260 -0.2030  0.1563  1.0704
    7CHTO  H126 2773   5.975   1.372   4.246 -0.1531  0.1052  0.5902
    7CHTO   O41 2774   6.072   1.234   4.400 -0.3049  0.2605 -0.0398
    7CHTO   C64 2775   5.966   1.243   4.506 -0.3863  0.5510  0.1208
    7CHTO  H121 2776   5.927   1.345   4.490 -2.3191 -0.4590 -1.8920
    7CHTO   C71 2777   6.041   1.231   4.640  1.5280  0.1813 -0.0306
    7CHTO   O47 2778   6.151   1.139   4.631 -0.4423 -0.2261  0.8106
    7CHTO  H104 2779   6.202   1.175   4.701 -0.3162  0.6184  0.2976
    7CHTO   O34 2780   6.128   1.252   4.153 -0.2214  0.1562  0.2711
    7CHTO   C49 2781   6.219   1.366   4.074  0.2869  0.4601 -0.7941
    7CHTO   H91 2782   6.150   1.414   4.005 -1.9251 -1.5515 -0.0630
    7CHTO   C47 2783   6.345   1.304   4.005  0.1353 -0.1613 -0.5697
    7CHTO   H89 2784   6.392   1.388   3.949 -0.5817  1.4416  1.1855
    7CHTO   O33 2785   6.290   1.201   3.919  0.2588 -0.1519 -0.6437
    7CHTO   H70 2786   6.263   1.235   3.836 -1.0937 -2.9848 -1.4435
    7CHTO   C45 2787   6.443   1.249   4.118 -0.2351 -0.5970 -0.2580
    7CHTO   H87 2788   6.427   1.142   4.133  0.4505 -0.4373  1.8269
    7CHTO    N8 2789   6.578   1.271   4.059  0.3869  0.4207  0.1693
    7CHTO   H75 2790   6.637   1.339   4.119 -0.8408  1.4009  0.2870
    7CHTO   H76 2791   6.623   1.180   4.021  0.6832  0.6483 -0.0344
    7CHTO   C43 2792   6.421   1.314   4.267 -0.3295  0.3662  1.2436
    7CHTO   H85 2793   6.341   1.254   4.311 -2.0641  1.9674  0.3367
    7CHTO   O29 2794   6.386   1.451   4.255 -0.4482 -0.3203 -0.8116
    7CHTO   C50 2795   6.266   1.476   4.176  0.5223  0.6350 -0.1358
    7CHTO   H92 2796   6.180   1.498   4.242  0.2983  0.4610 -0.3743
    7CHTO   C54 2797   6.291   1.608   4.105 -0.7080  0.1658 -0.1196
    7CHTO   O36 2798   6.289   1.719   4.194 -0.1255 -0.1502  0.1052
    7CHTO   H72 2799   6.353   1.702   4.260 -1.2289  1.2209  1.5455
    7CHTO   O27 2800   6.528   1.287   4.359 -0.0312  0.4727  0.0494
    7CHTO   C37 2801   6.543   1.178   4.453  0.0560  0.4772 -0.1194
    7CHTO   H79 2802   6.500   1.213   4.548 -0.5432 -1.7103  0.4451
    7CHTO   C38 2803   6.477   1.042   4.406  0.5826 -0.9380  0.1683
    7CHTO   H80 2804   6.500   1.035   4.299 -0.3650  2.5140 -0.3271
    7CHTO   O31 2805   6.337   1.046   4.436  0.4594 -0.3309 -0.2636
    7CHTO   H68 2806   6.303   1.125   4.400 -0.2878 -0.9415 -0.9398
    7CHTO   C39 2807   6.543   0.922   4.485  0.0019  0.1720 -0.1233
    7CHTO   H81 2808   6.511   0.928   4.589 -1.2217 -2.2994 -0.3114
    7CHTO    N7 2809   6.491   0.783   4.451 -0.4419 -0.4281  0.1555
    7CHTO   H73 2810   6.470   0.730   4.543 -0.7224  0.1635  0.4320
    7CHTO   H74 2811   6.569   0.725   4.404  1.0412  1.2431  0.5017
    7CHTO   C40 2812   6.700   0.929   4.481 -0.4180 -0.0035 -0.3060
    7CHTO   H82 2813   6.733   0.918   4.378 -1.0351 -2.3081 -0.2677
    7CHTO   O26 2814   6.741   1.053   4.539  0.0960 -0.2516  0.0195
    7CHTO   C41 2815   6.697   1.174   4.478  0.0820  0.1700  0.5651
    7CHTO   H83 2816   6.756   1.186   4.386  0.4170 -0.5088  0.6902
    7CHTO   C52 2817   6.749   1.285   4.575  0.2612 -0.0695 -0.1845
    7CHTO   O35 2818   6.903   1.290   4.601  0.2793 -0.2477  0.0362
    7CHTO   H71 2819   6.928   1.345   4.673  2.3318 -1.9920  0.7205
    7CHTO   O28 2820   6.768   0.831   4.559 -0.4829  0.3743  0.2215
    7CHTO   C42 2821   6.908   0.809   4.530  0.0854  0.1265 -0.4547
    7CHTO   H84 2822   6.940   0.741   4.608 -0.9060  0.2329  0.0410
    7CHTO   C44 2823   7.005   0.938   4.528  0.4913 -0.4509 -0.1941
    7CHTO   H86 2824   6.966   1.006   4.452 -1.4705  0.9313  1.9601
    7CHTO   O32 2825   6.985   1.000   4.657  0.3231 -0.0081  0.4946
    7CHTO   H69 2826   7.022   1.086   4.654 -0.6034  0.3657 -1.0845
    7CHTO   C48 2827   7.149   0.893   4.495 -0.4113 -0.2825 -0.2151
    7CHTO   H90 2828   7.179   0.814   4.564 -1.6457  0.3972  1.1044
    7CHTO    N9 2829   7.245   1.004   4.511 -0.3155  0.0162 -0.0875
    7CHTO   H77 2830   7.205   1.071   4.437 -2.0793 -0.9752 -0.0669
    7CHTO   H78 2831   7.229   1.044   4.610 -1.2531 -2.0936  0.6383
    7CHTO   C51 2832   7.155   0.824   4.353 -0.0017 -0.0308 -0.2537
    7CHTO   H93 2833   7.112   0.899   4.287  0.9610  0.7119 -0.0556
    7CHTO   O30 2834   7.079   0.701   4.362  0.8796 -0.8883  0.6469
    7CHTO   C46 2835   6.920   0.731   4.393  0.2159 -0.0514  0.6608
    7CHTO   H88 2836   6.882   0.790   4.310 -2.9036 -2.4178  0.3179
    7CHTO   C53 2837   6.845   0.591   4.397  0.2553 -0.2144 -0.5965
    7CHTO   O72 2838   6.868   0.531   4.270  0.3209 -0.0623  0.3249
    7CHTO  H199 2839   6.957   0.501   4.273 -0.9770 -4.1928  1.2241
    7CHTO   O22 2840   7.284   0.784   4.313  0.1627 -0.2342  0.1945
    7CHTO   C31 2841   7.324   0.764   4.175 -0.2627 -0.1162 -0.2027
    7CHTO   H59 2842   7.432   0.737   4.176 -0.1924  0.1781  0.3171
    7CHTO   C29 2843   7.257   0.649   4.102  0.2068  0.0604  0.5732
    7CHTO   H57 2844   7.151   0.678   4.110 -0.2338 -1.3900  0.0629
    7CHTO   O21 2845   7.266   0.531   4.184 -0.2799  0.1962  0.2132
    7CHTO   H37 2846   7.203   0.529   4.254  0.3465 -0.9741  0.7494
    7CHTO   C27 2847   7.302   0.631   3.949  0.5706 -0.0925  0.3255
    7CHTO   H55 2848   7.403   0.589   3.953  0.8247  0.5177  0.4887
    7CHTO    N5 2849   7.221   0.528   3.882  0.5321 -0.1749 -0.0442
    7CHTO   H43 2850   7.259   0.432   3.913 -1.1160  0.3248  3.8088
    7CHTO   H44 2851   7.233   0.544   3.776  0.3981 -1.2108 -0.2191
    7CHTO   C25 2852   7.303   0.772   3.873  0.0548 -0.0372 -0.4117
    7CHTO   H53 2853   7.200   0.800   3.845  0.5425  0.7769 -1.4045
    7CHTO   O17 2854   7.359   0.878   3.954  0.2078 -0.0409 -0.4688
    7CHTO   C32 2855   7.314   0.897   4.087  0.0374 -0.9015 -0.6004
    7CHTO   H60 2856   7.209   0.926   4.086  0.3543  0.3871  1.1463
    7CHTO   C36 2857   7.391   1.018   4.145 -0.6863  0.2769 -0.8426
    7CHTO   O25 2858   7.317   1.141   4.124 -0.4168  0.2548 -0.1498
    7CHTO   H40 2859   7.285   1.140   4.036 -0.2271  0.4814 -0.2219
    7CHTO   O15 2860   7.388   0.751   3.740 -0.0887 -0.1958 -0.0085
    7CHTO   C19 2861   7.376   0.825   3.607 -0.0550  0.0483 -0.4531
    7CHTO   H47 2862   7.454   0.783   3.542 -0.4437  2.3445 -2.4987
    7CHTO   C20 2863   7.242   0.798   3.534  0.3852  0.0029  0.2777
    7CHTO   H48 2864   7.154   0.808   3.599  0.0055 -1.1200 -0.0527
    7CHTO   O19 2865   7.254   0.658   3.506 -0.6238 -0.5266 -0.3619
    7CHTO   H35 2866   7.169   0.625   3.481 -1.0741 -0.7384  1.4050
    7CHTO   C21 2867   7.229   0.888   3.406 -0.6205  0.5738 -0.7746
    7CHTO   H49 2868   7.305   0.856   3.335  1.3907  0.0195  1.5716
    7CHTO    N4 2869   7.089   0.881   3.352  0.1752 -0.4076 -0.2781
    7CHTO   H41 2870   7.071   0.963   3.284  1.7252  1.6523  1.6808
    7CHTO   H42 2871   7.019   0.888   3.435 -1.3496 -2.1416 -1.3887
    7CHTO   C22 2872   7.269   1.035   3.437 -0.5199 -0.0008  0.4017
    7CHTO   H50 2873   7.201   1.074   3.513  1.1576  0.9317  1.4399
    7CHTO   O14 2874   7.396   1.041   3.493  0.2667  0.6873 -0.0935
    7CHTO   C23 2875   7.407   0.978   3.623 -0.6047  0.1078  0.0588
    7CHTO   H51 2876   7.342   1.029   3.696 -0.3745  0.2575  0.1613
    7CHTO   C34 2877   7.550   0.997   3.680 -0.7965  0.0529 -1.0718
    7CHTO   O23 2878   7.567   1.132   3.724  0.3000  0.5962 -0.0159
    7CHTO   H38 2879   7.553   1.184   3.647  1.2512  1.6459  0.5236
    7CHTO   O16 2880   7.278   1.111   3.323 -0.3078 -0.5590  0.3956
    7CHTO   C24 2881   7.204   1.258   3.348 -0.3459 -0.6535 -0.1140
    7CHTO   H52 2882   7.156   1.263   3.446  1.4089  1.8598  0.6460
    7CHTO   C26 2883   7.095   1.286   3.241  0.6305 -0.6936 -0.5777
    7CHTO   H54 2884   7.142   1.288   3.141 -1.6231 -1.0096 -1.6815
    7CHTO   O20 2885   7.008   1.172   3.211  0.3701  0.2943 -0.3104
    7CHTO   H36 2886   6.977   1.126   3.287 -2.0917  3.5236  0.7273
    7CHTO   C30 2887   7.011   1.413   3.275  0.1183  0.3736 -0.4758
    7CHTO   H58 2888   6.945   1.396   3.361  1.6096  0.1368  0.6407
    7CHTO    N6 2889   6.911   1.453   3.163 -0.3675 -0.0958  0.1937
    7CHTO   H45 2890   6.960   1.454   3.067  1.7166  3.0547  1.1990
    7CHTO   H46 2891   6.882   1.555   3.181 -0.5147  0.1649 -1.4675
    7CHTO   C33 2892   7.109   1.532   3.308 -0.5911 -0.3651 -0.3155
    7CHTO   H61 2893   7.153   1.574   3.216  2.1559 -3.0452 -0.3070
    7CHTO   O18 2894   7.227   1.496   3.385  0.2120 -0.2145 -0.0320
    7CHTO   C28 2895   7.304   1.382   3.341  0.1820 -0.4234 -0.5098
    7CHTO   H56 2896   7.335   1.398   3.238  2.1265 -0.6991  0.0177
    7CHTO   C35 2897   7.423   1.367   3.447 -0.2448 -0.5320 -0.3051
    7CHTO   O24 2898   7.554   1.404   3.393  0.5283  0.8781 -0.3201
    7CHTO   H39 2899   7.615   1.429   3.459  1.6027 -0.2173 -0.8742
    7CHTO    O9 2900   7.032   1.640   3.367 -0.4883 -0.2839 -0.0519
    7CHTO   C13 2901   7.100   1.784   3.373 -0.0250  0.2276 -0.1290
    7CHTO   H26 2902   7.142   1.802   3.271 -0.2212  0.8068 -0.1069
    7CHTO   C11 2903   7.208   1.792   3.487 -0.0829 -0.7588 -0.0188
    7CHTO   H24 2904   7.295   1.733   3.452  0.9846  0.9266 -0.2725
    7CHTO    O8 2905   7.162   1.738   3.616  0.2249 -0.1391 -0.2567
    7CHTO    H3 2906   7.099   1.669   3.607  0.1927  0.0435 -1.5383
    7CHTO    C9 2907   7.252   1.943   3.494 -0.6532  0.0054  0.1752
    7CHTO   H22 2908   7.276   1.972   3.390 -0.0966 -0.8039  0.0766
    7CHTO    N2 2909   7.369   1.969   3.580  0.3343  0.4527 -0.1601
    7CHTO   H10 2910   7.356   2.013   3.678 -1.8852 -2.2242  0.8057
    7CHTO   H11 2911   7.445   1.894   3.567 -0.0705 -0.4647  2.4189
    7CHTO    C7 2912   7.127   2.025   3.544 -0.8271  0.9356  0.3729
    7CHTO   H20 2913   7.161   2.130   3.529  0.4954  0.6206  1.0630
    7CHTO    O4 2914   7.009   2.008   3.468 -0.2112 -0.0020  0.2320
    7CHTO   C14 2915   6.982   1.892   3.391  0.1906  0.1171 -0.3807
    7CHTO   H27 2916   6.949   1.921   3.289 -3.3533 -3.3553 -0.3682
    7CHTO   C18 2917   6.853   1.827   3.451 -1.3223  0.2188  0.0162
    7CHTO   O13 2918   6.732   1.890   3.423  0.8315  0.3573  0.9378
    7CHTO    H7 2919   6.661   1.830   3.433 -0.4726  1.9681  1.5949
    7CHTO    O2 2920   7.090   1.988   3.690 -0.6208  0.4185  0.8667
    7CHTO    C1 2921   7.034   2.107   3.755 -0.7510 -0.9395  0.0099
    7CHTO   H14 2922   6.968   2.166   3.688 -0.6128 -0.3790  0.3640
    7CHTO    C2 2923   7.138   2.205   3.816 -0.3567 -0.4922 -0.0823
    7CHTO   H15 2924   7.195   2.154   3.894  0.1335 -2.2810 -1.5582
    7CHTO    O6 2925   7.222   2.259   3.710  0.2971 -0.1394  0.2984
    7CHTO    H1 2926   7.268   2.333   3.745 -0.1320 -0.6920  2.0616
    7CHTO    C3 2927   7.064   2.326   3.900 -0.1067  0.9013  0.3003
    7CHTO   H16 2928   6.996   2.377   3.830 -2.6000 -2.0165  0.4640
    7CHTO    N1 2929   7.167   2.420   3.963  0.1470  0.1244 -0.1235
    7CHTO    H8 2930   7.135   2.456   4.059 -2.2949  0.4697 -1.0313
    7CHTO    H9 2931   7.264   2.376   3.944  0.1667  0.5772 -1.1092
    7CHTO    C4 2932   6.967   2.258   4.007 -0.2919 -0.1627 -0.1441
    7CHTO   H17 2933   7.028   2.216   4.087  1.2401  0.4907 -0.9518
    7CHTO    O1 2934   6.873   2.169   3.945  0.2604 -0.4510 -0.1000
    7CHTO    C5 2935   6.935   2.059   3.867  0.4403  0.5278 -0.4176
    7CHTO   H18 2936   6.985   1.999   3.942  1.4594  0.0404 -1.4799
    7CHTO   C16 2937   6.819   1.978   3.807  0.1292 -0.1611  0.6151
    7CHTO   O11 2938   6.753   2.057   3.711 -0.0865 -0.0999  0.2605
    7CHTO    H5 2939   6.706   2.010   3.645 -1.1342  1.4157 -0.1213
    7CHTO    O3 2940   6.890   2.367   4.061 -0.6034 -0.0455  0.5637
    7CHTO    C6 2941   6.850   2.354   4.197  0.2459 -0.4054  0.4055
    7CHTO   H19 2942   6.856   2.254   4.240 -0.5067 -0.7490 -0.2688
    7CHTO    C8 2943   6.938   2.447   4.288  0.0038  0.1966 -0.0367
    7CHTO   H21 2944   6.934   2.552   4.259  0.6566  0.1499 -0.2764
    7CHTO    O7 2945   7.075   2.394   4.291  0.3372 -0.3064 -0.7149
    7CHTO    H2 2946   7.129   2.431   4.223  3.0058 -1.7642  0.5364
    7CHTO   C12 2947   6.885   2.457   4.437 -0.7740 -0.5391  0.1391
    7CHTO   H25 2948   6.910   2.357   4.480  4.0716  0.7011  0.5697
    7CHTO    N3 2949   6.953   2.557   4.529 -0.2547  0.7788 -0.5674
    7CHTO   H12 2950   6.917   2.540   4.629  1.6907  0.8878  0.1689
    7CHTO   H13 2951   7.060   2.540   4.534 -0.5981 -1.2539  0.4920
    7CHTO   C15 2952   6.736   2.474   4.434  0.3553  0.5312  0.0567
    7CHTO   H28 2953   6.700   2.575   4.410  0.8400  1.0396  1.4337
    7CHTO   O10 2954   6.683   2.445   4.578 -0.1167  0.1973  0.0658
    7CHTO    H4 2955   6.723   2.368   4.616  0.4721  0.9974  1.0907
    7CHTO    O5 2956   6.667   2.385   4.345 -0.2968 -0.6425 -0.2736
    7CHTO   C10 2957   6.709   2.395   4.210  0.4638  0.4849  0.1155
    7CHTO   H23 2958   6.694   2.496   4.172  1.2126 -0.1830 -2.0427
    7CHTO   C17 2959   6.613   2.313   4.118 -0.4591  0.1914  0.3388
    7CHTO   O12 2960   6.484   2.374   4.098  0.6057  0.9204 -0.1606
    7CHTO    H6 2961   6.500   2.455   4.054  3.1417  0.9214  0.7286
    8CHTO  H203 2962   7.704   6.434   1.478  3.8030 -1.3470  0.6660
    8CHTO   O82 2963   7.658   6.394   1.548  0.0765  0.1942 -0.7765
    8CHTO  C123 2964   7.535   6.453   1.573  0.4723  0.0210  0.0272
    8CHTO  H227 2965   7.484   6.401   1.655 -0.8938  1.4268  0.0867
    8CHTO   O77 2966   7.561   6.592   1.624  0.1083 -0.2340 -0.0980
    8CHTO  C118 2967   7.443   6.660   1.677  0.6181 -0.6526 -0.0207
    8CHTO  H222 2968   7.404   6.597   1.759 -0.1184  1.3006  1.1481
    8CHTO  C125 2969   7.482   6.794   1.734 -0.1510  0.2990 -0.1512
    8CHTO   O84 2970   7.570   6.772   1.848  0.4643 -0.4010 -0.2865
    8CHTO  H205 2971   7.609   6.853   1.873 -0.0355 -0.5989  1.1533
    8CHTO  C114 2972   7.330   6.678   1.570 -0.1107 -0.2441 -0.1806
    8CHTO  H218 2973   7.363   6.749   1.495 -2.1499 -1.4771 -2.3416
    8CHTO  C116 2974   7.302   6.542   1.493  0.1887 -0.1780  1.0768
    8CHTO  H220 2975   7.234   6.480   1.554 -1.3957 -0.5012 -0.9544
    8CHTO   O79 2976   7.226   6.568   1.371  0.0844  0.1407  0.3132
    8CHTO  H201 2977   7.267   6.640   1.326  1.8277 -1.3012 -0.4777
    8CHTO  C120 2978   7.433   6.464   1.455 -0.5962  0.2834 -0.2935
    8CHTO  H224 2979   7.480   6.522   1.372  1.4501 -1.0428 -0.0909
    8CHTO   N21 2980   7.406   6.329   1.402  0.6376 -0.2919  0.0411
    8CHTO  H211 2981   7.412   6.260   1.485 -2.6617  0.6818  1.1567
    8CHTO  H212 2982   7.311   6.322   1.351  0.6031  0.5389 -0.0210
    8CHTO   O75 2983   7.214   6.739   1.638 -0.0644  0.6172 -0.6711
    8CHTO  C112 2984   7.143   6.857   1.560  0.2858  0.4599  0.2342
    8CHTO  H216 2985   7.103   6.830   1.461  0.8502  3.0737 -0.7701
    8CHTO   O73 2986   7.244   6.957   1.541 -0.6524  0.4405 -0.1285
    8CHTO  C113 2987   7.204   7.077   1.474 -0.5175  0.0500  0.3601
    8CHTO  H217 2988   7.213   7.058   1.365 -0.7462  1.0693  0.1571
    8CHTO  C124 2989   7.314   7.182   1.503 -0.1869 -0.1768  0.1748
    8CHTO   O83 2990   7.303   7.291   1.412  0.1727  0.1231 -0.0122
    8CHTO  H204 2991   7.353   7.369   1.424 -1.9568  1.6380 -0.7485
    8CHTO  C109 2992   7.072   7.133   1.535  0.5498  0.0400  0.0379
    8CHTO  H213 2993   7.100   7.170   1.635 -1.1979  1.4722  0.0079
    8CHTO  C110 2994   6.960   7.027   1.563 -0.1579  0.0080  0.9995
    8CHTO  H214 2995   6.923   6.992   1.467 -1.4436  1.2198  1.0481
    8CHTO   O78 2996   6.860   7.089   1.649  0.3405  0.0777 -0.0124
    8CHTO  H200 2997   6.890   7.102   1.737  1.0029 -0.6797 -0.1164
    8CHTO  C111 2998   7.022   6.904   1.639  0.1108  0.5417  0.2552
    8CHTO  H215 2999   7.055   6.949   1.734 -0.3932  1.2962  0.0843
    8CHTO   N19 3000   6.923   6.791   1.662 -0.5673  0.2846  0.2687
    8CHTO  H207 3001   6.904   6.740   1.568  3.3922  1.5748 -1.3100
    8CHTO  H208 3002   6.959   6.725   1.739 -0.8581 -1.3020 -0.9237
    8CHTO   O74 3003   7.025   7.247   1.455 -0.1530  0.1781  0.4094
    8CHTO  C115 3004   6.968   7.387   1.525 -1.3265 -0.4047  0.1132
    8CHTO  H219 3005   6.859   7.390   1.529 -1.3000  1.5771 -0.2043
    8CHTO   O76 3006   7.013   7.396   1.672 -0.6826 -0.5945  0.3367
    8CHTO  C122 3007   7.006   7.518   1.748  0.0238 -1.1741  0.8311
    8CHTO  H226 3008   7.084   7.499   1.822  1.2884 -0.2660 -0.2442
    8CHTO  C126 3009   6.866   7.524   1.826 -0.7706 -0.0784  0.0636
    8CHTO   O85 3010   6.844   7.396   1.896 -0.0546  0.1248  0.0152
    8CHTO  H206 3011   6.828   7.337   1.825 -0.1402 -2.4259  2.0660
    8CHTO  C121 3012   7.043   7.650   1.662 -0.2446  0.6130 -0.3906
    8CHTO  H225 3013   6.987   7.725   1.722  0.0487 -0.8079  1.7201
    8CHTO   O81 3014   7.187   7.675   1.655  0.4511  0.4168 -1.1471
    8CHTO  H202 3015   7.229   7.682   1.738 -1.4052 -1.2471 -0.0001
    8CHTO  C119 3016   6.977   7.652   1.517 -0.5026 -0.4900  0.1272
    8CHTO  H223 3017   6.869   7.657   1.526 -0.4464  0.5683  0.3377
    8CHTO  C117 3018   7.018   7.512   1.450  0.1240 -0.6858 -0.1096
    8CHTO  H221 3019   7.123   7.488   1.429  1.2017  1.2126  2.7450
    8CHTO   N20 3020   6.947   7.509   1.315  0.5649 -0.3829 -0.3623
    8CHTO  H209 3021   6.853   7.562   1.319  1.5164  1.3266 -0.3904
    8CHTO  H210 3022   6.998   7.545   1.227 -1.8485  1.3132 -1.1284
    8CHTO   O80 3023   7.000   7.783   1.427  0.4198 -0.1893 -0.1529
    8CHTO  C103 3024   6.948   7.905   1.456 -0.1603 -1.2318 -0.3889
    8CHTO  H190 3025   6.871   7.907   1.533 -0.1615 -1.3286 -0.3873
    8CHTO  C101 3026   7.056   8.006   1.508  0.4398 -0.0855 -0.1856
    8CHTO  H188 3027   7.142   7.992   1.443  0.2365  0.2608 -0.5310
    8CHTO   O68 3028   7.100   7.957   1.660  0.4602  0.0364 -0.3649
    8CHTO  H168 3029   7.022   7.952   1.713  0.5118 -2.4466 -0.4849
    8CHTO   C99 3030   7.010   8.158   1.501 -0.5183  0.0728 -0.5119
    8CHTO  H186 3031   6.929   8.170   1.577  0.0789  0.2571  0.0951
    8CHTO   N17 3032   7.120   8.254   1.528  0.2431  0.3157 -0.1752
    8CHTO  H174 3033   7.160   8.239   1.628 -0.6131  2.2476  0.4691
    8CHTO  H175 3034   7.203   8.246   1.459  0.0195  0.0958 -0.4159
    8CHTO   C97 3035   6.938   8.190   1.366 -0.0096 -0.5115  0.7656
    8CHTO  H184 3036   7.009   8.188   1.281 -3.6235 -1.4731 -2.3444
    8CHTO   O64 3037   6.826   8.100   1.345 -0.8310 -0.1949  0.1697
    8CHTO  C104 3038   6.874   7.962   1.323  0.7409  0.4644 -0.0351
    8CHTO  H191 3039   6.937   7.957   1.235 -0.8786 -1.6912 -1.1235
    8CHTO  C108 3040   6.753   7.873   1.280 -0.5259 -0.9957  0.4656
    8CHTO   O71 3041   6.665   7.859   1.392 -0.2325  0.2901  0.9597
    8CHTO  H171 3042   6.700   7.818   1.469  0.2114 -1.6637 -0.2565
    8CHTO   O62 3043   6.873   8.314   1.359 -0.7013 -0.0242  0.1569
    8CHTO   C91 3044   6.918   8.410   1.261 -0.8247 -0.1942  0.7867
    8CHTO  H178 3045   7.026   8.396   1.254 -0.8649  0.6246 -2.2350
    8CHTO   C92 3046   6.904   8.545   1.340 -0.0249 -0.0855  0.0961
    8CHTO  H179 3047   6.796   8.544   1.359 -0.4347  0.6027 -2.0648
    8CHTO   O66 3048   6.975   8.552   1.463 -0.0317  0.1572 -0.4005
    8CHTO  H166 3049   7.058   8.508   1.462 -0.7917 -1.5424  2.7011
    8CHTO   C93 3050   6.942   8.671   1.244 -0.3360 -0.2876  0.1888
    8CHTO  H180 3051   7.051   8.678   1.236 -0.2630  0.5994  1.6894
    8CHTO   N16 3052   6.893   8.799   1.302 -0.3872 -0.0544 -0.2471
    8CHTO  H172 3053   6.958   8.828   1.384 -0.0447 -1.7117  0.0726
    8CHTO  H173 3054   6.794   8.792   1.345 -0.5616 -0.1648 -0.6701
    8CHTO   C94 3055   6.879   8.659   1.105  0.2825 -0.2595  0.0325
    8CHTO  H181 3056   6.773   8.682   1.104  0.7877  2.4029 -3.4062
    8CHTO   O61 3057   6.896   8.530   1.039  0.2450  0.5852 -0.7064
    8CHTO   C95 3058   6.847   8.415   1.116 -0.5198  0.7899  0.2992
    8CHTO  H182 3059   6.738   8.422   1.125 -0.6489  1.1520 -1.2857
    8CHTO  C106 3060   6.873   8.292   1.030 -0.5960  1.0902 -0.2927
    8CHTO   O69 3061   6.804   8.174   1.079  0.1092  0.2948 -0.0608
    8CHTO  H169 3062   6.828   8.108   1.017 -0.8300  0.0253 -0.1400
    8CHTO   O63 3063   6.955   8.762   1.009 -0.3619  0.8654 -0.4134
    8CHTO   C96 3064   6.906   8.759   0.865  0.4336  0.1775  0.3558
    8CHTO  H183 3065   6.811   8.705   0.867 -0.1607  1.2535  1.8987
    8CHTO   C98 3066   7.009   8.702   0.761  0.0607 -0.2634  0.8444
    8CHTO  H185 3067   7.105   8.754   0.778  0.2124 -0.3371  0.2064
    8CHTO   O67 3068   7.033   8.560   0.789  0.0501 -0.2563 -0.1142
    8CHTO  H167 3069   7.118   8.547   0.827 -0.6701 -0.2105  1.5964
    8CHTO  C102 3070   6.957   8.726   0.607  0.5105 -0.1637  0.2570
    8CHTO  H189 3071   6.877   8.653   0.589 -1.4554  1.3579  2.5804
    8CHTO   N18 3072   7.065   8.699   0.509  0.3338  0.0031 -0.0718
    8CHTO  H176 3073   7.028   8.632   0.433 -0.8526 -1.0431  1.3873
    8CHTO  H177 3074   7.093   8.791   0.460  0.7042 -0.3260 -0.4767
    8CHTO  C105 3075   6.897   8.871   0.584  0.0143 -0.2568  0.0780
    8CHTO  H192 3076   6.978   8.944   0.571  1.4475 -1.7140  0.6384
    8CHTO   O65 3077   6.811   8.910   0.694 -0.6076 -0.4198 -0.1449
    8CHTO  C100 3078   6.879   8.907   0.821  0.1890  0.1119 -0.5018
    8CHTO  H187 3079   6.977   8.954   0.806  0.4943 -0.7036 -1.1518
    8CHTO  C107 3080   6.803   8.985   0.930 -0.1607 -0.1700 -0.2773
    8CHTO   O70 3081   6.671   8.928   0.942  0.1720 -0.1209 -0.2742
    8CHTO  H170 3082   6.628   8.969   1.015 -0.2178 -1.7027  0.3908
    8CHTO   O57 3083   6.814   8.867   0.440 -0.3348 -0.2836  0.3389
    8CHTO   C85 3084   6.844   8.955   0.336  0.1748 -0.1239 -0.1443
    8CHTO  H157 3085   6.952   8.937   0.315  0.5895  0.8902  1.0712
    8CHTO   C83 3086   6.842   9.104   0.382  0.1391  0.1386 -0.1377
    8CHTO  H155 3087   6.930   9.121   0.444  0.9872 -3.5259 -0.2488
    8CHTO   O56 3088   6.725   9.129   0.460  0.5119 -0.0314  0.8419
    8CHTO  H135 3089   6.646   9.146   0.413  0.8933  1.2200  0.6405
    8CHTO   C81 3090   6.849   9.201   0.262 -0.7699  0.2029 -0.2085
    8CHTO  H153 3091   6.944   9.181   0.212 -0.4389  2.3109 -0.4583
    8CHTO   N14 3092   6.859   9.349   0.294 -0.4065  1.0100 -0.1996
    8CHTO  H141 3093   6.782   9.399   0.239 -3.5315  0.4424  3.4469
    8CHTO  H142 3094   6.855   9.381   0.396  1.8915 -1.8769  0.8991
    8CHTO   C79 3095   6.734   9.171   0.157  0.0456  0.1568 -0.9210
    8CHTO  H151 3096   6.758   9.229   0.069  1.8680 -1.6081 -1.6378
    8CHTO   O52 3097   6.744   9.033   0.107  0.5001  0.0920 -0.6158
    8CHTO   C86 3098   6.756   8.928   0.206  0.3331  1.0014  0.2895
    8CHTO  H158 3099   6.650   8.923   0.239  0.8413 -0.8059  1.7162
    8CHTO   C90 3100   6.790   8.795   0.136 -0.1128 -0.1994 -0.4772
    8CHTO   O60 3101   6.901   8.799   0.041 -0.3468 -0.2879  0.2711
    8CHTO  H138 3102   6.872   8.865  -0.019  0.2352  0.6305  0.9894
    8CHTO   O50 3103   6.600   9.200   0.214 -0.5906  0.2228  0.4913
    8CHTO   C73 3104   6.473   9.236   0.168 -0.0893  0.0502  0.2442
    8CHTO  H145 3105   6.473   9.209   0.062  0.1454 -0.0073  0.2586
    8CHTO   C74 3106   6.445   9.387   0.198 -0.0151 -0.5781  0.3840
    8CHTO  H146 3107   6.529   9.441   0.152 -0.8000  0.3287  0.0038
    8CHTO   O54 3108   6.319   9.419   0.134  0.2522  0.5141 -0.3876
    8CHTO  H133 3109   6.262   9.474   0.185 -0.5404 -0.0235 -0.6888
    8CHTO   C75 3110   6.445   9.409   0.354  0.0124  0.6975 -0.2060
    8CHTO  H147 3111   6.552   9.418   0.378 -0.0131  2.8054 -0.8518
    8CHTO   N13 3112   6.400   9.543   0.394 -0.3629  0.3410  0.0745
    8CHTO  H139 3113   6.369   9.607   0.312 -0.5751 -0.8951 -0.8403
    8CHTO  H140 3114   6.453   9.598   0.469  3.5387  2.6121 -4.0707
    8CHTO   C76 3115   6.376   9.294   0.434  0.7854 -0.4883  0.6422
    8CHTO  H148 3116   6.268   9.308   0.425  0.7648 -0.8608  0.2818
    8CHTO   O49 3117   6.403   9.161   0.387 -0.4349 -0.4332 -0.9767
    8CHTO   C77 3118   6.381   9.141   0.245 -0.1477 -0.1607 -0.3589
    8CHTO  H149 3119   6.278   9.167   0.222 -0.2314 -0.5879 -0.4765
    8CHTO   C88 3120   6.394   8.990   0.216  0.0946  0.5365 -0.8093
    8CHTO   O58 3121   6.282   8.909   0.305 -0.3872  0.2909  0.3705
    8CHTO  H136 3122   6.236   8.853   0.246  1.1806 -0.7862  0.1398
    8CHTO   O51 3123   6.424   9.303   0.574  0.1831 -0.0304 -0.2028
    8CHTO   C78 3124   6.304   9.244   0.685 -0.1592 -0.0695 -0.3819
    8CHTO  H150 3125   6.210   9.219   0.632  1.7646 -1.7469 -3.1120
    8CHTO   C80 3126   6.274   9.355   0.789 -0.4387  0.0864 -0.2818
    8CHTO  H152 3127   6.370   9.399   0.822 -0.1527 -0.1431 -0.8031
    8CHTO   O55 3128   6.196   9.457   0.726 -0.0246  0.4663 -0.1366
    8CHTO  H134 3129   6.224   9.468   0.637  2.1072 -0.0476  0.4356
    8CHTO   C84 3130   6.194   9.299   0.921  0.9121  0.1908  0.6895
    8CHTO  H156 3131   6.090   9.277   0.897  0.1216  2.1207  2.1960
    8CHTO   N15 3132   6.179   9.402   1.028  0.0310  0.5019  0.1497
    8CHTO  H143 3133   6.243   9.391   1.113 -0.0667  0.0959  0.1721
    8CHTO  H144 3134   6.077   9.411   1.059  0.1606 -1.2527  1.1761
    8CHTO   C87 3135   6.248   9.165   0.976 -0.4961  0.2444 -0.5713
    8CHTO  H159 3136   6.341   9.190   1.027 -1.4458  0.0569  1.2987
    8CHTO   O53 3137   6.275   9.077   0.861 -0.0592 -0.1368  0.7362
    8CHTO   C82 3138   6.364   9.121   0.758 -0.1759 -0.0340  0.1589
    8CHTO  H154 3139   6.462   9.138   0.803  0.3088 -3.4033  0.5442
    8CHTO   C89 3140   6.376   8.998   0.669  0.2568 -0.8816 -0.5300
    8CHTO   O59 3141   6.442   8.898   0.745  0.5811  0.0192 -0.0506
    8CHTO  H137 3142   6.513   8.857   0.700  2.5071  1.1087  1.8522
    8CHTO   O45 3143   6.138   9.085   1.056 -0.3569 -0.5480 -0.5737
    8CHTO   C67 3144   6.183   8.968   1.120 -0.4928 -0.0430 -0.6387
    8CHTO  H124 3145   6.279   8.932   1.084 -0.5919  0.9315 -1.8961
    8CHTO   C65 3146   6.193   8.999   1.275 -0.1705  0.1402 -0.0908
    8CHTO  H122 3147   6.129   9.085   1.295 -1.6067 -0.3163 -2.4865
    8CHTO   O44 3148   6.331   9.035   1.287 -0.4774 -0.3726  0.1747
    8CHTO  H102 3149   6.337   9.125   1.259 -0.4157 -0.7134 -0.9373
    8CHTO   C63 3150   6.142   8.877   1.361  0.4443  0.5826 -0.4722
    8CHTO  H120 3151   6.033   8.880   1.361  0.4809  2.3578 -1.7198
    8CHTO   N11 3152   6.171   8.886   1.507 -0.2897  0.1466 -0.3834
    8CHTO  H108 3153   6.144   8.983   1.543 -3.3350 -1.5241  1.9536
    8CHTO  H109 3154   6.273   8.870   1.534 -1.5106 -3.1869  2.5487
    8CHTO   C61 3155   6.184   8.738   1.298 -0.0335 -0.0477  0.4086
    8CHTO  H118 3156   6.135   8.661   1.359  1.4885 -1.5099 -0.1463
    8CHTO   O40 3157   6.129   8.735   1.165  0.1466  0.1917  0.3285
    8CHTO   C68 3158   6.082   8.850   1.091 -0.3590 -0.0833  0.5033
    8CHTO  H125 3159   5.979   8.883   1.115  0.1635  2.6385 -0.7421
    8CHTO   C72 3160   6.080   8.809   0.937  0.0529 -1.0823 -0.3393
    8CHTO   O48 3161   5.961   8.744   0.903 -1.3622 -0.0389 -0.2603
    8CHTO  H105 3162   5.989   8.656   0.885  0.1254  0.4289 -0.3337
    8CHTO   O38 3163   6.326   8.715   1.292  0.1122  0.0169 -0.2402
    8CHTO   C55 3164   6.348   8.567   1.288 -0.3859  0.2751  0.9143
    8CHTO  H112 3165   6.259   8.509   1.262 -1.0253  2.1190 -1.0974
    8CHTO   C56 3166   6.414   8.518   1.428 -0.3284 -0.2025 -0.3979
    8CHTO  H113 3167   6.493   8.593   1.444  0.0886 -0.6886 -0.1742
    8CHTO   O42 3168   6.314   8.547   1.526  0.6519 -0.1037 -0.2175
    8CHTO  H100 3169   6.336   8.500   1.604  1.4176 -2.2593 -1.6843
    8CHTO   C57 3170   6.448   8.366   1.417  0.0752  0.0860 -0.2841
    8CHTO  H114 3171   6.354   8.311   1.422  0.6164 -1.0539 -2.0462
    8CHTO   N10 3172   6.519   8.338   1.541 -0.0020  0.0211 -0.5889
    8CHTO  H106 3173   6.530   8.231   1.550  0.2096 -0.0104 -1.2212
    8CHTO  H107 3174   6.479   8.382   1.631 -1.4693 -2.5755  0.0704
    8CHTO   C58 3175   6.527   8.332   1.286 -0.6474 -0.1056  0.8128
    8CHTO  H115 3176   6.633   8.364   1.299 -1.0192  2.0466 -0.9457
    8CHTO   O37 3177   6.479   8.393   1.167 -0.1286  0.3947  0.2396
    8CHTO   C59 3178   6.451   8.534   1.184  0.2489  0.0160  0.3774
    8CHTO  H116 3179   6.543   8.579   1.223  1.0329 -0.8633 -0.4145
    8CHTO   C70 3180   6.394   8.574   1.049 -0.0096 -0.5644  0.0525
    8CHTO   O46 3181   6.428   8.711   1.030  0.8485 -0.3667 -0.2641
    8CHTO  H103 3182   6.419   8.735   0.940 -0.5346  1.5163  0.3492
    8CHTO   O39 3183   6.534   8.178   1.267 -0.1495 -0.0625 -0.1725
    8CHTO   C60 3184   6.417   8.127   1.193 -0.5096  0.0352  0.2972
    8CHTO  H117 3185   6.331   8.192   1.208 -1.0593 -0.7284  0.4678
    8CHTO   C62 3186   6.436   8.119   1.040  0.3403  0.0717 -0.6393
    8CHTO  H119 3187   6.448   8.220   0.997  0.1221  1.1677  1.7508
    8CHTO   O43 3188   6.556   8.035   1.017 -0.3117  0.1915  0.5507
    8CHTO  H101 3189   6.633   8.089   1.013  0.1277 -0.5930 -2.6198
    8CHTO   C66 3190   6.297   8.060   0.968  0.5144 -0.5047  0.5150
    8CHTO  H123 3191   6.216   8.127   0.997 -1.3634 -2.8118  0.7907
    8CHTO   N12 3192   6.318   8.063   0.822  0.4882  0.3050  0.5103
    8CHTO  H110 3193   6.413   8.099   0.787 -0.4564  1.4820 -0.8804
    8CHTO  H111 3194   6.232   8.083   0.760  0.8542  1.5691  0.4018
    8CHTO   C69 3195   6.265   7.916   1.030  0.5886 -0.1069  0.1865
    8CHTO  H126 3196   6.344   7.854   0.982 -0.8306 -0.7899 -1.3151
    8CHTO   O41 3197   6.281   7.907   1.172 -0.2414 -0.0179 -0.0092
    8CHTO   C64 3198   6.378   7.982   1.248 -0.5499 -0.1141 -0.3385
    8CHTO  H121 3199   6.469   7.924   1.272 -1.3939 -2.4060 -2.4087
    8CHTO   C71 3200   6.319   8.006   1.389  0.4523 -0.6204  0.1608
    8CHTO   O47 3201   6.308   7.875   1.447 -0.7575  0.2822  0.2088
    8CHTO  H104 3202   6.280   7.874   1.536  2.2897 -0.3997  1.2139
    8CHTO   O34 3203   6.121   7.864   0.993  0.3206  0.3384 -0.1876
    8CHTO   C49 3204   5.995   7.893   1.057 -0.0931  0.1911 -0.2989
    8CHTO   H91 3205   5.982   7.814   1.132  0.7053  0.3080 -0.0365
    8CHTO   C47 3206   5.880   7.864   0.954 -0.7671  0.0447  0.0422
    8CHTO   H89 3207   5.786   7.861   1.013 -0.3314  0.0908  0.7504
    8CHTO   O33 3208   5.909   7.730   0.906 -0.3692 -0.4210 -0.9625
    8CHTO   H70 3209   5.838   7.670   0.920  0.8982 -1.6981  0.0925
    8CHTO   C45 3210   5.876   7.975   0.842 -0.2104 -0.3669 -0.1705
    8CHTO   H87 3211   5.970   7.963   0.786 -0.4682 -0.1429 -0.6505
    8CHTO    N8 3212   5.761   7.953   0.748 -0.1220  0.3502 -0.0233
    8CHTO   H75 3213   5.785   7.943   0.643 -1.8198 -1.6041 -0.2532
    8CHTO   H76 3214   5.712   7.866   0.790  1.5471 -0.9237 -0.6597
    8CHTO   C43 3215   5.862   8.125   0.906 -0.0226  0.3148  0.3971
    8CHTO   H85 3216   5.891   8.189   0.823  3.0932 -1.0879  0.3041
    8CHTO   O29 3217   5.956   8.139   1.017  0.1256  0.5102 -0.0196
    8CHTO   C50 3218   5.980   8.034   1.113  0.1774  0.2368 -0.3359
    8CHTO   H92 3219   6.080   8.061   1.152 -0.8578 -1.4918  3.6904
    8CHTO   C54 3220   5.892   8.030   1.240  0.0287  0.8893 -0.0180
    8CHTO   O36 3221   5.941   7.928   1.335 -0.2091 -0.2494 -0.1114
    8CHTO   H72 3222   5.936   7.843   1.296  2.0325 -0.5760  0.2117
    8CHTO   O27 3223   5.731   8.162   0.951 -0.5635  0.1141  0.3545
    8CHTO   C37 3224   5.673   8.292   0.962  0.3307  0.4682 -0.6358
    8CHTO   H79 3225   5.582   8.281   1.023  1.6323 -1.4659  0.9990
    8CHTO   C38 3226   5.758   8.380   1.052 -0.0792  0.1116  0.2773
    8CHTO   H80 3227   5.860   8.385   1.012  0.2911  2.1401  1.4104
    8CHTO   O31 3228   5.775   8.316   1.187  0.1453 -0.0179  0.5410
    8CHTO   H68 3229   5.852   8.352   1.228  1.3862 -2.7044  0.6741
    8CHTO   C39 3230   5.705   8.524   1.063 -0.7914  0.1625 -0.7692
    8CHTO   H81 3231   5.608   8.522   1.113 -0.4119 -0.1966 -0.0506
    8CHTO    N7 3232   5.795   8.617   1.140 -0.0134  0.0740  0.5674
    8CHTO   H73 3233   5.765   8.720   1.142  1.7273  0.6388 -0.8848
    8CHTO   H74 3234   5.813   8.571   1.236 -0.6438 -0.7589  0.2959
    8CHTO   C40 3235   5.664   8.580   0.915 -0.4190 -0.3203 -0.0968
    8CHTO   H82 3236   5.741   8.625   0.852  0.8422 -1.2300  0.7636
    8CHTO   O26 3237   5.586   8.475   0.843  0.3063 -0.1387  0.3749
    8CHTO   C41 3238   5.635   8.346   0.827  0.1357  0.0141 -0.2045
    8CHTO   H83 3239   5.721   8.350   0.758  0.5001  1.7981  0.3289
    8CHTO   C52 3240   5.521   8.283   0.747  0.7836  0.0853  0.3552
    8CHTO   O35 3241   5.486   8.365   0.603 -0.6439 -0.2441 -0.2408
    8CHTO   H71 3242   5.548   8.346   0.535  0.6314  0.1880  0.7583
    8CHTO   O28 3243   5.555   8.672   0.930 -0.3122 -0.0856 -0.3117
    8CHTO   C42 3244   5.524   8.769   0.827 -0.1317  0.1144 -0.5689
    8CHTO   H84 3245   5.444   8.827   0.874  1.0524  1.1634  0.1648
    8CHTO   C44 3246   5.458   8.719   0.690  0.5643 -0.0372  0.1786
    8CHTO   H86 3247   5.521   8.647   0.638 -1.4558  0.0999 -2.5647
    8CHTO   O32 3248   5.345   8.641   0.735 -0.2153 -0.2906  0.2905
    8CHTO   H69 3249   5.379   8.563   0.774 -0.3039  0.3628  1.7158
    8CHTO   C48 3250   5.412   8.839   0.598  0.9130  0.5086 -0.5618
    8CHTO   H90 3251   5.336   8.897   0.652  1.4111 -0.1081  0.8228
    8CHTO    N9 3252   5.337   8.800   0.478  0.0642  0.1755  0.1399
    8CHTO   H77 3253   5.343   8.698   0.442 -3.2548  1.0044 -3.0369
    8CHTO   H78 3254   5.238   8.842   0.476  0.3075  0.7738 -4.2556
    8CHTO   C51 3255   5.545   8.930   0.569  0.6650 -0.4678 -0.2638
    8CHTO   H93 3256   5.628   8.887   0.513  0.5536 -0.4504 -0.4423
    8CHTO   O30 3257   5.592   8.976   0.698 -0.0865  0.3289  0.7796
    8CHTO   C46 3258   5.638   8.875   0.794  0.4895 -0.5477 -0.4415
    8CHTO   H88 3259   5.716   8.814   0.748  0.1981 -1.2018 -0.0776
    8CHTO   C53 3260   5.678   8.951   0.926 -0.0045  0.2601 -0.2563
    8CHTO   O72 3261   5.782   9.042   0.905 -0.2750  0.1255  0.1986
    8CHTO  H199 3262   5.757   9.122   0.948 -1.4908 -0.2710  0.2713
    8CHTO   O22 3263   5.510   9.050   0.497 -0.5319 -0.5681 -0.1237
    8CHTO   C31 3264   5.598   9.123   0.403  0.4722 -0.3682 -0.1437
    8CHTO   H59 3265   5.541   9.216   0.382 -0.9253 -1.1165  0.2668
    8CHTO   C29 3266   5.740   9.164   0.464  0.1991 -0.0917 -0.0868
    8CHTO   H57 3267   5.788   9.071   0.496  0.2273 -0.5518 -1.4418
    8CHTO   O21 3268   5.716   9.245   0.583  0.0430  0.4577 -0.2561
    8CHTO   H37 3269   5.729   9.334   0.559  0.3155  0.4598 -0.1030
    8CHTO   C27 3270   5.826   9.235   0.351  0.4692 -0.9884 -0.7638
    8CHTO   H55 3271   5.773   9.326   0.318  0.9348 -0.0989  0.8945
    8CHTO    N5 3272   5.960   9.279   0.399 -0.6456  0.0583  0.6100
    8CHTO   H43 3273   5.971   9.275   0.506  1.4467 -0.0741  0.4211
    8CHTO   H44 3274   6.043   9.236   0.343 -0.5322  1.6042 -0.4625
    8CHTO   C25 3275   5.839   9.133   0.234 -0.4544  1.1747  0.2351
    8CHTO   H53 3276   5.893   9.043   0.267 -2.8255 -0.8578 -1.2961
    8CHTO   O17 3277   5.713   9.096   0.184 -0.2696  0.7802 -0.0009
    8CHTO   C32 3278   5.613   9.040   0.271 -0.7753  0.1828 -0.2656
    8CHTO   H60 3279   5.651   8.939   0.290  0.3828  0.8276  0.9554
    8CHTO   C36 3280   5.486   9.023   0.185  0.0517  0.0841  0.0837
    8CHTO   O25 3281   5.496   8.944   0.066 -0.2108 -0.4736  0.2389
    8CHTO   H40 3282   5.421   8.969   0.014  0.8925  1.2330 -0.5483
    8CHTO   O15 3283   5.894   9.186   0.106  0.1736 -0.6483  0.0660
    8CHTO   C19 3284   5.968   9.145  -0.019  0.5789  0.5334 -0.0463
    8CHTO   H47 3285   5.885   9.112  -0.083  0.1960  0.0231  0.6992
    8CHTO   C20 3286   6.051   9.262  -0.089  0.2860  0.4626 -0.8268
    8CHTO   H48 3287   6.127   9.302  -0.021 -1.1046  0.4585  0.7510
    8CHTO   O19 3288   5.960   9.368  -0.113  0.1247  0.2845 -0.0815
    8CHTO   H35 3289   5.919   9.367  -0.198 -0.4511  0.0717  0.1903
    8CHTO   C21 3290   6.125   9.207  -0.217 -0.3857 -0.3245 -0.0254
    8CHTO   H49 3291   6.052   9.192  -0.296  0.0433  0.6587 -0.6324
    8CHTO    N4 3292   6.217   9.309  -0.275  0.1982  0.4467 -0.1689
    8CHTO   H41 3293   6.247   9.369  -0.191  1.5354  1.7245 -1.5229
    8CHTO   H42 3294   6.305   9.264  -0.321  0.3110  0.2649  0.2261
    8CHTO   C22 3295   6.205   9.076  -0.186 -0.0539  0.3923 -0.0619
    8CHTO   H50 3296   6.284   9.113  -0.121 -1.3785  0.3581  1.5886
    8CHTO   O14 3297   6.118   8.977  -0.132 -0.4719  0.0104  0.7954
    8CHTO   C23 3298   6.062   9.023  -0.006  0.0683 -0.1834  0.2176
    8CHTO   H51 3299   6.149   9.044   0.057 -0.0017  2.4085 -0.4552
    8CHTO   C34 3300   5.990   8.896   0.038  0.5299 -0.4407  0.2683
    8CHTO   O23 3301   6.071   8.798   0.106  0.3185  0.2065  0.7093
    8CHTO   H38 3302   6.029   8.790   0.189 -3.5845 -1.4478 -1.2747
    8CHTO   O16 3303   6.264   9.007  -0.298  0.1425  0.0127 -0.0879
    8CHTO   C24 3304   6.386   8.905  -0.242  0.1913 -0.3630 -0.1691
    8CHTO   H52 3305   6.378   8.894  -0.133 -1.5093  0.8781 -0.1426
    8CHTO   C26 3306   6.520   8.977  -0.269 -0.4073  0.1520 -0.5030
    8CHTO   H54 3307   6.528   8.998  -0.378  2.0405 -0.7070 -0.5287
    8CHTO   O20 3308   6.527   9.108  -0.204 -0.3180 -0.0049  0.2217
    8CHTO   H36 3309   6.523   9.089  -0.113  0.1482 -0.3413  0.1758
    8CHTO   C30 3310   6.640   8.888  -0.219 -0.3668 -0.4791 -0.1168
    8CHTO   H58 3311   6.642   8.880  -0.110 -1.5854 -0.2136 -0.0689
    8CHTO    N6 3312   6.776   8.946  -0.259  0.5518 -0.1752 -0.4842
    8CHTO   H45 3313   6.777   9.044  -0.215  0.7693 -1.1397  1.6903
    8CHTO   H46 3314   6.768   8.963  -0.366  0.6070  0.9362 -0.3145
    8CHTO   C33 3315   6.620   8.746  -0.281  0.0620 -0.7006  0.5272
    8CHTO   H61 3316   6.642   8.750  -0.389  0.8563  3.3037  0.7752
    8CHTO   O18 3317   6.485   8.695  -0.254 -0.1122  0.6012  0.3699
    8CHTO   C28 3318   6.380   8.773  -0.316 -1.0962 -0.5266 -0.2878
    8CHTO   H56 3319   6.411   8.789  -0.419  0.7057  1.0770  0.4673
    8CHTO   C35 3320   6.251   8.699  -0.299 -0.1897  0.0517 -0.6457
    8CHTO   O24 3321   6.252   8.564  -0.344 -1.0024 -0.2115  0.5154
    8CHTO   H39 3322   6.293   8.519  -0.273 -2.6083 -2.2317  0.2272
    8CHTO    O9 3323   6.721   8.654  -0.231 -0.1867  0.3698  0.5491
    8CHTO   C13 3324   6.702   8.484  -0.268 -0.5241 -0.7831 -0.0422
    8CHTO   H26 3325   6.649   8.476  -0.365 -1.2199  0.5444  0.2076
    8CHTO   C11 3326   6.625   8.408  -0.158 -0.0772  0.1217 -0.3621
    8CHTO   H24 3327   6.523   8.446  -0.169  0.3973  1.9266  1.2363
    8CHTO    O8 3328   6.672   8.433  -0.025 -0.4141 -0.5782 -0.4985
    8CHTO    H3 3329   6.765   8.420  -0.020 -0.5263 -0.5887  2.1331
    8CHTO    C9 3330   6.629   8.259  -0.197 -0.4188 -0.0393  0.0697
    8CHTO   H22 3331   6.583   8.254  -0.297 -0.0756  2.7690 -0.2887
    8CHTO    N2 3332   6.532   8.176  -0.121 -0.0751 -0.0657  0.8217
    8CHTO   H10 3333   6.526   8.208  -0.018 -1.2401 -1.2919  1.1524
    8CHTO   H11 3334   6.568   8.074  -0.119 -1.7928 -0.6989 -0.0621
    8CHTO    C7 3335   6.783   8.210  -0.203  0.1980  0.0100 -0.6418
    8CHTO   H20 3336   6.806   8.155  -0.297  1.8685  1.0824 -0.8847
    8CHTO    O4 3337   6.876   8.314  -0.198 -0.2445 -0.2151  0.3369
    8CHTO   C14 3338   6.844   8.419  -0.292  0.3020 -0.6417  0.3932
    8CHTO   H27 3339   6.838   8.369  -0.391 -2.4342 -0.3096  0.3656
    8CHTO   C18 3340   6.962   8.516  -0.294  0.1894  0.1661  0.2065
    8CHTO   O13 3341   7.082   8.462  -0.337 -0.1249 -0.1487  0.2797
    8CHTO    H7 3342   7.149   8.464  -0.271 -1.7720  0.4027  1.9956
    8CHTO    O2 3343   6.812   8.104  -0.075  0.2947  0.1838  0.1375
    8CHTO    C1 3344   6.914   8.006  -0.081  0.7227  0.3422 -0.0369
    8CHTO   H14 3345   6.971   8.019   0.013  0.8146 -0.4266  0.0112
    8CHTO    C2 3346   7.011   8.013  -0.208  0.9974  0.2673 -0.1114
    8CHTO   H15 3347   6.936   8.015  -0.288  0.2065  2.5321  0.6480
    8CHTO    O6 3348   7.085   8.138  -0.190 -0.0715 -0.5553 -0.2787
    8CHTO    H1 3349   7.034   8.214  -0.208  0.9417  0.0591 -0.5597
    8CHTO    C3 3350   7.109   7.877  -0.210 -0.5019 -0.1985 -0.6313
    8CHTO   H16 3351   7.183   7.888  -0.130 -0.2493  1.3457 -1.0495
    8CHTO    N1 3352   7.174   7.870  -0.346 -0.1476 -0.3848 -0.5766
    8CHTO    H8 3353   7.112   7.900  -0.429  2.0214  3.5756 -0.9188
    8CHTO    H9 3354   7.197   7.765  -0.358 -0.4145 -0.6156  0.8301
    8CHTO    C4 3355   7.028   7.748  -0.176  0.7270  0.3372  0.4099
    8CHTO   H17 3356   6.967   7.717  -0.260 -0.6838  0.1496  1.4764
    8CHTO    O1 3357   6.942   7.768  -0.061 -0.0590  0.5427 -0.1545
    8CHTO    C5 3358   6.842   7.867  -0.081 -0.4659 -0.3739  0.2036
    8CHTO   H18 3359   6.782   7.867  -0.172  1.5705  1.3010 -1.1886
    8CHTO   C16 3360   6.747   7.847   0.037 -0.5262  0.1896  0.0282
    8CHTO   O11 3361   6.795   7.866   0.169  0.4135  0.4265 -0.5865
    8CHTO    H5 3362   6.785   7.955   0.199  2.0238  0.9551 -1.5584
    8CHTO    O3 3363   7.121   7.644  -0.144  0.6362  0.1781  0.1099
    8CHTO    C6 3364   7.054   7.514  -0.158  0.0375 -0.7935 -0.3481
    8CHTO   H19 3365   6.945   7.511  -0.156 -0.0008 -0.1626 -1.2342
    8CHTO    C8 3366   7.109   7.448  -0.284 -0.6351  0.0337 -0.4059
    8CHTO   H21 3367   7.218   7.455  -0.280 -0.7446  1.8272  0.0525
    8CHTO    O7 3368   7.070   7.526  -0.389  0.3147 -0.5607 -0.5374
    8CHTO    H2 3369   7.141   7.520  -0.450  1.3047 -1.1053  0.6505
    8CHTO   C12 3370   7.053   7.302  -0.305  0.2124 -0.4131 -0.5760
    8CHTO   H25 3371   6.945   7.318  -0.323 -0.4777 -3.3879  0.6305
    8CHTO    N3 3372   7.104   7.241  -0.431  0.6721  0.2224  0.1493
    8CHTO   H12 3373   7.111   7.317  -0.508  0.8109  0.0799  0.0220
    8CHTO   H13 3374   7.201   7.195  -0.435  1.6818  2.2562  0.5735
    8CHTO   C15 3375   7.067   7.216  -0.174 -0.1529  0.4814 -0.2475
    8CHTO   H28 3376   7.152   7.148  -0.179  0.2732  0.9855  0.0520
    8CHTO   O10 3377   6.956   7.122  -0.141  0.9676 -0.4329  0.1941
    8CHTO    H4 3378   6.933   7.074  -0.218 -1.2496  2.3618 -0.9851
    8CHTO    O5 3379   7.053   7.288  -0.049  1.1576  0.3109  0.4685
    8CHTO   C10 3380   7.102   7.423  -0.042 -0.0848  0.4214 -0.2708
    8CHTO   H23 3381   7.210   7.415  -0.053 -0.1180  0.6127 -0.7347
    8CHTO   C17 3382   7.063   7.470   0.103  0.0962 -0.2637 -0.1052
    8CHTO   O12 3383   7.136   7.412   0.211 -0.3328  0.2092  0.0909
    8CHTO    H6 3384   7.130   7.320   0.198  2.1507  0.2083 -1.3086
    9CHTO  H203 3385   6.997   3.331   0.044  0.1335  2.5908  0.2063
    9CHTO   O82 3386   7.024   3.363  -0.041  0.1542  0.4364 -0.6157
    9CHTO  C123 3387   7.167   3.340  -0.050 -0.0874  0.2704  0.8957
    9CHTO  H227 3388   7.213   3.348   0.050 -1.1163 -1.9975  1.5841
    9CHTO   O77 3389   7.169   3.207  -0.114  0.1355  0.6276 -0.1441
    9CHTO  C118 3390   7.297   3.154  -0.146 -0.0230 -0.1930  0.2453
    9CHTO  H222 3391   7.360   3.151  -0.057 -2.2345  1.4424  1.9092
    9CHTO  C125 3392   7.284   3.012  -0.204  0.1050  0.7688 -0.3763
    9CHTO   O84 3393   7.241   2.917  -0.101 -0.0086  0.0050  0.0902
    9CHTO  H205 3394   7.310   2.894  -0.041 -0.2986  0.4586  0.6003
    9CHTO  C114 3395   7.362   3.249  -0.254  0.1501 -0.1000  0.3451
    9CHTO  H218 3396   7.299   3.247  -0.343  0.8318 -4.4566 -0.1239
    9CHTO  C116 3397   7.372   3.392  -0.204  0.1946 -0.0310  0.0267
    9CHTO  H220 3398   7.454   3.408  -0.131 -1.3212  1.4498  1.4534
    9CHTO   O79 3399   7.415   3.474  -0.320  0.2973 -0.2206 -0.3371
    9CHTO  H201 3400   7.423   3.558  -0.280 -0.1987  0.2457 -1.1911
    9CHTO  C120 3401   7.236   3.447  -0.150 -0.2577 -0.0248 -0.0742
    9CHTO  H224 3402   7.184   3.460  -0.247  3.7282 -1.7205 -2.5683
    9CHTO   N21 3403   7.254   3.578  -0.080 -0.0423 -0.1196 -0.4957
    9CHTO  H211 3404   7.169   3.608  -0.020 -0.8013  1.4417 -2.2731
    9CHTO  H212 3405   7.350   3.587  -0.032 -1.1795  1.7727  1.5228
    9CHTO   O75 3406   7.486   3.184  -0.273 -0.1109 -0.2711  0.2685
    9CHTO  C112 3407   7.544   3.183  -0.437 -0.0219  0.5589  0.1484
    9CHTO  H216 3408   7.500   3.268  -0.492  0.9822  0.1435 -1.3414
    9CHTO   O73 3409   7.505   3.059  -0.502  0.3585  0.9306 -0.1816
    9CHTO  C113 3410   7.541   3.042  -0.636 -0.3696 -1.2306  0.0899
    9CHTO  H217 3411   7.519   3.140  -0.684 -0.5893 -1.4575 -0.2780
    9CHTO  C124 3412   7.472   2.923  -0.706  0.0000 -0.0764  0.1699
    9CHTO   O83 3413   7.505   2.919  -0.840 -0.1200 -0.0407 -0.1739
    9CHTO  H204 3414   7.575   2.861  -0.861 -0.2844 -0.9196  1.6116
    9CHTO  C109 3415   7.695   3.032  -0.641  0.3248 -0.8444 -0.1499
    9CHTO  H213 3416   7.726   2.946  -0.580 -0.6762  0.8724  2.8713
    9CHTO  C110 3417   7.757   3.163  -0.584  0.0754  0.9852  0.5538
    9CHTO  H214 3418   7.735   3.244  -0.654 -1.9130  0.1951  0.2620
    9CHTO   O78 3419   7.902   3.153  -0.575  0.2904  0.0014 -0.5229
    9CHTO  H200 3420   7.932   3.141  -0.663  1.3675 -1.6771  0.0501
    9CHTO  C111 3421   7.697   3.196  -0.441  0.2675  0.2432  0.1402
    9CHTO  H215 3422   7.722   3.113  -0.373  2.0339 -0.5125 -1.3689
    9CHTO   N19 3423   7.742   3.325  -0.379  0.5284  0.2712 -0.2038
    9CHTO  H207 3424   7.849   3.332  -0.391  0.6370 -0.7239  0.1732
    9CHTO  H208 3425   7.712   3.324  -0.275 -1.2229 -0.7299 -0.7064
    9CHTO   O74 3426   7.737   3.018  -0.781 -0.0489  0.1707 -0.1104
    9CHTO  C115 3427   7.877   2.975  -0.818  0.2880 -0.1594  0.2374
    9CHTO  H219 3428   7.944   2.979  -0.732  0.7218  0.9752 -0.1525
    9CHTO   O76 3429   7.880   2.828  -0.869  0.5362 -0.0107  0.0504
    9CHTO  C122 3430   7.796   2.813  -0.987  0.2274  0.7335 -0.2842
    9CHTO  H226 3431   7.692   2.841  -0.973 -0.0021 -0.7417  1.1516
    9CHTO  C126 3432   7.790   2.666  -1.027 -0.2083  0.5652 -0.0961
    9CHTO   O85 3433   7.711   2.598  -0.933 -0.3230 -0.0916  0.1140
    9CHTO  H206 3434   7.625   2.585  -0.970 -0.8759  0.2313  1.2544
    9CHTO  C121 3435   7.859   2.900  -1.107 -0.0861  0.3493 -0.4290
    9CHTO  H225 3436   7.967   2.881  -1.119  0.6552  3.2060  1.4063
    9CHTO   O81 3437   7.803   2.875  -1.239  0.1502 -0.0315  0.4186
    9CHTO  H202 3438   7.719   2.834  -1.233  0.4563 -0.4836  1.8040
    9CHTO  C119 3439   7.854   3.048  -1.065  0.2403 -0.4134  0.3776
    9CHTO  H223 3440   7.901   3.106  -1.145  1.5713 -1.0427  0.6872
    9CHTO  C117 3441   7.923   3.086  -0.929  0.3075 -0.1312  0.1668
    9CHTO  H221 3442   7.893   3.178  -0.878  0.8310  0.4384 -0.5408
    9CHTO   N20 3443   8.072   3.085  -0.928  0.3685  0.1579 -0.2742
    9CHTO  H209 3444   8.089   3.190  -0.952 -0.4951  0.2716 -0.3881
    9CHTO  H210 3445   8.121   3.057  -0.836  0.3954  2.3372  0.4007
    9CHTO   O80 3446   7.719   3.098  -1.065  0.2292 -0.1197  0.3085
    9CHTO  C103 3447   7.682   3.261  -1.097  0.3195  0.0080 -0.0587
    9CHTO  H190 3448   7.738   3.320  -1.025  1.4388 -4.4579  2.9315
    9CHTO  C101 3449   7.722   3.310  -1.241  0.2459  0.3465 -0.5095
    9CHTO  H188 3450   7.694   3.234  -1.314  1.7605 -0.1520 -0.5940
    9CHTO   O68 3451   7.874   3.317  -1.248 -0.3403  0.5826 -0.7832
    9CHTO  H168 3452   7.895   3.225  -1.244 -0.9941  0.3871 -1.6778
    9CHTO   C99 3453   7.649   3.439  -1.278  0.0758  0.0317 -0.2211
    9CHTO  H186 3454   7.679   3.509  -1.197 -0.9837 -1.6273  1.6551
    9CHTO   N17 3455   7.692   3.492  -1.413 -0.1344  0.2911 -0.0829
    9CHTO  H174 3456   7.747   3.427  -1.479 -2.6579  0.1465 -2.1089
    9CHTO  H175 3457   7.720   3.596  -1.411  0.4213  0.1320  0.3183
    9CHTO   C97 3458   7.496   3.425  -1.263  0.0988 -0.1379  0.4503
    9CHTO  H184 3459   7.450   3.356  -1.336  2.5968 -1.9465  0.5325
    9CHTO   O64 3460   7.463   3.391  -1.124 -0.4978 -0.3485  0.1840
    9CHTO  C104 3461   7.527   3.278  -1.069  0.0344 -0.0196 -0.1596
    9CHTO  H191 3462   7.473   3.194  -1.113  1.4442 -0.2633 -1.4837
    9CHTO  C108 3463   7.505   3.275  -0.917  0.5549  0.2499  0.0580
    9CHTO   O71 3464   7.364   3.252  -0.888 -0.1060  0.4731  0.2778
    9CHTO  H171 3465   7.340   3.285  -0.803 -0.5890  0.2154  0.2448
    9CHTO   O62 3466   7.417   3.548  -1.273 -0.0377  0.0316  0.1095
    9CHTO   C91 3467   7.362   3.593  -1.398 -0.5322  0.2406 -0.1504
    9CHTO  H178 3468   7.446   3.616  -1.463 -1.2902  0.7010 -0.9711
    9CHTO   C92 3469   7.310   3.740  -1.382 -0.6199 -0.4008 -0.4795
    9CHTO  H179 3470   7.389   3.797  -1.332  0.2533 -1.8708 -0.1287
    9CHTO   O66 3471   7.300   3.800  -1.514  0.0270  0.3303 -0.3842
    9CHTO  H166 3472   7.278   3.891  -1.509  0.1466  0.3143  0.7071
    9CHTO   C93 3473   7.169   3.751  -1.309  0.4684 -0.2362 -1.1029
    9CHTO  H180 3474   7.128   3.851  -1.331  0.8155  0.2964  0.5803
    9CHTO   N16 3475   7.192   3.761  -1.164 -0.4140 -0.3173  0.0879
    9CHTO  H172 3476   7.161   3.855  -1.121 -0.4761  0.7515 -2.2191
    9CHTO  H173 3477   7.147   3.675  -1.116  0.3937 -1.3217 -0.9048
    9CHTO   C94 3478   7.074   3.634  -1.359  0.2466 -0.8356 -0.3423
    9CHTO  H181 3479   7.058   3.559  -1.282 -0.1005 -2.6568 -2.1627
    9CHTO   O61 3480   7.125   3.582  -1.483  0.5904 -0.2702  0.5147
    9CHTO   C95 3481   7.246   3.508  -1.461  0.1748  0.1818 -0.3579
    9CHTO  H182 3482   7.223   3.425  -1.394  1.6613  1.3557  1.6838
    9CHTO  C106 3483   7.279   3.457  -1.599  0.5060 -0.1092 -0.1625
    9CHTO   O69 3484   7.412   3.406  -1.611 -0.1628  0.1574  0.1487
    9CHTO  H169 3485   7.453   3.444  -1.686 -0.7782 -0.5519 -0.5605
    9CHTO   O63 3486   6.938   3.683  -1.385 -0.0585 -0.2010 -0.1916
    9CHTO   C96 3487   6.828   3.657  -1.291 -0.3043 -0.3932 -0.7855
    9CHTO  H183 3488   6.868   3.659  -1.190  0.0932  1.7665 -0.9659
    9CHTO   C98 3489   6.765   3.516  -1.308  0.6953  0.0386 -0.2875
    9CHTO  H185 3490   6.739   3.523  -1.415  0.2890  2.7193 -0.0547
    9CHTO   O67 3491   6.852   3.410  -1.289  0.1633  0.0451 -0.5835
    9CHTO  H167 3492   6.902   3.424  -1.210  0.7722  0.5592 -1.0553
    9CHTO  C102 3493   6.630   3.507  -1.221  0.0503  0.3922 -0.7816
    9CHTO  H189 3494   6.658   3.481  -1.118 -0.9319  2.4393  0.0213
    9CHTO   N18 3495   6.548   3.391  -1.265 -0.2173 -0.3493 -0.1375
    9CHTO  H176 3496   6.458   3.407  -1.208  0.5347  0.7488  0.7638
    9CHTO  H177 3497   6.598   3.302  -1.228 -0.2101 -0.3665 -0.1888
    9CHTO  C105 3498   6.541   3.637  -1.225  0.0678  0.4256  0.1284
    9CHTO  H192 3499   6.490   3.644  -1.321 -1.6807 -0.7837  0.9449
    9CHTO   O65 3500   6.620   3.755  -1.195 -0.3099  0.0448  0.0235
    9CHTO  C100 3501   6.719   3.777  -1.299 -0.4996  0.2261 -0.4833
    9CHTO  H187 3502   6.668   3.803  -1.393  1.5902 -3.4478 -2.7588
    9CHTO  C107 3503   6.789   3.910  -1.259  0.3293  0.1940 -0.7936
    9CHTO   O70 3504   6.701   4.030  -1.256 -0.2751 -0.1636  0.0206
    9CHTO  H170 3505   6.637   4.015  -1.189 -0.6524 -3.1267 -0.9431
    9CHTO   O57 3506   6.443   3.628  -1.113 -0.2926  0.0741  0.9358
    9CHTO   C85 3507   6.314   3.688  -1.112  0.1073 -0.4740  0.0573
    9CHTO  H157 3508   6.265   3.624  -1.189 -0.2256 -0.2241  0.0565
    9CHTO   C83 3509   6.320   3.833  -1.166 -0.6312 -0.1892 -0.0488
    9CHTO  H155 3510   6.363   3.831  -1.266  1.3535  1.3804  0.7162
    9CHTO   O56 3511   6.411   3.917  -1.091  0.0723  0.1082  0.0296
    9CHTO  H135 3512   6.438   3.990  -1.143 -0.9430  1.4758  1.3760
    9CHTO   C81 3513   6.170   3.888  -1.165 -0.0405 -0.0177 -0.2162
    9CHTO  H153 3514   6.116   3.817  -1.228  2.5595 -1.9481 -0.3573
    9CHTO   N14 3515   6.151   4.013  -1.244  0.3100 -0.0579  0.2122
    9CHTO  H141 3516   6.176   4.090  -1.173  1.1855 -0.8913  0.8144
    9CHTO  H142 3517   6.052   4.032  -1.280  0.3622  1.2017  0.6886
    9CHTO   C79 3518   6.112   3.891  -1.030  0.0810  0.4717 -0.1315
    9CHTO  H151 3519   6.007   3.921  -1.038 -0.1417  0.5541  2.6098
    9CHTO   O52 3520   6.119   3.761  -0.956  0.5348  0.0651 -0.5227
    9CHTO   C86 3521   6.244   3.682  -0.974  0.0827 -0.4694 -0.0159
    9CHTO  H158 3522   6.308   3.725  -0.895  3.2289 -1.5648 -1.8635
    9CHTO   C90 3523   6.226   3.544  -0.934  0.3621 -0.0297 -0.1461
    9CHTO   O60 3524   6.118   3.491  -0.997  0.7579  0.1308 -0.1195
    9CHTO  H138 3525   6.151   3.421  -1.051  1.5777  0.0962  0.4211
    9CHTO   O50 3526   6.179   3.995  -0.950  0.0551 -0.4007 -0.2494
    9CHTO   C73 3527   6.192   4.094  -0.845  0.5431  0.0393  0.2435
    9CHTO  H145 3528   6.095   4.095  -0.791 -0.9169 -1.1239 -2.2849
    9CHTO   C74 3529   6.225   4.235  -0.906  0.1741 -0.9335 -0.2863
    9CHTO  H146 3530   6.151   4.248  -0.987  0.0613  0.1331 -0.0159
    9CHTO   O54 3531   6.201   4.332  -0.801 -0.2247 -0.0200 -0.2312
    9CHTO  H133 3532   6.111   4.332  -0.775  0.5005  0.4082  2.4668
    9CHTO   C75 3533   6.373   4.234  -0.961 -0.4109 -0.0030  0.4651
    9CHTO  H147 3534   6.374   4.158  -1.041 -0.5167 -1.8507  2.1689
    9CHTO   N13 3535   6.417   4.359  -1.030 -0.8308  0.0847  0.4850
    9CHTO  H139 3536   6.505   4.391  -0.977 -0.7104 -0.8323  0.8477
    9CHTO  H140 3537   6.337   4.432  -1.029 -1.2743 -0.3929  0.3829
    9CHTO   C76 3538   6.473   4.185  -0.842  0.7869 -0.1570  0.2282
    9CHTO  H148 3539   6.476   4.255  -0.758 -1.2178  0.6446 -0.3522
    9CHTO   O49 3540   6.427   4.054  -0.799  0.1378 -0.3333 -0.4504
    9CHTO   C77 3541   6.297   4.051  -0.739 -0.2329 -0.8100  0.0778
    9CHTO  H149 3542   6.299   4.127  -0.662  0.0390  0.3988 -1.1076
    9CHTO   C88 3543   6.259   3.913  -0.686 -0.6704  0.6527  0.5146
    9CHTO   O58 3544   6.125   3.922  -0.611  0.3161  0.6263  0.3155
    9CHTO  H136 3545   6.146   3.906  -0.521 -1.1427 -2.5673  0.1819
    9CHTO   O51 3546   6.614   4.141  -0.900  0.1245  0.4718  0.1160
    9CHTO   C78 3547   6.720   4.106  -0.802 -0.0144  0.0590  0.4019
    9CHTO  H150 3548   6.674   4.096  -0.701 -0.6492  1.5160  0.2668
    9CHTO   C80 3549   6.825   4.225  -0.791 -0.2265  0.3442 -0.3566
    9CHTO  H152 3550   6.866   4.244  -0.893  1.7696  1.2884  0.5873
    9CHTO   O55 3551   6.760   4.347  -0.763 -0.3556 -0.0500 -0.0088
    9CHTO  H134 3552   6.809   4.418  -0.801 -1.0442  0.7013  0.4793
    9CHTO   C84 3553   6.932   4.193  -0.682  0.4214  0.4024  0.7296
    9CHTO  H156 3554   6.882   4.204  -0.586 -0.1818 -0.3741  0.5089
    9CHTO   N15 3555   7.042   4.292  -0.689  0.3538 -0.3826 -0.0931
    9CHTO  H143 3556   7.071   4.320  -0.590 -1.9366  2.6624 -0.2086
    9CHTO  H144 3557   7.013   4.379  -0.746  0.3997 -0.6130 -0.4719
    9CHTO   C87 3558   6.985   4.047  -0.704  0.5149  0.1801 -0.7068
    9CHTO  H159 3559   7.031   4.047  -0.803  1.6241  1.0504 -0.2091
    9CHTO   O53 3560   6.858   3.947  -0.700 -0.7646  0.4096  0.0364
    9CHTO   C82 3561   6.789   3.973  -0.822  0.3688  0.2972  0.2792
    9CHTO  H154 3562   6.857   3.975  -0.907  1.1615  2.9900  0.9381
    9CHTO   C89 3563   6.694   3.856  -0.847 -0.2636  0.8133  0.5047
    9CHTO   O59 3564   6.760   3.735  -0.883  0.6527 -0.0625  0.1160
    9CHTO  H137 3565   6.797   3.701  -0.804 -0.5580 -0.0017  0.7205
    9CHTO   O45 3566   7.083   4.010  -0.599  0.2303 -0.0767  0.3522
    9CHTO   C67 3567   7.130   3.871  -0.601  0.3154 -0.1713 -0.4673
    9CHTO  H124 3568   7.039   3.811  -0.593  0.6335 -0.6177 -0.1566
    9CHTO   C65 3569   7.210   3.833  -0.736  0.3197  0.2896 -0.0347
    9CHTO  H122 3570   7.263   3.922  -0.769  1.1085 -0.4795 -0.8549
    9CHTO   O44 3571   7.105   3.796  -0.832  0.1024  0.3538  0.0712
    9CHTO  H102 3572   7.073   3.709  -0.813  1.3458 -0.1948 -0.3313
    9CHTO   C63 3573   7.315   3.724  -0.720  0.4579 -0.2201  0.7278
    9CHTO  H120 3574   7.407   3.774  -0.691 -0.6863  2.9512 -0.7863
    9CHTO   N11 3575   7.361   3.659  -0.850 -0.0961 -0.2754 -0.0176
    9CHTO  H108 3576   7.436   3.585  -0.833  0.4284  0.3903  0.6226
    9CHTO  H109 3577   7.275   3.611  -0.892 -1.0000  0.3119  1.1400
    9CHTO   C61 3578   7.266   3.619  -0.613 -0.2641 -0.4048  0.3792
    9CHTO  H118 3579   7.355   3.556  -0.600 -0.5910 -1.2131 -1.2057
    9CHTO   O40 3580   7.243   3.681  -0.486  0.2692  0.7568  0.1610
    9CHTO   C68 3581   7.227   3.825  -0.477  0.4041  0.2291 -0.1154
    9CHTO  H125 3582   7.319   3.884  -0.496 -0.4088  1.4406 -0.3139
    9CHTO   C72 3583   7.163   3.875  -0.346 -0.4729 -0.1770 -0.5484
    9CHTO   O48 3584   7.021   3.850  -0.330  0.6882  0.0247  0.0696
    9CHTO  H105 3585   6.974   3.927  -0.356 -0.4792 -1.2403 -1.6907
    9CHTO   O38 3586   7.142   3.556  -0.646 -0.3729  1.1329 -0.4957
    9CHTO   C55 3587   7.102   3.434  -0.572  0.1767  0.0135 -0.0730
    9CHTO  H112 3588   7.130   3.443  -0.466  0.0149  0.8932 -0.1052
    9CHTO   C56 3589   7.154   3.300  -0.632 -0.4173  0.5734 -0.6109
    9CHTO  H113 3590   7.155   3.304  -0.742 -0.3394  1.9023 -0.5703
    9CHTO   O42 3591   7.292   3.298  -0.600  0.2346  0.0097  0.1409
    9CHTO  H100 3592   7.309   3.318  -0.510  0.0509 -1.0848  0.4259
    9CHTO   C57 3593   7.078   3.187  -0.566  0.8730  0.9088 -0.1765
    9CHTO  H114 3594   7.112   3.182  -0.462 -0.3365  1.0625  0.2345
    9CHTO   N10 3595   7.103   3.054  -0.630 -0.0417  0.2904 -0.2516
    9CHTO  H106 3596   7.202   3.037  -0.670  0.3606 -0.3721  1.0117
    9CHTO  H107 3597   7.035   3.034  -0.710  1.7533 -0.5980 -1.5945
    9CHTO   C58 3598   6.924   3.211  -0.567 -0.4364  0.1323 -0.4736
    9CHTO  H115 3599   6.888   3.207  -0.673 -2.1406 -3.6584  0.1320
    9CHTO   O37 3600   6.897   3.334  -0.504 -0.3129 -0.2426 -0.1801
    9CHTO   C59 3601   6.949   3.446  -0.577 -0.3206 -0.0930 -0.1263
    9CHTO  H116 3602   6.914   3.444  -0.681  2.0980 -0.1993 -0.9793
    9CHTO   C70 3603   6.884   3.581  -0.522  0.0447 -0.2644 -0.1857
    9CHTO   O46 3604   6.919   3.605  -0.386  0.6247 -0.6013  0.3795
    9CHTO  H103 3605   6.909   3.696  -0.365 -2.9783 -0.3567 -1.9304
    9CHTO   O39 3606   6.852   3.092  -0.469 -0.1074  0.0116 -0.0615
    9CHTO   C60 3607   6.709   3.093  -0.454  0.5320  0.7403 -0.1711
    9CHTO  H117 3608   6.664   3.184  -0.494 -0.6060 -0.2805 -1.2532
    9CHTO   C62 3609   6.643   2.978  -0.525 -0.5470  0.3483  0.1382
    9CHTO  H119 3610   6.661   2.993  -0.634  0.4409 -1.3482  0.0474
    9CHTO   O43 3611   6.695   2.848  -0.482  0.1683  0.1196  0.2490
    9CHTO  H101 3612   6.655   2.780  -0.533  0.9712  0.0789 -0.3344
    9CHTO   C66 3613   6.485   2.986  -0.505  0.6637  0.4908  0.3319
    9CHTO  H123 3614   6.443   3.071  -0.558 -0.7490 -1.0375 -1.0480
    9CHTO   N12 3615   6.416   2.872  -0.570 -0.1582 -0.1072 -0.5726
    9CHTO  H110 3616   6.479   2.785  -0.579 -1.3860 -0.7868 -2.9745
    9CHTO  H111 3617   6.386   2.907  -0.667  0.8898  0.6505 -0.6289
    9CHTO   C69 3618   6.452   3.001  -0.352  0.1387  0.2827 -0.2448
    9CHTO  H126 3619   6.474   2.903  -0.305  2.3028  0.2349 -1.2848
    9CHTO   O41 3620   6.534   3.112  -0.285 -0.7054  0.0258 -0.1782
    9CHTO   C64 3621   6.678   3.090  -0.298 -0.2195  0.2955  0.4364
    9CHTO  H121 3622   6.699   2.992  -0.250  0.0895  0.4240  0.5649
    9CHTO   C71 3623   6.743   3.204  -0.213 -0.9212  0.1885 -0.1008
    9CHTO   O47 3624   6.702   3.194  -0.079  0.1815 -0.2133 -0.6400
    9CHTO  H104 3625   6.634   3.254  -0.056  0.8360 -0.4819  2.2340
    9CHTO   O34 3626   6.298   3.035  -0.339  0.2720 -0.7060  0.0321
    9CHTO   C49 3627   6.164   3.043  -0.262 -0.4385  0.1145 -0.7546
    9CHTO   H91 3628   6.096   3.103  -0.322  0.2003 -0.2254 -1.8451
    9CHTO   C47 3629   6.187   3.118  -0.127 -0.2139  0.0631 -0.3474
    9CHTO   H89 3630   6.082   3.138  -0.100  0.0704  0.8237  0.1949
    9CHTO   O33 3631   6.252   3.241  -0.164 -0.4037  1.3540 -0.4355
    9CHTO   H70 3632   6.204   3.320  -0.151  0.7622  2.2499 -1.5070
    9CHTO   C45 3633   6.260   3.036  -0.009  0.0968 -0.1793 -0.2363
    9CHTO   H87 3634   6.362   3.074   0.004 -0.7644  1.8615  1.0001
    9CHTO    N8 3635   6.187   3.062   0.117  0.6408 -0.1415 -0.5663
    9CHTO   H75 3636   6.184   3.168   0.138 -2.1854 -0.3552  0.2543
    9CHTO   H76 3637   6.238   3.015   0.200 -1.9995 -0.5347  0.8769
    9CHTO   C43 3638   6.276   2.879  -0.054  0.9030  0.2106 -0.2817
    9CHTO   H85 3639   6.358   2.875  -0.127  0.9508 -2.1718 -0.1500
    9CHTO   O29 3640   6.151   2.832  -0.115 -0.4331  0.6706 -0.4554
    9CHTO   C50 3641   6.103   2.902  -0.229 -0.2927  0.2789 -0.5853
    9CHTO   H92 3642   6.119   2.845  -0.322  0.7797 -0.9228  0.3230
    9CHTO   C54 3643   5.952   2.907  -0.199 -0.1456  0.1021  0.6261
    9CHTO   O36 3644   5.883   2.981  -0.297 -0.0666 -0.2718 -0.5156
    9CHTO   H72 3645   5.863   3.063  -0.256 -1.1012 -1.4241  1.3248
    9CHTO   O27 3646   6.327   2.794   0.048 -0.0415 -0.1923  0.4244
    9CHTO   C37 3647   6.456   2.754   0.109 -0.2131 -0.4361  0.3868
    9CHTO   H79 3648   6.456   2.644   0.121 -1.1708 -0.5098 -0.2371
    9CHTO   C38 3649   6.581   2.785   0.013  0.0208  0.4013  0.3454
    9CHTO   H80 3650   6.552   2.879  -0.035 -1.9830 -0.9179 -1.1003
    9CHTO   O31 3651   6.582   2.675  -0.082 -0.6162 -0.2219 -0.0229
    9CHTO   H68 3652   6.527   2.695  -0.155  1.0643  0.8056 -1.0636
    9CHTO   C39 3653   6.719   2.818   0.089  0.6126 -0.1889 -0.3527
    9CHTO   H81 3654   6.750   2.717   0.117  0.2064 -0.5763 -1.2444
    9CHTO    N7 3655   6.826   2.881   0.001 -0.2698 -0.0085 -0.0827
    9CHTO   H73 3656   6.887   2.804  -0.043 -3.0438 -2.6464  0.5314
    9CHTO   H74 3657   6.897   2.941   0.057  0.1260 -0.8580  0.3386
    9CHTO   C40 3658   6.700   2.897   0.224 -0.0341 -0.5590 -0.4441
    9CHTO   H82 3659   6.666   2.991   0.180  2.6093  0.7661  0.2868
    9CHTO   O26 3660   6.600   2.835   0.303 -0.0935 -0.3808 -0.3441
    9CHTO   C41 3661   6.468   2.828   0.248  0.2787  0.4396  0.7558
    9CHTO   H83 3662   6.450   2.932   0.218  1.3245  0.0557 -1.3171
    9CHTO   C52 3663   6.375   2.768   0.347  0.2198  0.6792  0.0255
    9CHTO   O35 3664   6.410   2.631   0.397 -0.0106 -0.0151 -0.0787
    9CHTO   H71 3665   6.360   2.605   0.472 -0.0505 -1.3197 -0.5446
    9CHTO   O28 3666   6.815   2.908   0.306  0.4617 -0.6197 -0.1367
    9CHTO   C42 3667   6.819   3.033   0.383 -0.5834 -0.3702  0.3858
    9CHTO   H84 3668   6.904   3.011   0.447  1.3523  0.6192 -1.8047
    9CHTO   C44 3669   6.693   3.062   0.479  0.1561  0.1143  0.6290
    9CHTO   H86 3670   6.601   3.042   0.424 -0.4467  0.9341  1.3246
    9CHTO   O32 3671   6.714   2.972   0.582  0.5724 -0.0802  0.2787
    9CHTO   H69 3672   6.675   2.889   0.565  0.7280 -0.4344  1.5944
    9CHTO   C48 3673   6.677   3.212   0.519  0.3446  0.4493 -0.0727
    9CHTO   H90 3674   6.755   3.225   0.594  1.9860  2.1288 -2.0026
    9CHTO    N9 3675   6.547   3.236   0.586  0.5029 -0.1843  0.0606
    9CHTO   H77 3676   6.540   3.208   0.690  0.7127  1.0757  0.4326
    9CHTO   H78 3677   6.472   3.197   0.520 -1.1183  0.3148  1.5644
    9CHTO   C51 3678   6.700   3.308   0.389 -0.2704  0.2924 -0.7107
    9CHTO   H93 3679   6.627   3.282   0.312 -0.5795 -0.0167 -0.3142
    9CHTO   O30 3680   6.837   3.292   0.346 -0.2482  0.3739  0.2750
    9CHTO   C46 3681   6.861   3.152   0.284  0.0508  0.4665  0.2301
    9CHTO   H88 3682   6.808   3.144   0.189  0.4360 -0.5243  0.0945
    9CHTO   C53 3683   7.019   3.152   0.266 -0.1337 -0.3139  0.2366
    9CHTO   O72 3684   7.083   3.038   0.200  0.4205 -0.8585 -0.2273
    9CHTO  H199 3685   7.034   2.962   0.176 -1.6573 -0.0988  1.5308
    9CHTO   O22 3686   6.690   3.451   0.418  0.0501 -0.1632 -0.2539
    9CHTO   C31 3687   6.657   3.541   0.306  0.1041 -0.4250 -0.3161
    9CHTO   H59 3688   6.652   3.640   0.357 -0.5057 -1.1192  1.0189
    9CHTO   C29 3689   6.765   3.552   0.194 -0.3507  0.5184 -0.3720
    9CHTO   H57 3690   6.784   3.454   0.149  2.3041 -0.4617  2.6770
    9CHTO   O21 3691   6.890   3.594   0.256 -0.4569  0.1805 -0.1096
    9CHTO   H37 3692   6.967   3.563   0.213  0.0965 -0.3269  1.2398
    9CHTO   C27 3693   6.715   3.652   0.082 -0.4013  0.1906 -0.7691
    9CHTO   H55 3694   6.719   3.756   0.117 -0.7075  0.2970 -1.0448
    9CHTO    N5 3695   6.784   3.643  -0.049  0.8715 -1.0061 -0.0686
    9CHTO   H43 3696   6.719   3.598  -0.122 -1.3243  2.7413 -0.5546
    9CHTO   H44 3697   6.859   3.716  -0.075 -0.3931  0.2008 -0.3866
    9CHTO   C25 3698   6.560   3.637   0.047 -0.1669 -0.3159  0.1473
    9CHTO   H53 3699   6.540   3.546  -0.011 -3.1054  1.6134 -1.9791
    9CHTO   O17 3700   6.463   3.615   0.160 -1.1604  0.2506  0.0073
    9CHTO   C32 3701   6.514   3.514   0.248 -0.5269  0.4328 -0.5008
    9CHTO   H60 3702   6.514   3.423   0.187 -0.9141 -0.0557  0.2172
    9CHTO   C36 3703   6.398   3.504   0.360 -0.4906  0.0934  0.9783
    9CHTO   O25 3704   6.410   3.607   0.457  0.0710  0.3189 -0.2738
    9CHTO   H40 3705   6.340   3.621   0.517  0.2407 -0.9046  0.2348
    9CHTO   O15 3706   6.506   3.758  -0.049  0.4357 -0.0812  0.8354
    9CHTO   C19 3707   6.425   3.753  -0.167 -0.8589 -0.1837  1.5722
    9CHTO   H47 3708   6.406   3.854  -0.206 -2.1143 -1.2561 -0.7351
    9CHTO   C20 3709   6.502   3.682  -0.280  0.1961  0.4577  0.6210
    9CHTO   H48 3710   6.540   3.584  -0.248 -1.5261  0.1933  1.9400
    9CHTO   O19 3711   6.615   3.767  -0.316 -0.7217 -0.1544  0.3459
    9CHTO   H35 3712   6.663   3.720  -0.382 -1.6735 -0.1929 -0.3438
    9CHTO   C21 3713   6.409   3.656  -0.408 -0.7503 -0.5443 -0.1582
    9CHTO   H49 3714   6.387   3.755  -0.449 -0.6374 -0.0294  1.0032
    9CHTO    N4 3715   6.482   3.577  -0.512  0.1903  0.1212  0.5935
    9CHTO   H41 3716   6.504   3.484  -0.462  1.1724  0.0417  0.0302
    9CHTO   H42 3717   6.576   3.626  -0.533  1.1649 -1.7849  0.4183
    9CHTO   C22 3718   6.270   3.599  -0.366 -0.6366  0.1466  0.1191
    9CHTO   H50 3719   6.278   3.497  -0.327 -1.6905 -0.8400 -2.1920
    9CHTO   O14 3720   6.213   3.693  -0.273  0.3677 -0.1001 -0.0008
    9CHTO   C23 3721   6.280   3.693  -0.149 -0.5140  1.0350 -0.4329
    9CHTO   H51 3722   6.284   3.590  -0.112 -1.8636  0.7973 -0.9123
    9CHTO   C34 3723   6.215   3.782  -0.041  0.0496  0.4101  0.5027
    9CHTO   O23 3724   6.098   3.710   0.003  1.0294 -0.1004 -0.7047
    9CHTO   H38 3725   6.091   3.733   0.094 -0.6807 -0.5495 -0.7039
    9CHTO   O16 3726   6.176   3.595  -0.474 -0.0155  0.2659 -0.0288
    9CHTO   C24 3727   6.069   3.455  -0.462  0.0185  0.7868 -0.5467
    9CHTO   H52 3728   6.082   3.405  -0.367 -3.7164  0.8489  0.0609
    9CHTO   C26 3729   6.111   3.373  -0.588 -0.3025 -0.5390 -0.2756
    9CHTO   H54 3730   6.095   3.437  -0.678  0.3515 -0.4915 -0.3573
    9CHTO   O20 3731   6.243   3.334  -0.562  0.0065  0.2273 -0.2105
    9CHTO   H36 3732   6.296   3.407  -0.534 -1.0968  0.2735  1.8827
    9CHTO   C30 3733   6.021   3.247  -0.594  0.1860 -0.0193 -0.0063
    9CHTO   H58 3734   6.047   3.175  -0.515 -1.0511 -0.4970 -0.0213
    9CHTO    N6 3735   6.051   3.164  -0.717  0.1247  0.1006  0.2669
    9CHTO   H45 3736   6.151   3.125  -0.724 -0.1106 -0.8038  1.6436
    9CHTO   H46 3737   5.981   3.085  -0.740  0.3897 -1.1439  3.5034
    9CHTO   C33 3738   5.872   3.278  -0.574 -0.3933 -0.0930  0.2011
    9CHTO   H61 3739   5.826   3.325  -0.662  0.1813 -0.6664 -0.4129
    9CHTO   O18 3740   5.853   3.367  -0.463 -0.2705  0.3069 -0.0993
    9CHTO   C28 3741   5.923   3.490  -0.464  0.4805  0.8596 -0.0232
    9CHTO   H56 3742   5.899   3.549  -0.553 -0.8714 -1.2018 -1.0533
    9CHTO   C35 3743   5.893   3.571  -0.340  0.0709  0.2103  0.1887
    9CHTO   O24 3744   5.760   3.630  -0.332  0.4977  0.6905 -0.3234
    9CHTO   H39 3745   5.734   3.702  -0.386 -0.7632  0.5836  0.1117
    9CHTO    O9 3746   5.794   3.156  -0.556  0.1044  0.2240  0.5864
    9CHTO   C13 3747   5.652   3.142  -0.639 -0.4983  0.3221  0.1800
    9CHTO   H26 3748   5.651   3.178  -0.744 -0.4180  1.4165  0.5535
    9CHTO   C11 3749   5.531   3.210  -0.550  0.5770  0.0109 -0.2271
    9CHTO   H24 3750   5.517   3.316  -0.576 -3.0096  0.5681  3.4777
    9CHTO    O8 3751   5.557   3.192  -0.408 -0.3506 -0.1170 -0.6025
    9CHTO    H3 3752   5.494   3.248  -0.366  0.5722  0.5350 -0.0433
    9CHTO    C9 3753   5.397   3.138  -0.583 -0.0567 -0.5540  0.2299
    9CHTO   H22 3754   5.385   3.145  -0.692  1.2402 -0.1165  0.1096
    9CHTO    N2 3755   5.272   3.209  -0.543 -0.4239  0.5429 -1.1442
    9CHTO   H10 3756   5.268   3.217  -0.435  1.8814 -1.9779 -0.8403
    9CHTO   H11 3757   5.184   3.156  -0.575  1.2303 -1.8574 -1.8402
    9CHTO    C7 3758   5.402   2.991  -0.539 -0.2994  0.3237  0.4724
    9CHTO   H20 3759   5.318   2.938  -0.589  0.3962 -0.5889  0.2590
    9CHTO    O4 3760   5.533   2.934  -0.561 -0.0588 -0.4412  0.0020
    9CHTO   C14 3761   5.610   2.989  -0.669  0.8767  0.0976  0.4243
    9CHTO   H27 3762   5.547   2.984  -0.760  1.2481 -2.9584  0.2672
    9CHTO   C18 3763   5.728   2.904  -0.694 -0.0209  0.0503 -0.1829
    9CHTO   O13 3764   5.810   2.955  -0.797  0.0293  0.0199 -0.4638
    9CHTO    H7 3765   5.815   3.048  -0.786 -0.1694 -0.1860  1.4118
    9CHTO    O2 3766   5.374   2.976  -0.400 -0.0702 -0.0229  0.0166
    9CHTO    C1 3767   5.357   2.841  -0.348 -0.0460  0.1096 -0.0508
    9CHTO   H14 3768   5.419   2.771  -0.408  0.3115  0.4318 -0.0573
    9CHTO    C2 3769   5.205   2.792  -0.338  0.1841 -0.0069  0.6690
    9CHTO   H15 3770   5.159   2.881  -0.293  1.1664  0.9058 -0.1024
    9CHTO    O6 3771   5.160   2.777  -0.473 -0.3323  0.1189  0.0022
    9CHTO    H1 3772   5.174   2.689  -0.500 -1.2888 -0.4552  1.3522
    9CHTO    C3 3773   5.206   2.654  -0.254  0.3154 -0.1841  0.0172
    9CHTO   H16 3774   5.268   2.577  -0.302 -0.3282 -2.2156  2.3434
    9CHTO    N1 3775   5.059   2.601  -0.233 -0.1546 -0.0371  0.4076
    9CHTO    H8 3776   5.042   2.543  -0.323  0.7638 -0.7039  0.6661
    9CHTO    H9 3777   4.988   2.680  -0.213 -1.0527 -1.6332  3.9280
    9CHTO    C4 3778   5.267   2.676  -0.113  0.1224  0.2643  0.4874
    9CHTO   H17 3779   5.197   2.742  -0.061  1.0307  1.5189  0.1385
    9CHTO    O1 3780   5.398   2.732  -0.121  0.0970  0.1744 -0.8584
    9CHTO    C5 3781   5.420   2.840  -0.206  0.1076 -0.4008  0.5820
    9CHTO   H18 3782   5.391   2.927  -0.146  1.7805 -0.0497  0.9036
    9CHTO   C16 3783   5.571   2.856  -0.230  0.8558 -0.9943  0.2791
    9CHTO   O11 3784   5.629   2.891  -0.106 -0.4233  0.7664 -0.3712
    9CHTO    H5 3785   5.722   2.875  -0.104 -0.6218 -0.6799 -1.7267
    9CHTO    O3 3786   5.273   2.551  -0.041 -0.0626 -0.4710  0.1231
    9CHTO    C6 3787   5.302   2.564   0.105 -0.1497  0.5463  0.3389
    9CHTO   H19 3788   5.327   2.665   0.138  1.5888  0.7978 -1.6440
    9CHTO    C8 3789   5.176   2.519   0.180  0.5673 -1.3099  0.0475
    9CHTO   H21 3790   5.147   2.420   0.144 -0.7073 -1.0785  0.3960
    9CHTO    O7 3791   5.068   2.612   0.159 -0.0315 -0.4828  0.0282
    9CHTO    H2 3792   5.053   2.610   0.067 -0.3824 -2.4528  0.0993
    9CHTO   C12 3793   5.190   2.506   0.331 -0.5809 -0.0383 -0.6280
    9CHTO   H25 3794   5.196   2.600   0.388 -1.1557 -0.9277  0.9271
    9CHTO    N3 3795   5.070   2.426   0.388 -0.0625  0.3623 -0.1922
    9CHTO   H12 3796   5.006   2.483   0.453 -0.6913  2.3706 -2.5004
    9CHTO   H13 3797   5.096   2.329   0.427  0.4584 -0.9464 -3.6057
    9CHTO   C15 3798   5.322   2.421   0.357 -0.0673 -0.0762  0.3317
    9CHTO   H28 3799   5.312   2.321   0.313 -0.8464  0.3285 -0.4447
    9CHTO   O10 3800   5.374   2.424   0.505 -0.2231 -0.3593  0.4162
    9CHTO    H4 3801   5.381   2.514   0.528  0.4759 -0.2945 -0.0405
    9CHTO    O5 3802   5.430   2.479   0.284 -0.1186  0.3190 -0.0549
    9CHTO   C10 3803   5.424   2.479   0.140  0.7129  0.0888  0.1319
    9CHTO   H23 3804   5.413   2.378   0.101  0.4925 -0.2841  1.1387
    9CHTO   C17 3805   5.557   2.532   0.085  0.0012  0.7309 -0.0856
    9CHTO   O12 3806   5.607   2.660   0.132  0.6877  0.3434 -0.1253
    9CHTO    H6 3807   5.681   2.682   0.079  1.4574  1.0565  1.2255
   10CHTO  H203 3808   6.049   6.030   3.270 -0.8694 -0.3010  1.8482
   10CHTO   O82 3809   5.981   6.092   3.253  0.0029  0.3771  0.7036
   10CHTO  C123 3810   5.843   6.039   3.277 -0.9565 -0.0241 -0.4078
   10CHTO  H227 3811   5.811   5.981   3.189  2.5311 -2.0292 -0.4446
   10CHTO   O77 3812   5.866   5.947   3.393  0.1977  0.0370  0.1697
   10CHTO  C118 3813   5.738   5.877   3.421 -0.5282  0.0641 -0.2851
   10CHTO  H222 3814   5.704   5.830   3.327  3.3814 -0.3128 -1.5818
   10CHTO  C125 3815   5.744   5.769   3.536  0.1844  0.4762  0.2750
   10CHTO   O84 3816   5.761   5.815   3.667 -0.0626  0.4007  0.0432
   10CHTO  H205 3817   5.843   5.860   3.675  0.0395  0.3520 -0.7534
   10CHTO  C114 3818   5.622   5.971   3.456  0.7567  0.2642 -0.1121
   10CHTO  H218 3819   5.638   6.011   3.556  3.3479 -1.3198  0.1462
   10CHTO  C116 3820   5.606   6.083   3.347 -0.0778 -0.6841  0.1594
   10CHTO  H220 3821   5.563   6.032   3.258 -0.6371  0.5955 -0.3082
   10CHTO   O79 3822   5.504   6.170   3.397  0.1750  0.3041 -0.2065
   10CHTO  H201 3823   5.535   6.259   3.400 -0.6690  0.5499  1.4989
   10CHTO  C120 3824   5.742   6.155   3.310  0.7349  0.2226  0.4271
   10CHTO  H224 3825   5.780   6.205   3.401 -0.9170  0.3515  1.0660
   10CHTO   N21 3826   5.725   6.255   3.199  0.3368  0.0834 -0.3233
   10CHTO  H211 3827   5.719   6.199   3.107  0.6113  1.2145 -1.0359
   10CHTO  H212 3828   5.813   6.315   3.184 -0.9547  1.6264 -2.0079
   10CHTO   O75 3829   5.502   5.893   3.461 -0.2265  0.1844  0.2011
   10CHTO  C112 3830   5.395   5.921   3.572 -0.2856 -0.1200 -0.1467
   10CHTO  H216 3831   5.383   6.029   3.585 -0.5769 -0.1026 -0.5571
   10CHTO   O73 3832   5.422   5.854   3.693 -0.6095  0.3609  0.2875
   10CHTO  C113 3833   5.333   5.883   3.800  0.6351  0.0627 -0.0323
   10CHTO  H217 3834   5.311   5.991   3.800 -1.2730 -0.3106 -0.7190
   10CHTO  C124 3835   5.387   5.841   3.938  0.2309 -0.3109  0.0801
   10CHTO   O83 3836   5.429   5.707   3.934 -0.4154 -0.2757  0.3017
   10CHTO  H204 3837   5.406   5.660   4.011  1.2669 -0.3766  0.7744
   10CHTO  C109 3838   5.210   5.805   3.760  0.8986 -0.0669 -0.0193
   10CHTO  H213 3839   5.236   5.698   3.773  0.2095 -0.1461  0.7863
   10CHTO  C110 3840   5.150   5.848   3.628 -0.4092 -0.2138 -0.5761
   10CHTO  H214 3841   5.110   5.948   3.647  0.3768 -0.4198  2.3948
   10CHTO   O78 3842   5.036   5.767   3.588 -0.4389 -0.3433  0.7683
   10CHTO  H200 3843   5.009   5.792   3.502  0.4915  0.1732  0.6153
   10CHTO  C111 3844   5.257   5.860   3.517 -0.5263 -0.0116  0.6039
   10CHTO  H215 3845   5.272   5.760   3.476 -1.4508 -1.2873  3.2704
   10CHTO   N19 3846   5.219   5.944   3.405 -0.0431 -0.5004  0.6419
   10CHTO  H207 3847   5.218   6.047   3.436 -1.0430  0.8632 -3.5507
   10CHTO  H208 3848   5.116   5.919   3.383 -0.9920  1.0858  3.0653
   10CHTO   O74 3849   5.104   5.839   3.866  0.2479 -0.1850  0.1383
   10CHTO  C115 3850   5.026   5.719   3.913  0.1238 -1.0219 -0.4037
   10CHTO  H219 3851   5.011   5.647   3.832  0.5923  0.5476 -1.9460
   10CHTO   O76 3852   5.101   5.639   4.021  0.1312  0.6587  0.1368
   10CHTO  C122 3853   5.108   5.702   4.147 -0.9040 -0.6085  0.0817
   10CHTO  H226 3854   5.158   5.797   4.129  2.1573 -1.7615  2.2046
   10CHTO  C126 3855   5.209   5.628   4.241  0.1381 -0.0266  0.1855
   10CHTO   O85 3856   5.331   5.586   4.183  0.2271 -0.1444  0.8317
   10CHTO  H206 3857   5.395   5.654   4.190  2.0958 -1.8904  1.2468
   10CHTO  C121 3858   4.961   5.724   4.210  0.9334  0.4012  0.8158
   10CHTO  H225 3859   4.942   5.641   4.282 -4.6423  0.1140 -0.7191
   10CHTO   O81 3860   4.942   5.856   4.260  0.4337 -0.2294  0.0505
   10CHTO  H202 3861   4.969   5.860   4.349  0.4824 -4.9562  0.3448
   10CHTO  C119 3862   4.848   5.713   4.096  0.0605 -0.3027 -0.6448
   10CHTO  H223 3863   4.838   5.607   4.076 -0.0161 -0.2511 -0.8757
   10CHTO  C117 3864   4.888   5.782   3.958  0.6709 -0.8681 -0.7938
   10CHTO  H221 3865   4.901   5.890   3.962  2.6272 -1.1147  0.0590
   10CHTO   N20 3866   4.788   5.761   3.849  0.1750  0.6303  0.6911
   10CHTO  H209 3867   4.818   5.775   3.746 -0.2368 -0.9581  0.3384
   10CHTO  H210 3868   4.726   5.673   3.863  0.2522  0.3354 -0.7553
   10CHTO   O80 3869   4.691   5.749   4.149 -0.4307  0.3477  0.6836
   10CHTO  C103 3870   4.577   5.622   4.152  0.0892 -0.0412  0.9999
   10CHTO  H190 3871   4.589   5.551   4.069  0.5098  1.1628  0.0176
   10CHTO  C101 3872   4.589   5.530   4.273 -0.4889 -0.2138  0.4894
   10CHTO  H188 3873   4.583   5.594   4.361  0.3403 -0.2298  0.5658
   10CHTO   O68 3874   4.722   5.470   4.269  0.8431  0.0945 -0.2214
   10CHTO  H168 3875   4.758   5.472   4.355  0.6834 -1.3173 -0.1077
   10CHTO   C99 3876   4.471   5.424   4.274 -0.0856 -0.4254 -0.1220
   10CHTO  H186 3877   4.484   5.356   4.187 -0.8944  0.3347 -0.8464
   10CHTO   N17 3878   4.469   5.339   4.396  0.5458  0.1626  0.3935
   10CHTO  H174 3879   4.520   5.244   4.392 -2.7088 -1.6742  0.2061
   10CHTO  H175 3880   4.494   5.398   4.483  0.8424  1.7001 -0.7173
   10CHTO   C97 3881   4.332   5.495   4.248 -0.0543  0.2594 -0.1743
   10CHTO  H184 3882   4.306   5.560   4.333  0.9198 -1.8070  1.7730
   10CHTO   O64 3883   4.346   5.571   4.127 -0.6833  0.4624  0.1200
   10CHTO  C104 3884   4.440   5.680   4.148  0.0716  0.2965 -0.7458
   10CHTO  H191 3885   4.418   5.736   4.239  2.9000  0.2431  0.0208
   10CHTO  C108 3886   4.429   5.774   4.029  0.2971 -0.0320 -0.3455
   10CHTO   O71 3887   4.307   5.844   4.023  0.3418 -0.1700  0.2502
   10CHTO  H171 3888   4.306   5.885   3.939 -0.7091 -2.2442 -0.8051
   10CHTO   O62 3889   4.221   5.401   4.216  0.3987 -0.5928  0.1451
   10CHTO   C91 3890   4.104   5.385   4.293 -0.3383  0.4870  0.0750
   10CHTO  H178 3891   4.123   5.403   4.399  0.0697  1.1825 -0.1089
   10CHTO   C92 3892   4.056   5.233   4.286  0.2376 -0.0748  0.0805
   10CHTO  H179 3893   4.040   5.200   4.182  0.2174 -0.0577  0.0782
   10CHTO   O66 3894   4.158   5.140   4.335  0.0376  0.2593 -0.7172
   10CHTO  H166 3895   4.118   5.063   4.371 -2.1847  3.1424  3.2309
   10CHTO   C93 3896   3.918   5.206   4.368  0.2366  0.3932 -0.1970
   10CHTO  H180 3897   3.938   5.215   4.476  0.7111 -1.6051 -0.0996
   10CHTO   N16 3898   3.873   5.070   4.357  0.4918 -0.1807 -0.3025
   10CHTO  H172 3899   3.800   5.051   4.280  1.4767 -2.7030 -0.6476
   10CHTO  H173 3900   3.826   5.023   4.442 -0.5586  3.6046  1.3378
   10CHTO   C94 3901   3.807   5.314   4.333 -0.1111 -0.0635 -0.4190
   10CHTO  H181 3902   3.774   5.311   4.229 -0.0934  0.1438 -0.4303
   10CHTO   O61 3903   3.868   5.446   4.344  0.3188  0.2152 -0.0622
   10CHTO   C95 3904   3.972   5.475   4.252 -0.4663  0.0376  0.4248
   10CHTO  H182 3905   3.942   5.453   4.149  1.2520  1.2236 -0.3576
   10CHTO  C106 3906   4.003   5.621   4.247 -0.1783  0.0946 -0.1500
   10CHTO   O69 3907   3.893   5.708   4.226 -0.1865  0.7913 -0.3576
   10CHTO  H169 3908   3.851   5.720   4.309 -0.7723  0.5597 -0.6143
   10CHTO   O63 3909   3.677   5.301   4.416 -0.1952  0.3130  0.1043
   10CHTO   C96 3910   3.688   5.361   4.573 -0.4302  1.4228 -0.1110
   10CHTO  H183 3911   3.790   5.389   4.601  0.0892  0.2308 -0.7784
   10CHTO   C98 3912   3.640   5.258   4.687  0.0654 -0.7461 -0.4766
   10CHTO  H185 3913   3.537   5.230   4.663  0.2082  0.7239 -3.0184
   10CHTO   O67 3914   3.714   5.132   4.684  0.1087  0.1368  0.1880
   10CHTO  H167 3915   3.684   5.087   4.607 -2.8762  1.5111  0.4659
   10CHTO  C102 3916   3.657   5.326   4.833  0.5671 -1.4269 -0.3570
   10CHTO  H189 3917   3.762   5.313   4.864  0.7777 -2.3591 -1.4365
   10CHTO   N18 3918   3.573   5.261   4.942  0.1967 -0.0020 -0.0751
   10CHTO  H176 3919   3.603   5.157   4.944  2.0803  0.5570  1.9481
   10CHTO  H177 3920   3.466   5.270   4.926  0.2621  0.1888 -0.4001
   10CHTO  C105 3921   3.625   5.481   4.828  0.1934  0.4390  0.3630
   10CHTO  H192 3922   3.572   5.515   4.917 -0.2550 -1.2499  0.7495
   10CHTO   O65 3923   3.547   5.523   4.709 -0.0756  0.4391 -0.0376
   10CHTO  C100 3924   3.591   5.480   4.581 -0.0098 -0.9255  0.3194
   10CHTO  H187 3925   3.505   5.456   4.517 -0.2051  0.3553  0.0811
   10CHTO  C107 3926   3.647   5.602   4.517  0.2614 -0.1628 -0.2649
   10CHTO   O70 3927   3.767   5.663   4.574 -0.3100 -0.0101 -0.0191
   10CHTO  H170 3928   3.777   5.752   4.546  0.5709 -0.1311 -0.0954
   10CHTO   O57 3929   3.762   5.538   4.849 -0.6143  0.5722  0.4247
   10CHTO   C85 3930   3.793   5.661   4.917 -0.2101 -0.2586  0.6999
   10CHTO  H157 3931   3.689   5.698   4.931 -0.6497 -2.1422  2.7451
   10CHTO   C83 3932   3.868   5.771   4.828  1.1159 -0.9896 -0.0346
   10CHTO  H155 3933   3.792   5.800   4.754  2.8171 -2.3963 -2.4039
   10CHTO   O56 3934   3.974   5.703   4.756 -0.2946 -0.5231 -0.0838
   10CHTO  H135 3935   4.013   5.768   4.701  0.8911 -0.2002  1.1212
   10CHTO   C81 3936   3.913   5.895   4.915 -0.2157 -0.6204  0.8991
   10CHTO  H153 3937   3.822   5.943   4.950  0.4084  0.8019  0.5916
   10CHTO   N14 3938   3.999   5.995   4.840 -0.0393  0.4974  0.0224
   10CHTO  H141 3939   4.087   5.954   4.797  0.2862  1.3892 -0.1629
   10CHTO  H142 3940   4.030   6.061   4.918 -0.0229 -0.8341  1.1852
   10CHTO   C79 3941   3.992   5.843   5.049  0.2614 -0.9167 -0.0714
   10CHTO  H151 3942   4.018   5.935   5.101  0.7948  1.0328 -3.6485
   10CHTO   O52 3943   3.907   5.759   5.129  0.2454 -0.1192  0.3518
   10CHTO   C86 3944   3.866   5.640   5.057  0.2904  0.5624 -0.0991
   10CHTO  H158 3945   3.960   5.582   5.050 -0.4764 -0.6385 -0.5533
   10CHTO   C90 3946   3.768   5.556   5.148  0.0726 -0.5384 -0.2363
   10CHTO   O60 3947   3.836   5.479   5.239  0.3527 -0.7167 -0.0718
   10CHTO  H138 3948   3.797   5.498   5.322 -0.0268 -2.4308  0.1537
   10CHTO   O50 3949   4.118   5.775   5.019  1.0183 -0.3732 -0.0981
   10CHTO   C73 3950   4.245   5.718   5.053 -0.2056  0.4290 -0.3151
   10CHTO  H145 3951   4.294   5.688   4.959 -0.4256 -1.2350  0.0897
   10CHTO   C74 3952   4.243   5.582   5.140 -0.0088  0.0582 -0.2633
   10CHTO  H146 3953   4.180   5.509   5.087 -1.1017  0.4296  0.5087
   10CHTO   O54 3954   4.373   5.525   5.153 -0.2680 -0.2222 -0.3961
   10CHTO  H133 3955   4.397   5.504   5.065 -0.3119 -0.6826 -0.2979
   10CHTO   C75 3956   4.182   5.622   5.279 -0.7955  0.6173  0.3819
   10CHTO  H147 3957   4.082   5.665   5.263 -1.4134 -0.4485  1.2973
   10CHTO   N13 3958   4.170   5.508   5.372 -0.1124  0.0348  0.4374
   10CHTO  H139 3959   4.072   5.475   5.403 -1.3912  2.0244 -1.4004
   10CHTO  H140 3960   4.217   5.421   5.328 -0.1014  0.1925  0.1411
   10CHTO   C76 3961   4.256   5.745   5.343  0.1694 -0.6988 -0.0105
   10CHTO  H148 3962   4.358   5.715   5.364 -0.2711 -2.2043  0.0578
   10CHTO   O49 3963   4.263   5.854   5.251  0.5939 -0.1890 -0.1370
   10CHTO   C77 3964   4.327   5.829   5.125  0.3288 -0.1370  0.3974
   10CHTO  H149 3965   4.432   5.799   5.125 -0.4769 -3.1082 -0.4001
   10CHTO   C88 3966   4.343   5.958   5.038 -0.1779  0.0372  0.4285
   10CHTO   O58 3967   4.415   6.074   5.111 -0.4101  0.1787  0.6855
   10CHTO  H136 3968   4.408   6.070   5.204  0.7085  0.2522  0.7777
   10CHTO   O51 3969   4.200   5.809   5.468 -0.2495  0.1582  0.4649
   10CHTO   C78 3970   4.301   5.866   5.561  0.3732 -0.5189  0.1347
   10CHTO  H150 3971   4.397   5.879   5.508 -0.0290 -3.6027 -1.4701
   10CHTO   C80 3972   4.330   5.764   5.674  0.2600  0.6108  0.1891
   10CHTO  H152 3973   4.235   5.745   5.729  1.5275 -0.7240  1.9666
   10CHTO   O55 3974   4.399   5.644   5.613  0.5663  0.6034  0.1526
   10CHTO  H134 3975   4.352   5.564   5.628 -3.1155  2.0721 -2.5721
   10CHTO   C84 3976   4.422   5.829   5.787 -0.0671 -0.5013 -0.1392
   10CHTO  H156 3977   4.520   5.846   5.741 -0.8717  0.5068 -1.5180
   10CHTO   N15 3978   4.447   5.738   5.903 -0.6844 -0.0510  0.2084
   10CHTO  H143 3979   4.508   5.795   5.970 -1.9509 -1.0519  2.2729
   10CHTO  H144 3980   4.356   5.716   5.953 -1.1466 -0.1071 -0.6470
   10CHTO   C87 3981   4.370   5.966   5.831 -0.3566 -0.2548  0.4810
   10CHTO  H159 3982   4.286   5.958   5.900  0.2959  0.1994  1.3386
   10CHTO   O53 3983   4.344   6.045   5.722 -0.2487 -0.2298  0.2000
   10CHTO   C82 3984   4.249   5.993   5.627 -0.0385 -0.6535 -0.3685
   10CHTO  H154 3985   4.159   5.982   5.688 -1.4430  2.2834 -1.7885
   10CHTO   C89 3986   4.208   6.108   5.529 -0.2033  0.6337  0.2448
   10CHTO   O59 3987   4.322   6.145   5.446  0.5044  0.0178  0.2240
   10CHTO  H137 3988   4.399   6.125   5.496  0.7313 -2.1707 -0.9519
   10CHTO   O45 3989   4.486   6.043   5.909 -0.2642 -0.2428  0.7047
   10CHTO   C67 3990   4.464   6.176   5.936  0.3056  0.6140  0.1260
   10CHTO  H124 3991   4.358   6.194   5.918  0.0835 -1.6109 -0.9564
   10CHTO   C65 3992   4.496   6.220   6.086  0.0368 -0.1716 -0.1306
   10CHTO  H122 3993   4.452   6.132   6.134 -1.4582 -0.5142 -2.0773
   10CHTO   O44 3994   4.439   6.348   6.126 -0.4100 -0.0294 -0.6073
   10CHTO  H102 3995   4.482   6.384   6.202  0.5249 -1.8498 -0.2602
   10CHTO   C63 3996   4.648   6.197   6.103 -0.4202 -0.1421  1.1116
   10CHTO  H120 3997   4.672   6.101   6.056 -0.5233 -0.9368  2.6308
   10CHTO   N11 3998   4.706   6.184   6.243 -0.5471  0.1079  0.5073
   10CHTO  H108 3999   4.631   6.205   6.317  1.0648  0.1417  2.1853
   10CHTO  H109 4000   4.801   6.229   6.262  0.8336 -3.4765  2.4896
   10CHTO   C61 4001   4.727   6.295   6.008 -0.4607 -0.1643  0.4196
   10CHTO  H118 4002   4.829   6.255   6.006 -1.0374 -1.6894  0.8817
   10CHTO   O40 4003   4.681   6.291   5.865 -0.3936  0.2352 -0.3615
   10CHTO   C68 4004   4.543   6.260   5.830 -0.2590  0.7756  0.6661
   10CHTO  H125 4005   4.549   6.215   5.729 -0.2998 -1.5420  1.6417
   10CHTO   C72 4006   4.452   6.385   5.814 -0.1993 -0.0435 -0.4992
   10CHTO   O48 4007   4.332   6.359   5.742  0.7072 -0.4444  0.0689
   10CHTO  H105 4008   4.352   6.365   5.650 -0.1962 -2.7304 -0.3147
   10CHTO   O38 4009   4.737   6.432   6.055 -0.5916  0.1589 -0.4918
   10CHTO   C55 4010   4.848   6.510   6.006 -0.7516  0.3641  0.4310
   10CHTO  H112 4011   4.882   6.479   5.905  1.2281  1.8926  0.5983
   10CHTO   C56 4012   4.970   6.492   6.110  0.5276 -0.1996 -0.3376
   10CHTO  H113 4013   4.928   6.516   6.209  0.0333 -0.6764 -0.4245
   10CHTO   O42 4014   5.018   6.357   6.112  0.9604 -0.5999  0.6520
   10CHTO  H100 4015   5.072   6.340   6.037  1.4728  2.1802  0.3717
   10CHTO   C57 4016   5.086   6.596   6.083  0.7258  0.1719  0.6518
   10CHTO  H114 4017   5.132   6.549   5.996  0.1525  2.7279 -1.0599
   10CHTO   N10 4018   5.181   6.605   6.195  0.1697  0.4622 -0.3295
   10CHTO  H106 4019   5.150   6.683   6.263 -3.0641 -1.9071  1.0715
   10CHTO  H107 4020   5.185   6.510   6.246  1.6588  0.9460  0.4670
   10CHTO   C58 4021   5.040   6.741   6.037  0.1316  0.1649 -0.4694
   10CHTO  H115 4022   5.013   6.797   6.129  1.6182 -1.1611  0.8085
   10CHTO   O37 4023   4.933   6.731   5.948  0.4649 -0.0082  0.0803
   10CHTO   C59 4024   4.813   6.661   5.989 -0.2579 -0.2660 -0.0615
   10CHTO  H116 4025   4.772   6.720   6.071  0.8666  0.1789  0.1752
   10CHTO   C70 4026   4.715   6.661   5.863 -0.3153  0.6301 -0.9723
   10CHTO   O46 4027   4.680   6.803   5.839 -0.1480  0.5530  0.5973
   10CHTO  H103 4028   4.606   6.824   5.893 -0.6510  0.2287  0.0487
   10CHTO   O39 4029   5.157   6.826   5.943  0.1168  0.2417  0.1867
   10CHTO   C60 4030   5.163   6.962   5.969  0.3444 -0.5366 -0.0460
   10CHTO  H117 4031   5.071   6.996   6.017  2.0714  1.8716  1.6212
   10CHTO   C62 4032   5.273   7.006   6.075  0.0484 -0.1597 -0.5526
   10CHTO  H119 4033   5.249   6.957   6.171  1.7806  2.3975  1.2320
   10CHTO   O43 4034   5.407   6.979   6.024  0.3240 -0.1521  0.2644
   10CHTO  H101 4035   5.410   6.967   5.931 -2.1479 -1.0564  0.2526
   10CHTO   C66 4036   5.257   7.167   6.099 -0.1924 -0.5082 -0.4135
   10CHTO  H123 4037   5.154   7.195   6.123  0.9450  1.9785  1.7983
   10CHTO   N12 4038   5.340   7.220   6.211  0.3992  0.3493  0.3739
   10CHTO  H110 4039   5.383   7.147   6.277  0.0265  0.0356  0.2692
   10CHTO  H111 4040   5.412   7.294   6.178 -1.5439  0.9255 -2.7917
   10CHTO   C69 4041   5.276   7.241   5.957  0.2744 -0.2640 -0.2122
   10CHTO  H126 4042   5.378   7.224   5.917  0.7068  0.5881  0.4993
   10CHTO   O41 4043   5.175   7.195   5.861  0.0164  0.0590 -0.3669
   10CHTO   C64 4044   5.179   7.043   5.843 -0.4065  0.2477  0.1389
   10CHTO  H121 4045   5.279   7.011   5.808 -0.6768  1.5721 -1.9236
   10CHTO   C71 4046   5.065   7.009   5.734  0.1489  0.4337  0.0517
   10CHTO   O47 4047   5.128   7.019   5.602 -0.6460  0.8171  0.9610
   10CHTO  H104 4048   5.062   7.046   5.541 -0.1863 -0.7500 -0.2585
   10CHTO   O34 4049   5.253   7.383   5.969 -0.0147 -0.5533  0.4326
   10CHTO   C49 4050   5.342   7.528   5.955 -0.6336  0.4740 -0.2526
   10CHTO   H91 4051   5.351   7.561   6.058  1.5212  1.0431 -0.6120
   10CHTO   C47 4052   5.242   7.612   5.875 -0.2517 -0.1596  1.3870
   10CHTO   H89 4053   5.284   7.714   5.873 -2.3515  0.7109 -0.1191
   10CHTO   O33 4054   5.118   7.628   5.936 -0.3128  0.3125 -0.6914
   10CHTO   H70 4055   5.060   7.556   5.921 -0.7790  0.2787  1.1762
   10CHTO   C45 4056   5.231   7.556   5.718  0.1433 -0.4996  0.2979
   10CHTO   H87 4057   5.188   7.454   5.725  0.2417 -0.4859  1.2224
   10CHTO    N8 4058   5.136   7.635   5.632 -0.0692  0.2030 -0.3329
   10CHTO   H75 4059   5.166   7.650   5.529 -0.6622  0.4601 -0.4727
   10CHTO   H76 4060   5.047   7.573   5.631 -1.0506  1.5538  1.3773
   10CHTO   C43 4061   5.383   7.548   5.662 -0.0640 -0.4956 -0.4201
   10CHTO   H85 4062   5.379   7.498   5.565  0.3730  0.0295 -0.7103
   10CHTO   O29 4063   5.469   7.481   5.750 -0.2669  0.5726  0.5301
   10CHTO   C50 4064   5.477   7.518   5.889 -0.2260 -0.1392  0.0967
   10CHTO   H92 4065   5.533   7.434   5.933  1.8947  0.8004 -0.7339
   10CHTO   C54 4066   5.574   7.642   5.932  0.0392 -0.1223 -0.2320
   10CHTO   O36 4067   5.685   7.646   5.845 -0.4102 -0.3601 -0.0178
   10CHTO   H72 4068   5.657   7.674   5.760 -1.0951 -1.0104 -0.0159
   10CHTO   O27 4069   5.437   7.679   5.635 -0.3138  0.7035  0.1622
   10CHTO   C37 4070   5.481   7.786   5.550 -0.3842 -0.1337 -0.0527
   10CHTO   H79 4071   5.591   7.789   5.552 -0.0692 -6.0823 -0.2000
   10CHTO   C38 4072   5.429   7.769   5.401 -0.4946  0.3929 -0.2872
   10CHTO   H80 4073   5.320   7.758   5.399 -0.5616  1.1185 -1.7170
   10CHTO   O31 4074   5.487   7.648   5.347 -0.3630  0.6138 -0.0586
   10CHTO   H68 4075   5.444   7.576   5.388  0.9667 -1.4893 -2.2034
   10CHTO   C39 4076   5.471   7.894   5.313  0.6351  0.1829  0.1949
   10CHTO   H81 4077   5.578   7.912   5.324 -0.3464  4.8304  3.1520
   10CHTO    N7 4078   5.433   7.880   5.169 -0.3256 -0.6972 -0.1445
   10CHTO   H73 4079   5.438   7.782   5.124 -0.2302 -0.4258 -0.7392
   10CHTO   H74 4080   5.335   7.922   5.154  0.2045  0.5147 -0.3405
   10CHTO   C40 4081   5.406   8.021   5.381  0.4588  0.3735 -0.2794
   10CHTO   H82 4082   5.299   8.011   5.396  0.4827  0.1082 -0.2904
   10CHTO   O26 4083   5.475   8.025   5.506  0.1202 -0.5002 -0.1786
   10CHTO   C41 4084   5.425   7.923   5.604 -0.5917  0.8194 -0.6960
   10CHTO   H83 4085   5.315   7.922   5.599 -0.5503  0.3765 -1.5960
   10CHTO   C52 4086   5.489   7.960   5.736 -0.2485  0.0442 -0.7189
   10CHTO   O35 4087   5.409   8.067   5.797 -0.2069  0.5372 -0.2371
   10CHTO   H71 4088   5.462   8.107   5.864  1.4977 -0.2705 -1.0658
   10CHTO   O28 4089   5.435   8.140   5.310 -0.1560 -0.4678  0.2812
   10CHTO   C42 4090   5.350   8.256   5.331 -0.7647  0.2969  0.4039
   10CHTO   H84 4091   5.288   8.231   5.417  1.2405 -2.9708  0.9915
   10CHTO   C44 4092   5.253   8.296   5.210 -0.3692  0.3055 -0.2090
   10CHTO   H86 4093   5.312   8.328   5.124  0.7624  0.1235  0.4962
   10CHTO   O32 4094   5.169   8.179   5.204  0.3713  0.2672 -0.3286
   10CHTO   H69 4095   5.097   8.208   5.152 -1.3029 -1.4647  0.9541
   10CHTO   C48 4096   5.177   8.429   5.244  0.2830  0.3143 -0.0821
   10CHTO   H90 4097   5.108   8.402   5.324  0.9840 -0.2028  0.3555
   10CHTO    N9 4098   5.093   8.476   5.124  0.4887  0.2277 -0.3261
   10CHTO   H77 4099   5.147   8.480   5.030 -1.3531 -1.4141 -1.4904
   10CHTO   H78 4100   5.053   8.573   5.151 -3.2854 -1.7837  1.5923
   10CHTO   C51 4101   5.279   8.543   5.291 -0.1876 -0.1056  0.0416
   10CHTO   H93 4102   5.335   8.572   5.203 -1.2623 -2.9155 -1.6101
   10CHTO   O30 4103   5.362   8.484   5.395 -0.0298  0.3715  0.0074
   10CHTO   C46 4104   5.441   8.381   5.373  0.9543 -0.1605  0.3993
   10CHTO   H88 4105   5.513   8.417   5.299  0.8017  2.3851  1.4260
   10CHTO   C53 4106   5.522   8.363   5.503  0.0685  0.1813 -1.0986
   10CHTO   O72 4107   5.639   8.288   5.480  0.0449 -0.4314 -0.0855
   10CHTO  H199 4108   5.675   8.268   5.565 -2.5389 -0.4146  1.0503
   10CHTO   O22 4109   5.226   8.660   5.359  0.1489  0.2577 -0.0085
   10CHTO   C31 4110   5.299   8.790   5.378 -0.2933  0.3548  0.2998
   10CHTO   H59 4111   5.234   8.854   5.441 -0.3241  0.5301  0.0899
   10CHTO   C29 4112   5.439   8.780   5.441  0.5099 -0.0575  0.4104
   10CHTO   H57 4113   5.496   8.707   5.382 -0.1793  1.3723 -2.1076
   10CHTO   O21 4114   5.437   8.714   5.571 -0.6828 -0.1128 -0.1987
   10CHTO   H37 4115   5.514   8.714   5.624 -0.4054 -0.7066 -0.5972
   10CHTO   C27 4116   5.511   8.921   5.442  0.3623 -0.0939 -0.5632
   10CHTO   H55 4117   5.465   8.983   5.521 -0.3723  2.9681 -3.2756
   10CHTO    N5 4118   5.655   8.902   5.479  0.4775  0.1127  0.4081
   10CHTO   H43 4119   5.664   8.845   5.570 -0.7405 -1.3031 -0.3393
   10CHTO   H44 4120   5.718   8.875   5.395  1.0371  1.9997  0.1945
   10CHTO   C25 4121   5.485   8.994   5.306 -0.4884  0.3470  0.2904
   10CHTO   H53 4122   5.542   8.932   5.236 -2.7977 -0.6117 -0.7834
   10CHTO   O17 4123   5.351   9.001   5.270 -0.3109  0.7075 -0.4061
   10CHTO   C32 4124   5.309   8.869   5.240  0.2526  0.9739 -1.5465
   10CHTO   H60 4125   5.375   8.815   5.173 -1.1982 -0.0257 -2.1815
   10CHTO   C36 4126   5.161   8.906   5.182  0.2524  0.2772 -0.1328
   10CHTO   O25 4127   5.127   8.806   5.090  0.1349  0.1279 -0.1868
   10CHTO   H40 4128   5.034   8.792   5.092  0.1528 -0.7753 -3.1995
   10CHTO   O15 4129   5.533   9.127   5.319  0.6329 -0.6047  0.2540
   10CHTO   C19 4130   5.543   9.248   5.235  0.6829  0.4264  0.0706
   10CHTO   H47 4131   5.548   9.199   5.136  3.8529  0.3349  0.2239
   10CHTO   C20 4132   5.420   9.341   5.237 -0.2578  0.1422 -0.7824
   10CHTO   H48 4133   5.389   9.367   5.339  3.2764  1.4236  0.0185
   10CHTO   O19 4134   5.310   9.263   5.183  0.0273 -0.1463 -0.3459
   10CHTO   H35 4135   5.284   9.188   5.232  0.3798  0.6167  1.0444
   10CHTO   C21 4136   5.442   9.469   5.147  0.1054 -0.0698  0.2294
   10CHTO   H49 4137   5.441   9.441   5.042  1.5593  1.3764 -0.1839
   10CHTO    N4 4138   5.321   9.556   5.161 -0.0966  0.1292  0.5038
   10CHTO   H41 4139   5.299   9.564   5.266 -1.8103 -1.0565  0.2574
   10CHTO   H42 4140   5.341   9.653   5.119 -2.1973  0.7792  0.9252
   10CHTO   C22 4141   5.578   9.530   5.175 -0.7240 -0.6395 -0.0646
   10CHTO   H50 4142   5.593   9.584   5.269  1.5626 -0.9589 -0.2101
   10CHTO   O14 4143   5.677   9.431   5.167 -0.6207 -0.7342 -0.2442
   10CHTO   C23 4144   5.676   9.324   5.260 -1.1605  0.2803 -0.1683
   10CHTO   H51 4145   5.682   9.360   5.364 -1.8517 -3.6856  1.3455
   10CHTO   C34 4146   5.807   9.251   5.216 -0.3599 -0.5265 -0.0298
   10CHTO   O23 4147   5.857   9.156   5.312  0.0983  0.2409 -0.3519
   10CHTO   H38 4148   5.838   9.072   5.276 -2.4065  0.5808  0.0674
   10CHTO   O16 4149   5.615   9.614   5.063  0.1162  0.2647 -0.2570
   10CHTO   C24 4150   5.761   9.671   5.053 -0.2821 -0.5385 -0.3256
   10CHTO   H52 4151   5.825   9.629   5.131  0.2037  1.1307  0.2089
   10CHTO   C26 4152   5.749   9.820   5.069 -0.2857 -0.5383 -0.1716
   10CHTO   H54 4153   5.680   9.857   4.990  1.5578  1.2208 -0.9994
   10CHTO   O20 4154   5.703   9.857   5.205  0.0413 -0.6416 -0.4297
   10CHTO   H36 4155   5.630   9.798   5.213 -1.7674  1.5387 -0.3559
   10CHTO   C30 4156   5.883   9.893   5.038  0.7255  0.1308 -0.1698
   10CHTO   H58 4157   5.949   9.888   5.127 -2.2481  1.9474  2.2284
   10CHTO    N6 4158   5.869  10.039   5.030  0.0444 -0.3230  1.1413
   10CHTO   H45 4159   5.818  10.056   4.936 -0.4160  0.5089  1.5474
   10CHTO   H46 4160   5.809  10.069   5.114 -2.2504  2.5875 -1.4302
   10CHTO   C33 4161   5.965   9.832   4.921  0.2109 -0.4363 -0.7977
   10CHTO   H61 4162   5.918   9.867   4.828 -3.2148 -0.1922  0.9622
   10CHTO   O18 4163   5.966   9.697   4.919  0.0474  0.2565  0.1578
   10CHTO   C28 4164   5.829   9.641   4.921  0.3688 -0.1544  0.1006
   10CHTO   H56 4165   5.774   9.698   4.846  1.5245 -0.1134 -0.7158
   10CHTO   C35 4166   5.840   9.493   4.888  1.2541 -0.0375 -0.8348
   10CHTO   O24 4167   5.712   9.423   4.868 -0.8931  0.6745 -0.4931
   10CHTO   H39 4168   5.701   9.369   4.944 -0.8427  2.5137  0.8691
   10CHTO    O9 4169   6.099   9.887   4.921  0.1467  0.1013  0.5365
   10CHTO   C13 4170   6.200   9.830   4.801 -0.0037 -0.3748 -0.5450
   10CHTO   H26 4171   6.147   9.746   4.753 -2.0273  0.6426 -0.1339
   10CHTO   C11 4172   6.330   9.783   4.876 -0.5889  0.2486 -0.6016
   10CHTO   H24 4173   6.301   9.696   4.937 -1.8777  0.9080 -0.2701
   10CHTO    O8 4174   6.384   9.885   4.961  0.2283  0.1530 -0.2219
   10CHTO    H3 4175   6.466   9.860   4.998  0.2221  0.1318 -0.2217
   10CHTO    C9 4176   6.428   9.737   4.773  0.5969 -0.1284  0.3431
   10CHTO   H22 4177   6.371   9.669   4.708  1.0904 -0.6709  0.4706
   10CHTO    N2 4178   6.557   9.666   4.815 -0.3381  0.0303 -0.1449
   10CHTO   H10 4179   6.618   9.735   4.871 -1.3858  1.1092 -0.3093
   10CHTO   H11 4180   6.544   9.572   4.867 -0.9865 -0.6617 -1.5396
   10CHTO    C7 4181   6.469   9.859   4.683  0.1420 -0.2608  0.0517
   10CHTO   H20 4182   6.520   9.809   4.598 -1.0902  1.5255 -1.7812
   10CHTO    O4 4183   6.356   9.925   4.620 -0.2318 -0.1047  0.1297
   10CHTO   C14 4184   6.224   9.936   4.685 -0.6184  0.0108 -0.2822
   10CHTO   H27 4185   6.150   9.924   4.604  0.0661 -1.5182 -0.7024
   10CHTO   C18 4186   6.210  10.087   4.735 -0.0407  0.4667  0.5708
   10CHTO   O13 4187   6.257  10.179   4.637  0.0718  0.5961 -0.3917
   10CHTO    H7 4188   6.287  10.261   4.669  0.3837 -0.5365  2.3082
   10CHTO    O2 4189   6.576   9.974   4.778  0.2167 -0.1343  0.1760
   10CHTO    C1 4190   6.666  10.066   4.718  1.3920  1.0670  0.0341
   10CHTO   H14 4191   6.716  10.121   4.801 -0.9736  1.1296  1.4488
   10CHTO    C2 4192   6.594  10.164   4.626 -0.1003  0.3560  0.1024
   10CHTO   H15 4193   6.518  10.113   4.566  0.3931 -2.4833  1.7786
   10CHTO    O6 4194   6.524  10.253   4.710 -0.2042 -0.2733  0.1230
   10CHTO    H1 4195   6.444  10.283   4.673  0.9708  0.1281 -2.1695
   10CHTO    C3 4196   6.694  10.243   4.536 -0.8661  0.0082 -0.1581
   10CHTO   H16 4197   6.754  10.311   4.598  0.3098  0.7994 -2.1395
   10CHTO    N1 4198   6.621  10.329   4.440 -0.0413 -0.1684 -0.1872
   10CHTO    H8 4199   6.577  10.269   4.362  1.0477 -2.0744  0.6470
   10CHTO    H9 4200   6.690  10.402   4.399 -1.4129  0.9051 -0.6255
   10CHTO    C4 4201   6.800  10.149   4.478  0.0377 -0.2862 -0.4976
   10CHTO   H17 4202   6.750  10.083   4.408  0.8327 -1.4046 -0.0174
   10CHTO    O1 4203   6.870  10.067   4.577 -0.2000 -0.2700 -0.0133
   10CHTO    C5 4204   6.776   9.984   4.643  0.6539  0.0189  0.2277
   10CHTO   H18 4205   6.727   9.924   4.566  2.4430 -0.1025 -0.8452
   10CHTO   C16 4206   6.858   9.887   4.731  0.7418 -0.3627  0.3902
   10CHTO   O11 4207   6.954   9.812   4.660 -0.5681  0.1657 -0.0422
   10CHTO    H5 4208   6.961   9.727   4.700 -0.8638 -0.0826 -0.5151
   10CHTO    O3 4209   6.890  10.228   4.395 -0.4480 -0.1364 -0.5970
   10CHTO    C6 4210   6.945  10.170   4.277 -0.3976  0.1340 -0.2092
   10CHTO   H19 4211   6.947  10.061   4.290 -3.2583  0.0785  0.2710
   10CHTO    C8 4212   6.862  10.204   4.144  0.4104  0.5800 -0.6805
   10CHTO   H21 4213   6.848  10.312   4.150 -0.4711  0.3518  2.5669
   10CHTO    O7 4214   6.735  10.144   4.145  0.2293  0.1412 -0.5309
   10CHTO    H2 4215   6.743  10.051   4.144 -2.5368 -0.1867  1.0695
   10CHTO   C12 4216   6.936  10.152   4.014 -0.4897  0.0734  0.0097
   10CHTO   H25 4217   6.933  10.041   4.024 -2.6983  0.1509  0.3709
   10CHTO    N3 4218   6.869  10.182   3.883 -0.6112  0.0283 -0.1208
   10CHTO   H12 4219   6.821  10.095   3.840 -2.7180  1.2760 -0.3808
   10CHTO   H13 4220   6.800  10.264   3.899 -0.7700  0.3763 -2.3919
   10CHTO   C15 4221   7.083  10.210   4.018 -0.6808  0.5915 -0.0126
   10CHTO   H28 4222   7.080  10.318   4.006  0.2963  0.4067 -2.1979
   10CHTO   O10 4223   7.172  10.161   3.905  0.6163 -0.4531 -0.3485
   10CHTO    H4 4224   7.127  10.195   3.830  0.3829  1.6913  0.7207
   10CHTO    O5 4225   7.149  10.165   4.135 -0.1836 -0.2145  0.2948
   10CHTO   C10 4226   7.093  10.215   4.259 -0.1114  0.3599  0.3690
   10CHTO   H23 4227   7.103  10.324   4.260  0.6292  0.3054 -0.7120
   10CHTO   C17 4228   7.183  10.161   4.374 -0.5869 -0.2680 -0.1861
   10CHTO   O12 4229   7.189  10.021   4.367  0.3495  0.8141  0.0839
   10CHTO    H6 4230   7.205   9.975   4.448 -0.0713 -0.4000 -0.5105
   11CHTO  H203 4231   6.560   3.848   0.240  1.7377 -0.1384  0.0441
   11CHTO   O82 4232   6.565   3.862   0.333 -0.1846 -0.2968  0.1781
   11CHTO  C123 4233   6.659   3.966   0.363 -0.1305  0.5192  0.0931
   11CHTO  H227 4234   6.753   3.954   0.307 -0.1048  0.4898  0.1411
   11CHTO   O77 4235   6.582   4.082   0.324 -0.1306  0.0839 -0.5908
   11CHTO  C118 4236   6.656   4.197   0.350 -0.3334  0.6754  0.3574
   11CHTO  H222 4237   6.763   4.190   0.323 -0.5426  1.0268 -0.5678
   11CHTO  C125 4238   6.594   4.324   0.282  0.2800  0.1398 -0.2086
   11CHTO   O84 4239   6.617   4.319   0.143  0.2445 -0.2734  0.7500
   11CHTO  H205 4240   6.705   4.301   0.117  0.2883 -0.5105  1.0549
   11CHTO  C114 4241   6.662   4.204   0.506 -0.4908  0.0655 -0.3214
   11CHTO  H218 4242   6.560   4.190   0.543 -0.6321  1.7269  0.0033
   11CHTO  C116 4243   6.754   4.098   0.571 -0.2254 -0.7167 -0.3519
   11CHTO  H220 4244   6.862   4.101   0.547 -0.1274 -1.4551 -0.0102
   11CHTO   O79 4245   6.738   4.110   0.716  0.3417  0.2979  0.2915
   11CHTO  H201 4246   6.759   4.194   0.752  0.3757  0.3302  0.1947
   11CHTO  C120 4247   6.696   3.956   0.522  0.6931 -0.2759 -0.2284
   11CHTO  H224 4248   6.606   3.935   0.584  0.2411 -1.6489 -1.3305
   11CHTO   N21 4249   6.788   3.842   0.552 -0.1351  0.4954 -0.5429
   11CHTO  H211 4250   6.761   3.807   0.650 -2.9361 -0.2038 -1.5289
   11CHTO  H212 4251   6.891   3.877   0.556 -0.3237  1.0319 -0.3150
   11CHTO   O75 4252   6.696   4.341   0.530 -0.3305  0.1327  0.4519
   11CHTO  C112 4253   6.631   4.420   0.667 -0.0256  0.3772  1.2705
   11CHTO  H216 4254   6.719   4.448   0.726 -0.9328  1.8147  1.9800
   11CHTO   O73 4255   6.540   4.334   0.739  0.4016 -0.5321 -0.3609
   11CHTO  C113 4256   6.511   4.394   0.861 -0.2153  0.5623 -0.8650
   11CHTO  H217 4257   6.610   4.415   0.907  0.7153 -1.3764 -1.9162
   11CHTO  C124 4258   6.422   4.302   0.946 -0.6290 -0.6396 -0.4397
   11CHTO   O83 4259   6.499   4.184   0.974  0.6178  0.0510 -0.1733
   11CHTO  H204 4260   6.516   4.127   0.902  0.5592  0.6056 -0.6386
   11CHTO  C109 4261   6.419   4.521   0.834  0.8898 -0.7687 -0.1564
   11CHTO  H213 4262   6.326   4.483   0.789 -0.3406 -1.4365  2.8444
   11CHTO  C110 4263   6.499   4.622   0.751 -0.0042  0.1571 -0.3387
   11CHTO  H214 4264   6.574   4.674   0.811  0.6138  0.6351 -1.4998
   11CHTO   O78 4265   6.410   4.727   0.709 -0.8437 -0.4246  0.2953
   11CHTO  H200 4266   6.386   4.779   0.784  1.2313  0.9297  0.0546
   11CHTO  C111 4267   6.560   4.551   0.628 -0.5903  0.1433  0.0902
   11CHTO  H215 4268   6.478   4.524   0.559 -0.3205 -0.3592 -0.0383
   11CHTO   N19 4269   6.654   4.638   0.553 -0.3449  0.7721 -0.1561
   11CHTO  H207 4270   6.724   4.681   0.622 -1.2308 -0.4386  1.5395
   11CHTO  H208 4271   6.707   4.588   0.473  1.6600  1.7226  0.5484
   11CHTO   O74 4272   6.378   4.602   0.962  0.6274  0.0972 -0.4714
   11CHTO  C115 4273   6.204   4.631   0.971 -0.0433  0.5990 -0.2078
   11CHTO  H219 4274   6.164   4.665   0.875 -0.8288 -2.2539 -0.9220
   11CHTO   O76 4275   6.136   4.505   1.012  0.4316  0.1824  0.1979
   11CHTO  C122 4276   5.988   4.523   1.028  0.3452 -0.5103 -0.0113
   11CHTO  H226 4277   5.954   4.434   1.080 -1.1690  0.5661  0.8682
   11CHTO  C126 4278   5.923   4.508   0.884 -0.2844 -0.5142 -0.3751
   11CHTO   O85 4279   5.813   4.424   0.870  0.0881 -0.3070  0.4578
   11CHTO  H206 4280   5.835   4.344   0.915  3.9312  0.0432 -0.6533
   11CHTO  C121 4281   5.936   4.649   1.099  0.2533  0.2507 -0.1722
   11CHTO  H225 4282   5.831   4.669   1.068 -0.6008 -0.8527  1.8694
   11CHTO   O81 4283   5.924   4.619   1.238 -0.4608  0.0622  0.3139
   11CHTO  H202 4284   5.875   4.687   1.280 -0.1699  2.5206 -3.1623
   11CHTO  C119 4285   6.024   4.774   1.077  0.2099 -0.4242  0.1581
   11CHTO  H223 4286   6.001   4.807   0.976  0.5402  3.4832  1.2559
   11CHTO  C117 4287   6.174   4.743   1.079  1.0218  0.3107 -0.5165
   11CHTO  H221 4288   6.213   4.701   1.172  0.9010  0.2225 -0.5062
   11CHTO   N20 4289   6.252   4.867   1.060  0.5820  0.4910  0.3721
   11CHTO  H209 4290   6.355   4.835   1.056  0.0227 -1.3002  0.1808
   11CHTO  H210 4291   6.238   4.901   0.958  0.5469  0.5527  0.3977
   11CHTO   O80 4292   5.967   4.906   1.160 -0.2436 -0.2157 -0.4825
   11CHTO  C103 4293   5.975   4.908   1.321 -0.2982  0.7534 -0.2745
   11CHTO  H190 4294   5.931   4.822   1.372  1.4453 -0.6369 -1.0546
   11CHTO  C101 4295   6.119   4.952   1.381  0.3205  0.1074  0.3572
   11CHTO  H188 4296   6.180   5.010   1.311  0.4886 -1.4317 -0.7966
   11CHTO   O68 4297   6.210   4.815   1.399 -0.3314 -0.2780 -0.0213
   11CHTO  H168 4298   6.301   4.821   1.378 -0.0152 -0.5047  1.2896
   11CHTO   C99 4299   6.117   5.030   1.517 -0.0300  0.0114  0.3930
   11CHTO  H186 4300   6.093   4.959   1.599  2.2168 -1.9845 -0.6345
   11CHTO   N17 4301   6.244   5.096   1.556 -0.0901  0.5642 -0.3188
   11CHTO  H174 4302   6.251   5.125   1.659  2.7774  0.2209 -0.3739
   11CHTO  H175 4303   6.283   5.172   1.490  0.3115  0.6560  0.0204
   11CHTO   C97 4304   6.008   5.137   1.513  0.1787  0.2364  0.8088
   11CHTO  H184 4305   6.040   5.212   1.438  1.5805 -1.2857 -0.1501
   11CHTO   O64 4306   5.885   5.067   1.478 -0.3927 -0.2315  0.1453
   11CHTO  C104 4307   5.879   5.032   1.342 -0.7430 -0.4426  0.6905
   11CHTO  H191 4308   5.913   5.112   1.276  0.4129 -1.0236  0.5571
   11CHTO  C108 4309   5.736   4.998   1.298  0.1179 -0.5740  0.7464
   11CHTO   O71 4310   5.654   5.110   1.316  0.2162  0.5524 -0.5841
   11CHTO  H171 4311   5.689   5.181   1.265  0.9361 -0.5516 -1.6487
   11CHTO   O62 4312   5.992   5.206   1.639  0.8265 -0.0442 -0.0146
   11CHTO   C91 4313   5.881   5.310   1.648  0.3982  0.5570 -0.6333
   11CHTO  H178 4314   5.789   5.268   1.606  0.7005  1.9545 -2.7838
   11CHTO   C92 4315   5.919   5.431   1.549 -0.6698  0.0774  0.2367
   11CHTO  H179 4316   5.957   5.397   1.452 -0.3444 -1.8731  1.0130
   11CHTO   O66 4317   5.799   5.507   1.527  0.6419  0.5327 -0.7372
   11CHTO  H166 4318   5.737   5.461   1.475  1.1290  1.5628 -2.2640
   11CHTO   C93 4319   6.016   5.539   1.617  0.2086  0.2420  0.1387
   11CHTO  H180 4320   5.987   5.638   1.578  0.8103  0.3060 -0.1445
   11CHTO   N16 4321   6.157   5.516   1.578 -0.0239  0.8920 -0.1096
   11CHTO  H172 4322   6.196   5.419   1.605 -1.6452  1.2582  3.9296
   11CHTO  H173 4323   6.215   5.601   1.613  2.0105 -0.8086  0.8029
   11CHTO   C94 4324   6.007   5.532   1.781 -0.3784 -0.2933  0.2092
   11CHTO  H181 4325   6.076   5.457   1.821 -1.2875 -0.8615  0.7290
   11CHTO   O61 4326   5.874   5.494   1.814 -0.1554  0.3796 -0.7740
   11CHTO   C95 4327   5.846   5.356   1.797  0.0085 -0.8918  0.0177
   11CHTO  H182 4328   5.908   5.302   1.869  2.0655  0.6603 -0.5499
   11CHTO  C106 4329   5.695   5.334   1.836  0.5951  0.1740 -0.2066
   11CHTO   O69 4330   5.664   5.369   1.971  0.0493  0.2047 -0.5938
   11CHTO  H169 4331   5.684   5.457   1.994 -2.7714  0.7383 -0.0422
   11CHTO   O63 4332   6.032   5.664   1.847  0.3250 -0.7037 -0.4208
   11CHTO   C96 4333   6.095   5.658   2.006  0.2046 -0.4538  0.3443
   11CHTO  H183 4334   6.106   5.552   2.030  0.8595 -0.1833  1.2706
   11CHTO   C98 4335   5.992   5.714   2.108  0.3779  0.0680  0.3295
   11CHTO  H185 4336   5.969   5.820   2.089  2.4532  0.7482  1.4862
   11CHTO   O67 4337   5.874   5.640   2.099 -0.0298 -0.4008 -0.5526
   11CHTO  H167 4338   5.872   5.571   2.163  0.8881 -1.0158 -1.1846
   11CHTO  C102 4339   6.059   5.715   2.259 -0.2508  0.0777  0.2082
   11CHTO  H189 4340   6.059   5.608   2.284 -0.6786  0.1011  0.3217
   11CHTO   N18 4341   5.974   5.780   2.361  0.4800  0.0939  0.1330
   11CHTO  H176 4342   5.872   5.747   2.356  0.4738  0.2275 -0.7942
   11CHTO  H177 4343   6.015   5.768   2.460  1.1089  3.0756  0.3042
   11CHTO  C105 4344   6.204   5.748   2.260 -1.0061 -0.2658  0.2160
   11CHTO  H192 4345   6.215   5.857   2.263 -3.1071  0.0775 -2.0856
   11CHTO   O65 4346   6.282   5.692   2.159  0.1922  0.6676  0.3660
   11CHTO  C100 4347   6.233   5.726   2.033  0.4205 -0.4848  0.3107
   11CHTO  H187 4348   6.226   5.836   2.034  3.1475 -0.2816  0.8816
   11CHTO  C107 4349   6.333   5.679   1.920 -0.4439 -0.0614 -0.0338
   11CHTO   O70 4350   6.456   5.749   1.932  0.0908  0.0122 -0.0305
   11CHTO  H170 4351   6.500   5.754   1.850 -0.6745  1.1434 -0.3810
   11CHTO   O57 4352   6.258   5.684   2.388 -0.6700 -0.1256 -0.1894
   11CHTO   C85 4353   6.370   5.722   2.474 -0.0380 -0.2360 -0.3784
   11CHTO  H157 4354   6.378   5.649   2.557  0.8137 -1.3249 -1.3872
   11CHTO   C83 4355   6.328   5.856   2.548 -0.2357  0.0214  0.4459
   11CHTO  H155 4356   6.241   5.853   2.614 -0.9589 -1.2980 -0.5501
   11CHTO   O56 4357   6.291   5.952   2.453  0.4641  0.0848  0.5500
   11CHTO  H135 4358   6.316   6.039   2.477 -0.4211  0.1926  1.1054
   11CHTO   C81 4359   6.443   5.910   2.633 -0.3912 -0.2603 -0.0020
   11CHTO  H153 4360   6.463   5.838   2.712  0.5572 -0.1769 -0.1598
   11CHTO   N14 4361   6.425   6.028   2.719 -0.3870  0.5208  0.1085
   11CHTO  H141 4362   6.329   6.030   2.767 -0.3599  2.2354  0.1314
   11CHTO  H142 4363   6.504   6.039   2.791  1.1728 -0.1083 -1.4811
   11CHTO   C79 4364   6.574   5.930   2.546  0.3222 -0.4664  0.5448
   11CHTO  H151 4365   6.654   5.948   2.616 -1.5143 -0.7891  2.7889
   11CHTO   O52 4366   6.611   5.797   2.489  0.9488  0.1566 -0.2362
   11CHTO   C86 4367   6.512   5.743   2.402 -0.1210 -0.5910 -0.1879
   11CHTO  H158 4368   6.505   5.821   2.323 -1.1660 -2.5187 -2.0412
   11CHTO   C90 4369   6.570   5.623   2.318  0.1681  0.1579  0.3971
   11CHTO   O60 4370   6.686   5.657   2.247 -0.0417  0.4952 -0.0844
   11CHTO  H138 4371   6.740   5.700   2.310  1.2242  0.3857 -1.0838
   11CHTO   O50 4372   6.565   6.031   2.443 -0.6101 -0.3974 -0.1919
   11CHTO   C73 4373   6.541   6.171   2.418  0.4682 -0.1012  0.0732
   11CHTO  H145 4374   6.475   6.211   2.497  0.8700  0.6647  0.0265
   11CHTO   C74 4375   6.478   6.202   2.277  0.4822 -0.4105  0.4908
   11CHTO  H146 4376   6.383   6.146   2.271  0.9557 -1.0466 -1.7471
   11CHTO   O54 4377   6.435   6.339   2.265 -0.2673  0.0466  0.2048
   11CHTO  H133 4378   6.381   6.357   2.340  0.8761 -0.2123  1.1020
   11CHTO   C75 4379   6.571   6.166   2.159 -0.5480 -0.3739 -0.1924
   11CHTO  H147 4380   6.601   6.061   2.170 -0.7579 -0.1838  2.5816
   11CHTO   N13 4381   6.514   6.194   2.027 -0.1491 -0.0164  0.2833
   11CHTO  H139 4382   6.422   6.251   2.031  0.1955  0.4842  1.0698
   11CHTO  H140 4383   6.586   6.251   1.971 -0.8957  0.3844 -0.2813
   11CHTO   C76 4384   6.722   6.229   2.185  0.7346 -0.3626 -0.6031
   11CHTO  H148 4385   6.714   6.335   2.160 -2.3844 -0.9440 -2.3826
   11CHTO   O49 4386   6.771   6.211   2.327 -0.0885  0.1242 -0.0329
   11CHTO   C77 4387   6.679   6.251   2.428  0.6896  0.2206  0.4407
   11CHTO  H149 4388   6.658   6.357   2.418 -0.3734 -0.1808 -2.1989
   11CHTO   C88 4389   6.738   6.227   2.564  0.6439 -0.1240 -0.4969
   11CHTO   O58 4390   6.841   6.322   2.595 -0.3725 -0.0257  0.0633
   11CHTO  H136 4391   6.868   6.306   2.683  1.9363  1.1764 -0.3762
   11CHTO   O51 4392   6.828   6.166   2.088 -0.1021  0.0296 -0.0966
   11CHTO   C78 4393   6.918   6.036   2.132  0.0349 -0.2010  0.1010
   11CHTO  H150 4394   6.878   5.985   2.222 -0.3197 -0.0748  0.0146
   11CHTO   C80 4395   7.071   6.072   2.160 -0.1952  0.2643 -0.9519
   11CHTO  H152 4396   7.111   6.131   2.074  3.1536 -2.9221 -1.7030
   11CHTO   O55 4397   7.071   6.148   2.283  0.1242  0.1415 -0.5053
   11CHTO  H134 4398   7.067   6.240   2.266 -1.1592  0.5191  1.5609
   11CHTO   C84 4399   7.159   5.945   2.183 -0.0188 -0.0713  0.2822
   11CHTO  H156 4400   7.124   5.894   2.272 -0.7273 -1.7579 -0.9255
   11CHTO   N15 4401   7.307   5.975   2.193  0.3772 -0.4121  0.1460
   11CHTO  H143 4402   7.337   6.077   2.181 -1.8739  0.5413  2.0744
   11CHTO  H144 4403   7.349   5.937   2.284  2.1821 -2.4885 -1.5092
   11CHTO   C87 4404   7.139   5.849   2.068 -0.7594 -0.4469  0.2887
   11CHTO  H159 4405   7.187   5.886   1.977  0.7920 -2.4552  0.2449
   11CHTO   O53 4406   6.985   5.832   2.042  0.2800  0.4941 -0.1013
   11CHTO   C82 4407   6.913   5.947   2.012  0.3998 -0.4074  0.0723
   11CHTO  H154 4408   6.949   5.992   1.920  0.8714 -0.5608  0.1829
   11CHTO   C89 4409   6.764   5.901   1.990  0.0096 -0.0477 -0.0355
   11CHTO   O59 4410   6.737   5.844   1.864  0.3312  0.6346 -0.0076
   11CHTO  H137 4411   6.780   5.896   1.799  1.9632 -0.5881  0.0516
   11CHTO   O45 4412   7.198   5.713   2.105 -0.0054 -0.3156  0.1885
   11CHTO   C67 4413   7.271   5.642   2.003  0.6903  0.3139 -0.3448
   11CHTO  H124 4414   7.265   5.681   1.902  2.0235 -3.8491 -2.1523
   11CHTO   C65 4415   7.430   5.625   2.033 -0.2862  0.3999  0.1319
   11CHTO  H122 4416   7.453   5.625   2.139  0.9110 -2.6123 -0.0825
   11CHTO   O44 4417   7.494   5.740   1.976 -0.1242 -0.4812 -0.4117
   11CHTO  H102 4418   7.586   5.721   1.981  0.0768  0.6488  0.5252
   11CHTO   C63 4419   7.489   5.482   1.993 -0.0183 -0.0270 -0.7434
   11CHTO  H120 4420   7.464   5.413   2.074 -0.3345  0.9481  0.0141
   11CHTO   N11 4421   7.640   5.476   1.976  0.6023 -0.2906 -0.2244
   11CHTO  H108 4422   7.689   5.521   2.059  0.4698  2.5821 -1.6605
   11CHTO  H109 4423   7.668   5.375   1.954  0.3593 -0.5368  0.5976
   11CHTO   C61 4424   7.414   5.418   1.869  0.1953  0.1713  0.2570
   11CHTO  H118 4425   7.440   5.311   1.867 -1.2500 -0.1889 -0.0704
   11CHTO   O40 4426   7.265   5.423   1.877 -0.2037 -0.3773 -0.2220
   11CHTO   C68 4427   7.208   5.502   1.983  0.8110  0.4110  0.1870
   11CHTO  H125 4428   7.208   5.439   2.074 -2.9845  0.1253  0.0661
   11CHTO   C72 4429   7.051   5.508   1.949  0.4413  0.1881  0.1889
   11CHTO   O48 4430   7.018   5.571   1.825 -0.1564  0.7458  0.1904
   11CHTO  H105 4431   7.018   5.494   1.772 -1.9936 -0.6897  2.2109
   11CHTO   O38 4432   7.445   5.483   1.742  0.4433 -0.4878  0.5515
   11CHTO   C55 4433   7.474   5.415   1.615  0.4665  0.6895 -0.1281
   11CHTO  H112 4434   7.554   5.341   1.624 -0.4580 -0.9284 -4.0931
   11CHTO   C56 4435   7.516   5.529   1.507  0.7316 -0.2615  0.4127
   11CHTO  H113 4436   7.451   5.618   1.508  0.9781 -0.0607 -0.7966
   11CHTO   O42 4437   7.652   5.579   1.549  0.3279  0.1724  0.4733
   11CHTO  H100 4438   7.639   5.629   1.627  1.3575  0.4956  0.4532
   11CHTO   C57 4439   7.525   5.464   1.366  0.2519 -0.7755  0.1492
   11CHTO  H114 4440   7.607   5.393   1.371 -0.9254 -2.0885  0.9843
   11CHTO   N10 4441   7.570   5.551   1.253  0.0345 -0.4322 -0.4024
   11CHTO  H106 4442   7.488   5.621   1.242 -0.7103 -0.9877  1.4217
   11CHTO  H107 4443   7.658   5.610   1.276 -1.1095  1.4226 -0.6190
   11CHTO   C58 4444   7.394   5.384   1.332  0.2578  0.1705  0.4842
   11CHTO  H115 4445   7.307   5.453   1.330  0.6841  0.7210  1.0091
   11CHTO   O37 4446   7.380   5.287   1.432  1.3068  0.1335  0.5661
   11CHTO   C59 4447   7.346   5.341   1.565  0.8684  0.4348  0.4669
   11CHTO  H116 4448   7.251   5.395   1.565  1.4891  1.5334  0.5663
   11CHTO   C70 4449   7.313   5.210   1.646 -0.7482 -0.5687  0.1422
   11CHTO   O46 4450   7.414   5.104   1.651 -0.5184  0.1537  0.1735
   11CHTO  H103 4451   7.374   5.026   1.618  0.5804 -0.8187  1.0964
   11CHTO   O39 4452   7.410   5.316   1.176  0.2635  0.1526 -0.0046
   11CHTO   C60 4453   7.290   5.295   1.097  0.3567  0.8093 -0.1027
   11CHTO  H117 4454   7.213   5.241   1.153  0.3999  0.6674 -0.1806
   11CHTO   C62 4455   7.220   5.423   1.047  0.2085  0.2364  0.0427
   11CHTO  H119 4456   7.179   5.479   1.134 -0.1288 -0.0450  0.0648
   11CHTO   O43 4457   7.312   5.509   0.981 -0.7791 -0.0801  0.2788
   11CHTO  H101 4458   7.381   5.530   1.041 -0.5671  0.5655 -0.1919
   11CHTO   C66 4459   7.093   5.383   0.963 -0.3804  0.1486  0.2064
   11CHTO  H123 4460   7.039   5.313   1.027  0.9615 -0.0860  1.0826
   11CHTO   N12 4461   6.993   5.490   0.929  0.2171 -0.4069 -0.4743
   11CHTO  H110 4462   6.947   5.537   1.014 -1.7356  0.3965 -1.9247
   11CHTO  H111 4463   6.912   5.460   0.864  0.1996 -0.7319 -0.2985
   11CHTO   C69 4464   7.148   5.299   0.846  0.4964 -0.3367 -0.2938
   11CHTO  H126 4465   7.220   5.344   0.775 -1.3465  4.6608  0.8098
   11CHTO   O41 4466   7.228   5.168   0.891 -0.4184 -0.4387 -0.2813
   11CHTO   C64 4467   7.336   5.195   0.985 -0.1793 -0.9008  0.0936
   11CHTO  H121 4468   7.419   5.248   0.935  1.7543 -2.6336  1.4090
   11CHTO   C71 4469   7.392   5.064   1.042 -0.0090 -0.2406  0.4003
   11CHTO   O47 4470   7.295   4.981   1.112 -0.3080 -0.1768 -0.0416
   11CHTO  H104 4471   7.293   4.899   1.067  1.9459 -0.5063  0.4372
   11CHTO   O34 4472   7.034   5.241   0.758  0.0344  0.6201  0.5326
   11CHTO   C49 4473   6.923   5.163   0.705 -0.0512 -0.9917  0.1867
   11CHTO   H91 4474   6.953   5.060   0.688  0.4573 -0.9200  0.6268
   11CHTO   C47 4475   6.867   5.239   0.586 -0.0447 -0.6536 -0.3152
   11CHTO   H89 4476   6.796   5.170   0.536  1.4228 -1.4251 -1.3282
   11CHTO   O33 4477   6.971   5.253   0.491 -0.2259  0.1504 -0.8967
   11CHTO   H70 4478   6.970   5.170   0.447 -1.4857  0.8352 -2.2323
   11CHTO   C45 4479   6.807   5.386   0.631  0.0570 -0.2884 -1.1882
   11CHTO   H87 4480   6.883   5.447   0.683 -1.1216 -0.5490  0.8838
   11CHTO    N8 4481   6.763   5.463   0.510 -0.2257  0.4422  0.0699
   11CHTO   H75 4482   6.656   5.479   0.515 -0.0356  1.1674  3.2738
   11CHTO   H76 4483   6.806   5.561   0.503 -0.5848  0.4684 -2.1166
   11CHTO   C43 4484   6.703   5.372   0.751 -0.5321  0.7805 -0.6417
   11CHTO   H85 4485   6.700   5.472   0.795 -2.6076 -0.3888  2.0102
   11CHTO   O29 4486   6.743   5.269   0.851  0.6846 -0.0043 -1.5512
   11CHTO   C50 4487   6.813   5.150   0.816  0.6135  0.2984  0.2051
   11CHTO   H92 4488   6.848   5.115   0.914 -0.1434  1.7304  1.0056
   11CHTO   C54 4489   6.711   5.042   0.780  0.0193  0.1609 -0.3285
   11CHTO   O36 4490   6.614   5.004   0.881  0.5631  0.2301  0.3654
   11CHTO   H72 4491   6.560   4.931   0.856  1.1196 -0.2658  0.6049
   11CHTO   O27 4492   6.573   5.335   0.710 -0.7628 -0.1350  0.7133
   11CHTO   C37 4493   6.460   5.312   0.790  0.4348  0.7522 -0.1975
   11CHTO   H79 4494   6.481   5.239   0.870 -1.4148 -1.2772 -1.4810
   11CHTO   C38 4495   6.400   5.432   0.868 -0.1928  0.4514  0.1243
   11CHTO   H80 4496   6.385   5.516   0.797 -1.1541  0.0197 -0.1889
   11CHTO   O31 4497   6.494   5.468   0.967  0.1599  0.0671  0.0040
   11CHTO   H68 4498   6.535   5.551   0.953 -0.7792  1.1731  3.3546
   11CHTO   C39 4499   6.264   5.405   0.939 -0.3438  0.4431 -0.7317
   11CHTO   H81 4500   6.285   5.341   1.025 -2.1601 -0.7810 -1.1631
   11CHTO    N7 4501   6.194   5.530   0.994 -0.4740 -0.5443 -0.0051
   11CHTO   H73 4502   6.156   5.519   1.095 -0.1097 -2.5078 -0.0715
   11CHTO   H74 4503   6.257   5.617   0.999  0.5838 -1.2341 -1.0518
   11CHTO   C40 4504   6.166   5.325   0.845 -0.2597  0.5542  0.2750
   11CHTO   H82 4505   6.116   5.388   0.772 -1.1026  1.9606  1.9997
   11CHTO   O26 4506   6.236   5.219   0.785 -0.0656 -0.0932  0.0004
   11CHTO   C41 4507   6.344   5.258   0.696 -0.6898 -0.6481  0.5341
   11CHTO   H83 4508   6.304   5.338   0.632  0.4727  0.1441  0.7814
   11CHTO   C52 4509   6.383   5.133   0.613  0.1154 -0.0735  0.0232
   11CHTO   O35 4510   6.285   5.088   0.534 -0.3259 -0.1312 -0.3638
   11CHTO   H71 4511   6.315   5.058   0.450 -0.4196 -2.2319  0.3135
   11CHTO   O28 4512   6.074   5.249   0.926  0.4423 -0.1212  0.0348
   11CHTO   C42 4513   5.937   5.228   0.883  0.1007 -0.7029  0.5072
   11CHTO   H84 4514   5.931   5.283   0.789  3.3230 -0.8262  0.1940
   11CHTO   C44 4515   5.843   5.296   0.990 -0.1084 -0.0040  1.0236
   11CHTO   H86 4516   5.864   5.249   1.087 -2.4584 -0.9073  1.1360
   11CHTO   O32 4517   5.868   5.437   0.998 -0.3473 -0.2759 -0.5395
   11CHTO   H69 4518   5.832   5.485   0.926 -1.0076 -0.4356 -0.3171
   11CHTO   C48 4519   5.692   5.270   0.968 -0.0505  0.2114 -0.8747
   11CHTO   H90 4520   5.677   5.319   0.872  0.8526  0.9512 -0.6430
   11CHTO    N9 4521   5.601   5.334   1.067  0.4485 -0.3290 -0.6375
   11CHTO   H77 4522   5.499   5.326   1.033  0.1743  0.7089 -0.0932
   11CHTO   H78 4523   5.607   5.278   1.159 -3.4666 -1.5258 -1.0347
   11CHTO   C51 4524   5.683   5.118   0.942  0.5408 -0.8684 -0.3873
   11CHTO   H93 4525   5.723   5.072   1.032 -1.1676 -1.6947 -0.0155
   11CHTO   O30 4526   5.759   5.078   0.826  0.2625  0.7248  0.5832
   11CHTO   C46 4527   5.902   5.076   0.858 -0.0852 -0.1891  0.1109
   11CHTO   H88 4528   5.929   5.028   0.952  0.0702  0.9283  0.6424
   11CHTO   C53 4529   5.988   5.013   0.747 -0.0122 -0.5404  0.6301
   11CHTO   O72 4530   5.997   4.869   0.757  0.2182  0.0813  0.6551
   11CHTO  H199 4531   6.030   4.845   0.673 -1.3813 -0.7455  0.2428
   11CHTO   O22 4532   5.545   5.075   0.923  0.6330 -0.3815  0.2234
   11CHTO   C31 4533   5.507   4.938   0.965  0.5357 -0.6590  0.6153
   11CHTO   H59 4534   5.595   4.896   1.018  0.8218  0.6919  1.2290
   11CHTO   C29 4535   5.395   4.947   1.067 -0.0731  0.6734  0.4465
   11CHTO   H57 4536   5.306   4.993   1.020 -0.0141 -1.9817 -2.3767
   11CHTO   O21 4537   5.438   5.042   1.169  0.4024 -0.0219 -0.4201
   11CHTO   H37 4538   5.366   5.092   1.201 -0.0645  0.7742 -2.6407
   11CHTO   C27 4539   5.354   4.804   1.121 -0.4126 -0.5696  0.0301
   11CHTO   H55 4540   5.440   4.763   1.177  1.2893  2.1799 -0.4772
   11CHTO    N5 4541   5.235   4.803   1.210  0.5036 -0.1015 -0.1988
   11CHTO   H43 4542   5.248   4.884   1.280 -2.0330  0.0936  0.0936
   11CHTO   H44 4543   5.224   4.710   1.264 -0.6373 -0.7110 -1.4368
   11CHTO   C25 4544   5.324   4.709   0.994 -1.0129 -1.2809  0.3930
   11CHTO   H53 4545   5.241   4.749   0.935 -2.6711 -1.4808  2.5213
   11CHTO   O17 4546   5.438   4.718   0.901  0.1616 -0.2043 -0.2048
   11CHTO   C32 4547   5.472   4.841   0.850 -0.5881 -0.8098  0.6423
   11CHTO   H60 4548   5.393   4.880   0.786 -0.7902 -0.8048  0.8941
   11CHTO   C36 4549   5.586   4.812   0.748 -0.2493 -0.1802 -0.0384
   11CHTO   O25 4550   5.703   4.771   0.810 -0.6441 -0.0929 -0.6123
   11CHTO   H40 4551   5.751   4.843   0.847  0.8997 -0.9175 -0.9763
   11CHTO   O15 4552   5.308   4.565   1.020 -0.5350 -0.1022 -0.2823
   11CHTO   C19 4553   5.260   4.431   1.001  0.4635  0.5788 -0.0351
   11CHTO   H47 4554   5.338   4.374   1.054  0.5688  1.5461  0.8730
   11CHTO   C20 4555   5.129   4.402   1.064 -0.1046 -0.0763 -0.1410
   11CHTO   H48 4556   5.052   4.468   1.021 -0.4824 -1.8887 -2.3205
   11CHTO   O19 4557   5.134   4.426   1.211 -0.5331 -0.4376  0.0730
   11CHTO   H35 4558   5.059   4.391   1.256  0.0511 -1.6579  0.0971
   11CHTO   C21 4559   5.083   4.256   1.042 -0.2625  0.4698 -0.1749
   11CHTO   H49 4560   5.139   4.191   1.109 -0.2841  0.0840 -0.5254
   11CHTO    N4 4561   4.941   4.242   1.097  0.5390 -0.0078  0.3512
   11CHTO   H41 4562   4.899   4.142   1.100 -1.7424  0.8698 -1.2451
   11CHTO   H42 4563   4.869   4.305   1.049  0.9811 -0.3141 -0.7245
   11CHTO   C22 4564   5.100   4.199   0.898 -0.6436  0.4642  0.8041
   11CHTO   H50 4565   5.025   4.257   0.845  0.3296  1.2653  0.2634
   11CHTO   O14 4566   5.224   4.238   0.841 -0.6228 -0.0236 -0.3300
   11CHTO   C23 4567   5.262   4.379   0.853 -0.3816 -0.3643 -0.4179
   11CHTO   H51 4568   5.191   4.431   0.786 -1.1143 -3.2019 -1.9580
   11CHTO   C34 4569   5.402   4.403   0.783 -0.1376 -0.1723  0.3141
   11CHTO   O23 4570   5.516   4.335   0.838 -0.3428 -0.2053  0.1274
   11CHTO   H38 4571   5.561   4.401   0.888  0.3005 -0.4012 -0.1978
   11CHTO   O16 4572   5.101   4.055   0.899  0.1503  0.7701 -0.1655
   11CHTO   C24 4573   5.127   4.003   0.739  0.0262 -0.6081 -0.2241
   11CHTO   H52 4574   5.180   4.079   0.682  0.8585  0.2215  1.5865
   11CHTO   C26 4575   4.995   3.973   0.672  0.1484 -0.1193  0.3445
   11CHTO   H54 4576   4.948   3.885   0.721  0.0444 -0.9644 -1.2292
   11CHTO   O20 4577   4.908   4.088   0.680 -0.0115  0.5864 -0.4351
   11CHTO   H36 4578   4.948   4.157   0.631  0.7026  0.4618 -0.0395
   11CHTO   C30 4579   5.020   3.931   0.518  0.2401  0.0201  0.6339
   11CHTO   H58 4580   5.064   4.012   0.458  0.1850 -0.1842  0.3173
   11CHTO    N6 4581   4.900   3.892   0.448  0.9371  0.1556 -0.5235
   11CHTO   H45 4582   4.848   3.810   0.497  0.6351  0.7871  0.2382
   11CHTO   H46 4583   4.832   3.973   0.424 -0.6419 -1.5253 -1.8917
   11CHTO   C33 4584   5.123   3.812   0.521 -0.1369 -0.3906 -0.3865
   11CHTO   H61 4585   5.069   3.722   0.554  1.6219 -0.5244  2.3533
   11CHTO   O18 4586   5.235   3.830   0.607  0.7172  0.0751  0.2919
   11CHTO   C28 4587   5.214   3.876   0.738  0.0154  0.4150  0.5993
   11CHTO   H56 4588   5.163   3.799   0.795 -1.2918  0.3033 -0.6790
   11CHTO   C35 4589   5.351   3.903   0.812 -0.1242 -0.6567 -0.2909
   11CHTO   O24 4590   5.424   3.997   0.744  0.1420 -0.5201  0.1733
   11CHTO   H39 4591   5.450   3.974   0.657 -0.9506 -0.3464 -0.2051
   11CHTO    O9 4592   5.162   3.774   0.387 -0.2072  0.3082 -0.3687
   11CHTO   C13 4593   5.262   3.891   0.321  0.5450  0.4419 -0.1316
   11CHTO   H26 4594   5.250   3.977   0.391 -1.5960  1.0363 -1.2080
   11CHTO   C11 4595   5.213   3.932   0.178 -0.1189  0.5371 -0.0156
   11CHTO   H24 4596   5.110   3.970   0.186  0.5733  2.1593  1.6193
   11CHTO    O8 4597   5.220   3.816   0.095  0.4383  0.3960  0.3075
   11CHTO    H3 4598   5.273   3.747   0.131  1.1033  0.5701 -0.3203
   11CHTO    C9 4599   5.303   4.054   0.133 -0.0874 -0.1732  0.0752
   11CHTO   H22 4600   5.282   4.136   0.203 -0.0349 -0.8437  0.8828
   11CHTO    N2 4601   5.279   4.104  -0.007  0.1450 -0.0206 -0.0135
   11CHTO   H10 4602   5.282   4.025  -0.080  3.2739 -0.9222  0.9749
   11CHTO   H11 4603   5.183   4.153  -0.011 -1.9596 -3.9220  0.0852
   11CHTO    C7 4604   5.461   4.017   0.165  0.3063  1.3272 -0.0042
   11CHTO   H20 4605   5.481   4.080   0.254  1.6242  1.6328 -0.5159
   11CHTO    O4 4606   5.485   3.886   0.212 -0.4900  0.1320  0.2831
   11CHTO   C14 4607   5.412   3.838   0.327  0.4052 -0.5809  0.3681
   11CHTO   H27 4608   5.452   3.886   0.419 -0.5858  2.3391 -0.6406
   11CHTO   C18 4609   5.420   3.681   0.344  0.7480 -0.1433 -0.5801
   11CHTO   O13 4610   5.360   3.614   0.235  0.2161  0.2363 -0.5680
   11CHTO    H7 4611   5.281   3.567   0.253  0.3756 -0.5757 -1.9246
   11CHTO    O2 4612   5.569   4.050   0.038 -0.9680  0.4047  0.6325
   11CHTO    C1 4613   5.676   4.140   0.066  0.3703  0.4659  0.0582
   11CHTO   H14 4614   5.706   4.131   0.172  0.8835  0.4830 -0.0834
   11CHTO    C2 4615   5.633   4.287   0.034  0.4921 -0.3216  1.0098
   11CHTO   H15 4616   5.606   4.290  -0.072 -4.4792  3.6292  2.1416
   11CHTO    O6 4617   5.518   4.309   0.109  0.0561  0.3281 -0.2485
   11CHTO    H1 4618   5.436   4.288   0.067  0.9675  0.0882 -1.9716
   11CHTO    C3 4619   5.752   4.388   0.066  0.4081 -0.1382 -0.0402
   11CHTO   H16 4620   5.783   4.385   0.171 -0.3112  2.2086  0.2595
   11CHTO    N1 4621   5.714   4.535   0.046  0.2108 -0.1801 -0.4587
   11CHTO    H8 4622   5.785   4.607   0.085 -0.8579  0.6139  0.0335
   11CHTO    H9 4623   5.690   4.549  -0.059 -1.4519 -1.0885 -0.2169
   11CHTO    C4 4624   5.881   4.343  -0.020 -0.3229  0.2661  0.4266
   11CHTO   H17 4625   5.861   4.373  -0.123 -1.1732 -0.1946  0.4620
   11CHTO    O1 4626   5.912   4.202  -0.026  0.5337 -0.1461  0.1590
   11CHTO    C5 4627   5.800   4.108  -0.028  0.5310 -0.3469 -0.3958
   11CHTO   H18 4628   5.758   4.105  -0.129 -0.8898 -1.8154  0.2131
   11CHTO   C16 4629   5.871   3.971   0.001  0.2351  0.0476 -0.1290
   11CHTO   O11 4630   5.799   3.853  -0.020 -0.6962 -0.3156  0.1016
   11CHTO    H5 4631   5.734   3.842   0.047 -2.0698  3.8398 -0.3932
   11CHTO    O3 4632   6.006   4.396   0.033  0.3393  0.4087  0.3913
   11CHTO    C6 4633   6.125   4.408  -0.058 -0.3389 -0.2597  0.4514
   11CHTO   H19 4634   6.101   4.360  -0.153 -1.2569  0.1344  0.4767
   11CHTO    C8 4635   6.154   4.565  -0.078 -0.3140 -0.0383 -0.4081
   11CHTO   H21 4636   6.151   4.616   0.018  1.3744 -2.6546  1.1072
   11CHTO    O7 4637   6.049   4.624  -0.157 -0.3760  0.4875 -0.4766
   11CHTO    H2 4638   5.974   4.657  -0.112 -1.8435 -0.5663 -2.0824
   11CHTO   C12 4639   6.293   4.591  -0.133 -0.1844 -0.6354 -0.0971
   11CHTO   H25 4640   6.284   4.558  -0.239 -0.3193 -0.9181  0.0017
   11CHTO    N3 4641   6.333   4.736  -0.131  0.3542 -0.7207  0.7170
   11CHTO   H12 4642   6.340   4.771  -0.233 -2.2349 -2.6968 -0.1975
   11CHTO   H13 4643   6.261   4.799  -0.081  1.4564 -0.7412  2.4022
   11CHTO   C15 4644   6.404   4.495  -0.064 -0.8467 -0.0899  0.1006
   11CHTO   H28 4645   6.415   4.521   0.042 -0.2933 -0.7646  0.2163
   11CHTO   O10 4646   6.520   4.488  -0.131  0.2909 -0.0696  0.6628
   11CHTO    H4 4647   6.555   4.574  -0.141  2.7357 -1.0333  0.4568
   11CHTO    O5 4648   6.368   4.361  -0.076  0.1439  0.6650 -0.4373
   11CHTO   C10 4649   6.248   4.333   0.007 -0.1186 -1.0282 -0.5148
   11CHTO   H23 4650   6.267   4.360   0.111  0.3036 -1.4290 -0.4887
   11CHTO   C17 4651   6.238   4.181   0.003  0.1771 -0.1751  0.2094
   11CHTO   O12 4652   6.336   4.122   0.077  0.4661  0.0478  0.5092
   11CHTO    H6 4653   6.340   4.038   0.036 -2.8168  0.2671 -0.4444
   12CHTO  H203 4654   4.689   1.237   0.688  0.0032 -0.5891  0.1715
   12CHTO   O82 4655   4.756   1.299   0.672 -0.1402 -0.5668 -0.3511
   12CHTO  C123 4656   4.872   1.232   0.622 -0.6680  0.0866 -0.4442
   12CHTO  H227 4657   4.947   1.307   0.593  0.2939 -0.2632  1.0696
   12CHTO   O77 4658   4.909   1.132   0.728 -0.5963  0.0195  0.2694
   12CHTO  C118 4659   5.020   1.049   0.701 -0.5940 -0.0496  0.1043
   12CHTO  H222 4660   5.111   1.110   0.697 -2.6135  3.1352  0.7034
   12CHTO  C125 4661   5.038   0.950   0.819 -0.2356  0.0005 -0.0480
   12CHTO   O84 4662   5.104   1.004   0.931  0.0600 -0.1827  0.0889
   12CHTO  H205 4663   5.089   0.947   1.003 -2.4469  0.3002 -0.0234
   12CHTO  C114 4664   5.001   0.966   0.569 -0.0458 -0.1304  0.7666
   12CHTO  H218 4665   4.921   0.892   0.576  0.3507 -0.3353  3.5268
   12CHTO  C116 4666   4.976   1.078   0.457 -0.5282  0.3318  0.1165
   12CHTO  H220 4667   5.063   1.147   0.460 -0.1576 -0.0336 -1.4780
   12CHTO   O79 4668   4.974   1.008   0.328  0.3599  0.1604  0.1131
   12CHTO  H201 4669   4.997   1.065   0.257  0.8743 -0.1207  0.0554
   12CHTO  C120 4670   4.847   1.158   0.485 -0.4522  0.6408  0.1738
   12CHTO  H224 4671   4.761   1.090   0.501 -0.5503  1.2843  2.6441
   12CHTO   N21 4672   4.796   1.246   0.375  0.1392  0.1828 -0.3805
   12CHTO  H211 4673   4.734   1.327   0.412 -0.4167  1.4512 -3.9568
   12CHTO  H212 4674   4.736   1.188   0.307 -0.3652  0.0778  0.1435
   12CHTO   O75 4675   5.125   0.894   0.544  0.3283 -0.6169 -0.3232
   12CHTO  C112 4676   5.140   0.774   0.402  0.8101 -0.0001 -0.3909
   12CHTO  H216 4677   5.116   0.823   0.307  1.3037  0.6373 -0.1896
   12CHTO   O73 4678   5.046   0.671   0.435 -0.2259  0.0679 -0.3419
   12CHTO  C113 4679   5.033   0.556   0.354 -0.1830 -1.0796  0.7296
   12CHTO  H217 4680   4.990   0.590   0.258  1.6989 -2.0747 -0.4859
   12CHTO  C124 4681   4.924   0.465   0.415  0.4332 -0.0023 -0.3552
   12CHTO   O83 4682   4.793   0.531   0.420 -0.1421  0.5300  1.1276
   12CHTO  H204 4683   4.798   0.588   0.495  0.1983  1.8238  0.1280
   12CHTO  C109 4684   5.176   0.485   0.359  0.3884  0.6099  0.2509
   12CHTO  H213 4685   5.193   0.460   0.464  1.7648 -2.0168 -0.5567
   12CHTO  C110 4686   5.290   0.586   0.313 -0.1414  0.3224  0.0764
   12CHTO  H214 4687   5.277   0.608   0.207 -1.2737 -0.4219  0.0574
   12CHTO   O78 4688   5.413   0.523   0.342 -0.8642  0.0468  0.6417
   12CHTO  H200 4689   5.412   0.432   0.317  0.5487  0.3474 -0.5767
   12CHTO  C111 4690   5.280   0.715   0.403 -0.3078 -0.8118 -0.3955
   12CHTO  H215 4691   5.307   0.684   0.505 -4.4362  1.5983  1.5288
   12CHTO   N19 4692   5.371   0.822   0.364 -0.0063  0.5283 -0.3751
   12CHTO  H207 4693   5.365   0.851   0.260  0.0997  0.0795 -0.5106
   12CHTO  H208 4694   5.359   0.907   0.429  2.6835  0.8581 -0.2509
   12CHTO   O74 4695   5.171   0.370   0.282 -0.5278  0.7764  0.2417
   12CHTO  C115 4696   5.285   0.259   0.327 -0.2636 -0.3866  0.2630
   12CHTO  H219 4697   5.381   0.306   0.348 -0.6549  0.6904 -0.3228
   12CHTO   O76 4698   5.245   0.188   0.462 -0.5037 -0.2654 -0.3732
   12CHTO  C122 4699   5.119   0.117   0.452  0.2671  0.5027 -0.7836
   12CHTO  H226 4700   5.041   0.186   0.485  0.5917  0.1939  0.6402
   12CHTO  C126 4701   5.126   0.001   0.564 -0.0675  0.0967  0.2709
   12CHTO   O85 4702   5.119   0.052   0.696 -0.2967 -0.0318 -0.5729
   12CHTO  H206 4703   5.210   0.063   0.713  0.0902 -0.8671 -2.0104
   12CHTO  C121 4704   5.102   0.044   0.310 -0.5089 -0.0157 -0.7458
   12CHTO  H225 4705   5.047  -0.052   0.322  1.6184 -1.2483 -0.6668
   12CHTO   O81 4706   5.030   0.119   0.219  0.4106  0.1510 -0.0078
   12CHTO  H202 4707   5.056   0.209   0.218  1.8802 -0.2438  0.6936
   12CHTO  C119 4708   5.243   0.016   0.251  0.4230 -0.2079 -0.0586
   12CHTO  H223 4709   5.305  -0.023   0.331 -0.2520  0.5166  0.8282
   12CHTO  C117 4710   5.314   0.155   0.211 -0.2941 -0.4347  0.0709
   12CHTO  H221 4711   5.267   0.211   0.130  1.1739  0.8589  0.0903
   12CHTO   N20 4712   5.463   0.140   0.170  0.0751 -0.4702 -0.4064
   12CHTO  H209 4713   5.489   0.035   0.165 -2.6365 -1.2301  0.4035
   12CHTO  H210 4714   5.526   0.183   0.246  0.0772 -2.2906  0.6479
   12CHTO   O80 4715   5.250  -0.097   0.148 -0.2364 -0.8126 -0.0925
   12CHTO  C103 4716   5.307  -0.219   0.181 -0.0633 -0.3290 -0.1446
   12CHTO  H190 4717   5.393  -0.211   0.248  0.6068  4.6459 -1.4368
   12CHTO  C101 4718   5.216  -0.323   0.248  0.6479  0.3372 -0.3814
   12CHTO  H188 4719   5.117  -0.311   0.204  0.5506 -0.4211 -0.3754
   12CHTO   O68 4720   5.179  -0.285   0.419  0.1269 -0.2154  0.5810
   12CHTO  H168 4721   5.115  -0.217   0.416 -0.9170 -1.2396 -1.5012
   12CHTO   C99 4722   5.263  -0.477   0.233  0.0360  0.3410 -0.0243
   12CHTO  H186 4723   5.361  -0.486   0.284 -0.5068  0.8014  1.1255
   12CHTO   N17 4724   5.173  -0.582   0.277  0.2596  0.3711  0.4394
   12CHTO  H174 4725   5.072  -0.562   0.246  0.0625  0.8246  1.3531
   12CHTO  H175 4726   5.210  -0.680   0.250 -0.2209 -0.0492  1.3206
   12CHTO   C97 4727   5.289  -0.497   0.084  0.1550  0.2051  0.8171
   12CHTO  H184 4728   5.196  -0.469   0.032  0.8722 -0.1321 -0.6828
   12CHTO   O64 4729   5.394  -0.412   0.040 -0.0445  0.0756 -0.4055
   12CHTO  C104 4730   5.352  -0.272   0.037 -1.0343  0.4117 -0.0162
   12CHTO  H191 4731   5.266  -0.265  -0.031 -0.7021 -0.5694 -0.5432
   12CHTO  C108 4732   5.470  -0.198  -0.029 -0.7367  0.0314 -0.9314
   12CHTO   O71 4733   5.438  -0.071  -0.093 -0.6194  0.4593 -0.1245
   12CHTO  H171 4734   5.476  -0.065  -0.179 -0.1400 -0.8257 -0.0198
   12CHTO   O62 4735   5.334  -0.630   0.039 -0.1226 -0.7933 -0.3510
   12CHTO   C91 4736   5.362  -0.663  -0.099  0.3616  0.1484  0.4211
   12CHTO  H178 4737   5.377  -0.569  -0.152  0.5125  1.2047  2.3087
   12CHTO   C92 4738   5.234  -0.724  -0.180 -0.2573 -0.6230  0.1326
   12CHTO  H179 4739   5.170  -0.777  -0.108 -0.2003 -0.0575  0.6080
   12CHTO   O66 4740   5.152  -0.611  -0.216 -0.4110 -0.4974  0.5367
   12CHTO  H166 4741   5.065  -0.626  -0.185  0.5251  0.0770  3.6316
   12CHTO   C93 4742   5.265  -0.800  -0.309  0.8620  0.3070 -0.4080
   12CHTO  H180 4743   5.306  -0.741  -0.392 -1.5037  1.3613 -0.8688
   12CHTO   N16 4744   5.153  -0.868  -0.371 -0.2457 -0.1577 -0.9472
   12CHTO  H172 4745   5.102  -0.911  -0.285  0.9181 -1.3386 -0.8148
   12CHTO  H173 4746   5.204  -0.944  -0.428 -0.2955  0.3143 -1.6172
   12CHTO   C94 4747   5.377  -0.897  -0.258 -0.3309  1.3357  0.3077
   12CHTO  H181 4748   5.349  -0.956  -0.171 -1.7992  0.5007 -0.7118
   12CHTO   O61 4749   5.495  -0.824  -0.223  0.3309 -0.1820  0.0912
   12CHTO   C95 4750   5.495  -0.733  -0.114 -0.3296  0.0732 -0.3864
   12CHTO  H182 4751   5.514  -0.790  -0.023 -0.9483  0.0763 -0.2513
   12CHTO  C106 4752   5.627  -0.639  -0.139  1.0928 -0.3492 -0.4069
   12CHTO   O69 4753   5.645  -0.545  -0.032 -0.7153 -0.4077  0.3796
   12CHTO  H169 4754   5.564  -0.511  -0.000 -0.2283 -0.8492  2.1594
   12CHTO   O63 4755   5.426  -1.011  -0.373 -0.4501 -0.4313  0.4177
   12CHTO   C96 4756   5.548  -1.106  -0.320  0.1615  0.4194 -0.0601
   12CHTO  H183 4757   5.586  -1.077  -0.222  1.6338 -1.2918 -0.1012
   12CHTO   C98 4758   5.673  -1.116  -0.413 -0.2549 -0.6842 -0.1011
   12CHTO  H185 4759   5.646  -1.161  -0.509 -0.1951 -3.5366  1.1875
   12CHTO   O67 4760   5.706  -0.977  -0.444  0.1386 -0.0083  0.4497
   12CHTO  H167 4761   5.791  -0.972  -0.484  0.0514  0.8024  0.3494
   12CHTO  C102 4762   5.786  -1.201  -0.340  1.1370  0.1830  0.2743
   12CHTO  H189 4763   5.807  -1.140  -0.250 -1.8723  1.5868  0.1159
   12CHTO   N18 4764   5.909  -1.214  -0.420 -0.7138  0.5661  0.0957
   12CHTO  H176 4765   5.886  -1.241  -0.522 -0.5599  2.1330 -0.3707
   12CHTO  H177 4766   5.965  -1.297  -0.380  1.3548  1.3225 -1.1483
   12CHTO  C105 4767   5.732  -1.340  -0.294 -0.1435  0.8044 -0.0992
   12CHTO  H192 4768   5.767  -1.414  -0.366 -0.3758 -0.0667  0.6812
   12CHTO   O65 4769   5.591  -1.363  -0.305  0.1655  0.4574 -0.3759
   12CHTO  C100 4770   5.488  -1.259  -0.306 -0.3034 -1.1149  0.0564
   12CHTO  H187 4771   5.419  -1.271  -0.391  0.7297  1.7059 -1.2444
   12CHTO  C107 4772   5.404  -1.276  -0.182 -0.2046  0.0956 -0.6265
   12CHTO   O70 4773   5.280  -1.200  -0.195 -0.7981  0.7332 -0.2096
   12CHTO  H170 4774   5.296  -1.109  -0.181 -2.0623  0.8086  0.8848
   12CHTO   O57 4775   5.790  -1.347  -0.152  0.0654  0.1911 -0.2671
   12CHTO   C85 4776   5.774  -1.464  -0.073 -0.3364  0.1585 -0.0284
   12CHTO  H157 4777   5.724  -1.541  -0.134 -2.2913 -0.5973  2.4353
   12CHTO   C83 4778   5.675  -1.448   0.036  0.1473  0.3477  0.3716
   12CHTO  H155 4779   5.580  -1.417  -0.007  0.9629  3.6658  0.8453
   12CHTO   O56 4780   5.721  -1.339   0.122  0.1194 -0.2691 -0.2145
   12CHTO  H135 4781   5.647  -1.282   0.130 -0.5357 -1.0215 -0.7179
   12CHTO   C81 4782   5.656  -1.584   0.108  0.4761 -0.6653  0.4737
   12CHTO  H153 4783   5.627  -1.661   0.036 -1.8874 -0.4871  1.2099
   12CHTO   N14 4784   5.543  -1.576   0.206  0.3423  0.4034  0.0998
   12CHTO  H141 4785   5.511  -1.674   0.234  0.1962  0.3398 -0.2861
   12CHTO  H142 4786   5.572  -1.516   0.289  1.1467 -1.0301  0.8675
   12CHTO   C79 4787   5.789  -1.634   0.177  0.1413 -0.5792  0.3246
   12CHTO  H151 4788   5.773  -1.739   0.202  0.6743 -0.9468 -0.8751
   12CHTO   O52 4789   5.889  -1.641   0.078  0.3109 -0.2379 -0.0886
   12CHTO   C86 4790   5.913  -1.521  -0.008  0.5519  1.0938 -0.1779
   12CHTO  H158 4791   5.950  -1.440   0.058  2.9307  0.0824 -0.2184
   12CHTO   C90 4792   6.017  -1.548  -0.116  0.3464 -0.1038 -0.3136
   12CHTO   O60 4793   6.142  -1.583  -0.058  0.3426  0.5401 -0.7086
   12CHTO  H138 4794   6.138  -1.676  -0.043  0.3289  0.9213  1.8975
   12CHTO   O50 4795   5.837  -1.564   0.291  0.0425 -0.3099 -0.2433
   12CHTO   C73 4796   5.820  -1.551   0.430 -0.2675 -0.0689 -0.0772
   12CHTO  H145 4797   5.725  -1.593   0.466  0.6123 -0.9940  1.1749
   12CHTO   C74 4798   5.823  -1.395   0.453  1.2690 -0.0667  0.4655
   12CHTO  H146 4799   5.747  -1.339   0.396  2.2783  0.6914 -0.1491
   12CHTO   O54 4800   5.793  -1.376   0.594 -0.2857 -0.2265 -0.1256
   12CHTO  H133 4801   5.823  -1.291   0.621  2.9651 -0.3683 -2.8952
   12CHTO   C75 4802   5.963  -1.338   0.425 -0.6642 -0.3881  0.1042
   12CHTO  H147 4803   5.988  -1.359   0.320 -0.4222 -0.6791  0.2191
   12CHTO   N13 4804   5.966  -1.191   0.448  0.3108 -0.0438 -0.5558
   12CHTO  H139 4805   6.066  -1.150   0.448 -0.1895  1.2246 -0.0020
   12CHTO  H140 4806   5.893  -1.139   0.388  0.1129  0.8282  0.4090
   12CHTO   C76 4807   6.084  -1.420   0.493  0.3654  0.1140  0.1942
   12CHTO  H148 4808   6.081  -1.404   0.601  0.8682 -1.1572  0.4070
   12CHTO   O49 4809   6.069  -1.557   0.477  0.1695  0.4407 -0.2631
   12CHTO   C77 4810   5.940  -1.609   0.511  0.0180  0.5669 -0.7028
   12CHTO  H149 4811   5.924  -1.587   0.616  2.7278  1.1430 -0.3610
   12CHTO   C88 4812   5.941  -1.762   0.507 -0.1341  0.6408  0.2631
   12CHTO   O58 4813   6.058  -1.829   0.560 -0.4189  0.2055 -0.2445
   12CHTO  H136 4814   6.044  -1.922   0.561  0.3852  0.0832  0.9745
   12CHTO   O51 4815   6.231  -1.386   0.416 -0.3983 -0.1952 -0.3421
   12CHTO   C78 4816   6.365  -1.478   0.443 -0.0877 -0.0689  0.3496
   12CHTO  H150 4817   6.343  -1.586   0.451  1.3142 -0.2901  1.4535
   12CHTO   C80 4818   6.433  -1.432   0.570 -0.6064 -0.5869 -0.5572
   12CHTO  H152 4819   6.446  -1.322   0.568 -1.3117 -0.4251  2.1412
   12CHTO   O55 4820   6.344  -1.455   0.675  0.0237 -0.3102 -0.2514
   12CHTO  H134 4821   6.375  -1.426   0.758  2.0445 -1.4633 -0.5548
   12CHTO   C84 4822   6.568  -1.513   0.595 -0.1542  0.3989 -0.3010
   12CHTO  H156 4823   6.553  -1.620   0.604  0.7044  0.5145  2.8221
   12CHTO   N15 4824   6.631  -1.472   0.725  0.4061  0.4452 -0.2345
   12CHTO  H143 4825   6.725  -1.522   0.717 -0.0184 -0.7099  1.6698
   12CHTO  H144 4826   6.586  -1.495   0.820  0.8096 -0.1286 -0.1815
   12CHTO   C87 4827   6.659  -1.481   0.474 -0.8131  0.5978 -0.0708
   12CHTO  H159 4828   6.677  -1.374   0.471 -0.8189  0.6546  1.7887
   12CHTO   O53 4829   6.589  -1.514   0.345  0.5534 -0.1680  0.0427
   12CHTO   C82 4830   6.464  -1.449   0.327  0.2000  0.1373 -0.2574
   12CHTO  H154 4831   6.480  -1.341   0.327  3.4977 -0.3022  0.2942
   12CHTO   C89 4832   6.411  -1.493   0.191  0.1269  0.4851 -0.2940
   12CHTO   O59 4833   6.297  -1.423   0.134  0.3433  0.5963 -0.0258
   12CHTO  H137 4834   6.229  -1.417   0.198 -0.9485 -1.0604 -1.2126
   12CHTO   O45 4835   6.809  -1.564   0.480  0.1346  0.2375 -0.1290
   12CHTO   C67 4836   6.793  -1.704   0.442 -0.2917 -0.2412 -0.0231
   12CHTO  H124 4837   6.694  -1.739   0.469 -0.4207  0.4013  0.3696
   12CHTO   C65 4838   6.817  -1.709   0.288 -0.1878  0.0241  0.0929
   12CHTO  H122 4839   6.756  -1.637   0.233 -0.1236 -1.2856 -1.7550
   12CHTO   O44 4840   6.767  -1.835   0.234 -0.0141  0.3340  0.0572
   12CHTO  H102 4841   6.760  -1.825   0.141 -1.3037  1.4369  0.2500
   12CHTO   C63 4842   6.966  -1.668   0.255  0.6887  0.0864 -0.5939
   12CHTO  H120 4843   6.989  -1.576   0.309  3.7645 -0.1995 -1.2870
   12CHTO   N11 4844   7.000  -1.633   0.110 -0.2678 -0.1460 -0.2499
   12CHTO  H108 4845   6.944  -1.554   0.065 -1.8215 -0.6925  0.7036
   12CHTO  H109 4846   7.086  -1.674   0.061 -2.5449 -2.7064 -2.2787
   12CHTO   C61 4847   7.060  -1.773   0.323 -0.5316 -0.2721  0.4053
   12CHTO  H118 4848   7.157  -1.722   0.314 -0.4642 -0.5516 -0.4278
   12CHTO   O40 4849   7.030  -1.784   0.470 -0.3415 -0.8545 -0.0519
   12CHTO   C68 4850   6.890  -1.803   0.518 -0.4364  0.5293 -0.3494
   12CHTO  H125 4851   6.888  -1.774   0.625 -0.4798 -1.1884  0.1331
   12CHTO   C72 4852   6.848  -1.956   0.514  0.1297 -0.4983  0.0214
   12CHTO   O48 4853   6.726  -1.990   0.595 -0.3741  0.1192  0.0574
   12CHTO  H105 4854   6.717  -2.083   0.609 -0.7095  0.3993  1.7206
   12CHTO   O38 4855   7.066  -1.894   0.252 -0.4522 -0.1992  0.0522
   12CHTO   C55 4856   7.197  -1.959   0.241  0.2690  0.6315  0.5019
   12CHTO  H112 4857   7.256  -1.945   0.333  1.6107  0.9576 -0.3998
   12CHTO   C56 4858   7.279  -1.914   0.108  0.2876  0.4325 -0.0680
   12CHTO  H113 4859   7.209  -1.930   0.025 -0.4531  1.2135  0.4016
   12CHTO   O42 4860   7.310  -1.774   0.116  0.4236  0.1240  0.6802
   12CHTO  H100 4861   7.344  -1.746   0.199  0.7010 -0.9652  0.9454
   12CHTO   C57 4862   7.408  -2.009   0.095  0.4058 -0.2900  0.6711
   12CHTO  H114 4863   7.479  -1.980   0.173 -0.7773  0.2223  1.5768
   12CHTO   N10 4864   7.476  -1.982  -0.041 -0.3395  0.2243 -0.2055
   12CHTO  H106 4865   7.530  -2.065  -0.085 -2.6708 -2.0265  1.0215
   12CHTO  H107 4866   7.536  -1.893  -0.047 -1.6872  1.0857 -1.0781
   12CHTO   C58 4867   7.374  -2.157   0.112  0.4648 -0.5546 -0.4976
   12CHTO  H115 4868   7.301  -2.182   0.032 -2.4428  0.3566  1.7835
   12CHTO   O37 4869   7.314  -2.175   0.241  0.3322  0.6793 -0.4190
   12CHTO   C59 4870   7.183  -2.116   0.246  0.8924 -0.6577  0.0213
   12CHTO  H116 4871   7.127  -2.152   0.160  0.9001 -1.7346  0.4592
   12CHTO   C70 4872   7.106  -2.163   0.362 -0.1219  0.2889  0.7286
   12CHTO   O46 4873   7.103  -2.306   0.378 -0.0713 -0.3880 -0.0861
   12CHTO  H103 4874   7.137  -2.340   0.459  0.1512  0.1345  0.0432
   12CHTO   O39 4875   7.501  -2.267   0.100 -0.2288  0.3905  0.4629
   12CHTO   C60 4876   7.475  -2.374   0.006  0.0759 -0.3122 -0.2581
   12CHTO  H117 4877   7.370  -2.403   0.009  0.2383 -0.8183  2.3355
   12CHTO   C62 4878   7.516  -2.346  -0.141  0.2417  0.2783 -0.3687
   12CHTO  H119 4879   7.427  -2.288  -0.173  0.7592  0.7256 -1.0302
   12CHTO   O43 4880   7.636  -2.263  -0.152  0.3757 -0.5457  0.0087
   12CHTO  H101 4881   7.702  -2.296  -0.094 -1.0093 -2.2832  0.6430
   12CHTO   C66 4882   7.517  -2.478  -0.233  0.1612 -0.1321  0.0067
   12CHTO  H123 4883   7.414  -2.512  -0.248  0.1562  0.2310 -0.7716
   12CHTO   N12 4884   7.564  -2.447  -0.373 -0.4450  0.2658  0.0485
   12CHTO  H110 4885   7.505  -2.367  -0.415 -1.5906 -0.8673 -0.5345
   12CHTO  H111 4886   7.555  -2.518  -0.454 -0.6638  2.9452 -2.3659
   12CHTO   C69 4887   7.600  -2.587  -0.161  0.0290  0.2125  0.6033
   12CHTO  H126 4888   7.702  -2.544  -0.170  0.3395 -0.8664 -1.3669
   12CHTO   O41 4889   7.552  -2.606  -0.017  0.3443  0.2365 -0.6339
   12CHTO   C64 4890   7.555  -2.492   0.067 -0.9368 -0.2684 -0.6562
   12CHTO  H121 4891   7.662  -2.464   0.078 -1.1977  0.3147  0.3868
   12CHTO   C71 4892   7.498  -2.553   0.197  0.6194  0.4243 -0.3062
   12CHTO   O47 4893   7.524  -2.472   0.315  0.0268 -0.0703 -0.3590
   12CHTO  H104 4894   7.520  -2.529   0.389  0.9379 -2.4176 -2.0371
   12CHTO   O34 4895   7.618  -2.731  -0.250 -0.2354  0.2603 -0.0314
   12CHTO   C49 4896   7.708  -2.855  -0.229 -0.1197 -0.8576 -0.5655
   12CHTO   H91 4897   7.809  -2.824  -0.254 -0.4285 -0.2429 -1.0614
   12CHTO   C47 4898   7.649  -2.972  -0.304  0.3090 -0.9598  0.6426
   12CHTO   H89 4899   7.717  -3.057  -0.282  1.0740 -0.0370  1.8822
   12CHTO   O33 4900   7.652  -2.945  -0.448 -0.1320  0.2441 -0.0595
   12CHTO   H70 4901   7.589  -2.878  -0.467 -1.0989 -0.4088  0.7577
   12CHTO   C45 4902   7.496  -3.002  -0.252 -0.0501  0.3646 -0.3113
   12CHTO   H87 4903   7.430  -2.927  -0.299  0.3409  1.7248  1.2464
   12CHTO    N8 4904   7.454  -3.140  -0.291 -0.9154 -0.1665 -0.1246
   12CHTO   H75 4905   7.500  -3.214  -0.227  2.8591  1.1414 -1.2240
   12CHTO   H76 4906   7.350  -3.156  -0.264 -0.5956 -1.0356  0.6202
   12CHTO   C43 4907   7.489  -2.965  -0.094 -0.4373  0.1003 -0.6120
   12CHTO   H85 4908   7.463  -2.860  -0.090 -3.1045 -0.5351 -0.3284
   12CHTO   O29 4909   7.615  -2.998  -0.034  0.3790 -0.4297 -0.1354
   12CHTO   C50 4910   7.718  -2.909  -0.075  0.0261 -0.4286  1.0931
   12CHTO   H92 4911   7.710  -2.821  -0.010 -0.6677 -1.1565  2.0094
   12CHTO   C54 4912   7.855  -2.968  -0.032  0.0506  0.6801  0.1678
   12CHTO   O36 4913   7.885  -3.099  -0.077 -0.3100 -0.5352  0.0827
   12CHTO   H72 4914   7.914  -3.098  -0.166 -0.4885 -0.4797  0.0251
   12CHTO   O27 4915   7.385  -3.036  -0.018  0.1821  0.4181  0.0240
   12CHTO   C37 4916   7.335  -3.060   0.113  0.1156 -0.5954  0.1542
   12CHTO   H79 4917   7.372  -3.158   0.145  0.5956  0.2077  2.1095
   12CHTO   C38 4918   7.381  -2.950   0.216 -0.6977  0.4460 -0.1484
   12CHTO   H80 4919   7.378  -2.855   0.160  1.4246 -0.7250 -2.3873
   12CHTO   O31 4920   7.522  -2.982   0.251  0.5673  0.1821  0.2324
   12CHTO   H68 4921   7.557  -2.926   0.317 -1.7386  0.3493  1.3656
   12CHTO   C39 4922   7.296  -2.940   0.345 -0.4873  0.2372  0.3881
   12CHTO   H81 4923   7.315  -3.029   0.404 -2.1241 -1.4637 -1.5516
   12CHTO    N7 4924   7.340  -2.828   0.437 -0.9709 -0.3047 -0.0433
   12CHTO   H73 4925   7.297  -2.738   0.396 -1.0612 -0.3160  0.0245
   12CHTO   H74 4926   7.308  -2.852   0.538 -1.2907 -1.6127 -0.4400
   12CHTO   C40 4927   7.146  -2.935   0.309 -0.5901 -0.0787  0.3859
   12CHTO   H82 4928   7.137  -2.845   0.249  1.6128  0.0537  0.2081
   12CHTO   O26 4929   7.118  -3.054   0.234  0.5002  0.2944  0.6032
   12CHTO   C41 4930   7.181  -3.062   0.103  0.3138  0.4592 -0.0766
   12CHTO   H83 4931   7.142  -2.973   0.051  0.5604 -0.5726 -2.0931
   12CHTO   C52 4932   7.128  -3.195   0.032 -0.0251  0.0303  0.3399
   12CHTO   O35 4933   7.131  -3.305   0.108 -0.4816 -0.9532 -0.0464
   12CHTO   H71 4934   7.221  -3.323   0.124 -0.4437  0.3260  1.3408
   12CHTO   O28 4935   7.060  -2.944   0.423 -0.2856 -0.5521 -0.0375
   12CHTO   C42 4936   6.924  -2.883   0.424  0.8417  0.7170  0.4728
   12CHTO   H84 4937   6.866  -2.946   0.492  0.6516  0.0127 -0.3360
   12CHTO   C44 4938   6.844  -2.884   0.295  0.4779  0.7629  0.4205
   12CHTO   H86 4939   6.886  -2.807   0.230 -1.3749 -0.4109 -2.2443
   12CHTO   O32 4940   6.845  -3.014   0.230 -0.1089  0.3851  0.1302
   12CHTO   H69 4941   6.789  -3.076   0.273 -2.4078  0.9216 -1.9567
   12CHTO   C48 4942   6.698  -2.836   0.310  1.0643 -0.0692  0.1882
   12CHTO   H90 4943   6.646  -2.902   0.379 -1.4737  1.7326  0.0707
   12CHTO    N9 4944   6.615  -2.843   0.185  0.2435 -0.4142 -0.6730
   12CHTO   H77 4945   6.640  -2.925   0.119 -0.8849 -0.9268 -0.4779
   12CHTO   H78 4946   6.509  -2.851   0.207  0.5260 -1.4176  0.3592
   12CHTO   C51 4947   6.697  -2.690   0.376 -0.2004 -0.1388 -0.1524
   12CHTO   H93 4948   6.740  -2.617   0.308  1.5584 -2.7563 -1.9743
   12CHTO   O30 4949   6.771  -2.698   0.504  0.3770 -0.0121  0.3740
   12CHTO   C46 4950   6.908  -2.737   0.479 -0.1984  0.2454 -0.1362
   12CHTO   H88 4951   6.949  -2.668   0.406  0.1960 -1.0178 -1.1366
   12CHTO   C53 4952   6.988  -2.731   0.612  0.1743 -0.4137 -0.5963
   12CHTO   O72 4953   6.984  -2.595   0.664 -0.1514  0.4560  0.8064
   12CHTO  H199 4954   6.922  -2.539   0.621 -0.4747 -1.3559 -1.1305
   12CHTO   O22 4955   6.569  -2.664   0.426  0.6184  0.1503  0.6441
   12CHTO   C31 4956   6.511  -2.533   0.442 -0.0373 -1.1256  0.7006
   12CHTO   H59 4957   6.403  -2.551   0.460  0.0272 -1.5429  0.6966
   12CHTO   C29 4958   6.564  -2.463   0.571  0.0350 -0.6109 -0.0156
   12CHTO   H57 4959   6.673  -2.448   0.562  0.4581 -4.3585 -1.9714
   12CHTO   O21 4960   6.541  -2.557   0.681  0.0018 -0.0922  0.5485
   12CHTO   H37 4961   6.558  -2.519   0.765 -0.2727  2.8725 -0.6692
   12CHTO   C27 4962   6.495  -2.323   0.594 -0.2916 -0.1494 -0.1938
   12CHTO   H55 4963   6.387  -2.339   0.609  0.0327  0.4672  3.1264
   12CHTO    N5 4964   6.552  -2.251   0.712  0.3573 -0.3122 -0.1004
   12CHTO   H43 4965   6.557  -2.315   0.799  0.3679 -0.7709 -0.4371
   12CHTO   H44 4966   6.648  -2.204   0.696 -0.1780  1.3980  1.5090
   12CHTO   C25 4967   6.504  -2.233   0.467 -0.4609 -0.5438 -0.9939
   12CHTO   H53 4968   6.603  -2.189   0.448 -1.3550  2.8024  1.6669
   12CHTO   O17 4969   6.462  -2.312   0.349 -0.1669 -0.6612 -0.3826
   12CHTO   C32 4970   6.521  -2.441   0.320  0.5835 -1.1250  0.1326
   12CHTO   H60 4971   6.626  -2.421   0.297  0.8962 -0.2037  2.2281
   12CHTO   C36 4972   6.469  -2.497   0.187  0.0452  0.4932  0.6885
   12CHTO   O25 4973   6.456  -2.382   0.095  0.3627 -0.2327  0.1354
   12CHTO   H40 4974   6.409  -2.409   0.018 -0.3846  1.2888  0.0543
   12CHTO   O15 4975   6.410  -2.115   0.481  0.4707 -0.7523  0.0286
   12CHTO   C19 4976   6.296  -2.053   0.412 -0.1756 -0.3774  0.0380
   12CHTO   H47 4977   6.279  -1.959   0.466 -2.1425 -1.8112  1.9864
   12CHTO   C20 4978   6.321  -2.025   0.264  0.7640  0.3153  0.2329
   12CHTO   H48 4979   6.347  -2.115   0.207  3.5790  1.8303 -0.9802
   12CHTO   O19 4980   6.437  -1.941   0.262 -0.1230  0.4205 -0.0240
   12CHTO   H35 4981   6.465  -1.927   0.174 -0.5571  0.5888 -0.1349
   12CHTO   C21 4982   6.195  -1.949   0.194 -0.2375 -0.0562  0.8311
   12CHTO   H49 4983   6.174  -1.858   0.250 -0.8969  0.5648 -0.4009
   12CHTO    N4 4984   6.217  -1.903   0.049 -0.2678 -0.2449  0.1351
   12CHTO   H41 4985   6.222  -1.797   0.032 -0.4855 -0.1412  0.6955
   12CHTO   H42 4986   6.129  -1.940  -0.003 -0.4395  0.0162  0.2424
   12CHTO   C22 4987   6.063  -2.039   0.225  0.3027  0.4584 -0.0676
   12CHTO   H50 4988   6.077  -2.132   0.169  2.6388  0.6841  0.0963
   12CHTO   O14 4989   6.065  -2.066   0.361 -0.1649 -0.1504  0.2235
   12CHTO   C23 4990   6.169  -2.138   0.432  0.0908 -0.5311 -0.1700
   12CHTO   H51 4991   6.180  -2.236   0.382  0.7670  0.7676 -2.6366
   12CHTO   C34 4992   6.134  -2.162   0.585  0.4945 -0.7889  0.2474
   12CHTO   O23 4993   6.039  -2.273   0.606  0.4042  1.1671  0.3983
   12CHTO   H38 4994   5.954  -2.254   0.571 -0.1819 -1.5088  0.2361
   12CHTO   O16 4995   5.943  -1.972   0.181 -0.1074  0.4598  0.4902
   12CHTO   C24 4996   5.830  -2.064   0.130  0.5087  0.0923  1.0461
   12CHTO   H52 4997   5.843  -2.166   0.166  2.5844 -0.2926 -0.6391
   12CHTO   C26 4998   5.818  -2.058  -0.022 -0.7549 -0.1209  0.2765
   12CHTO   H54 4999   5.806  -1.951  -0.049 -0.5586 -0.0480  0.4780
   12CHTO   O20 5000   5.947  -2.099  -0.070 -0.1870  0.0034  0.6358
   12CHTO   H36 5001   5.949  -2.126  -0.160  2.7817  2.1701 -0.0231
   12CHTO   C30 5002   5.706  -2.152  -0.076  0.0112  0.1531 -0.7079
   12CHTO   H58 5003   5.727  -2.253  -0.039  0.9543 -0.1719 -2.1077
   12CHTO    N6 5004   5.693  -2.133  -0.222 -0.1626  0.3813 -0.0119
   12CHTO   H45 5005   5.740  -2.216  -0.272  1.5726  0.3002  1.7096
   12CHTO   H46 5006   5.747  -2.042  -0.247 -1.1625  0.5055 -1.8439
   12CHTO   C33 5007   5.571  -2.115   0.002  0.3731 -0.2478 -0.8125
   12CHTO   H61 5008   5.542  -2.016  -0.035  1.0378  0.1000 -0.4126
   12CHTO   O18 5009   5.590  -2.104   0.142  0.4112 -0.0966 -0.3902
   12CHTO   C28 5010   5.693  -2.018   0.191  0.2513 -0.2939  0.3528
   12CHTO   H56 5011   5.670  -1.917   0.158 -1.7472 -1.6314 -2.5264
   12CHTO   C35 5012   5.702  -2.022   0.347 -0.1428  0.0282  0.0875
   12CHTO   O24 5013   5.573  -2.029   0.403  0.7052 -0.3036 -0.3359
   12CHTO   H39 5014   5.528  -2.092   0.350  1.7543 -3.0485  1.9036
   12CHTO    O9 5015   5.459  -2.203  -0.029 -0.0184  0.0030  0.4002
   12CHTO   C13 5016   5.481  -2.363   0.009  0.2663  0.0072 -0.5451
   12CHTO   H26 5017   5.554  -2.366   0.092  2.5528 -1.5302 -2.5200
   12CHTO   C11 5018   5.530  -2.455  -0.111 -0.8445  0.1779  0.4241
   12CHTO   H24 5019   5.635  -2.429  -0.132 -0.5097 -1.5247 -0.0325
   12CHTO    O8 5020   5.457  -2.429  -0.232  0.4048 -0.1172 -0.1655
   12CHTO    H3 5021   5.364  -2.420  -0.223  0.5482 -0.1615  1.3298
   12CHTO    C9 5022   5.534  -2.599  -0.061 -0.3621  0.2803 -0.1023
   12CHTO   H22 5023   5.584  -2.598   0.037  1.3785  0.7024 -0.9627
   12CHTO    N2 5024   5.618  -2.692  -0.144 -0.4900 -0.5664  0.0044
   12CHTO   H10 5025   5.674  -2.635  -0.217  0.1000  0.9774  1.6257
   12CHTO   H11 5026   5.556  -2.754  -0.208 -1.6045 -0.2888  0.8050
   12CHTO    C7 5027   5.393  -2.643  -0.027 -0.1673 -0.4251  0.4790
   12CHTO   H20 5028   5.402  -2.708   0.063  0.2717 -1.8014 -0.5383
   12CHTO    O4 5029   5.302  -2.534  -0.006 -0.3016  0.3054 -0.0310
   12CHTO   C14 5030   5.344  -2.423   0.073  0.0577  0.1405  0.8505
   12CHTO   H27 5031   5.367  -2.459   0.175 -0.3566 -0.6966  0.6552
   12CHTO   C18 5032   5.230  -2.321   0.084  0.1579  0.2112  0.5905
   12CHTO   O13 5033   5.103  -2.360   0.139 -0.2485  0.1972 -0.1177
   12CHTO    H7 5034   5.046  -2.286   0.141  0.7277  0.9674 -0.4970
   12CHTO    O2 5035   5.327  -2.753  -0.136  0.2479 -0.1559 -0.3018
   12CHTO    C1 5036   5.232  -2.850  -0.094 -0.6708 -0.7218 -0.2308
   12CHTO   H14 5037   5.205  -2.827   0.011 -0.7163  0.9008 -0.5867
   12CHTO    C2 5038   5.293  -2.997  -0.106 -0.0177  0.1982 -0.2527
   12CHTO   H15 5039   5.343  -2.996  -0.204  0.2819  1.2049 -0.0881
   12CHTO    O6 5040   5.390  -3.009   0.002 -0.4068  0.0535  0.0194
   12CHTO    H1 5041   5.445  -2.933   0.006  1.1548 -1.1157  2.0754
   12CHTO    C3 5042   5.184  -3.107  -0.091 -0.1616  0.1276 -0.4487
   12CHTO   H16 5043   5.166  -3.103   0.018 -0.3484  1.0643 -0.5122
   12CHTO    N1 5044   5.241  -3.248  -0.122 -0.0032  0.3448  0.3067
   12CHTO    H8 5045   5.302  -3.239  -0.211  1.4021  0.9876  1.3056
   12CHTO    H9 5046   5.298  -3.293  -0.042 -0.5261 -1.9473 -0.5711
   12CHTO    C4 5047   5.046  -3.075  -0.163 -0.2006 -0.3142  0.0662
   12CHTO   H17 5048   5.062  -3.088  -0.270  1.7423 -0.5680  0.3720
   12CHTO    O1 5049   5.006  -2.938  -0.136 -0.5128  0.1667  0.3607
   12CHTO    C5 5050   5.104  -2.841  -0.183  0.4646 -0.1834 -0.0887
   12CHTO   H18 5051   5.140  -2.870  -0.282  0.2293 -1.7629  0.2735
   12CHTO   C16 5052   5.035  -2.704  -0.195 -0.6518  0.0427 -0.4881
   12CHTO   O11 5053   4.999  -2.660  -0.062  0.4596 -0.0024  0.1964
   12CHTO    H5 5054   5.058  -2.594  -0.033  1.8725 -1.5915  1.0539
   12CHTO    O3 5055   4.941  -3.152  -0.105  0.2937 -0.3653 -0.0316
   12CHTO    C6 5056   4.824  -3.169  -0.186  0.1065 -0.3999  0.5012
   12CHTO   H19 5057   4.815  -3.082  -0.251 -0.8157 -0.0020  1.1530
   12CHTO    C8 5058   4.839  -3.294  -0.271  0.4873  0.1009  0.0322
   12CHTO   H21 5059   4.857  -3.376  -0.202  1.2428 -0.0030 -0.2817
   12CHTO    O7 5060   4.945  -3.279  -0.364  0.0492  0.3660  0.2088
   12CHTO    H2 5061   4.949  -3.347  -0.429 -0.4782  0.5114  0.0218
   12CHTO   C12 5062   4.705  -3.330  -0.344 -0.0926  0.5653  0.0886
   12CHTO   H25 5063   4.694  -3.252  -0.423  0.0571 -0.5296 -1.0331
   12CHTO    N3 5064   4.709  -3.465  -0.406 -0.0524 -0.8518  0.2532
   12CHTO   H12 5065   4.686  -3.537  -0.329  2.7637 -3.1023 -0.8816
   12CHTO   H13 5066   4.632  -3.478  -0.480 -0.5555  0.3965  0.5453
   12CHTO   C15 5067   4.584  -3.309  -0.239  0.0623  0.6349  0.2692
   12CHTO   H28 5068   4.576  -3.391  -0.168  1.1468 -0.3227 -0.7040
   12CHTO   O10 5069   4.450  -3.295  -0.324 -0.0083  0.2612  0.4401
   12CHTO    H4 5070   4.475  -3.283  -0.413 -2.0228  0.9057 -0.0616
   12CHTO    O5 5071   4.581  -3.185  -0.172  0.3121 -0.4491 -0.0538
   12CHTO   C10 5072   4.696  -3.171  -0.089 -0.1605 -0.5030  0.4210
   12CHTO   H23 5073   4.712  -3.253  -0.018  0.2012  0.2127  1.1792
   12CHTO   C17 5074   4.677  -3.039  -0.013  0.4362 -0.6977  0.2819
   12CHTO   O12 5075   4.672  -2.927  -0.107 -0.0752  0.3214 -0.2051
   12CHTO    H6 5076   4.750  -2.905  -0.154 -1.5721  1.4500 -2.2577
   13CHTO  H203 5077   7.681   3.362   2.108  2.1037 -1.2222  2.4577
   13CHTO   O82 5078   7.616   3.393   2.168 -0.0596  0.0687 -0.4358
   13CHTO  C123 5079   7.606   3.535   2.148 -0.1154 -0.7479 -0.2515
   13CHTO  H227 5080   7.645   3.561   2.048  1.5293  1.6970  0.9825
   13CHTO   O77 5081   7.458   3.562   2.151 -0.0662  0.4466  0.3680
   13CHTO  C118 5082   7.438   3.700   2.114 -0.9682 -0.1268  0.1659
   13CHTO  H222 5083   7.487   3.713   2.016 -3.9143  0.5380 -1.2911
   13CHTO  C125 5084   7.283   3.725   2.090  0.1151 -0.2660  0.0363
   13CHTO   O84 5085   7.249   3.680   1.959  0.6287  0.3246  0.0782
   13CHTO  H205 5086   7.221   3.743   1.895 -0.5651 -0.2438  0.0424
   13CHTO  C114 5087   7.487   3.803   2.220  0.2471  1.3307  1.0126
   13CHTO  H218 5088   7.425   3.791   2.309 -0.9859 -0.3875 -0.0437
   13CHTO  C116 5089   7.638   3.777   2.242 -0.3497  0.7599  0.3108
   13CHTO  H220 5090   7.698   3.818   2.158 -1.5105  0.0534 -0.8897
   13CHTO   O79 5091   7.672   3.856   2.358 -0.3011  0.1113 -0.3301
   13CHTO  H201 5092   7.634   3.941   2.343 -0.9761 -0.4588 -1.9792
   13CHTO  C120 5093   7.680   3.623   2.260 -0.2939  0.2679  0.6432
   13CHTO  H224 5094   7.658   3.587   2.363 -1.8031 -2.1345 -0.4760
   13CHTO   N21 5095   7.828   3.606   2.259 -0.0453 -0.3048 -0.1830
   13CHTO  H211 5096   7.870   3.598   2.159  3.1277 -0.8408  1.1369
   13CHTO  H212 5097   7.881   3.682   2.314  0.6046 -2.6513  2.5498
   13CHTO   O75 5098   7.460   3.936   2.168  0.1028 -0.1389  0.3614
   13CHTO  C112 5099   7.392   4.026   2.270 -0.6113 -0.0784 -0.1756
   13CHTO  H216 5100   7.422   4.007   2.374 -1.8312 -0.8934  0.0444
   13CHTO   O73 5101   7.248   4.003   2.247 -0.1624  0.1798  0.3362
   13CHTO  C113 5102   7.163   4.079   2.337  0.0821  0.6168 -0.2211
   13CHTO  H217 5103   7.173   4.052   2.445 -1.5462  0.3265 -0.1198
   13CHTO  C124 5104   7.019   4.044   2.298 -0.1584  0.3435  0.0177
   13CHTO   O83 5105   6.994   3.906   2.313  0.1985 -0.5788  0.2431
   13CHTO  H204 5106   6.996   3.887   2.405  2.3359 -0.7960  0.1778
   13CHTO  C109 5107   7.196   4.234   2.324 -0.1798  0.3430 -0.1198
   13CHTO  H213 5108   7.179   4.265   2.220 -1.0377  0.4687  0.0520
   13CHTO  C110 5109   7.349   4.261   2.349 -0.2147 -0.8827 -0.8582
   13CHTO  H214 5110   7.387   4.245   2.450 -2.2891  0.6605  0.2057
   13CHTO   O78 5111   7.362   4.406   2.331  0.1350  0.0817  0.0641
   13CHTO  H200 5112   7.339   4.434   2.244 -0.4556 -0.3869  0.0673
   13CHTO  C111 5113   7.432   4.182   2.241  0.4332  0.2719  0.3928
   13CHTO  H215 5114   7.396   4.206   2.140 -1.0479 -3.5928 -0.0766
   13CHTO   N19 5115   7.582   4.202   2.242  0.2618 -0.4377 -0.7507
   13CHTO  H207 5116   7.598   4.308   2.228 -1.9580 -0.0509 -0.5055
   13CHTO  H208 5117   7.643   4.162   2.322  1.4802  2.3891 -0.1917
   13CHTO   O74 5118   7.115   4.315   2.416 -0.1312  0.1012  0.1465
   13CHTO  C115 5119   7.033   4.436   2.336  0.2113 -0.0699  0.4042
   13CHTO  H219 5120   7.096   4.484   2.262  2.8100 -2.0852  1.2136
   13CHTO   O76 5121   6.910   4.375   2.239  0.2940 -0.2186  0.2017
   13CHTO  C122 5122   6.794   4.349   2.312  0.2634 -0.0680  0.4590
   13CHTO  H226 5123   6.807   4.254   2.364 -1.0138 -0.9690 -0.8268
   13CHTO  C126 5124   6.681   4.325   2.214  0.2631  0.0713 -0.6045
   13CHTO   O85 5125   6.663   4.427   2.115 -0.4982 -0.1071 -0.1041
   13CHTO  H206 5126   6.660   4.384   2.032 -0.4889  2.1148 -1.2985
   13CHTO  C121 5127   6.744   4.453   2.421 -0.0147  0.0111 -0.1871
   13CHTO  H225 5128   6.641   4.482   2.390  0.6726  1.3672 -1.2978
   13CHTO   O81 5129   6.736   4.392   2.553 -0.0483 -0.2393  0.0515
   13CHTO  H202 5130   6.790   4.441   2.612 -0.3969  0.1722  0.0352
   13CHTO  C119 5131   6.829   4.587   2.412 -0.1370  0.2905  0.1615
   13CHTO  H223 5132   6.826   4.616   2.308  1.6616  1.5352  0.4315
   13CHTO  C117 5133   6.979   4.542   2.446  0.2352  0.2466 -0.9402
   13CHTO  H221 5134   7.001   4.493   2.541 -2.1074  1.5069  0.3133
   13CHTO   N20 5135   7.064   4.666   2.449 -0.3197  0.3530  0.2089
   13CHTO  H209 5136   7.061   4.713   2.352 -1.0196 -1.3270 -0.6041
   13CHTO  H210 5137   7.170   4.653   2.465 -0.1240 -0.0238 -1.3445
   13CHTO   O80 5138   6.755   4.721   2.493  0.5738  0.2232 -0.0535
   13CHTO  C103 5139   6.617   4.765   2.441 -0.2412  0.1167  0.4697
   13CHTO  H190 5140   6.605   4.872   2.461 -0.7510 -0.0385  1.0165
   13CHTO  C101 5141   6.586   4.734   2.292  0.2475 -0.4057  0.0638
   13CHTO  H188 5142   6.571   4.629   2.268  3.9915 -1.0616  0.3295
   13CHTO   O68 5143   6.703   4.804   2.182  0.0670 -0.0318 -0.3145
   13CHTO  H168 5144   6.672   4.795   2.094  0.4962  2.6127 -0.7686
   13CHTO   C99 5145   6.442   4.788   2.263  0.0969  0.3802 -0.9838
   13CHTO  H186 5146   6.430   4.891   2.302  0.7986  0.2805 -0.4929
   13CHTO   N17 5147   6.410   4.795   2.122  0.5925 -0.1921 -0.5168
   13CHTO  H174 5148   6.481   4.861   2.075  0.6542  0.7346  0.8524
   13CHTO  H175 5149   6.308   4.799   2.087 -0.0524 -1.8447  1.0717
   13CHTO   C97 5150   6.345   4.701   2.351  0.0246  0.4921 -0.5661
   13CHTO  H184 5151   6.357   4.594   2.328 -3.5526 -0.1980  0.4445
   13CHTO   O64 5152   6.379   4.733   2.488 -0.0502  0.4506 -0.5530
   13CHTO  C104 5153   6.508   4.689   2.531 -0.1942 -0.4922  0.0551
   13CHTO  H191 5154   6.517   4.581   2.527 -2.1600 -0.6832  0.5388
   13CHTO  C108 5155   6.521   4.732   2.678 -0.1978 -0.1462  0.5794
   13CHTO   O71 5156   6.434   4.665   2.770 -0.2915  0.9046 -0.3325
   13CHTO  H171 5157   6.470   4.682   2.854 -2.8011  0.4589  0.9008
   13CHTO   O62 5158   6.210   4.737   2.327 -0.0367  0.1113  0.5979
   13CHTO   C91 5159   6.113   4.633   2.321 -0.1067 -0.5383 -0.2414
   13CHTO  H178 5160   6.159   4.536   2.338  2.3296  0.6530  0.2198
   13CHTO   C92 5161   6.033   4.621   2.188  0.4403 -0.1580 -0.5249
   13CHTO  H179 5162   5.987   4.717   2.159  0.6325  0.3216  0.7273
   13CHTO   O66 5163   6.123   4.594   2.080 -0.1584 -0.2555  0.1765
   13CHTO  H166 5164   6.150   4.505   2.073 -1.4105 -0.4915 -2.0442
   13CHTO   C93 5165   5.925   4.503   2.194 -0.1065 -0.8380 -0.1473
   13CHTO  H180 5166   5.978   4.407   2.199 -0.5331 -1.0856 -0.3249
   13CHTO   N16 5167   5.838   4.492   2.070 -0.2081  0.0619  0.1960
   13CHTO  H172 5168   5.849   4.567   1.993  3.7466 -0.0518  0.5711
   13CHTO  H173 5169   5.737   4.465   2.096  0.1243  0.4310  1.9397
   13CHTO   C94 5170   5.842   4.516   2.327  0.2340 -0.2491 -0.3061
   13CHTO  H181 5171   5.791   4.612   2.334 -1.1031 -0.8437 -1.6500
   13CHTO   O61 5172   5.925   4.517   2.445  0.1749  0.2626 -0.4442
   13CHTO   C95 5173   6.006   4.638   2.444  0.0988 -0.6941  0.0902
   13CHTO  H182 5174   5.944   4.727   2.437  0.3986 -0.5543 -0.7763
   13CHTO  C106 5175   6.069   4.656   2.589 -0.7121 -0.5414  0.5103
   13CHTO   O69 5176   5.968   4.653   2.687  0.0526 -0.1941  0.3760
   13CHTO  H169 5177   5.988   4.674   2.776  1.8420  0.6575 -0.1947
   13CHTO   O63 5178   5.731   4.399   2.351  0.0828 -0.4857 -0.3681
   13CHTO   C96 5179   5.604   4.467   2.413 -0.4307 -0.9068  0.1744
   13CHTO  H183 5180   5.603   4.574   2.389 -1.9206 -0.7033  1.0966
   13CHTO   C98 5181   5.605   4.473   2.571  0.4177 -1.2189  0.2878
   13CHTO  H185 5182   5.698   4.527   2.594 -0.1225 -1.3810  3.0093
   13CHTO   O67 5183   5.495   4.549   2.617  0.6605 -0.0188  0.0810
   13CHTO  H167 5184   5.520   4.615   2.679 -1.3035  0.0398  0.8385
   13CHTO  C102 5185   5.602   4.326   2.627 -0.3461  0.7607 -0.4195
   13CHTO  H189 5186   5.569   4.339   2.731  0.7817 -0.4089  0.1052
   13CHTO   N18 5187   5.737   4.263   2.646 -0.2338  0.0414 -0.0768
   13CHTO  H176 5188   5.824   4.318   2.610 -0.7841  1.6561  1.0354
   13CHTO  H177 5189   5.749   4.160   2.614  1.3993  0.4754 -0.9603
   13CHTO  C105 5190   5.491   4.239   2.557  1.0799  0.1382 -0.6626
   13CHTO  H192 5191   5.541   4.156   2.509 -0.5629 -0.8044 -0.7969
   13CHTO   O65 5192   5.408   4.315   2.464  0.7386  0.2214 -0.0310
   13CHTO  C100 5193   5.471   4.392   2.360  0.1402  0.1234 -0.1953
   13CHTO  H187 5194   5.503   4.324   2.279  0.9174  1.1459 -0.7637
   13CHTO  C107 5195   5.359   4.489   2.304 -0.3304 -0.2295 -0.3962
   13CHTO   O70 5196   5.267   4.403   2.237  0.6259  0.2346  0.4570
   13CHTO  H170 5197   5.178   4.425   2.257  0.3677 -1.0180  0.7262
   13CHTO   O57 5198   5.393   4.176   2.677  0.2024 -0.6585  0.6795
   13CHTO   C85 5199   5.331   4.050   2.657  0.1275 -0.5780  0.4404
   13CHTO  H157 5200   5.371   3.993   2.569 -0.0381  0.8183 -0.5558
   13CHTO   C83 5201   5.178   4.077   2.624  0.1432  0.1831  0.1852
   13CHTO  H155 5202   5.172   4.115   2.522 -2.1106 -1.0641 -0.2069
   13CHTO   O56 5203   5.133   4.183   2.709 -0.3202 -0.3827  0.7952
   13CHTO  H135 5204   5.198   4.247   2.730  0.3118 -0.6659 -0.2784
   13CHTO   C81 5205   5.092   3.948   2.635 -0.4657 -0.3457 -0.3161
   13CHTO  H153 5206   5.131   3.878   2.561 -0.1659 -0.8843  0.3508
   13CHTO   N14 5207   4.951   3.979   2.599  0.0382  0.6383 -0.2616
   13CHTO  H141 5208   4.904   4.053   2.660 -0.3884  2.0727 -2.2833
   13CHTO  H142 5209   4.890   3.891   2.595 -0.3450  0.9333 -0.9098
   13CHTO   C79 5210   5.114   3.882   2.773 -1.0683 -0.3853  0.3617
   13CHTO  H151 5211   5.061   3.786   2.771 -0.3780 -0.7502 -0.4055
   13CHTO   O52 5212   5.252   3.850   2.803 -0.3462 -0.2800 -0.2659
   13CHTO   C86 5213   5.338   3.966   2.792  0.1052 -0.4108 -0.3726
   13CHTO  H158 5214   5.310   4.024   2.883  1.3656 -1.0651  0.4470
   13CHTO   C90 5215   5.481   3.917   2.813  0.6107 -0.7760  0.5072
   13CHTO   O60 5216   5.545   3.835   2.709 -0.3319 -0.7976  0.2097
   13CHTO  H138 5217   5.487   3.784   2.655 -0.1718 -1.2883  0.4949
   13CHTO   O50 5218   5.066   3.961   2.885  0.5003 -0.7660 -0.1866
   13CHTO   C73 5219   4.999   3.920   3.007  0.7244 -0.2945 -0.6265
   13CHTO  H145 5220   4.973   3.813   3.000 -2.5641  0.4443 -0.0988
   13CHTO   C74 5221   4.862   4.011   3.014 -0.4108  0.1090  0.3014
   13CHTO  H146 5222   4.809   3.990   2.919 -0.9289  2.3637  0.0828
   13CHTO   O54 5223   4.782   3.976   3.125  0.4097  0.4839 -0.1725
   13CHTO  H133 5224   4.744   3.892   3.110  0.5176  0.3129  0.4910
   13CHTO   C75 5225   4.908   4.155   3.021  0.2723 -0.3274  0.1199
   13CHTO  H147 5226   4.953   4.184   2.924 -0.4372  0.6525  0.0739
   13CHTO   N13 5227   4.802   4.264   3.029 -0.1391  0.4290  1.4078
   13CHTO  H139 5228   4.751   4.289   2.937  0.8539 -0.8195  0.5070
   13CHTO  H140 5229   4.737   4.255   3.115 -2.1065  0.3989 -0.0634
   13CHTO   C76 5230   5.023   4.189   3.128 -0.1382  0.5758 -0.4539
   13CHTO  H148 5231   4.984   4.183   3.230  0.7752 -0.4032 -0.1581
   13CHTO   O49 5232   5.126   4.084   3.125  0.7803  0.2721  0.4033
   13CHTO   C77 5233   5.089   3.947   3.129  0.7457  0.1189  0.1710
   13CHTO  H149 5234   5.028   3.929   3.218  0.3327  2.1056  0.3015
   13CHTO   C88 5235   5.225   3.879   3.127  0.1625  0.1040  0.6145
   13CHTO   O58 5236   5.222   3.747   3.100  0.2772  0.4561 -0.4552
   13CHTO  H136 5237   5.306   3.713   3.122 -0.2979 -0.3389  0.5594
   13CHTO   O51 5238   5.116   4.320   3.102 -0.4216 -0.2458  0.2238
   13CHTO   C78 5239   5.164   4.386   3.245 -0.0292 -0.0452  0.0235
   13CHTO  H150 5240   5.138   4.327   3.335  0.1956  1.7075  1.2606
   13CHTO   C80 5241   5.105   4.526   3.265 -0.0394  0.1836 -0.0284
   13CHTO  H152 5242   5.124   4.588   3.175  0.6264 -1.6773 -1.2041
   13CHTO   O55 5243   4.966   4.507   3.248  0.0508 -0.6875  0.3779
   13CHTO  H134 5244   4.926   4.444   3.305  1.1680 -1.3624  0.4318
   13CHTO   C84 5245   5.163   4.588   3.402  0.2771  0.3760 -0.3017
   13CHTO  H156 5246   5.131   4.522   3.482 -0.2345 -0.6333 -1.3219
   13CHTO   N15 5247   5.110   4.725   3.428  0.3047  0.0121 -0.5606
   13CHTO  H143 5248   5.175   4.775   3.497  0.0050 -1.4531  0.8095
   13CHTO  H144 5249   5.093   4.789   3.344  0.6820  0.9604  0.0698
   13CHTO   C87 5250   5.320   4.585   3.412  0.6079  0.3016 -0.4838
   13CHTO  H159 5251   5.374   4.661   3.355  0.7599 -0.5395 -1.4941
   13CHTO   O53 5252   5.362   4.443   3.370  0.2287 -0.0377  0.1421
   13CHTO   C82 5253   5.316   4.398   3.244 -0.2126  0.7662 -0.5370
   13CHTO  H154 5254   5.358   4.459   3.164  1.2284  1.0589  0.4223
   13CHTO   C89 5255   5.383   4.255   3.226  0.2333 -0.4077  0.0489
   13CHTO   O59 5256   5.356   4.173   3.343 -0.2890 -0.4558 -0.2466
   13CHTO  H137 5257   5.335   4.084   3.322  1.6864 -0.5009 -2.1992
   13CHTO   O45 5258   5.376   4.611   3.553 -0.1244  0.6168 -0.1212
   13CHTO   C67 5259   5.517   4.609   3.557  0.4713  0.2584  0.1573
   13CHTO  H124 5260   5.553   4.549   3.473 -0.4691  1.4344 -1.0963
   13CHTO   C65 5261   5.593   4.750   3.543  0.5113 -0.0842  0.3996
   13CHTO  H122 5262   5.522   4.824   3.579 -0.1492 -1.0740  1.1507
   13CHTO   O44 5263   5.610   4.781   3.402  0.3802  0.3627  0.2112
   13CHTO  H102 5264   5.639   4.709   3.350 -0.7977 -0.3376  0.5224
   13CHTO   C63 5265   5.720   4.756   3.631  0.5285 -0.5135  0.0311
   13CHTO  H120 5266   5.693   4.773   3.735 -0.8726 -2.0158 -0.0707
   13CHTO   N11 5267   5.813   4.866   3.610  0.2567 -0.0078  0.2042
   13CHTO  H108 5268   5.881   4.871   3.692 -0.9105 -2.1014  1.3515
   13CHTO  H109 5269   5.777   4.959   3.571  0.9687  0.3898  0.4886
   13CHTO   C61 5270   5.796   4.619   3.633 -0.0813  0.4868  0.3726
   13CHTO  H118 5271   5.876   4.631   3.708  0.0508  0.2394  0.2719
   13CHTO   O40 5272   5.709   4.519   3.685  0.2192  0.5165 -0.3930
   13CHTO   C68 5273   5.559   4.531   3.683  0.1328 -0.3829  0.3808
   13CHTO  H125 5274   5.526   4.590   3.771 -0.5471 -0.5461  0.2402
   13CHTO   C72 5275   5.502   4.381   3.696  0.5164  0.4173 -0.2671
   13CHTO   O48 5276   5.536   4.298   3.586  0.3995  0.6454  0.3404
   13CHTO  H105 5277   5.472   4.320   3.521  1.1787 -0.3001 -0.7629
   13CHTO   O38 5278   5.854   4.573   3.508  0.0796  0.0041  0.0596
   13CHTO   C55 5279   5.960   4.483   3.510  0.1993 -0.0072 -0.4691
   13CHTO  H112 5280   5.973   4.444   3.408 -0.7289 -0.4292 -0.4289
   13CHTO   C56 5281   5.940   4.359   3.615  0.4632 -0.1150  0.3077
   13CHTO  H113 5282   5.935   4.401   3.716 -0.1923  1.0379 -0.1926
   13CHTO   O42 5283   5.815   4.293   3.593 -0.0448  0.3724 -0.2228
   13CHTO  H100 5284   5.802   4.221   3.652  3.5223 -0.2166 -0.0338
   13CHTO   C57 5285   6.067   4.264   3.600  0.0443 -0.5944 -0.4518
   13CHTO  H114 5286   6.073   4.218   3.501 -1.2851 -1.4261 -0.1595
   13CHTO   N10 5287   6.060   4.144   3.691 -0.1173 -0.1323 -0.0944
   13CHTO  H106 5288   5.998   4.153   3.779  1.9507 -1.2185  1.5203
   13CHTO  H107 5289   6.148   4.088   3.718  0.3299  0.9981  0.8308
   13CHTO   C58 5290   6.199   4.345   3.609  1.1661 -0.8175  0.2488
   13CHTO  H115 5291   6.212   4.386   3.712 -0.1415  0.9983 -0.2869
   13CHTO   O37 5292   6.205   4.464   3.522  0.5015  1.0966 -0.5717
   13CHTO   C59 5293   6.097   4.552   3.534 -0.0143  0.3229  0.0999
   13CHTO  H116 5294   6.097   4.613   3.624  0.1574  1.1003 -0.4167
   13CHTO   C70 5295   6.109   4.644   3.414  0.2716 -0.1851  0.7427
   13CHTO   O46 5296   6.242   4.677   3.378  0.0923 -0.5598 -0.0079
   13CHTO  H103 5297   6.272   4.651   3.293  1.2706  1.2985 -0.1925
   13CHTO   O39 5298   6.327   4.262   3.554  0.3489  0.1916  0.5094
   13CHTO   C60 5299   6.441   4.267   3.635 -0.7057  0.1831  0.2951
   13CHTO  H117 5300   6.418   4.338   3.714 -0.9410  0.0663  0.3321
   13CHTO   C62 5301   6.474   4.126   3.696  0.0841  0.5044 -0.6516
   13CHTO  H119 5302   6.386   4.092   3.753  0.6837  0.0187 -0.0096
   13CHTO   O43 5303   6.493   4.030   3.594 -0.3688  0.6996  0.1177
   13CHTO  H101 5304   6.525   3.950   3.632  1.9985  0.7125 -1.7045
   13CHTO   C66 5305   6.605   4.162   3.785  0.5909  0.1962  0.5019
   13CHTO  H123 5306   6.586   4.252   3.842 -0.0825 -0.5982  1.5481
   13CHTO   N12 5307   6.641   4.047   3.873 -0.3214 -0.1295  0.1781
   13CHTO  H110 5308   6.662   3.954   3.823 -0.7120 -0.3338  0.3880
   13CHTO  H111 5309   6.726   4.072   3.936 -0.2925  1.7429 -0.5821
   13CHTO   C69 5310   6.717   4.203   3.687  0.5031 -0.3675 -0.9575
   13CHTO  H126 5311   6.730   4.123   3.612  1.8798 -0.0942 -1.0219
   13CHTO   O41 5312   6.669   4.348   3.615  0.0429  0.8751 -0.0001
   13CHTO   C64 5313   6.548   4.331   3.543  0.1002 -0.7768 -0.4070
   13CHTO  H121 5314   6.565   4.259   3.460  0.9206 -0.4004 -0.5623
   13CHTO   C71 5315   6.521   4.459   3.480  0.5396  0.3034  0.1469
   13CHTO   O47 5316   6.505   4.575   3.570  0.0873 -0.0901 -0.0791
   13CHTO  H104 5317   6.442   4.633   3.532 -0.7185  0.1450  1.5717
   13CHTO   O34 5318   6.853   4.237   3.764 -0.0071 -0.1659 -0.4002
   13CHTO   C49 5319   6.981   4.314   3.771  0.0279  0.0870  0.7209
   13CHTO   H91 5320   7.045   4.269   3.694  1.8475 -1.8377  3.2802
   13CHTO   C47 5321   7.034   4.282   3.912 -0.6832  0.1142  0.0141
   13CHTO   H89 5322   7.138   4.317   3.928 -0.3797 -1.5865  2.0932
   13CHTO   O33 5323   7.044   4.136   3.928  0.8191 -0.0265 -0.3639
   13CHTO   H70 5324   6.978   4.104   3.986  0.7030  2.1273  0.7056
   13CHTO   C45 5325   6.935   4.352   4.021  0.2155  0.7270 -0.1573
   13CHTO   H87 5326   6.848   4.287   4.033  0.7550 -0.0920 -0.6526
   13CHTO    N8 5327   7.006   4.353   4.150  0.4645  0.3696  0.2213
   13CHTO   H75 5328   7.073   4.438   4.161  0.9309 -0.0414  0.5723
   13CHTO   H76 5329   6.937   4.361   4.232 -0.2729  1.3165 -0.4644
   13CHTO   C43 5330   6.868   4.489   3.963  0.2800 -0.1134 -0.7137
   13CHTO   H85 5331   6.769   4.461   3.927 -0.3120  0.3077  0.5573
   13CHTO   O29 5332   6.950   4.551   3.862  0.0060  0.2607 -0.0536
   13CHTO   C50 5333   6.978   4.465   3.751 -0.4003  0.0948  0.0933
   13CHTO   H92 5334   6.894   4.482   3.682  0.0260 -3.8015 -1.5157
   13CHTO   C54 5335   7.093   4.515   3.666 -0.2036  0.6536  0.6613
   13CHTO   O36 5336   7.078   4.655   3.625 -1.0943 -0.3935 -0.2589
   13CHTO   H72 5337   7.067   4.667   3.533 -0.4508 -0.1375 -0.3042
   13CHTO   O27 5338   6.838   4.580   4.069 -0.5221 -0.3339 -0.1181
   13CHTO   C37 5339   6.761   4.702   4.078 -0.3007  0.0881 -0.3867
   13CHTO   H79 5340   6.653   4.683   4.081 -0.3667  0.7120  3.0788
   13CHTO   C38 5341   6.792   4.757   4.218  1.0547 -0.3518  0.7034
   13CHTO   H80 5342   6.901   4.761   4.234  1.2064  0.3773 -0.4704
   13CHTO   O31 5343   6.735   4.664   4.306 -0.1568 -0.1360 -0.7606
   13CHTO   H68 5344   6.795   4.609   4.354 -0.5784  1.4176  1.6257
   13CHTO   C39 5345   6.719   4.896   4.242  0.6933  0.1664 -0.3790
   13CHTO   H81 5346   6.612   4.879   4.236  0.6223  0.2905  0.5026
   13CHTO    N7 5347   6.743   4.966   4.373 -0.5236 -0.1370 -0.0490
   13CHTO   H73 5348   6.697   4.915   4.456  0.3275 -0.2397  0.3707
   13CHTO   H74 5349   6.850   4.964   4.391 -0.4116 -2.5209 -0.8400
   13CHTO   C40 5350   6.739   4.999   4.127 -0.1101  0.4473  0.1277
   13CHTO   H82 5351   6.838   5.046   4.129  0.3450 -0.4780 -0.0220
   13CHTO   O26 5352   6.708   4.928   4.001 -0.1634  0.6708 -0.5014
   13CHTO   C41 5353   6.793   4.816   3.972  0.5711 -0.2979 -0.0033
   13CHTO   H83 5354   6.899   4.842   3.983  0.5325 -1.4572  4.0277
   13CHTO   C52 5355   6.755   4.794   3.828 -0.3129  0.0566 -0.4877
   13CHTO   O35 5356   6.831   4.874   3.731 -0.2107  0.1749  0.2484
   13CHTO   H71 5357   6.780   4.887   3.653  0.9713 -0.2108 -0.6213
   13CHTO   O28 5358   6.637   5.098   4.125  0.0816  0.9308 -0.2178
   13CHTO   C42 5359   6.677   5.232   4.073  0.2151 -0.3741 -0.2308
   13CHTO   H84 5360   6.750   5.203   3.997  0.7221 -0.7726  0.4078
   13CHTO   C44 5361   6.746   5.326   4.156  0.4505  0.2132 -0.2574
   13CHTO   H86 5362   6.676   5.369   4.228  0.9492  0.1204  0.2880
   13CHTO   O32 5363   6.848   5.267   4.228 -0.4183  0.0517 -0.4651
   13CHTO   H69 5364   6.814   5.219   4.302  0.1738 -0.7779 -0.7240
   13CHTO   C48 5365   6.808   5.452   4.074  0.5399 -0.0165 -0.4533
   13CHTO   H90 5366   6.871   5.409   3.997  0.9356 -0.0084 -0.1351
   13CHTO    N9 5367   6.888   5.550   4.148 -0.9632 -0.2006 -0.2615
   13CHTO   H77 5368   6.980   5.566   4.095  0.3580  0.2484  2.0853
   13CHTO   H78 5369   6.840   5.646   4.161  0.2038  0.6144 -1.8746
   13CHTO   C51 5370   6.677   5.516   4.012  0.6262  0.1995  0.9793
   13CHTO   H93 5371   6.614   5.548   4.095  0.3011 -0.0451  0.8274
   13CHTO   O30 5372   6.609   5.415   3.932  0.1146 -0.0019 -0.6444
   13CHTO   C46 5373   6.561   5.305   4.008  0.2334  0.1569 -0.4287
   13CHTO   H88 5374   6.496   5.339   4.089 -2.2327 -0.9650 -1.8658
   13CHTO   C53 5375   6.485   5.210   3.913 -0.6535 -0.7602  0.5662
   13CHTO   O72 5376   6.413   5.109   3.982  0.7183 -0.2596 -0.2031
   13CHTO  H199 5377   6.336   5.140   4.027 -0.4406 -3.8156  0.4401
   13CHTO   O22 5378   6.691   5.623   3.917 -0.0106 -0.3677 -0.4632
   13CHTO   C31 5379   6.568   5.707   3.892 -0.4393  0.2644 -0.1007
   13CHTO   H59 5380   6.482   5.637   3.885 -1.0421  1.1541 -1.8739
   13CHTO   C29 5381   6.534   5.817   3.999 -0.0181 -0.3483 -0.1126
   13CHTO   H57 5382   6.619   5.887   4.000  1.3631 -1.9887  2.8548
   13CHTO   O21 5383   6.519   5.769   4.132  0.4236 -0.2304  0.2041
   13CHTO   H37 5384   6.602   5.771   4.175  0.5146  1.9316  0.0120
   13CHTO   C27 5385   6.398   5.903   3.955 -0.7110 -0.0317  0.5088
   13CHTO   H55 5386   6.311   5.836   3.955 -1.6368  1.1143 -1.7397
   13CHTO    N5 5387   6.367   6.014   4.046 -0.1116 -0.1278 -0.3349
   13CHTO   H43 5388   6.454   6.078   4.054 -0.6182  0.4695  0.4486
   13CHTO   H44 5389   6.293   6.082   4.006  0.5502  0.9947  0.3224
   13CHTO   C25 5390   6.417   5.953   3.804  0.6235  0.0219 -0.1425
   13CHTO   H53 5391   6.494   6.031   3.801  0.9653 -0.3286 -0.7429
   13CHTO   O17 5392   6.448   5.838   3.718  0.1467 -0.3051 -0.3197
   13CHTO   C32 5393   6.570   5.773   3.749 -0.9851  0.4237  0.2073
   13CHTO   H60 5394   6.663   5.831   3.743 -2.0171  1.8469 -2.6436
   13CHTO   C36 5395   6.576   5.664   3.642 -0.1305 -0.6816  0.6569
   13CHTO   O25 5396   6.710   5.605   3.638 -0.3734  0.4746  0.4024
   13CHTO   H40 5397   6.712   5.546   3.710  2.8162  0.1590  0.1304
   13CHTO   O15 5398   6.285   6.015   3.738 -0.4171 -0.7701  0.5721
   13CHTO   C19 5399   6.171   6.109   3.753  0.4903  0.6103  0.0630
   13CHTO   H47 5400   6.187   6.150   3.854 -3.1799 -0.5406  1.2132
   13CHTO   C20 5401   6.169   6.226   3.652 -0.5714  0.3160  0.3845
   13CHTO   H48 5402   6.156   6.196   3.547 -1.6878  0.5284  0.4515
   13CHTO   O19 5403   6.301   6.287   3.664 -0.3815  0.1665  0.4688
   13CHTO   H35 5404   6.351   6.257   3.590 -1.4013 -0.2672 -0.0593
   13CHTO   C21 5405   6.047   6.320   3.681  0.1571 -0.6125  0.3218
   13CHTO   H49 5406   6.062   6.361   3.781  0.4288  2.1405 -0.8117
   13CHTO    N4 5407   6.033   6.426   3.577  0.7955 -0.2388 -0.4189
   13CHTO   H41 5408   6.029   6.515   3.637 -0.4646 -0.8341  0.3855
   13CHTO   H42 5409   5.941   6.407   3.523  0.7940 -3.7275  0.6612
   13CHTO   C22 5410   5.913   6.242   3.704  0.0091 -0.6227  0.0885
   13CHTO   H50 5411   5.880   6.207   3.607 -3.5463  1.7474  0.3333
   13CHTO   O14 5412   5.937   6.135   3.795 -0.4745 -0.3402  0.6786
   13CHTO   C23 5413   6.036   6.035   3.756 -0.6676 -0.6877  0.1695
   13CHTO   H51 5414   6.010   5.998   3.656 -0.0910 -0.4969 -0.0565
   13CHTO   C34 5415   6.024   5.925   3.867 -0.2100  0.3049  0.6476
   13CHTO   O23 5416   6.097   5.813   3.823  0.1633 -0.2680 -0.2739
   13CHTO   H38 5417   6.068   5.786   3.738  0.9790 -0.2967 -0.5403
   13CHTO   O16 5418   5.815   6.318   3.771 -0.1153 -1.2146 -0.5494
   13CHTO   C24 5419   5.657   6.280   3.754  0.3005 -0.3418  0.5786
   13CHTO   H52 5420   5.639   6.193   3.692  0.3079 -1.2520  1.8319
   13CHTO   C26 5421   5.580   6.395   3.695  0.0002  0.5748  0.5173
   13CHTO   H54 5422   5.608   6.489   3.748  1.0841  0.3616  0.3352
   13CHTO   O20 5423   5.641   6.407   3.562  0.0391  0.3342 -0.1587
   13CHTO   H36 5424   5.578   6.449   3.506 -1.4225 -0.8117  0.5901
   13CHTO   C30 5425   5.430   6.367   3.684  0.1690 -0.2846  0.0362
   13CHTO   H58 5426   5.415   6.282   3.616  1.1344  1.4105 -2.3852
   13CHTO    N6 5427   5.357   6.480   3.616 -0.0626  0.0380 -0.3199
   13CHTO   H45 5428   5.385   6.574   3.661  1.7762  0.0404 -1.3860
   13CHTO   H46 5429   5.250   6.471   3.614  0.0634 -2.2529  1.1448
   13CHTO   C33 5430   5.374   6.333   3.825  0.0107 -0.0214  0.0583
   13CHTO   H61 5431   5.380   6.425   3.885 -1.6908  1.8579 -2.5918
   13CHTO   O18 5432   5.452   6.227   3.885  0.6859  1.1120 -0.0278
   13CHTO   C28 5433   5.597   6.247   3.890  0.1151 -0.7531 -0.6549
   13CHTO   H56 5434   5.606   6.339   3.949 -1.2735 -0.8730 -0.2366
   13CHTO   C35 5435   5.663   6.135   3.969 -0.0424  0.3180 -0.4017
   13CHTO   O24 5436   5.657   6.005   3.913  0.9427  0.0159  0.0766
   13CHTO   H39 5437   5.641   6.011   3.821  1.5575  1.4905  0.0498
   13CHTO    O9 5438   5.231   6.303   3.822  0.0670  0.3865  0.5951
   13CHTO   C13 5439   5.147   6.346   3.945 -0.3386 -0.4587  0.2738
   13CHTO   H26 5440   5.167   6.453   3.966  0.0021 -0.4813  0.0823
   13CHTO   C11 5441   5.172   6.254   4.073 -0.0903  0.3800  0.7250
   13CHTO   H24 5442   5.278   6.266   4.103  0.3398 -2.4896  0.4581
   13CHTO    O8 5443   5.157   6.118   4.030 -0.0286 -0.2324 -0.2217
   13CHTO    H3 5444   5.067   6.091   4.033 -0.3752  1.0027  1.2543
   13CHTO    C9 5445   5.081   6.300   4.190 -0.0876  0.5483 -0.1402
   13CHTO   H22 5446   5.124   6.396   4.222 -2.1134  1.7735 -1.0020
   13CHTO    N2 5447   5.092   6.216   4.313  0.9107 -0.0475  0.0687
   13CHTO   H10 5448   5.030   6.247   4.396 -0.9358 -0.9601 -0.9306
   13CHTO   H11 5449   5.190   6.174   4.329  1.3472  0.9699  0.0777
   13CHTO    C7 5450   4.926   6.317   4.141 -0.7789  0.8088 -0.0549
   13CHTO   H20 5451   4.899   6.390   4.221 -0.1830 -1.5908  2.4315
   13CHTO    O4 5452   4.903   6.380   4.013  0.0384  0.3289 -0.6107
   13CHTO   C14 5453   4.989   6.355   3.901 -0.0768  0.4135  0.0803
   13CHTO   H27 5454   4.971   6.436   3.827 -0.9105  1.6464  1.6205
   13CHTO   C18 5455   4.944   6.222   3.838 -0.4410 -0.8158  0.4290
   13CHTO   O13 5456   5.009   6.205   3.709 -0.0558 -0.1728  0.1959
   13CHTO    H7 5457   4.943   6.179   3.647  1.1361  2.2191 -2.2017
   13CHTO    O2 5458   4.843   6.192   4.154 -0.1530  0.6910  0.3799
   13CHTO    C1 5459   4.723   6.205   4.233 -0.4264 -0.2354  0.0985
   13CHTO   H14 5460   4.721   6.305   4.281 -1.3790 -0.7016  1.0510
   13CHTO    C2 5461   4.717   6.096   4.345  0.1497  0.6590 -0.0827
   13CHTO   H15 5462   4.740   5.997   4.303 -0.1627  0.5971 -0.1072
   13CHTO    O6 5463   4.811   6.130   4.447  0.2059 -0.4091  0.5369
   13CHTO    H1 5464   4.842   6.219   4.439 -0.6692 -0.2228 -0.8848
   13CHTO    C3 5465   4.570   6.095   4.412 -0.1470 -0.3261  0.4069
   13CHTO   H16 5466   4.564   6.186   4.474  1.4093  0.8127 -1.0638
   13CHTO    N1 5467   4.561   5.984   4.508 -0.0189  0.5153  0.2028
   13CHTO    H8 5468   4.649   5.980   4.569 -0.3471 -2.8537  0.5211
   13CHTO    H9 5469   4.475   6.002   4.571 -0.4138 -1.8205  0.3487
   13CHTO    C4 5470   4.459   6.098   4.303 -0.1512  0.0295  0.3422
   13CHTO   H17 5471   4.447   5.998   4.261  3.8973 -0.9467  1.2758
   13CHTO    O1 5472   4.478   6.204   4.210  0.1895 -0.2137  0.2136
   13CHTO    C5 5473   4.598   6.191   4.136  0.3651  0.2856  0.5167
   13CHTO   H18 5474   4.613   6.091   4.094  0.0921 -0.0372  1.1984
   13CHTO   C16 5475   4.590   6.293   4.016 -0.5104 -0.4352 -0.3663
   13CHTO   O11 5476   4.600   6.426   4.062 -0.0521 -0.3059 -0.9337
   13CHTO    H5 5477   4.619   6.485   3.991  1.9549  0.6060  0.3203
   13CHTO    O3 5478   4.337   6.135   4.367  0.6329 -0.6027  0.3023
   13CHTO    C6 5479   4.211   6.088   4.298 -0.4265 -0.2092 -0.0274
   13CHTO   H19 5480   4.220   6.029   4.207 -1.4764  1.1671 -1.0415
   13CHTO    C8 5481   4.129   6.002   4.398 -0.6049  0.3477 -0.1761
   13CHTO   H21 5482   4.141   6.043   4.498  0.7710 -0.6619  0.0890
   13CHTO    O7 5483   4.180   5.871   4.391  0.2425  0.8014  0.8281
   13CHTO    H2 5484   4.147   5.811   4.454 -0.7624  0.1125 -0.3415
   13CHTO   C12 5485   3.975   6.004   4.367 -0.5503  0.0442 -0.3433
   13CHTO   H25 5486   3.970   5.949   4.272  1.9315  0.7987 -0.9608
   13CHTO    N3 5487   3.890   5.934   4.465  0.0278  0.4647 -0.5028
   13CHTO   H12 5488   3.897   5.827   4.448 -0.7684  0.5498 -1.4566
   13CHTO   H13 5489   3.909   5.951   4.570  1.2880  1.9302 -0.9538
   13CHTO   C15 5490   3.924   6.152   4.345 -0.1709 -0.2142 -0.0369
   13CHTO   H28 5491   3.935   6.219   4.430 -1.3716 -2.4866  1.9810
   13CHTO   O10 5492   3.774   6.159   4.294  0.0268  0.3289 -0.4738
   13CHTO    H4 5493   3.723   6.197   4.363 -1.5991 -0.1995 -1.3632
   13CHTO    O5 5494   3.997   6.199   4.231  0.5123 -0.4389 -0.4879
   13CHTO   C10 5495   4.135   6.216   4.258  0.1184 -0.1820 -0.1630
   13CHTO   H23 5496   4.140   6.287   4.341  1.6876 -0.2199 -0.2107
   13CHTO   C17 5497   4.192   6.281   4.134  0.0084  0.2972  0.2683
   13CHTO   O12 5498   4.145   6.418   4.122 -0.4689 -0.2618  0.0551
   13CHTO    H6 5499   4.160   6.455   4.037  3.5972 -0.0728  0.7604
   14CHTO  H203 5500   5.606   4.318   3.313 -0.2567  2.4487  2.3420
   14CHTO   O82 5501   5.698   4.305   3.306 -0.7585 -0.4906  0.1240
   14CHTO  C123 5502   5.742   4.166   3.306  0.3678  0.2923 -0.0167
   14CHTO  H227 5503   5.850   4.167   3.324  0.7681  0.8966 -2.2459
   14CHTO   O77 5504   5.677   4.095   3.412  0.7850  0.1186  0.0158
   14CHTO  C118 5505   5.725   3.960   3.432 -0.1414  0.5094  0.4372
   14CHTO  H222 5506   5.834   3.961   3.445  0.1496 -1.8348 -1.5102
   14CHTO  C125 5507   5.660   3.908   3.565 -0.0466  0.4930 -0.0668
   14CHTO   O84 5508   5.725   3.965   3.674 -0.2148 -0.4786  0.2558
   14CHTO  H205 5509   5.695   3.933   3.757 -0.3179 -3.4920 -0.8630
   14CHTO  C114 5510   5.675   3.873   3.313 -0.2698  0.3465 -0.8208
   14CHTO  H218 5511   5.567   3.885   3.301 -0.3631  0.2124 -0.1363
   14CHTO  C116 5512   5.737   3.931   3.175  0.2774  0.2810 -0.1930
   14CHTO  H220 5513   5.843   3.899   3.164 -0.4082 -1.4941 -2.1272
   14CHTO   O79 5514   5.668   3.861   3.073  0.6576  0.8847  0.0475
   14CHTO  H201 5515   5.591   3.905   3.040  0.5266  0.8305  0.2799
   14CHTO  C120 5516   5.718   4.089   3.162 -0.5658  0.3180 -0.6325
   14CHTO  H224 5517   5.610   4.097   3.138 -1.0019 -1.1365  0.7366
   14CHTO   N21 5518   5.787   4.153   3.048  0.0767 -0.2565 -0.2733
   14CHTO  H211 5519   5.826   4.247   3.083  0.4597 -0.8840  1.0250
   14CHTO  H212 5520   5.721   4.188   2.970  0.6945 -0.7926 -1.0364
   14CHTO   O75 5521   5.717   3.738   3.350  0.2019 -0.0410 -0.2898
   14CHTO  C112 5522   5.643   3.599   3.268  0.3114 -0.2684 -0.0540
   14CHTO  H216 5523   5.678   3.507   3.317  2.5642 -0.9534 -2.8069
   14CHTO   O73 5524   5.685   3.593   3.130 -0.3637 -0.0834 -0.0494
   14CHTO  C113 5525   5.629   3.482   3.053  0.4204  0.0509 -0.2969
   14CHTO  H217 5526   5.642   3.381   3.098  0.4084  0.1052 -0.1715
   14CHTO  C124 5527   5.696   3.494   2.915 -0.0012  0.1595  0.1829
   14CHTO   O83 5528   5.671   3.381   2.839 -0.4145 -0.0322 -0.1456
   14CHTO  H204 5529   5.752   3.345   2.811 -1.8405 -2.5424 -1.2424
   14CHTO  C109 5530   5.473   3.497   3.050  0.1541 -0.1940  0.3871
   14CHTO  H213 5531   5.455   3.602   3.024 -1.4213 -0.9766 -1.7873
   14CHTO  C110 5532   5.424   3.481   3.194 -0.5170  0.3520  0.0279
   14CHTO  H214 5533   5.446   3.391   3.252 -3.0072  0.6766  1.5433
   14CHTO   O78 5534   5.285   3.488   3.204 -0.2393 -0.4940 -0.7218
   14CHTO  H200 5535   5.263   3.477   3.294  1.4241  1.1437 -0.0705
   14CHTO  C111 5536   5.487   3.599   3.271  0.4971  0.4518  0.5006
   14CHTO  H215 5537   5.452   3.693   3.228  2.5635  0.8376 -0.3856
   14CHTO   N19 5538   5.459   3.618   3.417  0.4931 -0.1106  0.3096
   14CHTO  H207 5539   5.487   3.719   3.443 -2.8941  0.5558  1.7581
   14CHTO  H208 5540   5.353   3.610   3.436  0.0836 -1.5558 -2.2303
   14CHTO   O74 5541   5.401   3.417   2.957 -0.2944  0.0017 -0.9355
   14CHTO  C115 5542   5.318   3.489   2.861 -0.8730  0.0279  0.8456
   14CHTO  H219 5543   5.281   3.584   2.899 -2.3731 -0.2982  0.2172
   14CHTO   O76 5544   5.403   3.528   2.739  0.0581  0.7495 -0.5532
   14CHTO  C122 5545   5.369   3.461   2.617  0.3744  0.2005 -0.6718
   14CHTO  H226 5546   5.408   3.361   2.631  0.1388  0.3621  1.2501
   14CHTO  C126 5547   5.452   3.519   2.489 -0.9292  0.3164 -0.1682
   14CHTO   O85 5548   5.450   3.663   2.477  0.0848  0.7038 -0.1374
   14CHTO  H206 5549   5.417   3.683   2.391  0.4784 -0.3015 -0.5204
   14CHTO  C121 5550   5.215   3.458   2.582  0.6388  0.1035 -0.1309
   14CHTO  H225 5551   5.184   3.535   2.508  0.0589 -1.6822 -1.8106
   14CHTO   O81 5552   5.192   3.332   2.516  0.0357  0.7081  0.0829
   14CHTO  H202 5553   5.214   3.332   2.425  0.2906 -1.4071  0.1184
   14CHTO  C119 5554   5.120   3.474   2.706  0.3955 -0.0705  0.1275
   14CHTO  H223 5555   5.127   3.582   2.720 -1.0643 -0.0182  0.5390
   14CHTO  C117 5556   5.192   3.408   2.831  0.0230  0.5619  0.4303
   14CHTO  H221 5557   5.232   3.306   2.829 -0.2479  0.4103  1.9047
   14CHTO   N20 5558   5.100   3.407   2.949 -0.0618 -0.1733  0.3290
   14CHTO  H209 5559   5.067   3.310   2.984  0.9116 -1.1313 -1.3255
   14CHTO  H210 5560   5.006   3.455   2.928 -0.1600 -0.4078  0.2291
   14CHTO   O80 5561   4.947   3.449   2.666 -0.5553 -0.3764  0.1319
   14CHTO  C103 5562   4.873   3.565   2.589 -0.8120  0.0459  0.5495
   14CHTO  H190 5563   4.938   3.652   2.577 -1.2201  0.1999 -0.5246
   14CHTO  C101 5564   4.817   3.531   2.447 -0.1266  0.1686 -0.3802
   14CHTO  H188 5565   4.750   3.446   2.461  2.0923 -1.3198  1.5429
   14CHTO   O68 5566   4.939   3.489   2.351  0.4144 -0.4109 -0.0604
   14CHTO  H168 5567   4.918   3.415   2.297 -0.0518 -0.6184  0.4007
   14CHTO   C99 5568   4.740   3.658   2.383 -0.1030 -0.5717  0.5633
   14CHTO  H186 5569   4.822   3.730   2.367 -0.5477 -0.4121 -1.0813
   14CHTO   N17 5570   4.687   3.634   2.245  0.0981  0.2688  0.0170
   14CHTO  H174 5571   4.764   3.628   2.169 -0.1562 -0.0927 -0.2126
   14CHTO  H175 5572   4.610   3.558   2.241 -0.2694  0.5892  0.8992
   14CHTO   C97 5573   4.638   3.722   2.485  0.0522  0.3201 -0.3583
   14CHTO  H184 5574   4.545   3.663   2.490 -1.3644  2.4065 -1.2338
   14CHTO   O64 5575   4.699   3.733   2.620 -0.1679  0.1574 -0.6169
   14CHTO  C104 5576   4.756   3.617   2.678 -0.9264  0.2171  0.2570
   14CHTO  H191 5577   4.676   3.543   2.686 -1.2790  0.5035 -0.6105
   14CHTO  C108 5578   4.791   3.647   2.822 -0.4018 -0.3675 -0.7342
   14CHTO   O71 5579   4.740   3.556   2.922 -1.1946 -0.2857  0.1707
   14CHTO  H171 5580   4.756   3.466   2.901  1.3419  0.4043 -1.0789
   14CHTO   O62 5581   4.609   3.864   2.452  0.3947  0.6033 -0.5094
   14CHTO   C91 5582   4.502   3.931   2.520  0.5844 -0.0411 -0.6584
   14CHTO  H178 5583   4.424   3.859   2.545 -0.0951  1.3745  1.4168
   14CHTO   C92 5584   4.444   4.038   2.423  0.7326  0.4829  0.2968
   14CHTO  H179 5585   4.415   3.989   2.329 -1.4792  1.1148  0.6123
   14CHTO   O66 5586   4.311   4.079   2.470 -0.5092 -0.6681 -0.1603
   14CHTO  H166 5587   4.271   4.115   2.393  0.4678 -0.1277 -0.4279
   14CHTO   C93 5588   4.530   4.172   2.403 -0.3409 -0.3007 -1.1217
   14CHTO  H180 5589   4.467   4.250   2.357  0.3200  0.6213 -0.4806
   14CHTO   N16 5590   4.656   4.163   2.317  0.1618 -0.5229 -0.5792
   14CHTO  H172 5591   4.658   4.224   2.228  0.7128  0.0491 -0.1774
   14CHTO  H173 5592   4.682   4.060   2.297  1.1441 -0.1822 -1.0822
   14CHTO   C94 5593   4.570   4.231   2.551 -0.3747  0.1386  0.2924
   14CHTO  H181 5594   4.677   4.228   2.572 -0.1051 -0.5430 -1.1385
   14CHTO   O61 5595   4.513   4.150   2.658 -0.3911  0.1638  0.2615
   14CHTO   C95 5596   4.546   4.008   2.654  0.1984 -0.1879  0.1703
   14CHTO  H182 5597   4.654   3.997   2.660  0.2514 -0.4603 -1.0832
   14CHTO  C106 5598   4.487   3.937   2.781  0.2248  0.1215 -0.3246
   14CHTO   O69 5599   4.546   3.979   2.908  0.3674 -0.5196 -0.5315
   14CHTO  H169 5600   4.604   3.913   2.940  0.8041  0.1892  0.1581
   14CHTO   O63 5601   4.513   4.395   2.564  0.0804 -0.2235  0.2504
   14CHTO   C96 5602   4.621   4.487   2.593  0.2015  0.9349 -0.0739
   14CHTO  H183 5603   4.580   4.587   2.577 -2.9381 -0.4171 -0.8302
   14CHTO   C98 5604   4.752   4.482   2.494  0.0453  0.2468 -0.0878
   14CHTO  H185 5605   4.784   4.379   2.472 -1.7644 -0.4184  0.3000
   14CHTO   O67 5606   4.708   4.525   2.369  0.1493 -0.2228 -0.3404
   14CHTO  H167 5607   4.770   4.589   2.339  0.0724 -0.4005 -0.8956
   14CHTO  C102 5608   4.889   4.563   2.543 -0.0554 -0.4672  0.3350
   14CHTO  H189 5609   4.871   4.666   2.509 -1.7972 -1.9695 -3.6657
   14CHTO   N18 5610   5.013   4.522   2.474  0.3013 -0.0870 -0.1192
   14CHTO  H176 5611   5.046   4.598   2.404  2.6867  1.2498  2.3627
   14CHTO  H177 5612   5.090   4.476   2.534  0.0650 -2.3971 -1.5445
   14CHTO  C105 5613   4.900   4.557   2.697 -0.5716 -0.0115 -0.2644
   14CHTO  H192 5614   4.936   4.456   2.718 -1.4075 -0.4994 -1.1630
   14CHTO   O65 5615   4.780   4.573   2.772 -0.3472  0.2353  0.2004
   14CHTO  C100 5616   4.674   4.477   2.748 -0.3609  0.2979 -0.1390
   14CHTO  H187 5617   4.706   4.372   2.757  0.4405  0.8324  4.4070
   14CHTO  C107 5618   4.563   4.496   2.857 -0.7390  1.2921 -0.1689
   14CHTO   O70 5619   4.519   4.631   2.859 -0.6291  0.4688 -0.3764
   14CHTO  H170 5620   4.584   4.695   2.884 -0.9301  0.5335  0.2454
   14CHTO   O57 5621   5.019   4.664   2.737  0.4388  0.5832 -0.0619
   14CHTO   C85 5622   5.051   4.690   2.870 -0.5833 -0.2713  0.2828
   14CHTO  H157 5623   5.003   4.619   2.941  1.0764 -0.6042  1.1029
   14CHTO   C83 5624   4.994   4.828   2.923  0.9974 -0.1119  0.7110
   14CHTO  H155 5625   4.886   4.816   2.929  0.7833  1.2157 -0.1861
   14CHTO   O56 5626   5.014   4.937   2.824 -0.2923  0.4264 -0.0484
   14CHTO  H135 5627   5.033   5.018   2.868 -0.3678 -0.2142  1.1763
   14CHTO   C81 5628   5.048   4.840   3.070 -0.5965 -0.3258  0.6603
   14CHTO  H153 5629   5.013   4.755   3.129 -1.8052 -0.3676 -0.0996
   14CHTO   N14 5630   5.011   4.969   3.132  0.1930 -0.3571 -0.1886
   14CHTO  H141 5631   5.048   5.053   3.077  0.1785  1.5133  2.5580
   14CHTO  H142 5632   4.904   4.969   3.135  0.1328 -0.4712 -2.0247
   14CHTO   C79 5633   5.206   4.832   3.069  0.2735 -0.2228  0.0332
   14CHTO  H151 5634   5.241   4.828   3.172 -1.6450  1.5550  0.8103
   14CHTO   O52 5635   5.255   4.716   3.008  0.3172 -0.5850 -0.0588
   14CHTO   C86 5636   5.201   4.680   2.876 -0.3790  0.5986 -0.0145
   14CHTO  H158 5637   5.254   4.757   2.816  0.2527 -0.7184 -1.1512
   14CHTO   C90 5638   5.247   4.537   2.832  0.0918  0.2544 -0.0235
   14CHTO   O60 5639   5.379   4.509   2.866 -0.8638  0.3218  0.4545
   14CHTO  H138 5640   5.434   4.580   2.839  1.0584 -0.4174  2.2736
   14CHTO   O50 5641   5.271   4.941   3.008 -0.5314 -0.2082 -0.1756
   14CHTO   C73 5642   5.386   5.027   3.009 -0.4491 -0.7085 -0.2606
   14CHTO  H145 5643   5.449   5.016   3.098 -0.0697 -1.2889 -0.5981
   14CHTO   C74 5644   5.331   5.181   2.994 -0.7181 -0.5078 -0.2808
   14CHTO  H146 5645   5.267   5.208   3.079 -1.6419 -1.0079 -0.8057
   14CHTO   O54 5646   5.452   5.271   2.993  0.4596  0.5042  0.3265
   14CHTO  H133 5647   5.473   5.287   3.083 -0.6604 -0.4084  0.7688
   14CHTO   C75 5648   5.257   5.199   2.860  0.2240 -0.1535 -0.0603
   14CHTO  H147 5649   5.173   5.129   2.860 -0.4628  0.6659 -0.0592
   14CHTO   N13 5650   5.195   5.332   2.837  0.2925  0.1467  0.0545
   14CHTO  H139 5651   5.243   5.411   2.893 -0.2150  1.2432 -1.0290
   14CHTO  H140 5652   5.097   5.323   2.881  0.3824  0.6036  0.3484
   14CHTO   C76 5653   5.345   5.156   2.732  0.5380  0.4016 -0.1792
   14CHTO  H148 5654   5.419   5.233   2.713  0.5099  0.5839  0.4231
   14CHTO   O49 5655   5.404   5.027   2.758  0.1521 -0.0696  0.3951
   14CHTO   C77 5656   5.474   5.008   2.884  0.7955  0.8666 -0.6342
   14CHTO  H149 5657   5.563   5.072   2.883 -0.1940  2.3188 -3.4404
   14CHTO   C88 5658   5.530   4.863   2.889 -0.1231  0.6830  0.0532
   14CHTO   O58 5659   5.606   4.821   2.783 -0.4408  0.2157 -0.6288
   14CHTO  H136 5660   5.548   4.810   2.710  0.0983 -0.7644 -0.9124
   14CHTO   O51 5661   5.251   5.123   2.608 -0.3696 -0.2083 -0.2135
   14CHTO   C78 5662   5.345   5.116   2.462  0.5560  0.6714 -0.1533
   14CHTO  H150 5663   5.452   5.095   2.480  0.0017 -0.5848  1.8580
   14CHTO   C80 5664   5.335   5.244   2.381 -0.7654 -0.4032  0.2092
   14CHTO  H152 5665   5.228   5.275   2.381 -0.0518  2.2740 -1.7337
   14CHTO   O55 5666   5.398   5.344   2.458 -0.0253 -0.1184 -0.2307
   14CHTO  H134 5667   5.346   5.421   2.450 -1.8930 -0.9770  2.6864
   14CHTO   C84 5668   5.387   5.228   2.226  0.1404 -0.4137 -0.4036
   14CHTO  H156 5669   5.496   5.217   2.223  0.3125  0.9691  0.3775
   14CHTO   N15 5670   5.358   5.354   2.148  0.0299  0.2006 -0.0701
   14CHTO  H143 5671   5.382   5.354   2.043 -1.3386 -0.0971 -0.3962
   14CHTO  H144 5672   5.376   5.449   2.195 -2.4884  1.8906 -2.3057
   14CHTO   C87 5673   5.325   5.105   2.164  0.6423  0.7952  0.0077
   14CHTO  H159 5674   5.219   5.127   2.160  0.1892 -0.4792  3.5004
   14CHTO   O53 5675   5.345   4.982   2.261 -0.3093 -0.4301 -0.0848
   14CHTO   C82 5676   5.281   4.998   2.387  0.3388  0.2597  0.3961
   14CHTO  H154 5677   5.174   5.011   2.369  0.5307 -0.4147 -1.3937
   14CHTO   C89 5678   5.297   4.868   2.456  0.4189  0.1574  0.2197
   14CHTO   O59 5679   5.200   4.849   2.562  0.0888 -0.1760  0.5707
   14CHTO  H137 5680   5.240   4.881   2.640  0.0898  1.2380  0.0077
   14CHTO   O45 5681   5.388   5.070   2.015  0.7210  0.0688  0.5881
   14CHTO   C67 5682   5.462   4.952   2.010  0.9078  0.1686  0.3638
   14CHTO  H124 5683   5.419   4.878   2.076 -1.1428  0.7624 -0.2733
   14CHTO   C65 5684   5.453   4.902   1.866  0.4322 -0.4161 -0.1389
   14CHTO  H122 5685   5.353   4.915   1.825 -0.8888 -1.7423  2.5170
   14CHTO   O44 5686   5.477   4.763   1.866  0.4863 -0.4013 -0.2472
   14CHTO  H102 5687   5.536   4.739   1.797  0.9499  0.0449 -0.0148
   14CHTO   C63 5688   5.545   4.987   1.767  0.1329  0.3896  0.4283
   14CHTO  H120 5689   5.516   5.091   1.778 -0.5668  0.2222  0.2165
   14CHTO   N11 5690   5.525   4.958   1.622  0.5723  0.7687  0.8132
   14CHTO  H108 5691   5.432   4.907   1.607  1.7196 -0.9985 -0.5698
   14CHTO  H109 5692   5.504   5.049   1.570  1.4505  1.1581  1.1248
   14CHTO   C61 5693   5.698   4.978   1.826 -0.2077  0.5786 -0.5004
   14CHTO  H118 5694   5.763   5.042   1.764 -0.8550  1.3702 -0.3706
   14CHTO   O40 5695   5.711   5.013   1.956  0.5496  0.0496  0.1647
   14CHTO   C68 5696   5.615   4.966   2.053 -0.2543  0.2753  0.7600
   14CHTO  H125 5697   5.614   5.051   2.124  0.1404  2.6518 -2.0157
   14CHTO   C72 5698   5.658   4.834   2.125 -0.2424  0.0972 -0.3838
   14CHTO   O48 5699   5.789   4.843   2.183 -0.1668  0.5857 -0.2124
   14CHTO  H105 5700   5.773   4.831   2.275  2.1238  1.1446  0.2893
   14CHTO   O38 5701   5.755   4.844   1.813 -0.3610 -0.3746 -0.4661
   14CHTO   C55 5702   5.883   4.827   1.757  0.2920  0.4836  0.2040
   14CHTO  H112 5703   5.921   4.902   1.687  1.4036  0.7963  1.1409
   14CHTO   C56 5704   5.870   4.680   1.677 -0.1646  0.0400 -0.2242
   14CHTO  H113 5705   5.822   4.608   1.745  0.0561  0.4913  0.4130
   14CHTO   O42 5706   5.786   4.699   1.566  0.1813 -0.0217 -0.0999
   14CHTO  H100 5707   5.803   4.638   1.497  0.2087  0.5269 -0.5851
   14CHTO   C57 5708   6.018   4.629   1.632 -0.4226  0.5202 -0.3656
   14CHTO  H114 5709   6.067   4.672   1.544  2.5510 -0.7323  0.6034
   14CHTO   N10 5710   6.010   4.489   1.584 -0.5637  0.2046  0.0512
   14CHTO  H106 5711   5.986   4.487   1.479  4.0816 -1.3995 -1.0803
   14CHTO  H107 5712   6.102   4.433   1.595 -1.3331 -1.0788  0.1606
   14CHTO   C58 5713   6.117   4.636   1.754  0.3557 -0.1495 -0.2417
   14CHTO  H115 5714   6.101   4.560   1.834  0.9167  0.7410  0.7345
   14CHTO   O37 5715   6.114   4.775   1.803  1.4198  0.0923  0.4266
   14CHTO   C59 5716   5.989   4.820   1.870 -0.0115 -0.3536  0.2776
   14CHTO  H116 5717   5.961   4.745   1.944 -0.4809 -0.1667  0.2905
   14CHTO   C70 5718   6.018   4.957   1.929 -0.1734  0.1195  0.4124
   14CHTO   O46 5719   6.105   4.951   2.042 -0.2374 -0.2315 -0.0249
   14CHTO  H103 5720   6.072   4.883   2.098  1.3664 -1.2244 -0.2474
   14CHTO   O39 5721   6.262   4.628   1.699 -0.2611  0.0446  0.1497
   14CHTO   C60 5722   6.373   4.562   1.766 -0.3583 -0.3009  0.3479
   14CHTO  H117 5723   6.365   4.590   1.871  0.2192 -1.6445  0.7662
   14CHTO   C62 5724   6.367   4.409   1.750  0.0296 -0.0876 -0.0555
   14CHTO  H119 5725   6.271   4.370   1.789 -0.2603  2.7595  2.2477
   14CHTO   O43 5726   6.358   4.374   1.612  0.4075  0.1787 -0.3734
   14CHTO  H101 5727   6.267   4.387   1.590  0.3265  0.5563  0.1561
   14CHTO   C66 5728   6.491   4.342   1.830  0.3154  0.1074 -0.0145
   14CHTO  H123 5729   6.482   4.372   1.934  0.2303 -0.6101  0.1848
   14CHTO   N12 5730   6.487   4.192   1.820 -0.3063 -0.6454  0.1075
   14CHTO  H110 5731   6.470   4.154   1.720  0.1589  0.1758 -0.2974
   14CHTO  H111 5732   6.412   4.163   1.891 -1.5572  0.5934 -0.6731
   14CHTO   C69 5733   6.622   4.407   1.770 -0.0138  0.8149 -0.1481
   14CHTO  H126 5734   6.628   4.389   1.661 -0.6596 -0.7284  0.0614
   14CHTO   O41 5735   6.611   4.562   1.793 -0.2510 -0.2976 -0.1049
   14CHTO   C64 5736   6.504   4.615   1.711 -0.1897 -0.6316  0.0920
   14CHTO  H121 5737   6.516   4.576   1.608 -2.1697  1.3541 -0.9513
   14CHTO   C71 5738   6.507   4.771   1.711  0.0822 -0.3643 -0.4803
   14CHTO   O47 5739   6.625   4.823   1.653  0.1493  0.3368  0.5069
   14CHTO  H104 5740   6.695   4.766   1.680 -0.3045  0.7144  2.5414
   14CHTO   O34 5741   6.749   4.348   1.854 -0.3452 -0.2775  0.2773
   14CHTO   C49 5742   6.876   4.256   1.801 -0.5527  0.1093 -0.4203
   14CHTO   H91 5743   6.841   4.155   1.781 -0.5213  0.1932 -0.9164
   14CHTO   C47 5744   6.981   4.245   1.911 -0.4534  1.0202  0.4168
   14CHTO   H89 5745   7.052   4.169   1.872  0.5274  1.7854  0.7158
   14CHTO   O33 5746   6.924   4.193   2.031  0.2013  0.0846  0.0695
   14CHTO   H70 5747   6.884   4.111   2.009 -0.7614  0.4745  0.3450
   14CHTO   C45 5748   7.044   4.393   1.943 -0.0470  0.3930 -0.5480
   14CHTO   H87 5749   6.991   4.438   2.029  2.8567  1.9326  0.5316
   14CHTO    N8 5750   7.183   4.371   1.987 -0.6555 -0.1849 -0.2015
   14CHTO   H75 5751   7.183   4.325   2.085  1.8228  0.1529 -0.0015
   14CHTO   H76 5752   7.243   4.312   1.920  0.0402  0.7001 -0.3755
   14CHTO   C43 5753   7.024   4.499   1.817 -0.4059  0.1990  0.5037
   14CHTO   H85 5754   6.925   4.537   1.843  0.2604  0.9289  2.0512
   14CHTO   O29 5755   7.024   4.424   1.690 -0.7352 -0.1548 -0.2779
   14CHTO   C50 5756   6.941   4.309   1.676 -0.2416  0.4201 -0.4611
   14CHTO   H92 5757   6.866   4.353   1.608  1.1794  0.3834 -2.0741
   14CHTO   C54 5758   7.012   4.198   1.593  0.2363  0.5408  0.5737
   14CHTO   O36 5759   7.039   4.246   1.460 -0.0943 -0.2126 -0.8865
   14CHTO   H72 5760   7.112   4.191   1.437  0.4554  0.1375 -0.0038
   14CHTO   O27 5761   7.124   4.613   1.824 -0.4843  0.0058 -0.2769
   14CHTO   C37 5762   7.120   4.754   1.809 -0.4349 -0.0299 -0.3745
   14CHTO   H79 5763   7.226   4.783   1.812 -0.4144 -0.2307  1.2994
   14CHTO   C38 5764   7.065   4.797   1.674  0.0896  0.2854  0.7534
   14CHTO   H80 5765   6.973   4.740   1.654  0.1521  0.7329 -0.9650
   14CHTO   O31 5766   7.157   4.773   1.565  0.2969 -0.0148  0.2338
   14CHTO   H68 5767   7.132   4.696   1.519 -3.3704  1.2399 -0.0362
   14CHTO   C39 5768   7.017   4.951   1.675 -0.1755  0.3387  0.9606
   14CHTO   H81 5769   7.106   5.014   1.668  0.5235 -0.6833  0.3958
   14CHTO    N7 5770   6.930   4.979   1.560  0.4787  0.2882 -0.5474
   14CHTO   H73 5771   6.947   5.076   1.515  0.0106 -0.5633 -2.5964
   14CHTO   H74 5772   6.957   4.905   1.486  1.0785 -1.3767  1.2911
   14CHTO   C40 5773   6.942   4.989   1.807 -0.1586  0.1670 -0.3579
   14CHTO   H82 5774   6.852   4.929   1.815  0.0183 -0.1517 -0.6907
   14CHTO   O26 5775   7.035   4.961   1.917  0.6202 -0.5820 -0.2267
   14CHTO   C41 5776   7.051   4.820   1.935 -1.0228  0.3715  0.3804
   14CHTO   H83 5777   6.954   4.769   1.943 -0.5940 -0.5539 -0.1617
   14CHTO   C52 5778   7.129   4.788   2.073  0.0682  0.2532  0.3605
   14CHTO   O35 5779   7.255   4.836   2.064 -0.2753 -0.3892 -0.5311
   14CHTO   H71 5780   7.278   4.878   2.144 -0.6129  1.4789 -1.3773
   14CHTO   O28 5781   6.913   5.130   1.821 -0.5561  0.8212 -0.1201
   14CHTO   C42 5782   6.816   5.185   1.915  0.1305 -0.1206 -0.0951
   14CHTO   H84 5783   6.833   5.291   1.898  1.9521 -0.5048 -0.7240
   14CHTO   C44 5784   6.849   5.156   2.062 -0.8446 -0.2853  0.1829
   14CHTO   H86 5785   6.861   5.048   2.073 -0.1066 -0.1453  0.7916
   14CHTO   O32 5786   6.981   5.210   2.084 -0.0083  0.4179  0.0567
   14CHTO   H69 5787   6.977   5.303   2.070 -1.2175  0.2571 -0.7399
   14CHTO   C48 5788   6.751   5.228   2.169  0.5129  0.4599  0.4656
   14CHTO   H90 5789   6.771   5.335   2.176 -2.9661  1.0611  2.4727
   14CHTO    N9 5790   6.778   5.178   2.307  0.0546 -0.7719  0.6894
   14CHTO   H77 5791   6.729   5.249   2.371 -0.0174 -1.1282  1.0266
   14CHTO   H78 5792   6.745   5.078   2.331  1.4949 -1.3960  0.1171
   14CHTO   C51 5793   6.602   5.182   2.128  0.1905 -0.3872 -0.1881
   14CHTO   H93 5794   6.612   5.075   2.146 -1.4702 -0.2223  1.8842
   14CHTO   O30 5795   6.565   5.218   1.988  0.1542 -0.7006 -0.4269
   14CHTO   C46 5796   6.666   5.148   1.877 -0.4663 -0.3203 -0.4510
   14CHTO   H88 5797   6.647   5.042   1.889 -2.0899 -0.1184 -1.1965
   14CHTO   C53 5798   6.630   5.193   1.732  0.5074  0.2512 -0.1805
   14CHTO   O72 5799   6.597   5.326   1.709 -0.8563 -0.3032  0.4407
   14CHTO  H199 5800   6.651   5.357   1.640 -0.9228 -1.9539 -0.3894
   14CHTO   O22 5801   6.495   5.244   2.207 -0.2684 -0.3303 -0.3853
   14CHTO   C31 5802   6.372   5.180   2.249  0.9099 -0.9066 -0.1519
   14CHTO   H59 5803   6.360   5.086   2.191 -0.2145 -0.9751  0.1885
   14CHTO   C29 5804   6.368   5.145   2.403 -0.3943 -0.0547 -0.6295
   14CHTO   H57 5805   6.368   5.236   2.465 -0.5784  0.5300 -1.4819
   14CHTO   O21 5806   6.484   5.072   2.434  1.0561  0.1727 -0.2891
   14CHTO   H37 5807   6.486   5.050   2.525 -1.5978  1.0849  0.0424
   14CHTO   C27 5808   6.236   5.062   2.427 -0.4247 -0.0878  0.2317
   14CHTO   H55 5809   6.229   4.980   2.354 -3.5067 -1.9380  2.4787
   14CHTO    N5 5810   6.219   4.996   2.558  0.4513 -0.1167 -0.1483
   14CHTO   H43 5811   6.116   4.974   2.580 -0.3787  2.7343 -0.9376
   14CHTO   H44 5812   6.263   5.071   2.622  0.1413 -0.7583  0.8274
   14CHTO   C25 5813   6.118   5.172   2.401  0.3556  0.2089  0.5319
   14CHTO   H53 5814   6.127   5.257   2.470  0.3393 -0.2813  1.1349
   14CHTO   O17 5815   6.131   5.225   2.273  0.9513 -0.2059 -0.4953
   14CHTO   C32 5816   6.248   5.276   2.215  0.7079 -0.2749  0.0296
   14CHTO   H60 5817   6.260   5.371   2.266  0.5252 -1.2769  1.9759
   14CHTO   C36 5818   6.195   5.281   2.068  1.1876 -0.4699 -0.4488
   14CHTO   O25 5819   6.288   5.334   1.970 -0.4118 -1.0035  0.3044
   14CHTO   H40 5820   6.321   5.258   1.927  1.0497 -1.0393  1.4597
   14CHTO   O15 5821   5.944   5.103   2.408 -0.6236  0.4515  0.0852
   14CHTO   C19 5822   5.843   5.187   2.465 -0.1147 -1.2212 -0.1733
   14CHTO   H47 5823   5.751   5.129   2.449 -0.8593  0.5472 -2.5682
   14CHTO   C20 5824   5.868   5.207   2.621 -0.3576 -1.4438 -0.6717
   14CHTO   H48 5825   5.968   5.249   2.642  0.5048 -3.1400 -1.3287
   14CHTO   O19 5826   5.885   5.074   2.667  0.0832  0.8564  0.2766
   14CHTO   H35 5827   5.800   5.041   2.689 -0.7463  2.4331 -0.4706
   14CHTO   C21 5828   5.747   5.289   2.692 -0.5467 -0.1975  0.2228
   14CHTO   H49 5829   5.651   5.242   2.673 -0.8042  0.8830 -1.2342
   14CHTO    N4 5830   5.751   5.310   2.840 -0.3859  0.2851 -0.6510
   14CHTO   H41 5831   5.727   5.412   2.867  0.7123  0.1701  0.8272
   14CHTO   H42 5832   5.851   5.288   2.875 -0.3662 -0.2161 -1.0204
   14CHTO   C22 5833   5.729   5.422   2.608  0.0993  0.2300 -0.0213
   14CHTO   H50 5834   5.825   5.475   2.616 -0.8526  1.9774  0.1533
   14CHTO   O14 5835   5.697   5.387   2.466  0.0935  0.0772 -0.3915
   14CHTO   C23 5836   5.809   5.322   2.394  0.2138 -1.1731  0.4269
   14CHTO   H51 5837   5.891   5.395   2.397  0.4266 -1.2328 -2.3950
   14CHTO   C34 5838   5.761   5.288   2.252  1.0800  0.1744 -0.0872
   14CHTO   O23 5839   5.865   5.236   2.168  0.5765  0.4804  1.1061
   14CHTO   H38 5840   5.881   5.145   2.183  0.6276 -0.0747 -1.9285
   14CHTO   O16 5841   5.625   5.509   2.654 -0.0294  0.2410  0.0422
   14CHTO   C24 5842   5.666   5.665   2.624 -0.0475 -0.0714 -0.1267
   14CHTO   H52 5843   5.742   5.672   2.546  1.5831 -1.6950  1.2708
   14CHTO   C26 5844   5.712   5.723   2.759 -0.0319  0.6116  0.7396
   14CHTO   H54 5845   5.632   5.700   2.831 -1.7248  2.0717 -0.6109
   14CHTO   O20 5846   5.837   5.651   2.799 -0.1461 -0.2139  0.4519
   14CHTO   H36 5847   5.903   5.676   2.737 -2.3572  0.3315 -1.7639
   14CHTO   C30 5848   5.714   5.878   2.748  0.0311  1.2995 -0.0180
   14CHTO   H58 5849   5.797   5.907   2.683  0.9777 -2.9804 -0.8683
   14CHTO    N6 5850   5.750   5.943   2.879 -0.2873  0.6877  0.4635
   14CHTO   H45 5851   5.843   5.997   2.874  1.7110 -2.7638 -1.3386
   14CHTO   H46 5852   5.673   6.010   2.916 -0.0149  2.1476 -1.5299
   14CHTO   C33 5853   5.590   5.937   2.677  0.3290 -0.7034  0.0216
   14CHTO   H61 5854   5.502   5.922   2.741 -0.0606  0.9876 -0.0779
   14CHTO   O18 5855   5.564   5.871   2.551 -0.1964 -0.1645  0.5667
   14CHTO   C28 5856   5.535   5.736   2.573 -0.2569  0.0294 -0.9527
   14CHTO   H56 5857   5.458   5.719   2.648  0.5278  1.2182  0.1443
   14CHTO   C35 5858   5.496   5.669   2.438 -0.5485 -0.1311 -0.2611
   14CHTO   O24 5859   5.359   5.702   2.403 -0.0484 -0.2404 -0.3570
   14CHTO   H39 5860   5.358   5.737   2.316  1.5292  0.7440 -0.0152
   14CHTO    O9 5861   5.599   6.081   2.659 -0.3663  0.3764 -0.5991
   14CHTO   C13 5862   5.472   6.177   2.670  0.1057  0.4245  0.6451
   14CHTO   H26 5863   5.402   6.152   2.587 -0.8468  2.1657  0.9128
   14CHTO   C11 5864   5.536   6.325   2.644 -0.2964  0.2302 -0.5357
   14CHTO   H24 5865   5.567   6.332   2.538  2.6756  1.5540  0.3705
   14CHTO    O8 5866   5.654   6.347   2.727  0.2851  0.6195 -0.1932
   14CHTO    H3 5867   5.713   6.275   2.718 -0.6124  0.0057 -1.2517
   14CHTO    C9 5868   5.421   6.426   2.669 -0.2655 -0.3845 -0.0942
   14CHTO   H22 5869   5.337   6.401   2.603  0.1369  1.5218 -1.3600
   14CHTO    N2 5870   5.452   6.568   2.631  0.1053 -0.5864  0.3801
   14CHTO   H10 5871   5.520   6.606   2.706 -1.3072  1.5227  0.6325
   14CHTO   H11 5872   5.360   6.622   2.647  0.5951 -0.4015  2.7107
   14CHTO    C7 5873   5.367   6.409   2.816  0.3241  0.0667 -0.2019
   14CHTO   H20 5874   5.286   6.484   2.822 -0.1761 -0.4321 -0.6647
   14CHTO    O4 5875   5.314   6.278   2.834 -0.3057  0.8681 -0.2374
   14CHTO   C14 5876   5.388   6.160   2.802  0.7955  0.3806 -0.4867
   14CHTO   H27 5877   5.311   6.083   2.783  1.2013  0.4679 -2.6181
   14CHTO   C18 5878   5.460   6.130   2.935 -0.0277  0.1169 -0.1442
   14CHTO   O13 5879   5.371   6.104   3.045 -0.5506  0.1960 -0.3002
   14CHTO    H7 5880   5.420   6.070   3.117 -0.7521  1.0822  0.2649
   14CHTO    O2 5881   5.472   6.438   2.941 -0.0542 -0.6610 -0.2027
   14CHTO    C1 5882   5.478   6.562   3.003  0.5774  0.1675  0.4076
   14CHTO   H14 5883   5.404   6.626   2.951  0.6387 -0.1690 -0.1051
   14CHTO    C2 5884   5.622   6.624   2.993  0.3867  0.0229 -0.1024
   14CHTO   H15 5885   5.689   6.542   3.024  0.2174 -0.1756 -0.2628
   14CHTO    O6 5886   5.642   6.657   2.858  0.7427  0.6390  0.3567
   14CHTO    H1 5887   5.732   6.680   2.845  1.2297  0.0819  2.4951
   14CHTO    C3 5888   5.645   6.757   3.082 -0.0189 -1.0173  0.2036
   14CHTO   H16 5889   5.577   6.835   3.046  0.9061 -0.4266 -0.2748
   14CHTO    N1 5890   5.788   6.805   3.081  0.2763 -0.2503 -0.4136
   14CHTO    H8 5891   5.785   6.909   3.049 -2.2713 -0.2295 -0.1581
   14CHTO    H9 5892   5.848   6.746   3.013  0.9772 -0.9644  0.8146
   14CHTO    C4 5893   5.597   6.721   3.226 -0.7343  0.4830 -0.0716
   14CHTO   H17 5894   5.665   6.646   3.265 -2.9326  0.5105  4.0205
   14CHTO    O1 5895   5.458   6.672   3.227 -0.0617  0.6364  0.7521
   14CHTO    C5 5896   5.441   6.548   3.154 -0.6631  0.1149  0.1730
   14CHTO   H18 5897   5.505   6.471   3.197 -0.3013 -0.1864 -0.8906
   14CHTO   C16 5898   5.303   6.510   3.189 -0.4930 -0.2209 -0.2063
   14CHTO   O11 5899   5.275   6.372   3.166 -0.1480  0.1893  0.0554
   14CHTO    H5 5900   5.286   6.318   3.242 -1.2663 -1.1404 -0.6985
   14CHTO    O3 5901   5.586   6.835   3.318  0.0632  0.2391 -0.5312
   14CHTO    C6 5902   5.580   6.790   3.460  0.6081 -0.2723  0.1747
   14CHTO   H19 5903   5.544   6.688   3.474  0.9176 -0.1865  1.6721
   14CHTO    C8 5904   5.721   6.804   3.519 -0.2299  0.1788  0.3679
   14CHTO   H21 5905   5.757   6.906   3.500 -0.4642  0.3565  0.8900
   14CHTO    O7 5906   5.810   6.724   3.441  0.3933 -0.2412  0.2496
   14CHTO    H2 5907   5.893   6.761   3.462  0.7542  0.3248 -2.0370
   14CHTO   C12 5908   5.715   6.767   3.668  0.1371 -0.3270 -0.4481
   14CHTO   H25 5909   5.678   6.663   3.664  0.4408 -0.5587  2.0905
   14CHTO    N3 5910   5.850   6.766   3.736  0.3728 -0.1802  0.3285
   14CHTO   H12 5911   5.861   6.669   3.783  2.7778 -1.1797 -2.1296
   14CHTO   H13 5912   5.862   6.847   3.807  3.0794  1.0870 -1.4739
   14CHTO   C15 5913   5.610   6.853   3.743 -0.1511  0.6226 -0.2395
   14CHTO   H28 5914   5.630   6.960   3.749 -1.7254  0.8803  0.8785
   14CHTO   O10 5915   5.573   6.804   3.884 -0.1230 -0.1750  0.2871
   14CHTO    H4 5916   5.525   6.869   3.932 -3.2849 -1.6245 -0.7832
   14CHTO    O5 5917   5.479   6.832   3.676 -0.1487 -0.3268  0.8394
   14CHTO   C10 5918   5.484   6.883   3.541 -0.4044  0.2211 -0.0207
   14CHTO   H23 5919   5.529   6.982   3.532  0.4610 -0.2822 -1.3964
   14CHTO   C17 5920   5.340   6.878   3.487  0.1394  0.3116 -0.3378
   14CHTO   O12 5921   5.250   6.966   3.561  0.3235  0.0272 -0.0054
   14CHTO    H6 5922   5.257   6.941   3.651  2.1240  0.9678  0.1373
   15CHTO  H203 5923   6.042   4.260   2.606 -1.5371  0.4433 -1.5212
   15CHTO   O82 5924   6.112   4.289   2.549  0.1095 -0.0652  0.1811
   15CHTO  C123 5925   6.135   4.185   2.456 -0.1589 -0.7070 -0.0598
   15CHTO  H227 5926   6.131   4.088   2.509  2.1654 -1.2336 -0.7675
   15CHTO   O77 5927   6.034   4.189   2.354 -0.8653 -0.4808 -0.4872
   15CHTO  C118 5928   6.027   4.089   2.253 -0.6358 -0.0961  0.1391
   15CHTO  H222 5929   6.025   3.989   2.299  0.1451  0.0190  0.4308
   15CHTO  C125 5930   5.899   4.113   2.164 -0.4141 -0.0586  0.4266
   15CHTO   O84 5931   5.780   4.094   2.240  0.4323 -0.0412  0.0768
   15CHTO  H205 5932   5.763   4.165   2.299 -2.5637  0.6946 -1.5225
   15CHTO  C114 5933   6.156   4.097   2.166 -0.7482  0.3261 -0.2419
   15CHTO  H218 5934   6.161   4.191   2.111  0.7226  1.0424  1.0802
   15CHTO  C116 5935   6.284   4.094   2.266 -0.6494 -0.1415  0.8753
   15CHTO  H220 5936   6.291   3.991   2.305  1.7491 -0.0651  0.6905
   15CHTO   O79 5937   6.402   4.116   2.188  0.2711 -0.3201 -0.4127
   15CHTO  H201 5938   6.473   4.056   2.172  1.7912  1.5226 -0.7077
   15CHTO  C120 5939   6.273   4.204   2.382 -0.2408 -0.0800  0.1256
   15CHTO  H224 5940   6.267   4.307   2.342 -0.9732  0.0682  0.6020
   15CHTO   N21 5941   6.382   4.175   2.477  0.6929  0.4057 -0.4584
   15CHTO  H211 5942   6.357   4.110   2.559  0.0824 -0.9837 -1.7258
   15CHTO  H212 5943   6.480   4.153   2.436  0.6316 -0.7479  0.0056
   15CHTO   O75 5944   6.146   3.999   2.066 -0.0125 -0.1287  0.4897
   15CHTO  C112 5945   6.193   3.853   2.091 -0.1793 -0.1768 -0.1131
   15CHTO  H216 5946   6.219   3.833   2.196 -1.6337 -2.0897 -0.1003
   15CHTO   O73 5947   6.308   3.843   2.006 -0.3183  0.1634  0.3077
   15CHTO  C113 5948   6.387   3.721   2.026 -0.0147 -0.0130  0.2209
   15CHTO  H217 5949   6.408   3.706   2.134 -0.6479  1.9473  0.6320
   15CHTO  C124 5950   6.519   3.723   1.946 -0.4827 -0.0819 -0.4701
   15CHTO   O83 5951   6.613   3.811   2.009  0.2367  0.3493 -0.3565
   15CHTO  H204 5952   6.668   3.863   1.954  0.8615  1.1083  0.9459
   15CHTO  C109 5953   6.297   3.603   1.978  0.0221  0.0375 -0.5076
   15CHTO  H213 5954   6.281   3.609   1.870  0.1432 -2.4613 -0.7058
   15CHTO  C110 5955   6.163   3.607   2.062 -0.9041 -0.0300 -0.1118
   15CHTO  H214 5956   6.184   3.563   2.159 -2.5731  2.0571  1.2474
   15CHTO   O78 5957   6.084   3.513   1.993 -0.4249 -0.0284 -0.6907
   15CHTO  H200 5958   5.996   3.517   2.025 -0.5111 -0.8511 -0.8023
   15CHTO  C111 5959   6.087   3.741   2.053  0.6937  0.1173 -0.9345
   15CHTO  H215 5960   6.050   3.751   1.950  0.1711 -1.1657 -0.8921
   15CHTO   N19 5961   5.966   3.740   2.141  0.1248  0.1991  0.2143
   15CHTO  H207 5962   5.901   3.662   2.103  0.6017  1.2039 -2.8006
   15CHTO  H208 5963   5.901   3.826   2.129  0.5839  0.4864 -0.2580
   15CHTO   O74 5964   6.356   3.479   1.999  0.1465 -0.0425 -0.3655
   15CHTO  C115 5965   6.325   3.365   1.861 -0.6838  0.1378  0.5758
   15CHTO  H219 5966   6.220   3.335   1.858 -1.4602  2.7472  0.5633
   15CHTO   O76 5967   6.359   3.429   1.720  0.0931  0.4664 -0.3987
   15CHTO  C122 5968   6.314   3.348   1.614  1.2303 -0.8676 -0.2697
   15CHTO  H226 5969   6.345   3.388   1.518 -2.1518  1.3538 -0.5099
   15CHTO  C126 5970   6.156   3.345   1.606  0.0386 -0.0015  0.0606
   15CHTO   O85 5971   6.088   3.466   1.621  0.1008 -0.4430 -0.2555
   15CHTO  H206 5972   6.005   3.448   1.659  0.3861 -2.7685 -0.6344
   15CHTO  C121 5973   6.368   3.202   1.630  0.9108  0.1071  0.9086
   15CHTO  H225 5974   6.311   3.146   1.553  0.9996  1.8448 -0.4672
   15CHTO   O81 5975   6.506   3.209   1.590  0.1355 -0.1808 -0.3525
   15CHTO  H202 5976   6.564   3.267   1.637 -0.9830  1.5383 -1.0225
   15CHTO  C119 5977   6.362   3.131   1.772 -0.6704  0.2829 -0.2290
   15CHTO  H223 5978   6.262   3.098   1.799  0.1459 -0.5820  1.8478
   15CHTO  C117 5979   6.404   3.232   1.881  0.6983  1.3163  0.3066
   15CHTO  H221 5980   6.513   3.239   1.880  0.7219  1.2134 -2.5549
   15CHTO   N20 5981   6.371   3.168   2.011  0.6329 -0.4177 -0.0345
   15CHTO  H209 5982   6.433   3.085   2.039  1.6754  1.0184  1.9988
   15CHTO  H210 5983   6.266   3.144   1.999  0.8108 -1.2948  0.1282
   15CHTO   O80 5984   6.443   2.986   1.783 -0.1225  0.0346 -0.2261
   15CHTO  C103 5985   6.360   2.833   1.780 -0.5177  0.1136 -0.6178
   15CHTO  H190 5986   6.367   2.779   1.874  1.5950 -0.7163 -1.2162
   15CHTO  C101 5987   6.216   2.838   1.736  0.1354  0.0037  0.1357
   15CHTO  H188 5988   6.218   2.909   1.654  1.2383  0.9141  0.9387
   15CHTO   O68 5989   6.138   2.891   1.849 -0.2308 -0.6603  0.5610
   15CHTO  H168 5990   6.054   2.919   1.818 -0.7839 -1.1026  1.6496
   15CHTO   C99 5991   6.164   2.687   1.700  0.1886  0.4641 -0.6257
   15CHTO  H186 5992   6.164   2.620   1.789  0.8055 -0.3790 -1.2603
   15CHTO   N17 5993   6.021   2.686   1.650  0.6693  0.0543  0.1887
   15CHTO  H174 5994   5.968   2.744   1.724 -0.7865  0.8176 -1.4240
   15CHTO  H175 5995   6.023   2.735   1.553 -1.2434  0.7857  0.5032
   15CHTO   C97 5996   6.270   2.628   1.603 -0.3559  0.5215 -0.0624
   15CHTO  H184 5997   6.268   2.692   1.513  0.3219  1.9982  0.9576
   15CHTO   O64 5998   6.399   2.620   1.664  0.1191 -0.1890 -0.1322
   15CHTO  C104 5999   6.450   2.753   1.683 -0.3760 -0.0330 -0.2704
   15CHTO  H191 6000   6.453   2.801   1.585 -1.1428 -0.1282 -0.3435
   15CHTO  C108 6001   6.594   2.745   1.732 -0.2545  0.4745  0.3242
   15CHTO   O71 6002   6.660   2.870   1.718 -0.3959 -0.6886  0.3398
   15CHTO  H171 6003   6.753   2.864   1.715 -0.4054 -0.4807 -0.4726
   15CHTO   O62 6004   6.240   2.493   1.569 -0.1580 -0.6542  0.5108
   15CHTO   C91 6005   6.271   2.449   1.437 -0.3240 -0.2980 -0.3163
   15CHTO  H178 6006   6.331   2.528   1.392 -1.6348  0.0566 -1.4658
   15CHTO   C92 6007   6.145   2.426   1.348  0.6662 -0.0894 -0.8415
   15CHTO  H179 6008   6.072   2.507   1.364  0.5887 -0.2895 -0.1688
   15CHTO   O66 6009   6.184   2.430   1.214  0.5137 -0.0580  0.4997
   15CHTO  H166 6010   6.109   2.409   1.161  0.5603  2.7850 -0.7433
   15CHTO   C93 6011   6.069   2.291   1.383 -0.4117  0.1388  0.4316
   15CHTO  H180 6012   6.010   2.260   1.295 -0.9208 -1.2946  1.2679
   15CHTO   N16 6013   5.969   2.308   1.491 -0.0228 -0.1668  0.0692
   15CHTO  H172 6014   5.927   2.212   1.518 -1.4780  0.1057 -1.1205
   15CHTO  H173 6015   5.893   2.385   1.485 -0.1750 -0.3159  0.0908
   15CHTO   C94 6016   6.171   2.178   1.412  0.0535 -0.3342  0.2337
   15CHTO  H181 6017   6.180   2.157   1.519 -1.7073 -0.6217  0.3518
   15CHTO   O61 6018   6.303   2.212   1.364  0.3996  0.3049  0.6380
   15CHTO   C95 6019   6.365   2.322   1.433  0.2524  0.1407 -0.0526
   15CHTO  H182 6020   6.397   2.291   1.532  1.7670 -0.9439 -0.8655
   15CHTO  C106 6021   6.506   2.343   1.375 -0.0695  0.1990  0.2003
   15CHTO   O69 6022   6.486   2.378   1.236 -0.2458 -0.1505  0.1366
   15CHTO  H169 6023   6.570   2.388   1.196 -0.0767 -2.7640 -0.2991
   15CHTO   O63 6024   6.118   2.046   1.345 -0.2232 -0.3284 -0.1825
   15CHTO   C96 6025   6.146   1.916   1.415 -0.7817 -0.0554 -0.9914
   15CHTO  H183 6026   6.175   1.932   1.519 -0.5971  1.5257 -1.2806
   15CHTO   C98 6027   6.264   1.826   1.360 -0.1744 -0.3412 -0.2496
   15CHTO  H185 6028   6.263   1.825   1.250  2.6691 -0.3358 -0.3115
   15CHTO   O67 6029   6.376   1.907   1.390  0.8059 -0.6708  0.1934
   15CHTO  H167 6030   6.416   1.931   1.309 -1.8848 -0.4664 -1.1612
   15CHTO  C102 6031   6.273   1.670   1.412  0.5614  0.2929 -0.2569
   15CHTO  H189 6032   6.313   1.676   1.514  0.2070  1.7179 -0.1883
   15CHTO   N18 6033   6.357   1.579   1.332 -0.3407 -0.0696  0.3965
   15CHTO  H176 6034   6.442   1.562   1.397  0.7968  0.7382 -0.8432
   15CHTO  H177 6035   6.377   1.638   1.243  1.1824 -0.2952  0.5654
   15CHTO  C105 6036   6.132   1.615   1.443  0.1352  0.5347 -0.1230
   15CHTO  H192 6037   6.090   1.574   1.351 -1.1927  0.3126  0.5727
   15CHTO   O65 6038   6.023   1.705   1.487 -0.3923 -0.8073 -0.0959
   15CHTO  C100 6039   6.011   1.832   1.415 -0.3582  0.9321 -0.0737
   15CHTO  H187 6040   5.987   1.797   1.314  1.0158 -1.4636  0.3927
   15CHTO  C107 6041   5.888   1.899   1.469 -0.7088  0.4720  0.0341
   15CHTO   O70 6042   5.766   1.819   1.491  0.0056 -0.0976 -0.9414
   15CHTO  H170 6043   5.691   1.836   1.437  0.5271 -0.7260 -1.8768
   15CHTO   O57 6044   6.163   1.478   1.542 -0.2326  0.4682  0.1537
   15CHTO   C85 6045   6.062   1.431   1.631  0.2252 -0.0090  0.2199
   15CHTO  H157 6046   6.007   1.525   1.650 -0.0050 -0.1267  0.1397
   15CHTO   C83 6047   6.130   1.376   1.759 -0.3401 -0.2657  0.0094
   15CHTO  H155 6048   6.187   1.453   1.810  0.9885 -1.1839 -0.0577
   15CHTO   O56 6049   6.237   1.283   1.735  0.3570 -0.1583  0.2399
   15CHTO  H135 6050   6.206   1.208   1.688  1.5411  0.5010 -1.6644
   15CHTO   C81 6051   6.032   1.319   1.862 -0.4683 -0.3970 -0.6440
   15CHTO  H153 6052   5.971   1.403   1.895  1.2097  0.2901  0.8411
   15CHTO   N14 6053   6.082   1.291   1.998  0.0662 -0.1005  0.3317
   15CHTO  H141 6054   6.136   1.200   1.984 -0.8429 -0.4300 -1.0788
   15CHTO  H142 6055   6.001   1.276   2.067  1.9225 -1.1888  2.3156
   15CHTO   C79 6056   5.940   1.205   1.806  0.8127 -0.3421 -0.0014
   15CHTO  H151 6057   5.864   1.180   1.880 -1.7600  0.6626 -2.2215
   15CHTO   O52 6058   5.873   1.259   1.681  0.0215 -0.0091  0.0068
   15CHTO   C86 6059   5.968   1.321   1.579  0.3001 -0.0617 -0.1728
   15CHTO  H158 6060   6.032   1.235   1.551  3.0223  1.8855 -0.1550
   15CHTO   C90 6061   5.889   1.365   1.449  0.0147 -0.1484 -0.5266
   15CHTO   O60 6062   5.825   1.249   1.390 -0.3880 -0.1095 -0.2958
   15CHTO  H138 6063   5.756   1.285   1.338 -1.4107  1.1051  1.8425
   15CHTO   O50 6064   6.017   1.094   1.774  0.1956  0.2611  0.3270
   15CHTO   C73 6065   6.018   0.949   1.788 -0.9613  0.0899 -0.3671
   15CHTO  H145 6066   5.918   0.919   1.823 -0.0631 -0.7568  1.4984
   15CHTO   C74 6067   6.124   0.898   1.891  0.2304 -0.1273 -0.0525
   15CHTO  H146 6068   6.095   0.944   1.986  1.4701 -1.4347  0.9881
   15CHTO   O54 6069   6.106   0.751   1.910  0.2828 -0.1355  0.0248
   15CHTO  H133 6070   6.127   0.732   2.000  0.6573  2.2134  0.4635
   15CHTO   C75 6071   6.270   0.933   1.848  0.2217 -0.1855 -0.6635
   15CHTO  H147 6072   6.288   1.041   1.844  0.4634 -0.0599  2.4600
   15CHTO   N13 6073   6.373   0.871   1.937 -0.5565  0.2364 -0.6454
   15CHTO  H139 6074   6.344   0.891   2.039  1.7311 -1.7049  0.4384
   15CHTO  H140 6075   6.468   0.913   1.906 -0.1532 -1.3802 -1.6620
   15CHTO   C76 6076   6.284   0.885   1.701 -0.5101 -0.4755  0.3923
   15CHTO  H148 6077   6.287   0.776   1.697 -0.0569 -0.4448 -0.1915
   15CHTO   O49 6078   6.181   0.941   1.615 -0.0257  0.6531  0.1332
   15CHTO   C77 6079   6.051   0.884   1.648  0.5788 -0.1535 -0.0847
   15CHTO  H149 6080   6.051   0.776   1.658  1.5476 -0.0222  1.5104
   15CHTO   C88 6081   5.950   0.935   1.542  0.3820  0.4777 -0.2050
   15CHTO   O58 6082   5.811   0.885   1.586 -0.1248  0.0541 -0.2778
   15CHTO  H136 6083   5.770   0.931   1.657  1.9968 -1.2972  1.9034
   15CHTO   O51 6084   6.407   0.950   1.644  0.0416  0.1741 -0.0398
   15CHTO   C78 6085   6.445   0.943   1.494 -0.3382  0.1978  0.0732
   15CHTO  H150 6086   6.356   0.988   1.445  1.0045 -0.2122 -2.8373
   15CHTO   C80 6087   6.473   0.798   1.439 -0.0095  0.2808 -0.0321
   15CHTO  H152 6088   6.538   0.746   1.513  2.2827  2.1266 -0.6573
   15CHTO   O55 6089   6.344   0.726   1.450 -0.3360  0.4575  0.4144
   15CHTO  H134 6090   6.283   0.762   1.388  1.1562 -0.7963 -1.8647
   15CHTO   C84 6091   6.523   0.809   1.290  0.0168 -0.7487  0.5390
   15CHTO  H156 6092   6.446   0.860   1.232 -0.1791 -1.4125  0.2077
   15CHTO   N15 6093   6.555   0.678   1.227 -0.1491 -0.4653  0.4752
   15CHTO  H143 6094   6.546   0.681   1.121  2.2583  1.3805  0.2841
   15CHTO  H144 6095   6.649   0.639   1.260 -0.2060  0.5522  1.8807
   15CHTO   C87 6096   6.632   0.918   1.275  0.2026  0.3077  0.1375
   15CHTO  H159 6097   6.724   0.876   1.315 -0.1103 -0.5175 -0.0119
   15CHTO   O53 6098   6.591   1.056   1.338 -0.2713  0.0504 -0.7365
   15CHTO   C82 6099   6.563   1.039   1.475  0.4358 -0.1195  0.8071
   15CHTO  H154 6100   6.648   0.992   1.526 -0.9259 -1.5462  1.8068
   15CHTO   C89 6101   6.539   1.176   1.544  0.1867  0.2895 -0.8738
   15CHTO   O59 6102   6.463   1.265   1.471 -0.2538 -0.2128 -0.3608
   15CHTO  H137 6103   6.390   1.218   1.437  0.1390 -0.6340 -0.6205
   15CHTO   O45 6104   6.667   0.946   1.118 -0.0727 -0.9840  0.7582
   15CHTO   C67 6105   6.780   1.032   1.108 -0.1444 -0.5685 -0.3776
   15CHTO  H124 6106   6.767   1.117   1.175 -2.1198 -2.0210  1.1195
   15CHTO   C65 6107   6.915   0.956   1.142 -0.1205  0.3158 -0.3616
   15CHTO  H122 6108   6.887   0.850   1.137  1.1803 -0.0493 -0.0526
   15CHTO   O44 6109   6.940   0.978   1.280 -0.2640  0.0462 -0.9160
   15CHTO  H102 6110   7.031   0.962   1.300 -0.7045 -1.0675  0.2387
   15CHTO   C63 6111   7.025   0.969   1.034  0.4514 -0.3181  0.0561
   15CHTO  H120 6112   6.992   0.916   0.945 -0.4924 -1.6214  1.1494
   15CHTO   N11 6113   7.161   0.906   1.056  0.2878  0.0989  0.0059
   15CHTO  H108 6114   7.182   0.837   0.977  0.5078 -4.4038  3.7950
   15CHTO  H109 6115   7.170   0.866   1.155  2.8113  0.4747 -0.0335
   15CHTO   C61 6116   7.037   1.115   0.994  0.3964  0.5558 -0.0077
   15CHTO  H118 6117   7.105   1.118   0.908  0.6757  1.3113  0.2410
   15CHTO   O40 6118   6.909   1.166   0.941  0.4668 -0.3465 -0.1789
   15CHTO   C68 6119   6.783   1.097   0.958  0.8207 -0.7759  0.2849
   15CHTO  H125 6120   6.765   1.020   0.879 -0.8170  1.3755 -1.5076
   15CHTO   C72 6121   6.682   1.196   0.944  0.2633  0.4225  0.6185
   15CHTO   O48 6122   6.554   1.136   0.917  0.2417 -0.7521 -0.3992
   15CHTO  H105 6123   6.507   1.183   0.851 -1.7285 -2.5944 -0.3749
   15CHTO   O38 6124   7.080   1.193   1.103  0.1678  0.1434  0.7124
   15CHTO   C55 6125   7.154   1.310   1.054 -0.3597  0.1544  0.4303
   15CHTO  H112 6126   7.122   1.326   0.950  0.4821  0.4996  0.2156
   15CHTO   C56 6127   7.311   1.297   1.066  0.2101 -0.2560  0.1422
   15CHTO  H113 6128   7.324   1.268   1.172  0.4588  1.1025  0.4905
   15CHTO   O42 6129   7.359   1.184   0.991  0.9186 -0.0946 -0.3638
   15CHTO  H100 6130   7.355   1.107   1.045  4.1667 -1.0128 -1.3260
   15CHTO   C57 6131   7.380   1.429   1.025 -0.2404  0.4069  0.2858
   15CHTO  H114 6132   7.370   1.426   0.917 -1.3140 -0.4365  0.4020
   15CHTO   N10 6133   7.526   1.435   1.055  0.3331  0.5259  0.1085
   15CHTO  H106 6134   7.579   1.391   0.972  1.3869 -2.4155  2.2688
   15CHTO  H107 6135   7.564   1.534   1.078  1.6358  0.0322  0.0516
   15CHTO   C58 6136   7.310   1.557   1.082 -0.0323  0.2192 -0.1217
   15CHTO  H115 6137   7.325   1.572   1.191  1.1345  0.4370 -0.3068
   15CHTO   O37 6138   7.166   1.546   1.065  0.5055  0.6083 -0.1112
   15CHTO   C59 6139   7.111   1.433   1.132  0.2986 -0.4534 -0.0273
   15CHTO  H116 6140   7.142   1.440   1.236  2.0569 -0.0891 -0.5421
   15CHTO   C70 6141   6.960   1.448   1.126 -0.0475  0.2536  0.7519
   15CHTO   O46 6142   6.902   1.365   1.229 -0.3798  0.2497 -0.0846
   15CHTO  H103 6143   6.908   1.404   1.314  0.2089  1.3101 -0.6042
   15CHTO   O39 6144   7.374   1.702   1.025  1.1103 -0.0715  0.1580
   15CHTO   C60 6145   7.305   1.818   1.071 -0.5732 -0.2205 -0.1726
   15CHTO  H117 6146   7.204   1.779   1.088 -0.1358 -1.0244  0.6509
   15CHTO   C62 6147   7.363   1.873   1.200 -0.1516 -0.2362  0.0319
   15CHTO  H119 6148   7.338   1.789   1.268 -3.5633 -0.3383 -1.2443
   15CHTO   O43 6149   7.501   1.913   1.208 -0.0811 -0.0483 -0.1331
   15CHTO  H101 6150   7.505   1.986   1.148 -0.1477  1.0768  1.2140
   15CHTO   C66 6151   7.255   1.991   1.240  0.0656 -0.3370 -0.3858
   15CHTO  H123 6152   7.156   1.949   1.258 -0.5524  1.4209  0.4781
   15CHTO   N12 6153   7.290   2.059   1.365  0.1346  0.7823  0.0389
   15CHTO  H110 6154   7.220   2.134   1.398 -0.2442  0.5806 -0.2947
   15CHTO  H111 6155   7.298   1.984   1.442 -0.6056  2.8964  2.2290
   15CHTO   C69 6156   7.236   2.096   1.122 -0.2627  0.2107  0.4276
   15CHTO  H126 6157   7.335   2.139   1.097  0.2971 -2.0503 -1.4550
   15CHTO   O41 6158   7.198   2.032   1.004  0.2593 -0.3042  0.2181
   15CHTO   C64 6159   7.299   1.927   0.955 -0.2747  0.3786  0.2922
   15CHTO  H121 6160   7.398   1.974   0.939  0.0888 -0.4323  0.1611
   15CHTO   C71 6161   7.254   1.866   0.823  0.0045 -0.4453  0.0516
   15CHTO   O47 6162   7.362   1.788   0.766  0.2432 -0.0747 -0.1869
   15CHTO  H104 6163   7.358   1.706   0.812 -0.3166 -0.4059 -0.8270
   15CHTO   O34 6164   7.123   2.219   1.161 -0.1939  0.3704  0.6087
   15CHTO   C49 6165   6.951   2.260   1.131 -0.2927  0.8861 -0.5546
   15CHTO   H91 6166   6.940   2.361   1.172  0.2932  0.8180 -0.2355
   15CHTO   C47 6167   6.856   2.167   1.211 -0.4570  0.0433  0.2904
   15CHTO   H89 6168   6.751   2.198   1.191 -1.2352 -2.8957 -0.3905
   15CHTO   O33 6169   6.882   2.169   1.352 -0.1686  0.1806 -0.6197
   15CHTO   H70 6170   6.841   2.240   1.397 -0.5298  0.2374 -1.0315
   15CHTO   C45 6171   6.876   2.018   1.140  0.2079 -0.0829 -0.5716
   15CHTO   H87 6172   6.984   1.999   1.137  0.2598 -0.4833  2.0599
   15CHTO    N8 6173   6.809   1.904   1.208  0.0917  0.1954 -0.5024
   15CHTO   H75 6174   6.743   1.855   1.138  0.8475 -1.7996  0.1622
   15CHTO   H76 6175   6.860   1.842   1.279  0.4035  1.0920  0.0631
   15CHTO   C43 6176   6.824   2.038   0.988  0.3024  0.1520  0.1173
   15CHTO   H85 6177   6.842   1.943   0.937 -2.3845  0.8564 -2.3006
   15CHTO   O29 6178   6.886   2.151   0.917 -0.0079  0.1724  0.3558
   15CHTO   C50 6179   6.922   2.275   0.983 -0.0647 -0.4960 -0.4865
   15CHTO   H92 6180   7.015   2.307   0.933 -0.1987 -0.3942 -0.6703
   15CHTO   C54 6181   6.815   2.379   0.948 -1.0237 -0.1021  0.6259
   15CHTO   O36 6182   6.781   2.397   0.814  0.1920  0.1446 -0.4066
   15CHTO   H72 6183   6.818   2.474   0.773  3.1307 -0.3044  1.2797
   15CHTO   O27 6184   6.684   2.062   0.979 -0.1347 -0.3885  0.0157
   15CHTO   C37 6185   6.571   2.017   0.909  0.4441  0.1252 -0.0451
   15CHTO   H79 6186   6.581   1.917   0.865 -0.2797 -0.3883  0.9578
   15CHTO   C38 6187   6.448   2.024   1.010 -0.1565  0.3497 -0.0083
   15CHTO   H80 6188   6.453   2.121   1.061 -0.9509 -0.0896  0.9253
   15CHTO   O31 6189   6.465   1.926   1.113 -0.2147 -0.5713 -0.6427
   15CHTO   H68 6190   6.545   1.938   1.159 -1.5979 -2.0024  2.2564
   15CHTO   C39 6191   6.305   2.000   0.946 -0.0621  0.4155  0.9263
   15CHTO   H81 6192   6.275   1.895   0.942  1.4608  0.0343 -1.8177
   15CHTO    N7 6193   6.182   2.056   1.023 -0.1984  0.5674  0.0174
   15CHTO   H73 6194   6.210   2.138   1.089 -4.8402  0.8225  1.8133
   15CHTO   H74 6195   6.110   2.091   0.950 -0.1409 -1.3734 -0.9981
   15CHTO   C40 6196   6.299   2.071   0.800 -0.1542 -0.7198 -0.3539
   15CHTO   H82 6197   6.285   2.177   0.823  1.3419 -0.8055  1.0475
   15CHTO   O26 6198   6.418   2.055   0.728  0.0823 -0.4982 -0.0287
   15CHTO   C41 6199   6.539   2.113   0.786  0.1448  0.6957  0.3647
   15CHTO   H83 6200   6.530   2.217   0.821 -2.9197  1.0091 -1.1940
   15CHTO   C52 6201   6.657   2.101   0.683 -0.2893 -0.2681 -0.3086
   15CHTO   O35 6202   6.661   2.161   0.545 -0.5501  0.1026 -0.4669
   15CHTO   H71 6203   6.574   2.163   0.508 -1.2367  0.4408  1.1095
   15CHTO   O28 6204   6.212   2.008   0.714  0.0932 -0.0416 -0.2421
   15CHTO   C42 6205   6.138   2.084   0.611 -0.0754  0.0519  0.3529
   15CHTO   H84 6206   6.093   2.007   0.548 -4.1728  3.6154 -1.3575
   15CHTO   C44 6207   6.218   2.189   0.523 -0.1920 -0.8480  0.3042
   15CHTO   H86 6208   6.257   2.265   0.590  2.0759 -1.1304 -0.6781
   15CHTO   O32 6209   6.318   2.113   0.463 -0.3536  0.0372  0.3006
   15CHTO   H69 6210   6.377   2.171   0.421  0.7300 -2.5097 -1.8299
   15CHTO   C48 6211   6.137   2.258   0.412 -0.4663  0.0632  0.7606
   15CHTO   H90 6212   6.107   2.189   0.333 -0.4925  1.2356 -0.2746
   15CHTO    N9 6213   6.221   2.354   0.332 -0.6077  0.0012  0.0473
   15CHTO   H77 6214   6.178   2.395   0.242 -0.0322 -1.3404 -0.8456
   15CHTO   H78 6215   6.311   2.301   0.307 -1.6423 -1.2619 -1.0567
   15CHTO   C51 6216   6.004   2.324   0.467  0.6961  0.5731 -0.1192
   15CHTO   H93 6217   6.030   2.412   0.526 -0.5915  0.5435  0.5262
   15CHTO   O30 6218   5.931   2.223   0.549  0.3386 -0.3918 -0.2737
   15CHTO   C46 6219   6.020   2.162   0.672  0.3992  0.0861  0.4548
   15CHTO   H88 6220   6.057   2.247   0.730  0.3629  1.0561 -0.8991
   15CHTO   C53 6221   5.921   2.072   0.750 -0.1829  0.6558 -0.2978
   15CHTO   O72 6222   5.810   2.147   0.806 -0.0042  0.3742  0.3765
   15CHTO  H199 6223   5.838   2.221   0.856 -1.9871  1.5625 -0.1973
   15CHTO   O22 6224   5.922   2.359   0.360 -0.0246  0.2039  0.0243
   15CHTO   C31 6225   5.828   2.473   0.384 -0.1939 -0.0680 -0.9111
   15CHTO   H59 6226   5.749   2.468   0.307 -1.1956 -0.3522  0.1223
   15CHTO   C29 6227   5.749   2.475   0.523 -0.2014 -0.4004 -0.4069
   15CHTO   H57 6228   5.825   2.475   0.602 -0.2223 -0.1566 -0.3845
   15CHTO   O21 6229   5.676   2.352   0.528  0.0787 -0.1270  0.0528
   15CHTO   H37 6230   5.621   2.338   0.603  0.7146 -1.9880  0.2086
   15CHTO   C27 6231   5.657   2.602   0.534 -0.6062 -0.8044 -0.2827
   15CHTO   H55 6232   5.588   2.599   0.449  1.4708  2.4490 -2.1919
   15CHTO    N5 6233   5.586   2.614   0.661  0.4579  0.3067  0.2431
   15CHTO   H43 6234   5.575   2.520   0.714 -3.6967  1.1223  0.9903
   15CHTO   H44 6235   5.489   2.660   0.658  0.0224 -0.7202 -2.5846
   15CHTO   C25 6236   5.747   2.737   0.514  1.0009  0.0806  0.4117
   15CHTO   H53 6237   5.827   2.735   0.589 -0.0323 -1.1528  1.5070
   15CHTO   O17 6238   5.805   2.722   0.378 -0.0405 -0.3661 -0.4184
   15CHTO   C32 6239   5.903   2.613   0.355  0.0481  0.6164  0.0752
   15CHTO   H60 6240   5.995   2.620   0.414  0.1626  0.6970 -0.1113
   15CHTO   C36 6241   5.950   2.623   0.206 -0.4699 -0.3528 -0.5747
   15CHTO   O25 6242   5.993   2.757   0.179  0.1895  0.2808 -1.1811
   15CHTO   H40 6243   6.061   2.783   0.238  0.6186  0.5344 -1.7806
   15CHTO   O15 6244   5.673   2.862   0.517 -0.2426  0.1709 -0.7417
   15CHTO   C19 6245   5.698   2.980   0.603 -0.7447  0.0403 -0.1751
   15CHTO   H47 6246   5.640   3.061   0.554 -1.1489 -0.0557  0.1430
   15CHTO   C20 6247   5.646   2.960   0.751 -0.0591  0.6932  0.6820
   15CHTO   H48 6248   5.681   2.862   0.788  1.2228  0.0385 -2.1834
   15CHTO   O19 6249   5.504   2.950   0.744 -0.2275 -0.7955 -0.4898
   15CHTO   H35 6250   5.478   2.862   0.722 -1.3116 -0.7810  0.6858
   15CHTO   C21 6251   5.689   3.081   0.846  0.2559 -0.1611 -0.1667
   15CHTO   H49 6252   5.627   3.168   0.827 -0.4832 -0.6524 -0.0442
   15CHTO    N4 6253   5.657   3.054   0.990 -0.1690  0.1347 -0.0670
   15CHTO   H41 6254   5.690   3.127   1.063  0.6206 -0.3701  0.0858
   15CHTO   H42 6255   5.713   2.965   1.014 -1.7405 -1.2874 -1.5680
   15CHTO   C22 6256   5.842   3.111   0.822 -0.1544  0.0748  0.1146
   15CHTO   H50 6257   5.899   3.025   0.858 -0.6258 -0.5678 -0.6364
   15CHTO   O14 6258   5.869   3.141   0.684  0.1796 -0.2769 -0.5772
   15CHTO   C23 6259   5.853   3.033   0.599 -0.5424  0.2904 -0.5100
   15CHTO   H51 6260   5.922   2.952   0.624 -0.2947  0.4694 -0.6156
   15CHTO   C34 6261   5.891   3.091   0.463 -0.3997 -0.2619  0.1295
   15CHTO   O23 6262   6.022   3.140   0.446  0.1077  0.1170 -0.2504
   15CHTO   H38 6263   6.036   3.192   0.370 -2.7937  0.0721 -0.8498
   15CHTO   O16 6264   5.899   3.233   0.886  0.3992 -0.3362 -0.5165
   15CHTO   C24 6265   6.016   3.227   0.998  0.5975  0.5111  0.5602
   15CHTO   H52 6266   6.006   3.139   1.062  1.9088 -0.1443 -0.1060
   15CHTO   C26 6267   5.999   3.360   1.077  0.1724 -0.2478  0.3111
   15CHTO   H54 6268   5.987   3.444   1.004  0.3277 -0.9582 -0.5430
   15CHTO   O20 6269   5.874   3.348   1.150  0.3943  0.4609 -0.7647
   15CHTO   H36 6270   5.826   3.429   1.147  1.8495  1.3372 -0.9356
   15CHTO   C30 6271   6.108   3.380   1.178 -0.5420 -0.5321 -0.1549
   15CHTO   H58 6272   6.098   3.309   1.261 -0.5288  0.7993  1.0145
   15CHTO    N6 6273   6.112   3.520   1.241  0.5895 -0.2992  0.3853
   15CHTO   H45 6274   6.053   3.590   1.183  0.9933 -0.1370  0.1679
   15CHTO   H46 6275   6.074   3.511   1.341 -0.8841 -1.8556 -0.2892
   15CHTO   C33 6276   6.250   3.346   1.111  0.0332 -0.5929  0.1534
   15CHTO   H61 6277   6.268   3.428   1.039 -0.8448  0.4478  1.1045
   15CHTO   O18 6278   6.246   3.219   1.040 -0.4251  0.5282  0.1454
   15CHTO   C28 6279   6.153   3.214   0.933 -0.4895 -0.4904  0.4261
   15CHTO   H56 6280   6.157   3.301   0.866 -0.2698  0.4165  1.6070
   15CHTO   C35 6281   6.169   3.081   0.851  0.6400 -0.1379 -0.5084
   15CHTO   O24 6282   6.289   3.064   0.781  0.0785  0.2259  0.3795
   15CHTO   H39 6283   6.326   2.981   0.804  2.5571  1.0927 -0.3749
   15CHTO    O9 6284   6.364   3.355   1.204 -1.3981  0.1192  0.3511
   15CHTO   C13 6285   6.511   3.372   1.128 -0.1668  0.2235 -0.2613
   15CHTO   H26 6286   6.497   3.447   1.047  1.5284  1.4323  0.5326
   15CHTO   C11 6287   6.554   3.231   1.075 -0.1084 -0.0673 -0.0568
   15CHTO   H24 6288   6.499   3.208   0.983 -0.0422 -0.3425 -0.0255
   15CHTO    O8 6289   6.517   3.128   1.167  0.3298 -0.0936  0.5509
   15CHTO    H3 6290   6.424   3.122   1.182  0.7304 -3.1261  2.2441
   15CHTO    C9 6291   6.704   3.225   1.039  0.1664 -1.0342 -0.8169
   15CHTO   H22 6292   6.732   3.312   0.977  0.4117  1.1806  2.2432
   15CHTO    N2 6293   6.742   3.106   0.960  0.1931  0.4637  0.6683
   15CHTO   H10 6294   6.684   3.075   0.874  0.2831  1.4744  0.2402
   15CHTO   H11 6295   6.773   3.021   1.018  1.9901 -2.2942 -4.0567
   15CHTO    C7 6296   6.779   3.244   1.180 -0.2941  0.2456  0.6041
   15CHTO   H20 6297   6.871   3.303   1.159 -1.3768  1.9817  0.6404
   15CHTO    O4 6298   6.702   3.320   1.275 -0.3304 -0.5509 -0.1439
   15CHTO   C14 6299   6.619   3.433   1.228  0.9259  1.0851  0.2906
   15CHTO   H27 6300   6.669   3.510   1.166 -0.1315  1.0972 -0.5644
   15CHTO   C18 6301   6.573   3.506   1.354 -0.9270  0.1047 -0.7299
   15CHTO   O13 6302   6.505   3.620   1.315  0.0803 -0.1705 -0.8509
   15CHTO    H7 6303   6.490   3.676   1.389  0.2162 -2.1787  0.7686
   15CHTO    O2 6304   6.809   3.111   1.244 -0.3472  0.1380 -0.0450
   15CHTO    C1 6305   6.940   3.117   1.311 -1.1006  0.7732  0.2907
   15CHTO   H14 6306   6.965   3.223   1.334 -2.0775  1.2200 -0.6121
   15CHTO    C2 6307   7.061   3.041   1.225 -0.3074 -0.8317 -0.4850
   15CHTO   H15 6308   7.041   2.933   1.218  1.2369 -1.0564 -2.0116
   15CHTO    O6 6309   7.064   3.096   1.093 -0.0628  0.3366  0.1120
   15CHTO    H1 6310   7.131   3.052   1.045  0.7969  1.1083  0.5877
   15CHTO    C3 6311   7.200   3.057   1.317 -0.2426 -0.2566 -0.0791
   15CHTO   H16 6312   7.219   3.165   1.328 -3.3190  0.7031 -3.2781
   15CHTO    N1 6313   7.327   3.001   1.252 -0.2934  0.6492  0.2168
   15CHTO    H8 6314   7.364   3.076   1.184  1.2166  1.8131  2.2732
   15CHTO    H9 6315   7.317   2.898   1.220 -2.1958  0.8673  0.0079
   15CHTO    C4 6316   7.173   3.000   1.462  0.2418  0.8094 -0.0481
   15CHTO   H17 6317   7.146   2.894   1.452 -0.3276  0.8632  0.8745
   15CHTO    O1 6318   7.060   3.068   1.518  0.5946  0.0360 -0.5586
   15CHTO    C5 6319   6.929   3.058   1.452 -0.6137  0.0686 -0.2973
   15CHTO   H18 6320   6.920   2.949   1.448 -1.5204  0.1479 -0.4977
   15CHTO   C16 6321   6.812   3.115   1.535 -0.1141 -0.2799 -0.3170
   15CHTO   O11 6322   6.831   3.251   1.566 -0.6892  0.7595  0.1972
   15CHTO    H5 6323   6.876   3.264   1.647  0.0103 -2.5372  0.4369
   15CHTO    O3 6324   7.285   3.016   1.557  0.2578 -0.6655 -0.4240
   15CHTO    C6 6325   7.341   2.889   1.605  0.5367 -0.0036  0.3410
   15CHTO   H19 6326   7.322   2.812   1.531 -0.7940  0.9132 -0.2760
   15CHTO    C8 6327   7.490   2.905   1.635 -0.1031  1.1022  0.3102
   15CHTO   H21 6328   7.506   2.986   1.706  0.1014 -0.3764  1.9767
   15CHTO    O7 6329   7.545   2.937   1.512  0.1551 -0.2271  0.0811
   15CHTO    H2 6330   7.635   2.955   1.530 -0.2936 -0.2715  2.5213
   15CHTO   C12 6331   7.549   2.773   1.701  0.3294  0.2803  0.1189
   15CHTO   H25 6332   7.525   2.688   1.633  0.5957  1.0805 -0.9953
   15CHTO    N3 6333   7.698   2.778   1.720  0.5258  0.1329 -0.5083
   15CHTO   H12 6334   7.731   2.868   1.769  2.0663 -0.4798 -0.3850
   15CHTO   H13 6335   7.732   2.689   1.773 -0.0835  0.3254  0.2224
   15CHTO   C15 6336   7.467   2.762   1.838  0.0351  0.4279  0.0675
   15CHTO   H28 6337   7.473   2.855   1.893  1.9291  0.3783 -0.0386
   15CHTO   O10 6338   7.497   2.629   1.930  0.3124 -0.2375  0.1347
   15CHTO    H4 6339   7.461   2.615   2.015  1.3381  1.4524  0.8667
   15CHTO    O5 6340   7.329   2.729   1.799  0.0599 -0.4502  0.0503
   15CHTO   C10 6341   7.267   2.840   1.738  0.0997 -0.4860 -0.6938
   15CHTO   H23 6342   7.275   2.922   1.809 -0.8868 -1.3378  0.4479
   15CHTO   C17 6343   7.123   2.795   1.723 -0.3717 -0.2006 -0.1749
   15CHTO   O12 6344   7.069   2.742   1.844  0.3942 -0.0793 -0.1842
   15CHTO    H6 6345   6.977   2.738   1.828  0.1699 -0.7095  1.2126
   16CHTO  H203 6346   5.254   2.117   0.883  1.6596 -0.6619 -0.3634
   16CHTO   O82 6347   5.294   2.197   0.856 -0.0467  0.4362  0.3087
   16CHTO  C123 6348   5.323   2.288   0.965  0.5152  0.3375 -0.1781
   16CHTO  H227 6349   5.261   2.266   1.053  3.3942 -0.9669  1.5926
   16CHTO   O77 6350   5.457   2.240   0.980  0.0391 -0.0091  0.0080
   16CHTO  C118 6351   5.535   2.319   1.075 -0.8127 -0.6249  0.5026
   16CHTO  H222 6352   5.484   2.315   1.173 -1.1856 -1.5776  0.2772
   16CHTO  C125 6353   5.675   2.253   1.092  0.1439  0.4550 -0.0456
   16CHTO   O84 6354   5.691   2.120   1.149  0.1038  0.2103 -0.0178
   16CHTO  H205 6355   5.643   2.112   1.229  0.7906 -2.0111  0.2155
   16CHTO  C114 6356   5.539   2.468   1.042  0.8451 -0.7378  0.6882
   16CHTO  H218 6357   5.582   2.486   0.943 -0.0176  0.9704  0.6059
   16CHTO  C116 6358   5.391   2.535   1.020 -0.1782  0.5439  0.1390
   16CHTO  H220 6359   5.340   2.540   1.119  0.3223 -0.7271  0.4705
   16CHTO   O79 6360   5.414   2.665   0.972 -0.1693 -0.0216 -0.4174
   16CHTO  H201 6361   5.473   2.708   1.031  0.7068 -0.4799 -0.9486
   16CHTO  C120 6362   5.314   2.439   0.920  0.5405 -0.3221 -0.2700
   16CHTO  H224 6363   5.372   2.443   0.825 -1.7811  2.4205 -1.6531
   16CHTO   N21 6364   5.172   2.481   0.896  0.7036  0.4452  0.2388
   16CHTO  H211 6365   5.113   2.393   0.875 -0.7594  0.2894  4.5236
   16CHTO  H212 6366   5.154   2.557   0.822  0.6993  1.3917  1.2055
   16CHTO   O75 6367   5.619   2.521   1.144 -0.3755  0.1130  0.5039
   16CHTO  C112 6368   5.721   2.648   1.099  0.9089  0.4932  0.4936
   16CHTO  H216 6369   5.671   2.740   1.066  0.6199 -0.4314 -1.6912
   16CHTO   O73 6370   5.800   2.590   0.994 -0.6348  0.4634  0.0659
   16CHTO  C113 6371   5.912   2.677   0.950 -0.4659  0.4088 -0.2708
   16CHTO  H217 6372   5.866   2.765   0.901 -0.6986 -0.0862 -0.9522
   16CHTO  C124 6373   5.991   2.616   0.829  0.0449 -0.8535  0.8416
   16CHTO   O83 6374   6.067   2.494   0.864 -0.5302 -1.2508  0.3630
   16CHTO  H204 6375   6.139   2.506   0.923 -0.4954 -0.3185  0.1420
   16CHTO  C109 6376   6.008   2.715   1.071  0.1601 -0.1853  0.7095
   16CHTO  H213 6377   6.041   2.620   1.115 -1.8213 -0.3777  1.8680
   16CHTO  C110 6378   5.929   2.784   1.186 -0.2502 -0.4461  1.0782
   16CHTO  H214 6379   5.894   2.880   1.150  0.6452  0.5019  2.7091
   16CHTO   O78 6380   6.017   2.809   1.298  0.1841  1.0333 -0.6587
   16CHTO  H200 6381   5.975   2.859   1.365  1.2508  0.5762  0.3696
   16CHTO  C111 6382   5.810   2.691   1.223 -0.3420 -0.4080 -1.1176
   16CHTO  H215 6383   5.845   2.592   1.256 -1.3710  0.2800  2.2788
   16CHTO   N19 6384   5.728   2.745   1.334 -0.1480  0.1580  0.0300
   16CHTO  H207 6385   5.765   2.720   1.432 -0.2321 -0.8803 -0.1888
   16CHTO  H208 6386   5.652   2.816   1.306  0.0100 -0.6704 -2.7679
   16CHTO   O74 6387   6.119   2.802   1.029  0.1084  0.0125 -0.0836
   16CHTO  C115 6388   6.252   2.730   1.008 -0.3636 -0.6114  0.5258
   16CHTO  H219 6389   6.259   2.635   1.062  1.1949 -1.9958 -1.9732
   16CHTO   O76 6390   6.274   2.693   0.866  0.4207  0.3514  0.2844
   16CHTO  C122 6391   6.406   2.642   0.821  0.6500 -0.9801 -0.3855
   16CHTO  H226 6392   6.412   2.663   0.714  1.5494 -0.3617 -0.2139
   16CHTO  C126 6393   6.416   2.491   0.836 -0.0914 -0.2523 -0.5167
   16CHTO   O85 6394   6.401   2.451   0.974  0.0380 -0.3774  0.2483
   16CHTO  H206 6395   6.323   2.487   1.012  0.9077 -0.5297  2.2281
   16CHTO  C121 6396   6.538   2.711   0.876 -0.2359 -0.5990 -0.3265
   16CHTO  H225 6397   6.627   2.646   0.864 -0.8961 -1.0998 -2.8454
   16CHTO   O81 6398   6.567   2.824   0.801  0.1658 -0.0404  0.0170
   16CHTO  H202 6399   6.636   2.802   0.742 -0.3629 -2.4506  0.2286
   16CHTO  C119 6400   6.514   2.744   1.025 -1.0852  0.2157  0.3632
   16CHTO  H223 6401   6.513   2.644   1.069 -0.5879 -0.0648 -0.2495
   16CHTO  C117 6402   6.378   2.811   1.049 -0.0958  0.6323 -0.2987
   16CHTO  H221 6403   6.371   2.909   1.002 -2.8495  0.7007  0.1581
   16CHTO   N20 6404   6.363   2.846   1.190 -0.3658 -0.2081 -0.0341
   16CHTO  H209 6405   6.260   2.875   1.204 -0.8925 -1.1968 -1.7622
   16CHTO  H210 6406   6.430   2.927   1.216 -3.1996  1.8515  1.1224
   16CHTO   O80 6407   6.641   2.810   1.090  0.1703  0.1358 -0.0641
   16CHTO  C103 6408   6.771   2.716   1.120 -0.1416  0.2013 -0.1695
   16CHTO  H190 6409   6.738   2.613   1.106 -1.2599  0.0186  3.3796
   16CHTO  C101 6410   6.908   2.739   1.050 -0.3879  0.1360 -0.6511
   16CHTO  H188 6411   6.936   2.843   1.062  2.3675 -0.5271 -0.9681
   16CHTO   O68 6412   6.878   2.717   0.886 -0.2814  0.1202  0.0402
   16CHTO  H168 6413   6.934   2.773   0.835  0.8059 -0.8019  0.1811
   16CHTO   C99 6414   7.022   2.644   1.103  0.7080 -0.4101  0.0859
   16CHTO  H186 6415   7.006   2.539   1.070  0.3826 -0.7099  1.1761
   16CHTO   N17 6416   7.159   2.680   1.053 -0.0884 -0.0984 -0.3128
   16CHTO  H174 6417   7.167   2.787   1.063 -1.3474 -0.0985  0.8023
   16CHTO  H175 6418   7.234   2.629   1.112  0.0977 -0.1853 -0.6224
   16CHTO   C97 6419   7.023   2.644   1.261 -0.9822 -0.0241 -0.4255
   16CHTO  H184 6420   7.067   2.741   1.290  0.9862 -1.0912  0.2094
   16CHTO   O64 6421   6.892   2.631   1.317 -0.3677 -0.1846 -0.0546
   16CHTO  C104 6422   6.806   2.737   1.275 -0.3558 -0.8235 -0.9986
   16CHTO  H191 6423   6.847   2.837   1.287  1.7349 -1.4351 -2.7128
   16CHTO  C108 6424   6.689   2.730   1.379 -0.2098  0.0819 -0.2800
   16CHTO   O71 6425   6.629   2.854   1.400 -0.5087  0.2792  0.2396
   16CHTO  H171 6426   6.592   2.868   1.485 -3.2108 -0.0951 -0.8391
   16CHTO   O62 6427   7.104   2.532   1.314 -0.2537  0.0958 -0.0409
   16CHTO   C91 6428   7.098   2.508   1.451 -0.5442 -0.1430  0.0269
   16CHTO  H178 6429   7.097   2.607   1.495 -0.8322 -1.1668  2.4317
   16CHTO   C92 6430   7.238   2.443   1.489  0.0013  0.2359 -0.2029
   16CHTO  H179 6431   7.260   2.363   1.417  1.7018 -0.6975  1.3114
   16CHTO   O66 6432   7.348   2.540   1.485  0.3839  0.0421  0.3163
   16CHTO  H166 6433   7.356   2.593   1.562  1.6826 -1.2864  1.1167
   16CHTO   C93 6434   7.227   2.383   1.637  0.1228  0.2492 -0.0049
   16CHTO  H180 6435   7.213   2.472   1.700 -1.3054 -0.5371  0.7978
   16CHTO   N16 6436   7.351   2.315   1.688 -0.1311 -1.1740 -0.2458
   16CHTO  H172 6437   7.328   2.257   1.776  1.1413 -1.1680  0.0932
   16CHTO  H173 6438   7.390   2.253   1.609  1.4741 -0.4924 -0.0206
   16CHTO   C94 6439   7.112   2.284   1.657 -0.4257  0.0383 -1.0396
   16CHTO  H181 6440   7.147   2.181   1.657 -0.6559 -0.0412 -1.4109
   16CHTO   O61 6441   7.010   2.289   1.550  0.1602  0.2760  0.1395
   16CHTO   C95 6442   6.973   2.416   1.490 -0.0644  0.0784 -0.1424
   16CHTO  H182 6443   6.915   2.394   1.400 -0.5736 -0.6085  0.3492
   16CHTO  C106 6444   6.876   2.498   1.591  0.3374  0.5634 -0.0685
   16CHTO   O69 6445   6.758   2.430   1.613 -0.3591  0.1969  0.0982
   16CHTO  H169 6446   6.720   2.421   1.528  1.4688  0.2341 -0.7642
   16CHTO   O63 6447   7.042   2.310   1.795  0.4947  0.0120  0.2582
   16CHTO   C96 6448   7.000   2.179   1.901  0.3651 -0.0018 -0.3217
   16CHTO  H183 6449   7.092   2.148   1.951  0.7253  1.3668 -0.1257
   16CHTO   C98 6450   6.935   2.047   1.841  0.4247 -0.4526 -0.5389
   16CHTO  H185 6451   6.986   2.016   1.749 -1.7402 -0.4233 -1.7845
   16CHTO   O67 6452   6.949   1.939   1.929 -0.4417 -0.2883 -0.1387
   16CHTO  H167 6453   7.037   1.909   1.934 -0.2971  0.2912  1.2168
   16CHTO  C102 6454   6.780   2.070   1.817 -0.1598  0.1905  0.0720
   16CHTO  H189 6455   6.726   1.985   1.861  2.3680 -2.4711 -1.7161
   16CHTO   N18 6456   6.740   2.069   1.674 -0.0042  0.1475 -1.0575
   16CHTO  H176 6457   6.674   1.986   1.659  2.2802 -1.7751 -0.7392
   16CHTO  H177 6458   6.822   2.056   1.605  0.4421 -0.4055 -0.4324
   16CHTO  C105 6459   6.716   2.190   1.889 -0.3836 -0.0967  0.3897
   16CHTO  H192 6460   6.736   2.281   1.833 -1.3424 -0.7940 -1.1384
   16CHTO   O65 6461   6.777   2.204   2.016  0.3001 -0.3281 -0.2754
   16CHTO  C100 6462   6.914   2.238   2.023 -0.2263  0.0077 -0.3024
   16CHTO  H187 6463   6.920   2.348   2.013 -1.5856  0.1079 -0.1155
   16CHTO  C107 6464   6.964   2.202   2.157  0.0977  0.1696  0.6820
   16CHTO   O70 6465   6.878   2.242   2.262 -0.2624  0.1366 -0.4015
   16CHTO  H170 6466   6.926   2.248   2.343 -1.5319 -0.0295  0.3842
   16CHTO   O57 6467   6.566   2.172   1.902  0.5646  0.7654  0.5560
   16CHTO   C85 6468   6.479   2.289   1.885 -0.1941  0.7929  0.0904
   16CHTO  H157 6469   6.510   2.334   1.789 -1.4930 -3.3007 -2.3957
   16CHTO   C83 6470   6.506   2.386   1.999  0.2966 -0.0887  0.1907
   16CHTO  H155 6471   6.606   2.430   2.000 -0.0309  0.7580 -1.5492
   16CHTO   O56 6472   6.501   2.313   2.126  0.4155  0.4415  0.0918
   16CHTO  H135 6473   6.519   2.367   2.200 -1.9482 -1.4605  2.1387
   16CHTO   C81 6474   6.405   2.505   1.980 -0.2180  0.0718 -0.1275
   16CHTO  H153 6475   6.421   2.547   1.881 -1.0840 -0.2207 -0.3994
   16CHTO   N14 6476   6.420   2.617   2.080 -0.1622  0.0093 -0.2093
   16CHTO  H141 6477   6.427   2.712   2.032 -1.0367  1.7617  3.0075
   16CHTO  H142 6478   6.346   2.622   2.157  0.7811  0.2520  0.6825
   16CHTO   C79 6479   6.255   2.452   1.986 -0.2242  0.0100 -0.5607
   16CHTO  H151 6480   6.196   2.541   1.964  1.5745  2.5266  4.0638
   16CHTO   O52 6481   6.238   2.362   1.869  0.2267 -0.3437 -0.2022
   16CHTO   C86 6482   6.325   2.248   1.892 -0.7945  0.2756  1.0122
   16CHTO  H158 6483   6.317   2.196   1.989  2.1829 -0.2669  1.0322
   16CHTO   C90 6484   6.310   2.142   1.772  0.2756 -0.1277  0.3304
   16CHTO   O60 6485   6.216   2.036   1.805  0.2998 -0.0334  0.2118
   16CHTO  H138 6486   6.218   1.968   1.740 -1.7757  2.0388 -2.1221
   16CHTO   O50 6487   6.205   2.382   2.106  0.5455 -0.1915 -0.0046
   16CHTO   C73 6488   6.090   2.376   2.191 -0.5560  0.4558 -0.3017
   16CHTO  H145 6489   6.108   2.283   2.247  0.7267  1.1603  0.4815
   16CHTO   C74 6490   5.960   2.379   2.112  0.3873 -0.3319  0.6682
   16CHTO  H146 6491   5.976   2.312   2.025 -1.6287  0.8043 -0.6244
   16CHTO   O54 6492   5.857   2.325   2.197 -0.3173  0.2930 -0.8135
   16CHTO  H133 6493   5.774   2.318   2.154 -1.0801 -2.2373  0.9818
   16CHTO   C75 6494   5.915   2.527   2.067  0.9882  0.1682 -0.6407
   16CHTO  H147 6495   5.989   2.564   1.994  0.3098 -0.7731 -1.8370
   16CHTO   N13 6496   5.784   2.533   1.995 -0.0262 -0.3021 -0.6443
   16CHTO  H139 6497   5.801   2.592   1.906 -0.6766 -0.6746 -1.0208
   16CHTO  H140 6498   5.753   2.434   1.964  1.8642 -0.6272 -1.5598
   16CHTO   C76 6499   5.918   2.629   2.192  0.0281  0.3015  0.1971
   16CHTO  H148 6500   5.850   2.589   2.267 -0.0552  1.4573  0.7516
   16CHTO   O49 6501   6.054   2.619   2.246  0.6903  0.4100 -0.1400
   16CHTO   C77 6502   6.096   2.490   2.297  0.3405  0.1889 -0.0320
   16CHTO  H149 6503   6.029   2.463   2.379  1.0667 -2.2238 -0.2010
   16CHTO   C88 6504   6.242   2.509   2.357 -0.0300  0.6466  0.3267
   16CHTO   O58 6505   6.281   2.393   2.439  0.1770  0.3000  0.0443
   16CHTO  H136 6506   6.249   2.419   2.523  1.3674  1.5672  0.1342
   16CHTO   O51 6507   5.881   2.767   2.159  0.1270  0.3825  0.0462
   16CHTO   C78 6508   5.871   2.856   2.293  0.3487  0.1326 -0.3284
   16CHTO  H150 6509   5.899   2.801   2.385  0.8583  0.8709 -0.0330
   16CHTO   C80 6510   5.734   2.916   2.309 -1.1642 -0.8549 -0.7856
   16CHTO  H152 6511   5.712   2.973   2.216 -1.0472 -1.0338 -0.9221
   16CHTO   O55 6512   5.645   2.805   2.316  0.7077  0.2919  0.3819
   16CHTO  H134 6513   5.581   2.812   2.247  0.9812 -1.5393 -0.0880
   16CHTO   C84 6514   5.725   3.004   2.445  0.5878  0.7250  0.7921
   16CHTO  H156 6515   5.752   2.937   2.526 -0.9244 -0.1070  0.6173
   16CHTO   N15 6516   5.591   3.055   2.489  0.8367 -0.4541 -0.5414
   16CHTO  H143 6517   5.564   3.017   2.585 -0.3891  1.4245 -0.1236
   16CHTO  H144 6518   5.559   3.157   2.485  0.7043 -0.4210  1.0096
   16CHTO   C87 6519   5.828   3.126   2.430  0.1097  0.9967 -0.3379
   16CHTO  H159 6520   5.805   3.186   2.342  0.8570  1.9764  0.1234
   16CHTO   O53 6521   5.971   3.048   2.396 -0.3259  0.0899 -0.0844
   16CHTO   C82 6522   5.973   2.974   2.278 -0.1357 -0.0667  0.5926
   16CHTO  H154 6523   5.944   3.037   2.193  0.8429 -0.6402 -0.1748
   16CHTO   C89 6524   6.118   2.929   2.255  0.1385  0.0820 -0.0118
   16CHTO   O59 6525   6.136   2.883   2.126 -0.1553  0.1683 -0.0165
   16CHTO  H137 6526   6.100   2.796   2.125  2.3198 -0.9058 -0.8220
   16CHTO   O45 6527   5.847   3.206   2.562  0.1570  0.3655  0.0501
   16CHTO   C67 6528   5.940   3.317   2.557 -0.1728  0.1879 -0.0644
   16CHTO  H124 6529   6.027   3.290   2.498  0.5839 -0.6729  1.4329
   16CHTO   C65 6530   5.868   3.446   2.501  0.0712 -0.2477  0.5730
   16CHTO  H122 6531   5.768   3.436   2.543 -0.4745  1.0510 -0.4009
   16CHTO   O44 6532   5.866   3.432   2.360 -0.1451  0.0837 -0.1585
   16CHTO  H102 6533   5.917   3.506   2.334  0.2052 -0.6288 -1.5297
   16CHTO   C63 6534   5.915   3.581   2.565  0.6475  0.7044  0.3131
   16CHTO  H120 6535   5.874   3.593   2.665  0.0036  0.8758  0.0291
   16CHTO   N11 6536   5.861   3.701   2.494 -0.0824 -0.4754  0.2062
   16CHTO  H108 6537   5.756   3.698   2.476 -0.0454  1.1357 -0.3312
   16CHTO  H109 6538   5.892   3.788   2.548  0.3628  0.5721 -1.6847
   16CHTO   C61 6539   6.064   3.571   2.593  0.1337 -0.2105 -0.4666
   16CHTO  H118 6540   6.092   3.665   2.643  0.1807 -0.6362  0.3248
   16CHTO   O40 6541   6.095   3.459   2.688 -0.3518 -0.6591  0.7314
   16CHTO   C68 6542   6.001   3.347   2.698  0.3357  0.1673  0.1371
   16CHTO  H125 6543   5.928   3.379   2.775 -1.4369  0.5987 -1.6873
   16CHTO   C72 6544   6.072   3.217   2.748  0.8833  0.2325 -0.2021
   16CHTO   O48 6545   6.113   3.231   2.880  0.4765 -0.4685 -0.4477
   16CHTO  H105 6546   6.149   3.317   2.884 -2.8565  0.9375  0.7418
   16CHTO   O38 6547   6.145   3.549   2.474  0.4529 -0.2191 -0.2588
   16CHTO   C55 6548   6.289   3.560   2.485 -0.1196 -0.2974  0.5844
   16CHTO  H112 6549   6.321   3.552   2.590  4.2461 -0.6634 -0.6610
   16CHTO   C56 6550   6.345   3.698   2.414  0.2675 -0.1994  1.0095
   16CHTO  H113 6551   6.296   3.695   2.316 -0.4129 -3.7622  1.3863
   16CHTO   O42 6552   6.297   3.819   2.470 -0.2152  0.2957 -0.3415
   16CHTO  H100 6553   6.212   3.811   2.508  0.1271 -1.8599  0.0107
   16CHTO   C57 6554   6.502   3.692   2.416  0.3581  0.2747 -0.7616
   16CHTO  H114 6555   6.530   3.701   2.521  1.1569  0.2920 -0.9800
   16CHTO   N10 6556   6.560   3.805   2.344 -0.2209 -0.0297 -0.1369
   16CHTO  H106 6557   6.650   3.764   2.302 -0.2874 -2.1276  1.7296
   16CHTO  H107 6558   6.495   3.831   2.261  1.2884  1.1741 -0.9671
   16CHTO   C58 6559   6.552   3.558   2.353 -0.6133 -0.6932 -0.2396
   16CHTO  H115 6560   6.531   3.560   2.244 -2.6863  2.7252  0.1618
   16CHTO   O37 6561   6.504   3.453   2.421  0.7157  0.3684 -0.5255
   16CHTO   C59 6562   6.359   3.436   2.412 -0.0056  0.3916  0.3144
   16CHTO  H116 6563   6.339   3.442   2.305  1.5289 -1.7200 -0.1248
   16CHTO   C70 6564   6.319   3.304   2.478 -0.2435  0.6075  0.1741
   16CHTO   O46 6565   6.361   3.194   2.396 -0.1798 -0.4740 -0.0418
   16CHTO  H103 6566   6.313   3.122   2.433 -1.4568 -0.3691 -1.4567
   16CHTO   O39 6567   6.700   3.547   2.374 -0.7236  0.3774  0.9113
   16CHTO   C60 6568   6.772   3.456   2.293 -0.2159  0.4804 -0.7756
   16CHTO  H117 6569   6.714   3.376   2.247 -0.1470 -0.5246  0.8099
   16CHTO   C62 6570   6.836   3.542   2.181 -0.4065 -0.0320 -0.2690
   16CHTO  H119 6571   6.746   3.575   2.124 -1.2128 -1.9889 -0.1667
   16CHTO   O43 6572   6.902   3.660   2.224  0.4991 -0.5242  0.2528
   16CHTO  H101 6573   6.948   3.705   2.156 -1.2672 -1.2526 -1.4874
   16CHTO   C66 6574   6.919   3.446   2.091 -0.2368  0.0343  0.2681
   16CHTO  H123 6575   6.869   3.350   2.088 -1.0986  0.4057  2.0139
   16CHTO   N12 6576   6.962   3.489   1.953  0.0411 -0.2446 -0.0708
   16CHTO  H110 6577   7.058   3.440   1.944 -0.8406 -2.2815  1.3225
   16CHTO  H111 6578   6.969   3.597   1.945 -0.6260 -0.3026 -1.5917
   16CHTO   C69 6579   7.037   3.411   2.183  0.2753 -0.0881  0.6892
   16CHTO  H126 6580   7.087   3.507   2.206  1.0604 -0.0938 -0.9004
   16CHTO   O41 6581   7.002   3.340   2.312 -0.1214 -0.6834  0.0847
   16CHTO   C64 6582   6.879   3.378   2.378 -0.4043 -0.1372  0.3113
   16CHTO  H121 6583   6.903   3.451   2.459  1.0043 -0.3300  0.0856
   16CHTO   C71 6584   6.818   3.260   2.455  0.7408  0.6380 -0.1623
   16CHTO   O47 6585   6.914   3.189   2.537 -0.0622 -0.0246  0.0530
   16CHTO  H104 6586   6.879   3.180   2.623  1.9266  0.0708  0.9117
   16CHTO   O34 6587   7.147   3.302   2.116  0.0942 -0.2865 -0.0422
   16CHTO   C49 6588   7.199   3.163   2.088  0.0132  0.6347 -0.1355
   16CHTO   H91 6589   7.280   3.180   2.016 -0.7410 -1.6470 -1.5651
   16CHTO   C47 6590   7.086   3.075   2.021 -0.0418 -0.6899  0.5735
   16CHTO   H89 6591   7.127   2.974   2.000 -0.1066 -0.5978  0.0099
   16CHTO   O33 6592   7.060   3.138   1.893 -0.3468  0.4635  0.2367
   16CHTO   H70 6593   7.004   3.076   1.850  0.3171 -0.4199  0.6119
   16CHTO   C45 6594   6.962   3.059   2.123 -0.2674  0.3298  0.0524
   16CHTO   H87 6595   6.928   3.159   2.154 -1.6202  0.0849 -0.6485
   16CHTO    N8 6596   6.842   2.988   2.070 -1.1888  0.8549  0.2145
   16CHTO   H75 6597   6.813   3.036   1.977  0.5878  0.4874 -0.5405
   16CHTO   H76 6598   6.883   2.889   2.056  2.1709  2.0685  1.0055
   16CHTO   C43 6599   7.019   3.000   2.266 -0.0484  0.4158  0.0146
   16CHTO   H85 6600   6.935   3.012   2.333 -1.5466  2.0855 -2.0933
   16CHTO   O29 6601   7.135   3.068   2.314 -0.0618  0.7020  0.2537
   16CHTO   C50 6602   7.249   3.092   2.222  0.1548  0.3066 -0.5035
   16CHTO   H92 6603   7.305   3.168   2.278  0.0412  1.7607 -2.3087
   16CHTO   C54 6604   7.343   2.973   2.195  0.6415 -0.2994  0.7433
   16CHTO   O36 6605   7.454   3.022   2.131  0.4630 -0.8792 -0.5644
   16CHTO   H72 6606   7.469   2.979   2.050  0.8548 -0.8292 -0.5190
   16CHTO   O27 6607   7.051   2.863   2.249  0.4707  0.2893  0.1037
   16CHTO   C37 6608   7.100   2.755   2.333 -0.7648  0.8357  0.4716
   16CHTO   H79 6609   7.197   2.788   2.372 -0.4068  0.6291 -0.2458
   16CHTO   C38 6610   7.018   2.728   2.465  0.6694  0.0510 -0.1399
   16CHTO   H80 6611   6.912   2.720   2.438  0.2590 -1.2597  1.7803
   16CHTO   O31 6612   7.026   2.843   2.547  0.2845 -0.4309  0.4756
   16CHTO   H68 6613   6.981   2.918   2.512  1.3912 -0.2057 -0.5127
   16CHTO   C39 6614   7.074   2.609   2.552 -0.2877  0.5515 -0.6454
   16CHTO   H81 6615   7.168   2.651   2.585  0.0275 -0.9959  0.5028
   16CHTO    N7 6616   6.974   2.580   2.668  0.2212  0.1594  0.8221
   16CHTO   H73 6617   6.875   2.562   2.629  0.3142  0.1516  0.5867
   16CHTO   H74 6618   7.003   2.489   2.718  1.7459 -0.9702 -1.9765
   16CHTO   C40 6619   7.119   2.488   2.469 -0.5743 -0.2898 -0.1836
   16CHTO   H82 6620   7.030   2.432   2.444 -1.8929  2.8096 -2.8409
   16CHTO   O26 6621   7.188   2.533   2.352  0.0134  0.3159 -0.2923
   16CHTO   C41 6622   7.112   2.623   2.266  0.0443  0.2400  0.0932
   16CHTO   H83 6623   7.015   2.577   2.242  0.3376  0.1363 -0.9281
   16CHTO   C52 6624   7.193   2.625   2.130  0.7183 -0.0015  0.4007
   16CHTO   O35 6625   7.182   2.484   2.079 -0.1052 -0.4749  0.1819
   16CHTO   H71 6626   7.235   2.425   2.130  1.2921 -1.8367 -2.7391
   16CHTO   O28 6627   7.220   2.411   2.537 -0.5122 -0.0378  0.0302
   16CHTO   C42 6628   7.257   2.266   2.522 -0.0791  0.8345 -0.4151
   16CHTO   H84 6629   7.361   2.261   2.555 -0.2670 -0.7837 -0.0605
   16CHTO   C44 6630   7.264   2.226   2.373  0.3709 -0.2494 -0.3612
   16CHTO   H86 6631   7.167   2.249   2.328  0.6520  1.1979 -0.2440
   16CHTO   O32 6632   7.368   2.304   2.312  0.2092 -0.4763 -0.0993
   16CHTO   H69 6633   7.340   2.338   2.229 -1.7185 -0.2002  0.6425
   16CHTO   C48 6634   7.276   2.073   2.357  0.4616  0.6498  0.1512
   16CHTO   H90 6635   7.380   2.051   2.381  0.2053  0.6458  1.2741
   16CHTO    N9 6636   7.273   2.034   2.206 -0.6829  0.0032 -0.4042
   16CHTO   H77 6637   7.359   2.078   2.158 -0.4004 -0.7721 -0.6197
   16CHTO   H78 6638   7.184   2.070   2.158  0.2893  1.0689 -1.4528
   16CHTO   C51 6639   7.185   1.987   2.447  0.1774 -0.3589 -0.1223
   16CHTO   H93 6640   7.082   2.012   2.420 -0.5779  0.8946  3.6578
   16CHTO   O30 6641   7.211   2.032   2.581 -0.5443 -0.3682  0.6197
   16CHTO   C46 6642   7.179   2.177   2.616 -0.1488  0.2118 -0.1072
   16CHTO   H88 6643   7.071   2.186   2.599 -0.3927  1.1948  1.8220
   16CHTO   C53 6644   7.215   2.204   2.756  0.0155  0.0630 -0.1104
   16CHTO   O72 6645   7.134   2.304   2.816  0.7436  0.0682  0.2603
   16CHTO  H199 6646   7.173   2.347   2.889  1.1070  2.0162 -1.0384
   16CHTO   O22 6647   7.205   1.844   2.430 -0.5328 -0.0976 -0.1717
   16CHTO   C31 6648   7.106   1.750   2.480  0.7776 -0.1304  0.0588
   16CHTO   H59 6649   7.147   1.650   2.452  0.4345  0.0518 -1.1352
   16CHTO   C29 6650   7.072   1.747   2.630  0.2377 -0.1911 -0.3130
   16CHTO   H57 6651   7.035   1.844   2.668  0.6135 -0.0836 -0.2171
   16CHTO   O21 6652   7.197   1.737   2.704  0.2959 -0.6718  0.2489
   16CHTO   H37 6653   7.244   1.657   2.687  0.9591 -0.3471  0.5553
   16CHTO   C27 6654   6.979   1.632   2.674 -0.0416 -0.1562  0.3599
   16CHTO   H55 6655   7.041   1.541   2.663  1.6137  0.8536  1.1027
   16CHTO    N5 6656   6.925   1.642   2.815 -0.2707  1.4147 -0.3174
   16CHTO   H43 6657   7.008   1.645   2.885 -1.9684  0.9130  1.7525
   16CHTO   H44 6658   6.866   1.554   2.834 -0.0225  1.1097 -0.9294
   16CHTO   C25 6659   6.859   1.641   2.580 -0.0005  0.8660 -0.3838
   16CHTO   H53 6660   6.808   1.736   2.605 -1.5398 -0.1414  0.4211
   16CHTO   O17 6661   6.900   1.637   2.440  0.1573  0.2640  0.0268
   16CHTO   C32 6662   6.974   1.756   2.404  0.8162  1.1161 -0.0327
   16CHTO   H60 6663   6.919   1.843   2.439 -0.0065  0.0436  1.4123
   16CHTO   C36 6664   6.985   1.763   2.246  0.2134  0.0366 -0.1827
   16CHTO   O25 6665   7.054   1.643   2.195  0.4307  0.2324 -0.3977
   16CHTO   H40 6666   7.004   1.567   2.218  0.0604  0.7225  0.4498
   16CHTO   O15 6667   6.765   1.514   2.593 -0.2659  0.0713 -0.4610
   16CHTO   C19 6668   6.619   1.505   2.619 -0.0449 -0.2658 -0.3460
   16CHTO   H47 6669   6.613   1.562   2.712  0.6940  0.8063 -0.9362
   16CHTO   C20 6670   6.531   1.582   2.517 -0.1309  0.0865 -0.2186
   16CHTO   H48 6671   6.549   1.550   2.414 -0.7451  0.2485 -0.3762
   16CHTO   O19 6672   6.564   1.724   2.515  0.8871 -0.5948 -0.2461
   16CHTO   H35 6673   6.558   1.754   2.427 -0.9565 -0.7702 -0.1954
   16CHTO   C21 6674   6.374   1.562   2.542 -0.1742  0.2255  0.2693
   16CHTO   H49 6675   6.340   1.634   2.617  0.2752  0.2095  0.4925
   16CHTO    N4 6676   6.287   1.598   2.428  0.2780 -0.1412  0.0002
   16CHTO   H41 6677   6.180   1.607   2.444  0.3865  1.2335 -0.0233
   16CHTO   H42 6678   6.323   1.688   2.380 -2.6519  1.8527  1.3293
   16CHTO   C22 6679   6.340   1.419   2.592  1.8595  0.1849  0.0709
   16CHTO   H50 6680   6.338   1.342   2.514  1.5486  0.7594 -0.4952
   16CHTO   O14 6681   6.424   1.375   2.699 -0.1073  0.0603  0.0996
   16CHTO   C23 6682   6.562   1.363   2.648  1.0453 -0.2224  0.4865
   16CHTO   H51 6683   6.569   1.299   2.558 -1.4522 -0.7979  0.6623
   16CHTO   C34 6684   6.645   1.289   2.753 -0.7308 -0.0362 -0.3773
   16CHTO   O23 6685   6.586   1.172   2.795 -0.3861  1.0491  0.0259
   16CHTO   H38 6686   6.625   1.147   2.876 -1.7113  2.5947  1.1615
   16CHTO   O16 6687   6.213   1.417   2.666 -0.3163  0.5904  0.0319
   16CHTO   C24 6688   6.112   1.287   2.631 -0.3677  0.3111 -0.1478
   16CHTO   H52 6689   6.151   1.222   2.553 -3.6541 -0.0290 -1.5503
   16CHTO   C26 6690   5.975   1.348   2.580  0.1716 -0.2585 -0.9192
   16CHTO   H54 6691   5.951   1.436   2.643  0.4714  0.4663 -1.8164
   16CHTO   O20 6692   6.000   1.413   2.448  0.4243 -0.5593 -0.1648
   16CHTO   H36 6693   6.033   1.354   2.384  1.3599  0.0175 -0.2161
   16CHTO   C30 6694   5.862   1.242   2.580  0.2727 -0.3086 -0.0179
   16CHTO   H58 6695   5.878   1.166   2.502 -0.4731  1.7381 -2.2319
   16CHTO    N6 6696   5.734   1.302   2.535 -0.3553  0.1032 -0.2516
   16CHTO   H45 6697   5.689   1.353   2.619  1.1040  1.5612 -0.3332
   16CHTO   H46 6698   5.673   1.218   2.505  0.0231 -0.6019  0.9253
   16CHTO   C33 6699   5.853   1.165   2.710  0.7429  0.4579  0.1785
   16CHTO   H61 6700   5.823   1.237   2.787 -0.0847 -0.2362  0.5129
   16CHTO   O18 6701   5.983   1.106   2.732  1.1069  0.1631 -0.2901
   16CHTO   C28 6702   6.096   1.197   2.757 -0.2140 -0.5213 -0.3964
   16CHTO   H56 6703   6.084   1.262   2.845  0.2293 -0.3870 -0.4353
   16CHTO   C35 6704   6.227   1.129   2.789  0.1305  0.6054  0.0361
   16CHTO   O24 6705   6.261   1.035   2.683 -0.0648 -0.0867 -1.2201
   16CHTO   H39 6706   6.268   0.951   2.725  0.0704  0.2062 -0.6457
   16CHTO    O9 6707   5.750   1.065   2.713  0.6373 -0.2615 -0.1894
   16CHTO   C13 6708   5.595   1.097   2.788 -0.1853  0.1869  0.9698
   16CHTO   H26 6709   5.541   1.170   2.724  0.6829  1.2217  1.3832
   16CHTO   C11 6710   5.614   1.153   2.936 -0.4925  0.3365 -0.3027
   16CHTO   H24 6711   5.675   1.245   2.930 -1.1882  0.8431  0.3177
   16CHTO    O8 6712   5.690   1.067   3.025  0.3007  0.3321 -0.3565
   16CHTO    H3 6713   5.673   0.975   3.018 -1.4013  0.6451 -0.3811
   16CHTO    C9 6714   5.468   1.184   2.980  1.0463  0.2306 -0.4395
   16CHTO   H22 6715   5.418   1.239   2.900 -0.0937  1.2554  0.9513
   16CHTO    N2 6716   5.463   1.291   3.087  0.3652 -0.3781  0.4295
   16CHTO   H10 6717   5.515   1.274   3.180 -0.6501  0.0788  1.0913
   16CHTO   H11 6718   5.359   1.309   3.110 -0.0958  0.3560 -2.0731
   16CHTO    C7 6719   5.392   1.054   3.014 -0.7407 -1.5785  0.2538
   16CHTO   H20 6720   5.289   1.079   3.047 -0.1495  0.1364  0.8420
   16CHTO    O4 6721   5.389   0.963   2.898  0.1837 -0.0905  0.5887
   16CHTO   C14 6722   5.504   0.961   2.800  0.3684  0.2104  0.1102
   16CHTO   H27 6723   5.461   0.947   2.699  2.5794  3.6835 -1.4117
   16CHTO   C18 6724   5.594   0.839   2.830  0.4993 -0.9918  0.2070
   16CHTO   O13 6725   5.537   0.722   2.779  0.7346  0.6319 -0.2812
   16CHTO    H7 6726   5.595   0.650   2.795  1.9236  1.0480 -2.6336
   16CHTO    O2 6727   5.476   0.968   3.151  0.0353  0.2817 -0.1600
   16CHTO    C1 6728   5.390   0.874   3.220 -0.5286  0.3243  0.5359
   16CHTO   H14 6729   5.317   0.827   3.150  2.5259 -0.6485 -2.1087
   16CHTO    C2 6730   5.307   0.940   3.333  0.1634  0.0767 -0.7343
   16CHTO   H15 6731   5.382   0.998   3.388 -0.7113  0.2343  0.3073
   16CHTO    O6 6732   5.212   1.028   3.273  0.2225  0.4573  0.7114
   16CHTO    H1 6733   5.254   1.109   3.251  1.1692 -0.6743 -1.7871
   16CHTO    C3 6734   5.239   0.825   3.433 -0.0233  0.1837  0.0352
   16CHTO   H16 6735   5.160   0.778   3.373  1.2972 -1.0274 -0.7901
   16CHTO    N1 6736   5.169   0.884   3.557  0.5607  1.1522  0.2744
   16CHTO    H8 6737   5.063   0.874   3.537  1.0725 -0.9937 -1.5483
   16CHTO    H9 6738   5.188   0.829   3.648 -0.1282  0.5763  0.0755
   16CHTO    C4 6739   5.338   0.708   3.472 -0.2815 -0.8824 -0.1181
   16CHTO   H17 6740   5.415   0.744   3.540 -1.4542 -0.5555  1.0432
   16CHTO    O1 6741   5.393   0.667   3.347  0.0118  0.2565 -0.4855
   16CHTO    C5 6742   5.477   0.765   3.276  0.6035  0.6408 -1.1016
   16CHTO   H18 6743   5.553   0.802   3.344 -3.5287 -0.4018  4.4627
   16CHTO   C16 6744   5.538   0.669   3.171  1.0514  0.4925 -0.2921
   16CHTO   O11 6745   5.619   0.567   3.225 -0.1609  0.2833  0.7487
   16CHTO    H5 6746   5.673   0.534   3.156 -1.0553  0.4186 -0.0294
   16CHTO    O3 6747   5.264   0.593   3.514  0.0860  0.2131 -0.4363
   16CHTO    C6 6748   5.327   0.510   3.615 -0.1961  0.0776  0.7434
   16CHTO   H19 6749   5.431   0.536   3.631 -0.4115  1.1887  0.4178
   16CHTO    C8 6750   5.261   0.528   3.753 -0.2220  0.2618  0.0895
   16CHTO   H21 6751   5.163   0.482   3.749 -0.5968  1.1263 -0.9877
   16CHTO    O7 6752   5.251   0.666   3.780  0.0704  0.6653  0.6440
   16CHTO    H2 6753   5.163   0.697   3.791 -1.2395 -3.1330  1.5721
   16CHTO   C12 6754   5.346   0.446   3.858  0.3299  0.4251  0.0523
   16CHTO   H25 6755   5.448   0.489   3.859  0.0993  1.0624 -1.3964
   16CHTO    N3 6756   5.304   0.448   4.003 -0.0797  0.0484 -0.6863
   16CHTO   H12 6757   5.243   0.363   4.031  1.3931 -0.6504  0.5007
   16CHTO   H13 6758   5.391   0.446   4.068 -0.2730  0.8636 -0.3951
   16CHTO   C15 6759   5.351   0.295   3.814 -0.0153 -0.3489  0.4580
   16CHTO   H28 6760   5.262   0.240   3.843 -0.9815  0.5890 -0.6471
   16CHTO   O10 6761   5.475   0.217   3.867 -0.2910  0.1830  0.1978
   16CHTO    H4 6762   5.468   0.129   3.835 -1.5267  0.1697  0.4806
   16CHTO    O5 6763   5.383   0.277   3.671  0.3068  0.4669 -0.2753
   16CHTO   C10 6764   5.318   0.364   3.577 -0.0707  0.5900 -0.5442
   16CHTO   H23 6765   5.217   0.326   3.568  0.4377 -1.6852  2.4201
   16CHTO   C17 6766   5.385   0.336   3.446 -0.5633 -0.6631 -0.9585
   16CHTO   O12 6767   5.501   0.414   3.427 -0.0660  0.0930  0.3877
   16CHTO    H6 6768   5.528   0.403   3.337 -1.0857 -0.9419  0.1898
   17CHTO  H203 6769   6.131   3.502   0.432  0.1448 -0.1857 -0.2954
   17CHTO   O82 6770   6.105   3.555   0.359  0.5826  0.0595 -0.2746
   17CHTO  C123 6771   6.047   3.682   0.403  0.7034  0.1782 -0.1003
   17CHTO  H227 6772   6.001   3.672   0.502 -0.1308  0.4621 -0.4605
   17CHTO   O77 6773   6.156   3.785   0.406  0.0397  0.3282 -0.0126
   17CHTO  C118 6774   6.118   3.895   0.488  0.9135 -0.3067 -0.3528
   17CHTO  H222 6775   6.109   3.864   0.593  3.0966  2.7325  0.7905
   17CHTO  C125 6776   6.241   3.984   0.467  0.0995  0.8203  0.4221
   17CHTO   O84 6777   6.261   4.032   0.334 -0.1913  0.3656 -0.0865
   17CHTO  H205 6778   6.187   4.078   0.298 -0.2590  0.0145 -0.4069
   17CHTO  C114 6779   5.992   3.960   0.430  0.4010  1.2533  0.2410
   17CHTO  H218 6780   6.023   3.998   0.332  0.1045 -0.2593 -0.4529
   17CHTO  C116 6781   5.880   3.858   0.385 -0.3817 -0.4541 -0.2432
   17CHTO  H220 6782   5.813   3.823   0.466 -1.0710  0.9987 -0.1723
   17CHTO   O79 6783   5.786   3.932   0.294  0.7944  0.1360 -0.5405
   17CHTO  H201 6784   5.719   3.873   0.266  0.7063 -1.4587  2.7520
   17CHTO  C120 6785   5.934   3.725   0.315  0.1712  0.2416  0.2187
   17CHTO  H224 6786   5.976   3.766   0.221  0.9468 -1.1609 -0.0668
   17CHTO   N21 6787   5.825   3.625   0.293  0.0822 -0.1384  0.3223
   17CHTO  H211 6788   5.838   3.555   0.212  0.5143 -1.4674  1.5004
   17CHTO  H212 6789   5.792   3.573   0.382 -1.4168 -0.6338 -0.4953
   17CHTO   O75 6790   5.955   4.057   0.525 -0.3332  0.2940  0.1257
   17CHTO  C112 6791   5.930   4.194   0.462 -0.4063 -0.1225  0.5402
   17CHTO  H216 6792   5.904   4.175   0.357 -0.3787 -0.4013  0.5851
   17CHTO   O73 6793   6.053   4.277   0.474  0.2075 -0.3384  0.0227
   17CHTO  C113 6794   6.056   4.396   0.395  0.4432  0.2053 -0.1026
   17CHTO  H217 6795   6.028   4.366   0.292 -0.0063 -1.5245  0.5090
   17CHTO  C124 6796   6.197   4.456   0.388 -0.2900 -0.2805 -0.3427
   17CHTO   O83 6797   6.235   4.460   0.524 -0.1117 -0.4264  1.0260
   17CHTO  H204 6798   6.242   4.377   0.567  1.4783 -0.7496  0.1536
   17CHTO  C109 6799   5.947   4.498   0.448 -0.1119 -0.2199  0.3966
   17CHTO  H213 6800   5.979   4.539   0.545 -0.0985 -0.8307  0.6529
   17CHTO  C110 6801   5.806   4.418   0.462  0.3713 -0.0458  0.2493
   17CHTO  H214 6802   5.757   4.404   0.366  0.7932  0.9238 -0.1128
   17CHTO   O78 6803   5.720   4.498   0.543 -0.0847 -0.5817 -0.4199
   17CHTO  H200 6804   5.643   4.447   0.559 -1.5876  1.2018 -1.7888
   17CHTO  C111 6805   5.811   4.276   0.532 -0.8136 -0.6741  0.2716
   17CHTO  H215 6806   5.824   4.295   0.640  0.7416  0.0561 -0.0309
   17CHTO   N19 6807   5.679   4.207   0.519 -0.2803 -0.8950  0.3261
   17CHTO  H207 6808   5.643   4.213   0.417  1.2841 -2.2452 -0.3334
   17CHTO  H208 6809   5.607   4.249   0.587  0.4998 -0.4297  0.8653
   17CHTO   O74 6810   5.927   4.611   0.354 -0.1536 -0.3325  0.2266
   17CHTO  C115 6811   5.958   4.747   0.424 -1.0185  0.3465  0.1785
   17CHTO  H219 6812   5.923   4.746   0.528 -0.9986  1.9558  0.2081
   17CHTO   O76 6813   6.111   4.774   0.428 -0.0669 -0.3945 -0.1944
   17CHTO  C122 6814   6.167   4.801   0.299 -0.2963  0.1433 -0.2323
   17CHTO  H226 6815   6.149   4.711   0.240  1.4017 -1.2881  1.3470
   17CHTO  C126 6816   6.324   4.820   0.302  0.1970  0.1260 -0.2755
   17CHTO   O85 6817   6.389   4.692   0.308 -0.0116  0.0798  0.5035
   17CHTO  H206 6818   6.481   4.702   0.296 -0.0194 -0.4085  0.0166
   17CHTO  C121 6819   6.098   4.926   0.239  0.1266  0.0403  0.5777
   17CHTO  H225 6820   6.177   5.003   0.223  2.3450 -1.9985  1.4642
   17CHTO   O81 6821   6.055   4.896   0.110 -0.4148  0.0354  0.1245
   17CHTO  H202 6822   5.979   4.842   0.101 -0.0708 -0.3169 -0.7100
   17CHTO  C119 6823   5.988   4.979   0.323  0.0716 -0.2606  0.4477
   17CHTO  H223 6824   6.024   5.000   0.424 -0.6776  0.9812  0.4735
   17CHTO  C117 6825   5.884   4.865   0.339  0.0856  0.3254 -0.1458
   17CHTO  H221 6826   5.847   4.824   0.245 -0.2902 -0.5397  0.3714
   17CHTO   N20 6827   5.764   4.915   0.406  0.4754 -0.5421  0.8446
   17CHTO  H209 6828   5.753   4.868   0.503  3.0279 -1.3987  0.7491
   17CHTO  H210 6829   5.744   5.021   0.411 -0.9024 -0.5882 -2.4214
   17CHTO   O80 6830   5.938   5.128   0.267 -0.5014 -0.4781  0.3311
   17CHTO  C103 6831   6.037   5.244   0.287 -0.2049  0.3999 -0.3934
   17CHTO  H190 6832   6.121   5.204   0.343  0.2818 -0.0095 -1.3886
   17CHTO  C101 6833   6.099   5.317   0.154  0.2207  0.3690 -0.0299
   17CHTO  H188 6834   6.017   5.353   0.091 -1.2062 -2.4625  0.1490
   17CHTO   O68 6835   6.181   5.208   0.077 -0.2592 -0.1915 -0.1843
   17CHTO  H168 6836   6.270   5.219   0.105 -0.0730 -0.1917 -0.7788
   17CHTO   C99 6837   6.190   5.444   0.192  0.2247 -0.3796  0.2802
   17CHTO  H186 6838   6.289   5.412   0.233 -0.2694 -1.2375  0.8351
   17CHTO   N17 6839   6.215   5.537   0.073 -0.1859  0.2634  0.2022
   17CHTO  H174 6840   6.289   5.612   0.095 -1.5985  1.5261  0.6795
   17CHTO  H175 6841   6.235   5.480  -0.017 -1.5725 -1.2701  0.8420
   17CHTO   C97 6842   6.128   5.525   0.306 -0.3810  0.5102 -0.1891
   17CHTO  H184 6843   6.044   5.571   0.251 -1.4219 -1.8762 -0.6750
   17CHTO   O64 6844   6.083   5.432   0.406  0.5832  0.7840 -0.0171
   17CHTO  C104 6845   5.972   5.346   0.368  0.1192  0.5881  0.0186
   17CHTO  H191 6846   5.888   5.385   0.311  0.1114  0.1117 -0.2943
   17CHTO  C108 6847   5.911   5.295   0.494 -0.2008  0.0744 -0.0444
   17CHTO   O71 6848   5.859   5.400   0.578  0.4423 -0.1620  0.0301
   17CHTO  H171 6849   5.769   5.416   0.555  0.2301  1.1034  1.6899
   17CHTO   O62 6850   6.222   5.622   0.371  0.0559  0.2161 -0.3485
   17CHTO   C91 6851   6.169   5.743   0.432  0.0922 -0.4689 -0.7716
   17CHTO  H178 6852   6.084   5.767   0.368 -1.2573 -1.6186  0.5406
   17CHTO   C92 6853   6.279   5.860   0.429 -0.7096  0.8393 -0.8516
   17CHTO  H179 6854   6.321   5.881   0.329  2.7642  1.7498  0.7227
   17CHTO   O66 6855   6.223   5.982   0.471 -0.3446  0.2858  0.9230
   17CHTO  H166 6856   6.130   5.984   0.458 -0.3281 -1.2469  0.5244
   17CHTO   C93 6857   6.395   5.833   0.533 -0.5390  0.7294  0.3246
   17CHTO  H180 6858   6.453   5.927   0.533  1.1928 -0.2978 -0.8800
   17CHTO   N16 6859   6.493   5.730   0.491  0.4655 -0.3564  0.3064
   17CHTO  H172 6860   6.573   5.735   0.563  0.6116  0.9231  0.0766
   17CHTO  H173 6861   6.453   5.630   0.495  0.3773 -0.2967  0.8901
   17CHTO   C94 6862   6.322   5.806   0.678 -0.6358  0.5100 -0.0922
   17CHTO  H181 6863   6.339   5.704   0.711  0.9371  0.9866  0.6045
   17CHTO   O61 6864   6.181   5.816   0.674  0.1446 -0.2632 -0.4530
   17CHTO   C95 6865   6.114   5.727   0.583 -0.1474 -0.3407 -0.4917
   17CHTO  H182 6866   6.139   5.624   0.608 -0.6771 -0.1245  0.9599
   17CHTO  C106 6867   5.960   5.724   0.577  0.4189 -0.4282  0.2183
   17CHTO   O69 6868   5.904   5.701   0.703 -0.5815  0.0167  0.1489
   17CHTO  H169 6869   5.908   5.609   0.717 -0.3276 -0.4159 -2.5654
   17CHTO   O63 6870   6.390   5.905   0.787  0.2674 -0.5265  0.4704
   17CHTO   C96 6871   6.307   5.984   0.894  0.0159  0.1502  0.5040
   17CHTO  H183 6872   6.217   5.926   0.916  0.9480 -1.6701 -0.3994
   17CHTO   C98 6873   6.266   6.125   0.848  0.0965  0.4325  0.1234
   17CHTO  H185 6874   6.341   6.185   0.795 -0.6648  0.5665 -0.8210
   17CHTO   O67 6875   6.164   6.106   0.751 -0.0886  0.5041 -0.0636
   17CHTO  H167 6876   6.209   6.083   0.672  0.5905 -1.1751  0.7625
   17CHTO  C102 6877   6.210   6.218   0.973 -0.0278  0.2664  0.0011
   17CHTO  H189 6878   6.107   6.186   0.994  0.2779 -1.2714 -0.7790
   17CHTO   N18 6879   6.195   6.359   0.937  0.8703 -1.2944  0.1708
   17CHTO  H176 6880   6.177   6.375   0.832  1.4596  0.6650  0.3550
   17CHTO  H177 6881   6.275   6.423   0.971 -1.7894  2.0724  0.3099
   17CHTO  C105 6882   6.293   6.198   1.101  0.4684 -0.5619  0.7455
   17CHTO  H192 6883   6.378   6.266   1.103  0.2530 -0.3046  1.1534
   17CHTO   O65 6884   6.336   6.070   1.130 -0.5972 -0.4247 -0.0449
   17CHTO  C100 6885   6.397   5.987   1.024  0.3876  0.5369  0.2603
   17CHTO  H187 6886   6.493   6.035   0.999 -0.7450  2.1945 -1.0937
   17CHTO  C107 6887   6.433   5.848   1.087  0.0050  0.6777  0.0917
   17CHTO   O70 6888   6.530   5.857   1.193 -0.2797  0.2150  0.6345
   17CHTO  H170 6889   6.571   5.779   1.224  2.7721  1.3701 -0.2733
   17CHTO   O57 6890   6.183   6.245   1.216 -0.0941 -0.0086  0.3241
   17CHTO   C85 6891   6.236   6.297   1.343 -0.5693 -0.0164 -0.2938
   17CHTO  H157 6892   6.338   6.335   1.322 -0.3641 -1.4026 -1.8736
   17CHTO   C83 6893   6.265   6.173   1.433 -0.6019  0.4030  0.1411
   17CHTO  H155 6894   6.334   6.104   1.384 -2.2329 -2.0215  1.1743
   17CHTO   O56 6895   6.150   6.092   1.441 -0.4950 -0.3874 -0.0216
   17CHTO  H135 6896   6.165   6.023   1.379 -0.6025  0.0637 -0.5548
   17CHTO   C81 6897   6.322   6.219   1.568  0.0341  0.2561 -0.0907
   17CHTO  H153 6898   6.415   6.274   1.555 -1.2688  2.7596  0.9654
   17CHTO   N14 6899   6.360   6.106   1.659  0.1011  0.4201 -0.4478
   17CHTO  H141 6900   6.370   6.011   1.612 -0.9126 -0.2406  0.6325
   17CHTO  H142 6901   6.450   6.137   1.709 -1.1515  0.3504  1.9430
   17CHTO   C79 6902   6.227   6.322   1.637  0.1846 -0.3122 -0.0380
   17CHTO  H151 6903   6.281   6.369   1.719  0.5632 -0.9241  0.0657
   17CHTO   O52 6904   6.194   6.437   1.547 -0.7114  0.1358  0.0489
   17CHTO   C86 6905   6.145   6.399   1.417  0.7460  0.0363 -0.3849
   17CHTO  H158 6906   6.050   6.348   1.441  0.3850  1.0539  0.3398
   17CHTO   C90 6907   6.100   6.510   1.333  0.0406 -0.1415 -0.0119
   17CHTO   O60 6908   5.999   6.588   1.396 -0.1695  0.2982  0.2563
   17CHTO  H138 6909   5.981   6.655   1.332 -0.1570  2.1181  2.1054
   17CHTO   O50 6910   6.105   6.267   1.689  0.0012  0.3194 -0.7230
   17CHTO   C73 6911   6.037   6.343   1.789 -0.1150  0.0624  0.5403
   17CHTO  H145 6912   6.052   6.452   1.788 -1.6754  0.2868  0.9174
   17CHTO   C74 6913   6.085   6.296   1.935  0.1521 -0.0448  0.4299
   17CHTO  H146 6914   6.193   6.303   1.953  0.0716 -0.2388  0.9967
   17CHTO   O54 6915   6.026   6.390   2.031 -0.3366 -0.1196 -0.2405
   17CHTO  H133 6916   5.958   6.354   2.085 -0.1871 -0.6811 -0.4264
   17CHTO   C75 6917   6.034   6.151   1.959 -0.0244 -0.6604 -0.1698
   17CHTO  H147 6918   6.095   6.085   1.897  2.2454  0.8053  0.4270
   17CHTO   N13 6919   6.072   6.095   2.089  0.3554  0.3205  0.1485
   17CHTO  H139 6920   6.149   6.151   2.138 -0.3485  0.6065  0.9476
   17CHTO  H140 6921   5.994   6.064   2.157  0.2020 -0.6308 -0.4446
   17CHTO   C76 6922   5.881   6.123   1.917  0.6717  0.0290  0.0499
   17CHTO  H148 6923   5.818   6.158   1.998  0.3849 -3.4579  1.4377
   17CHTO   O49 6924   5.851   6.179   1.786 -0.1635 -0.4798  0.1651
   17CHTO   C77 6925   5.883   6.320   1.768 -0.7550  0.8041  0.2049
   17CHTO  H149 6926   5.827   6.384   1.836 -0.5109 -1.4854  2.6676
   17CHTO   C88 6927   5.846   6.372   1.628  0.1553 -0.2856 -0.0692
   17CHTO   O58 6928   5.700   6.407   1.618 -0.8462  0.1400  0.0606
   17CHTO  H136 6929   5.649   6.340   1.658  0.0702  0.1031  1.2037
   17CHTO   O51 6930   5.863   5.958   1.893 -0.4160 -0.0521  0.0130
   17CHTO   C78 6931   5.720   5.926   1.849 -0.4384  0.1293 -0.9135
   17CHTO  H150 6932   5.664   6.017   1.821 -1.8105 -0.5466 -0.4057
   17CHTO   C80 6933   5.639   5.856   1.961 -0.0711 -0.6131 -0.0805
   17CHTO  H152 6934   5.698   5.772   2.002 -1.7289 -0.6235  2.3853
   17CHTO   O55 6935   5.626   5.954   2.066 -0.1376  0.5164  0.3313
   17CHTO  H134 6936   5.622   5.915   2.151  0.5647  0.5773  0.3954
   17CHTO   C84 6937   5.502   5.793   1.913 -0.3335 -0.4737  0.1831
   17CHTO  H156 6938   5.434   5.867   1.871 -0.7801  0.3269  2.2694
   17CHTO   N15 6939   5.431   5.718   2.019  0.2876 -0.1416 -0.1773
   17CHTO  H143 6940   5.389   5.796   2.079  2.4957  1.1070 -0.2353
   17CHTO  H144 6941   5.499   5.658   2.076 -1.5898 -2.9657 -0.8106
   17CHTO   C87 6942   5.537   5.700   1.791 -0.1991  0.1907  0.5233
   17CHTO  H159 6943   5.605   5.619   1.816  1.1273  1.0788 -0.1664
   17CHTO   O53 6944   5.602   5.787   1.678  0.7819 -0.4273 -0.1450
   17CHTO   C82 6945   5.735   5.831   1.722 -0.0712 -0.3541  0.7587
   17CHTO  H154 6946   5.805   5.749   1.741 -0.0905 -0.5729 -0.1043
   17CHTO   C89 6947   5.799   5.914   1.607 -0.1325 -0.2297 -0.6512
   17CHTO   O59 6948   5.939   5.917   1.630 -0.4209 -0.8743  0.0807
   17CHTO  H137 6949   5.983   5.996   1.604  1.0058 -0.3828  3.7016
   17CHTO   O45 6950   5.394   5.629   1.720 -0.7553 -0.5627  0.1870
   17CHTO   C67 6951   5.420   5.532   1.618 -0.4940  0.4111 -0.2882
   17CHTO  H124 6952   5.525   5.531   1.589 -0.5700  1.4286 -0.6026
   17CHTO   C65 6953   5.384   5.391   1.659 -0.4490  0.2766  0.3913
   17CHTO  H122 6954   5.426   5.384   1.759 -0.3990  0.1994  0.3655
   17CHTO   O44 6955   5.455   5.298   1.579 -0.2529 -0.2224  0.2502
   17CHTO  H102 6956   5.487   5.224   1.628  0.7015  0.6461  0.9524
   17CHTO   C63 6957   5.231   5.383   1.675 -0.3007 -0.1432 -0.1434
   17CHTO  H120 6958   5.195   5.472   1.727 -0.3359 -0.6745  0.7533
   17CHTO   N11 6959   5.185   5.271   1.759 -0.1346  0.1670 -0.4538
   17CHTO  H108 6960   5.237   5.180   1.738  1.2121  0.3329  2.0396
   17CHTO  H109 6961   5.084   5.239   1.741  0.0182 -1.4661  1.4229
   17CHTO   C61 6962   5.176   5.382   1.528 -0.2228  0.4135  0.5210
   17CHTO  H118 6963   5.066   5.377   1.532 -0.4408 -0.5352 -4.4582
   17CHTO   O40 6964   5.211   5.499   1.450 -0.1536  0.4497  0.1906
   17CHTO   C68 6965   5.344   5.570   1.481 -0.3789 -0.2655  0.0972
   17CHTO  H125 6966   5.314   5.676   1.483  1.0500  0.1929 -1.1539
   17CHTO   C72 6967   5.442   5.544   1.361 -0.4161  0.1408  0.4520
   17CHTO   O48 6968   5.563   5.616   1.348 -0.1988 -0.4865 -0.4478
   17CHTO  H105 6969   5.551   5.709   1.344  0.6586 -0.2921  1.1149
   17CHTO   O38 6970   5.222   5.264   1.457 -1.0293 -0.3250  0.3730
   17CHTO   C55 6971   5.158   5.193   1.346 -0.1958  0.2654  0.1919
   17CHTO  H112 6972   5.217   5.102   1.331 -0.1901  0.2695  0.1905
   17CHTO   C56 6973   5.149   5.285   1.215  0.2027  0.6266  0.2192
   17CHTO  H113 6974   5.088   5.370   1.248 -1.0233  0.5039 -1.6374
   17CHTO   O42 6975   5.271   5.338   1.169  0.0412  0.2118  0.0390
   17CHTO  H100 6976   5.255   5.395   1.096 -3.0702  1.9615  1.9958
   17CHTO   C57 6977   5.066   5.200   1.104 -0.5044 -0.2627 -0.4431
   17CHTO  H114 6978   5.122   5.108   1.088  1.3339  1.1984 -2.8610
   17CHTO   N10 6979   5.048   5.271   0.972  0.4306 -0.5883 -0.0119
   17CHTO  H106 6980   5.061   5.210   0.884  0.8415 -0.0284 -0.3390
   17CHTO  H107 6981   5.117   5.354   0.966  1.5014 -1.5635 -1.5192
   17CHTO   C58 6982   4.925   5.169   1.170 -1.0366 -0.3810 -0.6401
   17CHTO  H115 6983   4.879   5.263   1.207 -2.7265 -1.1261 -0.8289
   17CHTO   O37 6984   4.949   5.089   1.289 -0.4557  0.3160 -0.4319
   17CHTO   C59 6985   5.017   5.149   1.400  0.1576 -0.1277  0.3888
   17CHTO  H116 6986   4.965   5.238   1.435 -1.2776 -1.7526  2.4385
   17CHTO   C70 6987   5.033   5.044   1.509 -0.0262  1.0415 -0.4460
   17CHTO   O46 6988   4.919   5.027   1.587  0.5727  0.2502 -0.0708
   17CHTO  H103 6989   4.857   5.097   1.582 -0.8194 -0.7591  2.3140
   17CHTO   O39 6990   4.839   5.063   1.077 -0.2260 -0.0983 -0.3919
   17CHTO   C60 6991   4.705   5.101   1.048  0.0840 -0.7042  0.0776
   17CHTO  H117 6992   4.659   5.129   1.143 -1.2977  0.7291 -0.9865
   17CHTO   C62 6993   4.675   5.221   0.953 -0.3494 -0.4677  0.4701
   17CHTO  H119 6994   4.723   5.313   0.990 -0.2201  0.4304 -1.8559
   17CHTO   O43 6995   4.734   5.189   0.824 -0.4765  0.6244 -0.0807
   17CHTO  H101 6996   4.694   5.241   0.757  2.1678 -0.1426 -2.3616
   17CHTO   C66 6997   4.522   5.250   0.950  0.1377 -0.4968  0.2028
   17CHTO  H123 6998   4.483   5.266   1.051 -0.1524  2.1305 -0.2921
   17CHTO   N12 6999   4.484   5.375   0.875 -0.9217 -0.1399 -0.0300
   17CHTO  H110 7000   4.406   5.352   0.805  0.2925 -2.6063 -0.6404
   17CHTO  H111 7001   4.456   5.458   0.939  0.3196 -0.6153  1.1704
   17CHTO   C69 7002   4.455   5.118   0.906  0.2638 -0.4677  0.4074
   17CHTO  H126 7003   4.451   5.095   0.797 -0.2533 -1.9564  0.7392
   17CHTO   O41 7004   4.492   4.997   0.987 -0.0219 -0.8632  0.0944
   17CHTO   C64 7005   4.632   4.972   1.003 -0.4086  0.4518 -0.2663
   17CHTO  H121 7006   4.685   4.924   0.917  1.4327  0.8793  0.6123
   17CHTO   C71 7007   4.650   4.871   1.117  0.3064 -0.2295  0.1615
   17CHTO   O47 7008   4.615   4.919   1.251 -0.3072 -0.5767 -0.1470
   17CHTO  H104 7009   4.654   5.004   1.257  0.1472 -0.7768 -0.3034
   17CHTO   O34 7010   4.300   5.142   0.944  0.0647 -0.2170 -0.7366
   17CHTO   C49 7011   4.178   5.225   0.902 -0.2720  0.2308 -0.2287
   17CHTO   H91 7012   4.207   5.329   0.915 -0.9131  0.3437  0.2740
   17CHTO   C47 7013   4.064   5.203   0.997  0.3008 -0.7924  0.8812
   17CHTO   H89 7014   3.987   5.277   0.968  1.0449 -0.0305  0.8444
   17CHTO   O33 7015   4.107   5.227   1.137 -0.2539 -0.2187  0.0419
   17CHTO   H70 7016   4.194   5.261   1.136  0.8899 -2.9803 -0.1206
   17CHTO   C45 7017   4.010   5.050   0.994 -0.3780  1.3013  0.6074
   17CHTO   H87 7018   4.055   4.988   1.073  0.2668 -1.6174 -1.9119
   17CHTO    N8 7019   3.859   5.051   1.014 -1.2026  0.2860  0.2431
   17CHTO   H75 7020   3.824   5.091   0.920  1.4445  0.0784 -0.9020
   17CHTO   H76 7021   3.817   4.952   1.026 -0.7465 -0.2691 -2.2812
   17CHTO   C43 7022   4.055   4.981   0.856 -0.9593 -0.3001 -0.0088
   17CHTO   H85 7023   4.156   4.956   0.886 -0.4719  1.1790 -0.3851
   17CHTO   O29 7024   4.054   5.068   0.745 -0.1434 -0.3730 -0.2091
   17CHTO   C50 7025   4.140   5.182   0.757  0.3080  0.7505 -0.5675
   17CHTO   H92 7026   4.235   5.158   0.706 -1.2053 -1.4884 -2.3853
   17CHTO   C54 7027   4.088   5.302   0.674 -0.3286  0.5125  0.4340
   17CHTO   O36 7028   3.963   5.351   0.721 -0.6870 -0.2313  0.2400
   17CHTO   H72 7029   3.921   5.404   0.655 -1.3508 -0.2534  0.6403
   17CHTO   O27 7030   3.990   4.858   0.832 -0.1634  0.0616 -0.2669
   17CHTO   C37 7031   4.037   4.752   0.747 -0.1580  0.2252 -0.0033
   17CHTO   H79 7032   3.979   4.658   0.751  1.1225 -0.5823  0.0990
   17CHTO   C38 7033   4.044   4.794   0.596  0.5989  0.3380  0.0384
   17CHTO   H80 7034   4.089   4.894   0.588 -0.1598  0.6925  0.1324
   17CHTO   O31 7035   3.907   4.810   0.539 -0.6456  0.2888 -0.7700
   17CHTO   H68 7036   3.880   4.899   0.540  0.2102  0.5613 -0.8328
   17CHTO   C39 7037   4.114   4.694   0.502  0.0391  0.1220  0.3080
   17CHTO   H81 7038   4.053   4.604   0.491  1.0536 -0.6777  1.0406
   17CHTO    N7 7039   4.141   4.741   0.366  0.6575 -0.0191 -0.7152
   17CHTO   H73 7040   4.085   4.825   0.327  1.8633  0.9388 -0.4415
   17CHTO   H74 7041   4.132   4.654   0.303 -2.4000 -0.9083  0.8928
   17CHTO   C40 7042   4.253   4.650   0.567 -0.1015 -0.5981 -0.5272
   17CHTO   H82 7043   4.329   4.728   0.570  0.3475 -1.0332 -0.5235
   17CHTO   O26 7044   4.223   4.602   0.700 -0.0276 -0.0919 -0.1277
   17CHTO   C41 7045   4.177   4.716   0.783 -0.1660 -0.6348  0.1543
   17CHTO   H83 7046   4.241   4.804   0.772 -0.7880 -0.0710  0.9949
   17CHTO   C52 7047   4.196   4.670   0.930  0.2580  0.0684 -0.8373
   17CHTO   O35 7048   4.317   4.652   0.959 -0.3476  0.1050  0.0470
   17CHTO   H71 7049   4.340   4.567   0.926 -0.6730 -1.0272  2.6218
   17CHTO   O28 7050   4.299   4.526   0.512 -0.1795  0.1148  0.0915
   17CHTO   C42 7051   4.442   4.489   0.527 -0.0455 -0.2164  0.5300
   17CHTO   H84 7052   4.446   4.391   0.479 -2.6292  0.6863 -1.6661
   17CHTO   C44 7053   4.494   4.471   0.675  0.2906 -0.8054  0.1232
   17CHTO   H86 7054   4.462   4.552   0.740  1.2799  0.3704 -0.8127
   17CHTO   O32 7055   4.434   4.352   0.726  0.1282  0.3480  0.2657
   17CHTO   H69 7056   4.498   4.289   0.753  0.0133  0.2546  0.3234
   17CHTO   C48 7057   4.655   4.460   0.675 -0.0407 -0.1886  0.4257
   17CHTO   H90 7058   4.674   4.369   0.619  1.6026  2.3970 -3.4209
   17CHTO    N9 7059   4.713   4.458   0.813  0.5688  0.2463 -0.0914
   17CHTO   H77 7060   4.708   4.361   0.859  0.7233 -0.5649 -1.7257
   17CHTO   H78 7061   4.804   4.513   0.828 -1.0945  2.9406  0.4600
   17CHTO   C51 7062   4.718   4.573   0.587  0.4530  0.6586 -0.4421
   17CHTO   H93 7063   4.677   4.666   0.628 -0.9770  0.8880 -2.3405
   17CHTO   O30 7064   4.681   4.552   0.453 -0.2087  0.1343 -0.3313
   17CHTO   C46 7065   4.532   4.586   0.444 -0.2546  0.2448 -0.9469
   17CHTO   H88 7066   4.518   4.687   0.481  2.2774  0.7201 -1.1611
   17CHTO   C53 7067   4.496   4.582   0.292  0.3429 -0.0181 -0.0521
   17CHTO   O72 7068   4.549   4.706   0.235  0.1511  0.8309 -0.1382
   17CHTO  H199 7069   4.641   4.705   0.253 -0.0394  0.2206  0.8329
   17CHTO   O22 7070   4.866   4.584   0.591  0.3518  0.0674  0.1756
   17CHTO   C31 7071   4.928   4.714   0.582  0.2612  0.2138 -0.5658
   17CHTO   H59 7072   5.038   4.694   0.580  0.4543  0.7848  2.1084
   17CHTO   C29 7073   4.890   4.795   0.458 -0.1163  0.1231  0.4655
   17CHTO   H57 7074   4.780   4.796   0.467 -0.4303 -3.9505 -1.8506
   17CHTO   O21 7075   4.925   4.714   0.346  0.6076  0.1547  0.1716
   17CHTO   H37 7076   4.864   4.728   0.276 -1.3536  0.4974  1.9132
   17CHTO   C27 7077   4.947   4.947   0.454  0.2561 -0.2590  0.1323
   17CHTO   H55 7078   5.057   4.945   0.450  0.2166  0.3151 -2.4537
   17CHTO    N5 7079   4.907   5.027   0.335 -0.0710 -0.0796 -0.4769
   17CHTO   H43 7080   4.936   5.130   0.350 -1.9042  0.3348  0.3576
   17CHTO   H44 7081   4.956   4.995   0.244 -0.1890  1.3300 -1.0496
   17CHTO   C25 7082   4.907   5.017   0.591  0.2624 -0.2147  0.3655
   17CHTO   H53 7083   4.798   5.033   0.584  0.2695 -1.0991 -2.4900
   17CHTO   O17 7084   4.943   4.941   0.709 -0.6723 -0.3740 -0.1472
   17CHTO   C32 7085   4.908   4.797   0.711 -1.0235  0.3609  0.3200
   17CHTO   H60 7086   4.809   4.786   0.756 -1.5900  0.6875 -0.8304
   17CHTO   C36 7087   4.998   4.733   0.823 -0.0630 -0.8747 -0.1600
   17CHTO   O25 7088   4.962   4.769   0.960 -0.9225 -0.0194  0.3704
   17CHTO   H40 7089   4.871   4.793   0.960 -1.3143 -1.4421 -0.1955
   17CHTO   O15 7090   4.974   5.160   0.592  0.5283  0.3340  0.1135
   17CHTO   C19 7091   5.039   5.275   0.552 -0.7299  0.2300  0.2314
   17CHTO   H47 7092   5.067   5.241   0.451 -0.4825 -1.7826  0.9559
   17CHTO   C20 7093   4.936   5.390   0.570  0.2475  0.1554  0.6163
   17CHTO   H48 7094   4.891   5.393   0.670  0.4735 -0.8897  0.7553
   17CHTO   O19 7095   4.846   5.372   0.459 -0.4031  0.5087 -0.0677
   17CHTO   H35 7096   4.812   5.285   0.470  1.1167 -0.2260 -1.0065
   17CHTO   C21 7097   5.000   5.538   0.542 -0.0794  0.2787 -0.2737
   17CHTO   H49 7098   5.037   5.542   0.440 -0.0452 -3.0560 -0.4487
   17CHTO    N4 7099   4.914   5.653   0.573  0.3646 -0.2860  0.0280
   17CHTO   H41 7100   4.982   5.737   0.569  1.0995 -0.9139 -0.7475
   17CHTO   H42 7101   4.888   5.639   0.677  0.9862  0.6486  0.3196
   17CHTO   C22 7102   5.136   5.539   0.622 -0.9561  0.8603  0.7862
   17CHTO   H50 7103   5.129   5.532   0.730  0.2744  3.3659  1.0578
   17CHTO   O14 7104   5.215   5.431   0.572 -0.0119  0.4658 -0.6394
   17CHTO   C23 7105   5.171   5.301   0.628 -0.0065 -0.1171  0.0218
   17CHTO   H51 7106   5.153   5.317   0.735 -1.1805  0.7432 -0.2943
   17CHTO   C34 7107   5.276   5.193   0.604 -0.4197  0.3805  0.8669
   17CHTO   O23 7108   5.240   5.067   0.644 -0.7184 -0.2560 -0.2242
   17CHTO   H38 7109   5.174   5.029   0.590  0.2309 -1.9942 -0.2169
   17CHTO   O16 7110   5.213   5.654   0.580  0.1949 -0.1493 -0.0326
   17CHTO   C24 7111   5.269   5.763   0.714 -0.0240  0.1581  0.2989
   17CHTO   H52 7112   5.205   5.754   0.802 -0.2506  3.4818  0.5694
   17CHTO   C26 7113   5.263   5.913   0.667 -0.2114  0.7967  0.2558
   17CHTO   H54 7114   5.315   5.919   0.569 -2.2406  1.9181 -0.7811
   17CHTO   O20 7115   5.123   5.940   0.663 -0.0265 -0.0214 -0.1370
   17CHTO   H36 7116   5.107   6.016   0.609  0.2151 -1.6909 -2.6464
   17CHTO   C30 7117   5.346   6.002   0.765  0.0211 -0.7425 -0.0150
   17CHTO   H58 7118   5.296   5.998   0.863 -0.4121  0.0348 -0.2012
   17CHTO    N6 7119   5.341   6.141   0.721  0.2252  0.0935 -0.8797
   17CHTO   H45 7120   5.246   6.187   0.744  0.3081  0.9637 -2.1706
   17CHTO   H46 7121   5.351   6.151   0.613  1.0159  1.3009 -0.7097
   17CHTO   C33 7122   5.492   5.944   0.785  0.0128 -0.0745  0.2178
   17CHTO   H61 7123   5.545   5.936   0.689  0.2325 -1.5866  0.4578
   17CHTO   O18 7124   5.467   5.810   0.840  0.4846 -0.1920 -0.0269
   17CHTO   C28 7125   5.409   5.713   0.752  0.4130  0.0075  0.2603
   17CHTO   H56 7126   5.477   5.714   0.667 -0.5488  3.5526 -0.5597
   17CHTO   C35 7127   5.419   5.585   0.839  0.3241  0.1782  0.2707
   17CHTO   O24 7128   5.426   5.470   0.751  0.4642  0.3360  0.6250
   17CHTO   H39 7129   5.416   5.393   0.804 -0.5028  0.6570  0.9281
   17CHTO    O9 7130   5.577   6.023   0.870 -0.3816  0.2293  0.8194
   17CHTO   C13 7131   5.750   5.997   0.842  0.4621  0.5826 -0.3369
   17CHTO   H26 7132   5.760   5.970   0.734 -2.4130 -0.0670 -0.4790
   17CHTO   C11 7133   5.818   5.887   0.949 -0.4804 -0.2938 -0.0241
   17CHTO   H24 7134   5.898   5.833   0.897  0.9938  2.2702 -0.5151
   17CHTO    O8 7135   5.720   5.795   0.991  0.1298 -0.1323 -0.2031
   17CHTO    H3 7136   5.726   5.720   0.933 -1.0042 -0.2681 -0.1441
   17CHTO    C9 7137   5.899   5.957   1.069  1.2150  0.0341 -0.0841
   17CHTO   H22 7138   6.004   5.966   1.039  1.4545 -0.0206  0.7172
   17CHTO    N2 7139   5.924   5.873   1.190  0.2583  0.5001 -0.5468
   17CHTO   H10 7140   5.863   5.785   1.190  1.0190 -0.0307  0.8244
   17CHTO   H11 7141   5.909   5.918   1.287 -0.6921 -0.7192 -0.1261
   17CHTO    C7 7142   5.834   6.100   1.105 -0.1871 -0.4697  0.0938
   17CHTO   H20 7143   5.887   6.136   1.195  1.1681  0.8572 -1.2049
   17CHTO    O4 7144   5.857   6.180   0.986  0.2220  0.0866 -0.2737
   17CHTO   C14 7145   5.821   6.138   0.847  0.1933 -0.0823  0.0212
   17CHTO   H27 7146   5.915   6.128   0.790  1.5306 -2.6489  2.5801
   17CHTO   C18 7147   5.749   6.265   0.789  0.3940 -0.2907 -0.3845
   17CHTO   O13 7148   5.854   6.347   0.738  0.8389  0.8237 -0.5595
   17CHTO    H7 7149   5.833   6.437   0.756 -2.0918  0.0029  0.3104
   17CHTO    O2 7150   5.677   6.086   1.122 -0.4689 -0.1119  0.5565
   17CHTO    C1 7151   5.634   6.153   1.241 -0.1554 -0.6466 -0.4356
   17CHTO   H14 7152   5.717   6.167   1.314  0.4485 -1.8442 -0.8851
   17CHTO    C2 7153   5.532   6.043   1.310  0.1695  0.4350  0.9484
   17CHTO   H15 7154   5.472   6.013   1.223 -1.3023  3.4582  0.8954
   17CHTO    O6 7155   5.604   5.927   1.356 -0.2160 -0.1805 -0.0660
   17CHTO    H1 7156   5.595   5.850   1.304 -0.3459  0.4135 -0.9394
   17CHTO    C3 7157   5.448   6.107   1.432  0.5034 -0.0594 -1.0708
   17CHTO   H16 7158   5.517   6.122   1.517 -0.7248  0.4548 -0.1456
   17CHTO    N1 7159   5.338   6.019   1.483  0.9757  0.3637 -0.8984
   17CHTO    H8 7160   5.283   6.033   1.575 -0.1007 -1.6828 -1.1826
   17CHTO    H9 7161   5.353   5.913   1.466  0.5881  0.0961  0.4302
   17CHTO    C4 7162   5.393   6.247   1.388  0.2431 -0.5052 -0.2831
   17CHTO   H17 7163   5.316   6.230   1.312  0.1458 -2.6104  0.2429
   17CHTO    O1 7164   5.491   6.330   1.336 -0.2941  0.4897  0.0491
   17CHTO    C5 7165   5.555   6.285   1.213 -0.5128  0.3782 -0.0730
   17CHTO   H18 7166   5.475   6.261   1.142  0.6609 -0.5591 -1.1042
   17CHTO   C16 7167   5.636   6.403   1.155  0.1699 -0.9478  0.3436
   17CHTO   O11 7168   5.732   6.461   1.250 -0.4341  0.0817 -0.0113
   17CHTO    H5 7169   5.807   6.493   1.204  0.1618 -0.1433  0.7930
   17CHTO    O3 7170   5.344   6.316   1.506 -0.1715  0.7543  0.2388
   17CHTO    C6 7171   5.252   6.430   1.482 -0.0162 -0.6230 -0.7813
   17CHTO   H19 7172   5.255   6.469   1.381  0.4664  1.1850 -0.0866
   17CHTO    C8 7173   5.108   6.380   1.526 -0.0142  0.0578 -0.3673
   17CHTO   H21 7174   5.112   6.348   1.630  0.2643  0.7516 -0.1604
   17CHTO    O7 7175   5.077   6.267   1.441  0.7203 -0.0652 -0.0163
   17CHTO    H2 7176   5.055   6.297   1.355  0.3353  1.7265  0.6784
   17CHTO   C12 7177   5.002   6.491   1.517  0.5739  0.2979 -0.1190
   17CHTO   H25 7178   4.992   6.527   1.412  0.0019 -1.2941 -0.6258
   17CHTO    N3 7179   4.863   6.446   1.553  0.2320  0.3518 -0.2566
   17CHTO   H12 7180   4.889   6.362   1.615 -0.2686  0.7073  0.4353
   17CHTO   H13 7181   4.800   6.517   1.603  1.4621  1.8609 -0.8102
   17CHTO   C15 7182   5.047   6.613   1.608  0.2631 -0.5791 -0.2468
   17CHTO   H28 7183   5.050   6.589   1.714 -1.6733  0.7971  0.1585
   17CHTO   O10 7184   4.943   6.741   1.587  0.3395 -0.3320 -0.0296
   17CHTO    H4 7185   4.984   6.820   1.617  1.5670 -0.8371 -0.3457
   17CHTO    O5 7186   5.182   6.659   1.573  0.0172  0.2315  0.7464
   17CHTO   C10 7187   5.281   6.554   1.579  0.3570 -0.1712 -0.0260
   17CHTO   H23 7188   5.284   6.514   1.681  0.3349  0.0924  0.0779
   17CHTO   C17 7189   5.420   6.617   1.547  0.3082  0.1371  0.0603
   17CHTO   O12 7190   5.438   6.651   1.406 -0.0407  0.0343  0.1656
   17CHTO    H6 7191   5.530   6.658   1.392 -0.0037 -0.7305 -0.0169
   18CHTO  H203 7192   6.496   6.916   2.029 -0.6693  1.0217  0.0600
   18CHTO   O82 7193   6.434   6.846   2.044  0.4839  0.0116  0.1917
   18CHTO  C123 7194   6.469   6.734   1.957  0.1423  0.1144  0.0292
   18CHTO  H227 7195   6.397   6.654   1.979 -1.8438  2.0540  0.7596
   18CHTO   O77 7196   6.453   6.786   1.826 -0.1995 -0.0336 -0.2503
   18CHTO  C118 7197   6.464   6.681   1.723 -0.2524 -0.1603  0.1253
   18CHTO  H222 7198   6.383   6.607   1.736 -0.2072 -0.0653  0.9867
   18CHTO  C125 7199   6.457   6.743   1.578  0.4494  1.0992 -0.1167
   18CHTO   O84 7200   6.318   6.772   1.553 -0.4850 -0.6196  0.4343
   18CHTO  H205 7201   6.274   6.708   1.501  0.0086 -1.3386  0.8889
   18CHTO  C114 7202   6.600   6.612   1.733 -0.4619  0.6280  0.5432
   18CHTO  H218 7203   6.671   6.685   1.694 -1.2214  0.0453 -2.0421
   18CHTO  C116 7204   6.629   6.553   1.875 -0.7685  0.3222  0.3097
   18CHTO  H220 7205   6.548   6.478   1.885 -0.5283 -0.2503 -1.8413
   18CHTO   O79 7206   6.759   6.493   1.879 -0.0775  0.0657 -0.1299
   18CHTO  H201 7207   6.750   6.402   1.857  0.5649  0.3122 -1.4937
   18CHTO  C120 7208   6.613   6.675   1.976 -0.4309  0.0639 -0.1441
   18CHTO  H224 7209   6.690   6.751   1.952  0.0757 -1.2041 -2.7494
   18CHTO   N21 7210   6.641   6.619   2.114 -0.3804 -0.2508  0.1438
   18CHTO  H211 7211   6.722   6.672   2.162  0.5812 -0.7262 -0.9206
   18CHTO  H212 7212   6.557   6.618   2.182 -0.5897  1.5085 -0.0809
   18CHTO   O75 7213   6.596   6.506   1.627 -0.0738 -0.2368  0.0940
   18CHTO  C112 7214   6.743   6.491   1.537  0.2614  0.0797  0.5617
   18CHTO  H216 7215   6.825   6.492   1.611  0.4642 -0.9513  0.3597
   18CHTO   O73 7216   6.749   6.607   1.449  0.2232 -0.2277 -0.5825
   18CHTO  C113 7217   6.858   6.619   1.356  0.5462 -0.2390 -0.1631
   18CHTO  H217 7218   6.955   6.639   1.405  0.3903  0.7713 -0.2552
   18CHTO  C124 7219   6.827   6.747   1.268 -0.0190  0.9794  0.4713
   18CHTO   O83 7220   6.790   6.862   1.344  0.0250 -0.2903  0.0573
   18CHTO  H204 7221   6.715   6.846   1.399 -0.4572  2.7777  0.3881
   18CHTO  C109 7222   6.864   6.503   1.262 -0.3361 -0.1203  0.0033
   18CHTO  H213 7223   6.780   6.511   1.192 -0.4020 -0.1819  0.0749
   18CHTO  C110 7224   6.865   6.372   1.343 -0.7067 -0.2483 -0.1693
   18CHTO  H214 7225   6.963   6.363   1.391 -0.3214  2.1722 -0.4379
   18CHTO   O78 7226   6.829   6.276   1.239 -0.2609 -0.3963 -0.4309
   18CHTO  H200 7227   6.897   6.230   1.194 -0.7284 -0.0473 -1.5063
   18CHTO  C111 7228   6.752   6.360   1.454  0.5644  0.1914  0.5116
   18CHTO  H215 7229   6.655   6.365   1.402  1.5303  1.0228 -1.2563
   18CHTO   N19 7230   6.757   6.238   1.535 -0.0024  0.2307  0.2271
   18CHTO  H207 7231   6.765   6.146   1.480  1.0332  2.1395 -2.9450
   18CHTO  H208 7232   6.685   6.251   1.614  1.2009  1.8655  1.1045
   18CHTO   O74 7233   6.992   6.516   1.175 -0.7244  0.1955 -0.0316
   18CHTO  C115 7234   6.988   6.466   1.045  0.6532  0.0757  0.1529
   18CHTO  H219 7235   6.950   6.364   1.045 -3.1084  1.4084 -1.6720
   18CHTO   O76 7236   6.881   6.541   0.955  0.0325  0.5966 -0.1858
   18CHTO  C122 7237   6.930   6.669   0.909  0.6778  0.0436  0.1483
   18CHTO  H226 7238   6.916   6.744   0.987 -1.6989  2.5599 -2.5722
   18CHTO  C126 7239   6.844   6.718   0.784 -0.2992  0.3919  0.4605
   18CHTO   O85 7240   6.838   6.628   0.668  0.7592  0.1256 -1.2684
   18CHTO  H206 7241   6.884   6.667   0.596  0.6662 -0.6827 -1.7807
   18CHTO  C121 7242   7.083   6.667   0.856  0.2716 -0.1945  0.1040
   18CHTO  H225 7243   7.089   6.706   0.752  1.8185 -0.5636  0.0407
   18CHTO   O81 7244   7.169   6.750   0.941  0.2555  0.1625 -0.4065
   18CHTO  H202 7245   7.158   6.716   1.028  2.7469 -1.3045 -0.5918
   18CHTO  C119 7246   7.140   6.525   0.855  1.1618 -0.9883  0.0935
   18CHTO  H223 7247   7.072   6.467   0.793 -0.5920 -1.4415  2.3628
   18CHTO  C117 7248   7.135   6.461   0.992  0.3753 -0.1385 -0.7821
   18CHTO  H221 7249   7.195   6.508   1.070  1.6607 -0.0251 -1.8204
   18CHTO   N20 7250   7.185   6.324   0.996 -0.4388 -0.1817 -0.4870
   18CHTO  H209 7251   7.186   6.279   1.094 -0.4865  1.4798  0.2993
   18CHTO  H210 7252   7.280   6.303   0.949 -0.2161  0.2571 -0.2404
   18CHTO   O80 7253   7.266   6.519   0.774 -0.3659  0.0057 -0.1572
   18CHTO  C103 7254   7.259   6.439   0.633 -0.4063  0.5528  0.0798
   18CHTO  H190 7255   7.360   6.432   0.594 -0.9020  0.5718 -1.2238
   18CHTO  C101 7256   7.208   6.283   0.641  0.3979 -0.0504 -0.1686
   18CHTO  H188 7257   7.113   6.287   0.695 -0.1127  1.5762 -1.1438
   18CHTO   O68 7258   7.314   6.210   0.722  0.1080  0.0459  0.5000
   18CHTO  H168 7259   7.314   6.236   0.812  2.3733 -1.0898  0.8627
   18CHTO   C99 7260   7.184   6.227   0.495 -0.5233 -0.1796 -0.9561
   18CHTO  H186 7261   7.275   6.225   0.431 -0.2661  0.1362 -0.6088
   18CHTO   N17 7262   7.124   6.089   0.491 -0.3258 -0.5795  1.0972
   18CHTO  H174 7263   7.199   6.014   0.510  1.4148 -0.1374 -3.2547
   18CHTO  H175 7264   7.033   6.074   0.547 -0.9180  0.4266  0.4320
   18CHTO   C97 7265   7.087   6.326   0.428  0.7760  0.2383  0.2831
   18CHTO  H184 7266   6.989   6.339   0.477  0.4049  0.8568 -0.6062
   18CHTO   O64 7267   7.151   6.450   0.410  0.2071 -0.5543 -0.6768
   18CHTO  C104 7268   7.174   6.527   0.534 -0.2054  0.1104  0.4500
   18CHTO  H191 7269   7.075   6.551   0.571 -0.8968 -1.1205 -0.5662
   18CHTO  C108 7270   7.250   6.664   0.511 -0.9942  0.1431 -0.1680
   18CHTO   O71 7271   7.162   6.748   0.439 -0.1509  0.6409 -0.5401
   18CHTO  H171 7272   7.082   6.758   0.487 -0.1706  1.9660 -0.8442
   18CHTO   O62 7273   7.060   6.307   0.288  0.3267 -0.5138  0.4288
   18CHTO   C91 7274   6.925   6.311   0.242 -0.2757  0.1422 -0.7280
   18CHTO  H178 7275   6.869   6.267   0.324  0.4976  0.1116 -0.2122
   18CHTO   C92 7276   6.901   6.215   0.127 -0.3783 -0.8000 -0.0723
   18CHTO  H179 7277   6.989   6.215   0.062  1.0393  0.6608  1.7598
   18CHTO   O66 7278   6.902   6.087   0.191  0.7862  0.1351  0.3826
   18CHTO  H166 7279   6.858   6.016   0.147 -0.7857  2.0761 -1.3099
   18CHTO   C93 7280   6.772   6.242   0.034 -0.0740 -0.5867  0.3586
   18CHTO  H180 7281   6.686   6.221   0.100  1.0218 -0.0472  1.9972
   18CHTO   N16 7282   6.764   6.149  -0.089 -0.2783 -0.6633 -0.5347
   18CHTO  H172 7283   6.820   6.058  -0.075 -0.7253 -0.9483 -0.6330
   18CHTO  H173 7284   6.781   6.206  -0.179 -3.2552  0.5488 -0.3848
   18CHTO   C94 7285   6.769   6.398  -0.004 -0.3934  0.2690 -0.2602
   18CHTO  H181 7286   6.859   6.424  -0.061 -0.9251 -0.5624 -1.5117
   18CHTO   O61 7287   6.758   6.467   0.120  0.7247  0.5596  0.5987
   18CHTO   C95 7288   6.863   6.462   0.215 -0.1181 -0.1566  0.0951
   18CHTO  H182 7289   6.945   6.523   0.177  0.1178 -0.9778 -0.7544
   18CHTO  C106 7290   6.808   6.529   0.348 -0.0048  0.3926  0.3870
   18CHTO   O69 7291   6.817   6.669   0.339  0.2453  0.0847 -0.0568
   18CHTO  H169 7292   6.843   6.715   0.417  0.9252 -1.5415  0.6917
   18CHTO   O63 7293   6.640   6.441  -0.079 -0.1889  0.4432 -0.2805
   18CHTO   C96 7294   6.653   6.585  -0.169  0.0730 -0.3113  0.5248
   18CHTO  H183 7295   6.562   6.593  -0.228  0.7378 -0.9548 -0.6186
   18CHTO   C98 7296   6.765   6.591  -0.276  0.2119 -0.5206 -0.2313
   18CHTO  H185 7297   6.866   6.595  -0.232 -1.1631  0.1882  2.9925
   18CHTO   O67 7298   6.760   6.473  -0.354 -0.0662  0.2402  0.3660
   18CHTO  H167 7299   6.774   6.391  -0.309  0.0067  0.8434  1.4477
   18CHTO  C102 7300   6.740   6.722  -0.362  0.5560  0.2427  0.7053
   18CHTO  H189 7301   6.648   6.702  -0.419  2.9980 -0.2524 -3.2224
   18CHTO   N18 7302   6.845   6.740  -0.470  0.4127  0.5712 -0.1480
   18CHTO  H176 7303   6.933   6.691  -0.431  0.0929  0.6266  0.6541
   18CHTO  H177 7304   6.814   6.689  -0.560  0.2585 -2.9251  1.7730
   18CHTO  C105 7305   6.734   6.841  -0.268  0.2568 -0.0751  0.9656
   18CHTO  H192 7306   6.804   6.917  -0.302 -0.7577  1.1540  1.5848
   18CHTO   O65 7307   6.748   6.821  -0.125 -0.2503  0.4528  0.4332
   18CHTO  C100 7308   6.674   6.706  -0.074  0.1334  0.0167 -0.2535
   18CHTO  H187 7309   6.741   6.672   0.006  1.8462  1.5086 -1.0127
   18CHTO  C107 7310   6.549   6.760  -0.003  0.5511 -0.1743 -0.4989
   18CHTO   O70 7311   6.579   6.847   0.105  0.2390  0.0616 -0.2776
   18CHTO  H170 7312   6.512   6.912   0.114  1.5980  1.5505 -0.6689
   18CHTO   O57 7313   6.581   6.907  -0.305 -0.3116 -1.0594 -0.3267
   18CHTO   C85 7314   6.577   7.043  -0.359  0.3675  0.4872 -0.2250
   18CHTO  H157 7315   6.671   7.048  -0.418  0.2182 -1.7805 -0.7167
   18CHTO   C83 7316   6.589   7.144  -0.237  0.3157 -0.2769 -0.4852
   18CHTO  H155 7317   6.684   7.125  -0.186  0.9972 -0.3344 -1.7596
   18CHTO   O56 7318   6.473   7.118  -0.151  0.2055  0.1320 -0.3622
   18CHTO  H135 7319   6.498   7.150  -0.067 -0.1375 -1.9203  0.5406
   18CHTO   C81 7320   6.588   7.290  -0.293  0.5329 -0.2569 -0.5848
   18CHTO  H153 7321   6.677   7.298  -0.356  0.2961 -1.1213 -1.0299
   18CHTO   N14 7322   6.602   7.402  -0.188  0.2174 -0.1277  0.4307
   18CHTO  H141 7323   6.682   7.464  -0.223  1.0471 -1.8678 -0.8145
   18CHTO  H142 7324   6.623   7.380  -0.085 -1.0198 -0.2366  0.6638
   18CHTO   C79 7325   6.461   7.323  -0.377 -0.0727  0.6650 -0.1324
   18CHTO  H151 7326   6.480   7.417  -0.428  1.3139  0.6751  0.3571
   18CHTO   O52 7327   6.445   7.230  -0.485  0.0819  0.1676  0.4270
   18CHTO   C86 7328   6.446   7.091  -0.435 -0.1516  0.3978 -0.8314
   18CHTO  H158 7329   6.357   7.094  -0.370 -0.3130 -0.3542 -1.0182
   18CHTO   C90 7330   6.405   6.991  -0.547  0.2352  0.5491 -0.3245
   18CHTO   O60 7331   6.268   6.966  -0.565  0.3937 -0.0881  0.1366
   18CHTO  H138 7332   6.228   7.050  -0.576  0.8510 -0.0205 -1.1700
   18CHTO   O50 7333   6.337   7.341  -0.304  0.6990  0.4498 -0.3533
   18CHTO   C73 7334   6.210   7.399  -0.341  0.5375 -0.8423  0.5251
   18CHTO  H145 7335   6.192   7.392  -0.449  0.9905  1.1155  0.2987
   18CHTO   C74 7336   6.196   7.555  -0.308 -0.2030 -0.1494  0.3004
   18CHTO  H146 7337   6.273   7.604  -0.370  0.9955  0.6788  2.3921
   18CHTO   O54 7338   6.074   7.605  -0.359  0.0607 -0.2374 -0.6822
   18CHTO  H133 7339   6.076   7.698  -0.372 -2.4196  0.1179  1.0389
   18CHTO   C75 7340   6.218   7.583  -0.159 -0.0863  0.2799 -0.0498
   18CHTO  H147 7341   6.315   7.539  -0.132  0.1633 -0.6125 -2.2834
   18CHTO   N13 7342   6.224   7.723  -0.118  0.2217  0.7743 -0.0219
   18CHTO  H139 7343   6.245   7.784  -0.204  0.6513  0.5376 -0.0844
   18CHTO  H140 7344   6.130   7.749  -0.070  0.9234 -0.2861  2.0104
   18CHTO   C76 7345   6.110   7.491  -0.081  0.2475  0.3499  0.4759
   18CHTO  H148 7346   6.009   7.525  -0.106 -0.3154 -0.3915  1.6566
   18CHTO   O49 7347   6.121   7.353  -0.122  0.8547  0.4337 -0.4882
   18CHTO   C77 7348   6.094   7.321  -0.266  0.2265 -0.7928 -0.3827
   18CHTO  H149 7349   6.003   7.373  -0.297  1.9951  2.5915 -0.1307
   18CHTO   C88 7350   6.081   7.172  -0.295 -0.4101  0.0104  0.0934
   18CHTO   O58 7351   5.961   7.106  -0.231 -0.0687  1.1551  0.0140
   18CHTO  H136 7352   5.995   7.087  -0.145  0.3630 -0.7248 -0.5394
   18CHTO   O51 7353   6.134   7.491   0.081 -0.0970 -0.3449  0.0573
   18CHTO   C78 7354   6.014   7.412   0.155 -0.2734  0.5368 -0.3849
   18CHTO  H150 7355   5.965   7.334   0.093  0.6380  0.1452 -0.6176
   18CHTO   C80 7356   5.905   7.507   0.203  0.8258  0.6530 -0.2120
   18CHTO  H152 7357   5.951   7.601   0.241  0.4178  0.2927  1.2049
   18CHTO   O55 7358   5.836   7.552   0.086  0.3439 -0.2308  0.1792
   18CHTO  H134 7359   5.777   7.484   0.060  0.9875  0.0563 -2.1581
   18CHTO   C84 7360   5.810   7.432   0.305 -0.7401 -0.2992  0.1290
   18CHTO  H156 7361   5.746   7.358   0.257  0.7152 -1.8044  0.4577
   18CHTO   N15 7362   5.714   7.525   0.373 -0.1246  0.2057  0.3068
   18CHTO  H143 7363   5.731   7.630   0.363  2.1347 -0.3265 -1.9728
   18CHTO  H144 7364   5.617   7.506   0.334 -0.8857  0.8382  1.8566
   18CHTO   C87 7365   5.894   7.365   0.417  0.3306  0.8610  0.5113
   18CHTO  H159 7366   5.956   7.437   0.470  2.4084  0.2782 -1.0726
   18CHTO   O53 7367   5.988   7.261   0.356  0.2245  0.3680  0.2238
   18CHTO   C82 7368   6.076   7.332   0.273  0.4189  0.7568  0.4454
   18CHTO  H154 7369   6.135   7.403   0.332  0.4812 -0.0430  1.3534
   18CHTO   C89 7370   6.170   7.225   0.231  0.3431  0.3927 -0.0973
   18CHTO   O59 7371   6.268   7.204   0.331 -0.5037 -0.0737 -0.4079
   18CHTO  H137 7372   6.347   7.253   0.319  0.6990 -1.8518 -0.0218
   18CHTO   O45 7373   5.794   7.282   0.553 -0.1631 -0.4213 -0.1059
   18CHTO   C67 7374   5.844   7.307   0.681  0.5060 -0.4710  0.0296
   18CHTO  H124 7375   5.937   7.360   0.662  0.7312 -0.3548  1.4217
   18CHTO   C65 7376   5.745   7.405   0.768  0.5600 -0.0835  0.9064
   18CHTO  H122 7377   5.642   7.377   0.747  0.0238  1.0000  1.9884
   18CHTO   O44 7378   5.761   7.538   0.709  0.5175  0.3144 -0.2072
   18CHTO  H102 7379   5.684   7.587   0.727 -0.8767 -1.6352 -0.7069
   18CHTO   C63 7380   5.761   7.383   0.925 -0.4022  0.0892  0.3735
   18CHTO  H120 7381   5.708   7.293   0.956  1.8363 -0.5969  2.3963
   18CHTO   N11 7382   5.701   7.487   1.009  0.1865  0.1220  0.0499
   18CHTO  H108 7383   5.613   7.459   1.063  0.7269  0.4704  1.1110
   18CHTO  H109 7384   5.775   7.522   1.077  1.0978  0.8986 -1.3150
   18CHTO   C61 7385   5.908   7.340   0.950  0.6990  0.3243 -0.5395
   18CHTO  H118 7386   5.913   7.327   1.059 -1.3903 -0.2260 -0.4962
   18CHTO   O40 7387   5.947   7.215   0.889 -0.2293 -0.4966 -0.1603
   18CHTO   C68 7388   5.881   7.177   0.759  0.2344  0.1491 -0.2008
   18CHTO  H125 7389   5.794   7.115   0.787  0.5572  0.7356  2.1716
   18CHTO   C72 7390   5.975   7.089   0.668 -0.3779  0.1709  0.4080
   18CHTO   O48 7391   6.014   6.966   0.728 -0.2232  0.2487  0.4987
   18CHTO  H105 7392   6.097   6.986   0.768 -0.2875 -0.3285  0.9240
   18CHTO   O38 7393   6.006   7.442   0.907  0.6194  0.2351  0.3505
   18CHTO   C55 7394   6.129   7.428   0.968  0.8461 -0.6959 -0.3951
   18CHTO  H112 7395   6.140   7.322   0.994  0.6866 -0.8705 -1.0416
   18CHTO   C56 7396   6.146   7.520   1.094 -0.3840  0.7914  0.1344
   18CHTO  H113 7397   6.133   7.624   1.060 -1.5696 -0.0958 -2.2220
   18CHTO   O42 7398   6.039   7.492   1.189 -0.5013 -0.0869 -0.7004
   18CHTO  H100 7399   6.051   7.545   1.265  1.6512 -1.2182 -0.1913
   18CHTO   C57 7400   6.288   7.493   1.155 -0.7723  1.1136  0.2673
   18CHTO  H114 7401   6.286   7.394   1.201 -1.4713  1.0609  0.1270
   18CHTO   N10 7402   6.312   7.590   1.266  0.8992 -0.6289 -0.4071
   18CHTO  H106 7403   6.417   7.606   1.284  1.6676 -1.8545 -3.4233
   18CHTO  H107 7404   6.272   7.545   1.356 -0.7097 -1.1414 -1.3618
   18CHTO   C58 7405   6.403   7.503   1.047 -0.8007 -0.0063 -0.1419
   18CHTO  H115 7406   6.413   7.609   1.014  0.2084 -0.4737 -1.3703
   18CHTO   O37 7407   6.365   7.428   0.932  0.3819 -0.2663  0.0093
   18CHTO   C59 7408   6.241   7.463   0.869  0.2473 -0.1110  0.3329
   18CHTO  H116 7409   6.231   7.568   0.841 -0.5017  0.3343  2.2317
   18CHTO   C70 7410   6.220   7.391   0.740  0.2325  0.9543 -0.3289
   18CHTO   O46 7411   6.236   7.248   0.739 -0.5773 -0.3514  0.3020
   18CHTO  H103 7412   6.187   7.203   0.673  0.4400 -1.3327  0.1895
   18CHTO   O39 7413   6.557   7.442   1.108 -0.1425 -0.3612  0.0216
   18CHTO   C60 7414   6.558   7.296   1.094 -0.1968  0.0538 -0.2077
   18CHTO  H117 7415   6.458   7.254   1.089  0.0034 -0.2726 -1.6096
   18CHTO   C62 7416   6.614   7.259   0.952 -0.2271 -0.3199 -0.3196
   18CHTO  H119 7417   6.552   7.306   0.874  0.8964 -0.2239 -1.1669
   18CHTO   O43 7418   6.754   7.294   0.944 -0.5856  0.7801  0.2091
   18CHTO  H101 7419   6.786   7.249   1.020  0.8744 -1.0308 -1.4230
   18CHTO   C66 7420   6.585   7.106   0.919 -0.0038  0.8300 -0.5703
   18CHTO  H123 7421   6.478   7.089   0.935  0.4818 -0.4594  1.3517
   18CHTO   N12 7422   6.626   7.068   0.784 -0.8369  0.6862 -0.6448
   18CHTO  H110 7423   6.681   7.151   0.742  1.1503 -0.1226  0.3363
   18CHTO  H111 7424   6.551   7.037   0.712  1.0513  0.3046 -2.5283
   18CHTO   C69 7425   6.660   7.022   1.030 -0.0210 -0.8171 -0.5514
   18CHTO  H126 7426   6.766   7.043   1.008  0.4362 -2.5771 -0.1024
   18CHTO   O41 7427   6.628   7.062   1.168  0.0160 -0.2130  0.0884
   18CHTO   C64 7428   6.630   7.223   1.208 -0.3451 -0.3130  0.9034
   18CHTO  H121 7429   6.734   7.262   1.204 -0.5532  0.1593 -0.4008
   18CHTO   C71 7430   6.577   7.263   1.344 -0.1272 -0.2538 -0.0726
   18CHTO   O47 7431   6.636   7.193   1.453  0.2725  0.0265 -0.4492
   18CHTO  H104 7432   6.568   7.212   1.515  2.0453  0.2949  1.4907
   18CHTO   O34 7433   6.622   6.862   1.018 -0.2690 -1.1164 -0.1451
   18CHTO   C49 7434   6.529   6.722   1.019  0.1355  0.6336 -0.1057
   18CHTO   H91 7435   6.606   6.647   1.000  2.1898  2.5421  0.5215
   18CHTO   C47 7436   6.420   6.733   0.904  0.8654 -0.4773  0.1707
   18CHTO   H89 7437   6.375   6.632   0.894  0.1832 -0.2258  0.6846
   18CHTO   O33 7438   6.487   6.763   0.784 -0.3274 -0.2184 -0.1845
   18CHTO   H70 7439   6.462   6.705   0.715 -0.3539 -0.2824 -0.1205
   18CHTO   C45 7440   6.301   6.835   0.947  0.2008  0.4909 -0.1496
   18CHTO   H87 7441   6.323   6.929   0.895  0.5964  1.2295  1.3283
   18CHTO    N8 7442   6.164   6.789   0.911 -0.2935  0.8181 -0.1841
   18CHTO   H75 7443   6.083   6.841   0.960 -0.2233  2.4416 -1.7503
   18CHTO   H76 7444   6.154   6.800   0.804  0.7048  0.4697 -0.3158
   18CHTO   C43 7445   6.319   6.871   1.105  0.9916  0.0460 -0.4334
   18CHTO   H85 7446   6.400   6.944   1.104  0.4026  0.8144  3.1131
   18CHTO   O29 7447   6.346   6.762   1.193 -0.2626  0.1047  0.0629
   18CHTO   C50 7448   6.471   6.699   1.160 -0.3023 -0.3143  0.1843
   18CHTO   H92 7449   6.549   6.740   1.227  0.8168 -1.8026 -0.1750
   18CHTO   C54 7450   6.452   6.554   1.209  0.0890 -0.1066 -0.0664
   18CHTO   O36 7451   6.437   6.552   1.346 -0.7517  1.2372 -0.1320
   18CHTO   H72 7452   6.365   6.607   1.371 -0.9851  0.0256  1.9095
   18CHTO   O27 7453   6.208   6.942   1.159  0.2409 -0.2228  0.2558
   18CHTO   C37 7454   6.145   6.988   1.281 -0.5955 -0.1084  0.6925
   18CHTO   H79 7455   6.144   6.910   1.359  3.5945 -0.3870  0.5812
   18CHTO   C38 7456   6.234   7.107   1.334 -0.4882  0.4506  0.0577
   18CHTO   H80 7457   6.252   7.185   1.259 -0.0798  0.3015  0.0038
   18CHTO   O31 7458   6.365   7.057   1.376  0.0235 -0.1790 -0.5866
   18CHTO   H68 7459   6.431   7.055   1.309  0.9901 -0.4342  0.3489
   18CHTO   C39 7460   6.166   7.188   1.458  0.5733 -0.3195  0.6032
   18CHTO   H81 7461   6.173   7.123   1.546  0.8796 -0.4483  0.4830
   18CHTO    N7 7462   6.232   7.313   1.506 -0.2190 -0.0730 -0.2077
   18CHTO   H73 7463   6.174   7.366   1.580  1.9524  1.1307  0.6631
   18CHTO   H74 7464   6.335   7.283   1.510 -1.0116 -2.9317  0.0434
   18CHTO   C40 7465   6.013   7.207   1.421  0.7771  0.0215  0.5812
   18CHTO   H82 7466   5.979   7.286   1.354 -1.0860 -1.2255  0.0366
   18CHTO   O26 7467   5.956   7.077   1.389 -0.1064  0.0580  0.6433
   18CHTO   C41 7468   6.007   7.039   1.259 -0.3122 -0.1871 -0.3739
   18CHTO   H83 7469   6.007   7.122   1.187  0.8254 -0.2261 -0.4290
   18CHTO   C52 7470   5.915   6.929   1.198  0.2326 -0.8579  0.2008
   18CHTO   O35 7471   5.783   6.980   1.147 -0.2773  0.8850  0.0047
   18CHTO   H71 7472   5.751   7.033   1.217 -1.3695  1.0246 -0.5805
   18CHTO   O28 7473   5.936   7.247   1.538  0.0230 -0.3336 -0.1763
   18CHTO   C42 7474   5.790   7.263   1.550 -0.1408  0.6507 -0.1552
   18CHTO   H84 7475   5.773   7.327   1.637  0.9618  0.7697 -0.0151
   18CHTO   C44 7476   5.720   7.123   1.589 -1.0190 -0.1445 -0.2111
   18CHTO   H86 7477   5.752   7.049   1.516 -0.7467  0.4829 -0.7339
   18CHTO   O32 7478   5.759   7.092   1.728  0.0170  1.0839 -0.4031
   18CHTO   H69 7479   5.811   7.014   1.722 -1.2276  0.3176 -1.4254
   18CHTO   C48 7480   5.562   7.132   1.587  0.1592  0.2619  0.2964
   18CHTO   H90 7481   5.529   7.205   1.661  0.6378  0.4985  0.2748
   18CHTO    N9 7482   5.487   7.004   1.625 -0.0637 -0.6398 -0.1817
   18CHTO   H77 7483   5.497   6.991   1.732 -1.4291  1.1480  0.1815
   18CHTO   H78 7484   5.541   6.922   1.580 -1.0864 -1.0989 -0.5893
   18CHTO   C51 7485   5.523   7.180   1.443 -0.4640  0.0405  0.0288
   18CHTO   H93 7486   5.562   7.113   1.367 -1.5884  1.6512 -2.0224
   18CHTO   O30 7487   5.567   7.315   1.427 -0.7617 -0.1893 -0.1185
   18CHTO   C46 7488   5.725   7.332   1.422 -0.1284 -0.3997 -0.1054
   18CHTO   H88 7489   5.748   7.276   1.331 -0.4314 -0.3284 -0.2273
   18CHTO   C53 7490   5.771   7.480   1.407 -0.6101  1.2344  0.2880
   18CHTO   O72 7491   5.713   7.550   1.516  0.0332  0.2916  0.3829
   18CHTO  H199 7492   5.760   7.631   1.514  0.5560  0.0329  1.4164
   18CHTO   O22 7493   5.379   7.179   1.420 -0.7624 -0.5506 -0.0424
   18CHTO   C31 7494   5.318   7.197   1.285 -0.5207  0.2510 -0.1418
   18CHTO   H59 7495   5.210   7.190   1.305 -0.5210  1.7410  0.4772
   18CHTO   C29 7496   5.341   7.333   1.206  0.8558  0.1217  1.2579
   18CHTO   H57 7497   5.447   7.352   1.185  1.5184 -3.8343  0.5979
   18CHTO   O21 7498   5.304   7.439   1.301  0.3847  0.2817 -0.3585
   18CHTO   H37 7499   5.363   7.459   1.371 -0.0664  0.0213  0.0986
   18CHTO   C27 7500   5.255   7.331   1.071  0.2280 -0.1844  0.1634
   18CHTO   H55 7501   5.150   7.352   1.095  0.8894  2.9701  0.4878
   18CHTO    N5 7502   5.289   7.444   0.981  0.3365  0.5073  0.0740
   18CHTO   H43 7503   5.393   7.444   0.950  0.3481  1.3584  0.0978
   18CHTO   H44 7504   5.227   7.432   0.894  2.8108  1.7206 -1.9465
   18CHTO   C25 7505   5.268   7.191   0.995 -0.2531  0.2126 -0.4142
   18CHTO   H53 7506   5.370   7.185   0.956 -0.1611 -0.2613 -0.1017
   18CHTO   O17 7507   5.260   7.077   1.076  0.6158 -0.7293 -0.2160
   18CHTO   C32 7508   5.355   7.077   1.187  0.3175 -0.0440  0.6167
   18CHTO   H60 7509   5.460   7.087   1.157  0.6188 -2.0911  0.9096
   18CHTO   C36 7510   5.331   6.933   1.242 -0.2219 -0.1447  1.0365
   18CHTO   O25 7511   5.367   6.834   1.151  0.0994  0.3221  0.4897
   18CHTO   H40 7512   5.331   6.846   1.066 -1.0876 -2.4803  0.5530
   18CHTO   O15 7513   5.153   7.186   0.876 -0.1910 -0.6332  0.9856
   18CHTO   C19 7514   5.194   7.146   0.741 -0.1097 -0.3382  0.0463
   18CHTO   H47 7515   5.097   7.123   0.693 -0.0975  1.8920 -1.1114
   18CHTO   C20 7516   5.264   7.261   0.666  0.1551  0.1369  0.1768
   18CHTO   H48 7517   5.357   7.291   0.718  1.3483 -2.9508 -0.0594
   18CHTO   O19 7518   5.158   7.364   0.662 -0.4262  0.2209 -0.1250
   18CHTO   H35 7519   5.172   7.425   0.592 -3.0094  0.3486 -0.5702
   18CHTO   C21 7520   5.313   7.216   0.521  0.9244 -0.3167  0.1124
   18CHTO   H49 7521   5.225   7.209   0.457  1.7267  2.7355 -1.4140
   18CHTO    N4 7522   5.400   7.312   0.454 -0.0471  0.0296 -0.0810
   18CHTO   H41 7523   5.368   7.312   0.351  0.2335 -1.0682 -0.1797
   18CHTO   H42 7524   5.369   7.403   0.503  0.5045 -0.7557  1.8042
   18CHTO   C22 7525   5.388   7.078   0.532  0.4024  0.0658 -0.6174
   18CHTO   H50 7526   5.476   7.099   0.594 -1.0274  2.0166  0.7882
   18CHTO   O14 7527   5.312   6.980   0.610 -0.0942  0.6689 -0.2935
   18CHTO   C23 7528   5.284   7.016   0.745  0.2166  0.9286  0.0376
   18CHTO   H51 7529   5.380   7.034   0.794 -0.2721  0.2278  1.2717
   18CHTO   C34 7530   5.216   6.890   0.810  0.0870  0.1223 -0.1948
   18CHTO   O23 7531   5.100   6.851   0.736 -0.3568  0.4718 -0.6134
   18CHTO   H38 7532   5.097   6.759   0.752  0.1811  0.5175 -0.2447
   18CHTO   O16 7533   5.428   7.011   0.411  0.4229  0.3989 -0.2195
   18CHTO   C24 7534   5.590   7.025   0.388  0.2490 -0.0991  0.2362
   18CHTO   H52 7535   5.630   7.112   0.441  0.2267  0.6297 -0.9420
   18CHTO   C26 7536   5.616   7.041   0.233 -0.4941 -0.5129 -0.3530
   18CHTO   H54 7537   5.560   6.966   0.174  1.3654 -0.2586 -2.5411
   18CHTO   O20 7538   5.580   7.173   0.194  0.1924  0.4086 -0.0005
   18CHTO   H36 7539   5.498   7.198   0.230 -0.3856 -0.5318 -0.6525
   18CHTO   C30 7540   5.767   7.018   0.199  0.1322  0.1226  0.1389
   18CHTO   H58 7541   5.815   7.113   0.224  2.5570 -1.2193  0.7024
   18CHTO    N6 7542   5.790   6.993   0.054  1.0158 -0.7161  0.3479
   18CHTO   H45 7543   5.886   7.028   0.019  0.7027 -2.8402 -2.8687
   18CHTO   H46 7544   5.777   6.890   0.023  3.8551 -0.3800 -2.1753
   18CHTO   C33 7545   5.840   6.904   0.280  0.2710 -0.0244 -0.1340
   18CHTO   H61 7546   5.803   6.807   0.244 -1.8461  1.0636 -0.9562
   18CHTO   O18 7547   5.806   6.915   0.418  0.5670 -0.0176 -0.0782
   18CHTO   C28 7548   5.666   6.900   0.444 -0.0483 -0.2630 -0.3028
   18CHTO   H56 7549   5.619   6.810   0.405  1.5676 -1.0029 -0.5917
   18CHTO   C35 7550   5.655   6.880   0.598  0.6505  0.9133 -0.7278
   18CHTO   O24 7551   5.733   6.761   0.623 -0.2774  0.1023 -0.1690
   18CHTO   H39 7552   5.704   6.714   0.698 -0.3590  1.4341  0.6391
   18CHTO    O9 7553   5.984   6.904   0.263  0.2628 -0.1230 -0.2606
   18CHTO   C13 7554   6.063   6.797   0.172  0.0460  0.1142 -0.3159
   18CHTO   H26 7555   6.065   6.836   0.068  0.3226 -0.7070 -0.6212
   18CHTO   C11 7556   5.997   6.654   0.186  0.6191 -0.2175 -0.0351
   18CHTO   H24 7557   5.905   6.664   0.126 -0.4259  0.8454  1.7114
   18CHTO    O8 7558   5.968   6.619   0.322 -0.3876  0.5193 -0.0505
   18CHTO    H3 7559   6.029   6.660   0.381 -0.0838 -2.8307  2.0993
   18CHTO    C9 7560   6.092   6.560   0.112  0.0104  1.1685  1.1887
   18CHTO   H22 7561   6.111   6.602   0.012 -0.1662 -2.9340 -0.6914
   18CHTO    N2 7562   6.042   6.424   0.086 -0.0641  0.7217  0.9673
   18CHTO   H10 7563   6.114   6.350   0.056 -1.7822 -0.5458 -0.1477
   18CHTO   H11 7564   5.956   6.422   0.021 -0.3925 -2.1267  1.4166
   18CHTO    C7 7565   6.235   6.553   0.177 -0.0259 -0.3903 -0.1873
   18CHTO   H20 7566   6.294   6.488   0.110  0.1233  0.4563 -0.8944
   18CHTO    O4 7567   6.293   6.689   0.184  0.2439  0.2999 -0.7014
   18CHTO   C14 7568   6.219   6.804   0.214  0.4401  0.0887 -0.2630
   18CHTO   H27 7569   6.253   6.893   0.157  0.5379  1.3277  1.6570
   18CHTO   C18 7570   6.245   6.834   0.368 -0.3759 -0.2698 -0.4707
   18CHTO   O13 7571   6.367   6.900   0.410 -0.0778  1.1735  0.3147
   18CHTO    H7 7572   6.439   6.915   0.351  0.0762 -0.5876  0.0097
   18CHTO    O2 7573   6.238   6.500   0.300  0.1357 -0.3786 -0.7687
   18CHTO    C1 7574   6.353   6.439   0.359 -0.0046 -1.0267 -1.0511
   18CHTO   H14 7575   6.436   6.512   0.363 -0.0078 -0.9976 -1.4501
   18CHTO    C2 7576   6.414   6.309   0.282 -0.6016  0.2434  0.9558
   18CHTO   H15 7577   6.327   6.243   0.268 -0.6615 -0.1432  3.0667
   18CHTO    O6 7578   6.459   6.353   0.152 -0.3998  0.3971  0.0013
   18CHTO    H1 7579   6.396   6.380   0.088  0.3329 -1.3709 -1.4935
   18CHTO    C3 7580   6.538   6.241   0.361 -0.7066  0.3556 -0.3844
   18CHTO   H16 7581   6.633   6.293   0.344  0.4913 -2.3706 -2.3177
   18CHTO    N1 7582   6.567   6.102   0.307  0.9218  0.2780  0.2342
   18CHTO    H8 7583   6.643   6.057   0.369  1.7267  1.3726  0.0539
   18CHTO    H9 7584   6.479   6.040   0.302  1.3038 -0.2781  0.2646
   18CHTO    C4 7585   6.518   6.236   0.525  0.1490  0.5461  0.1386
   18CHTO   H17 7586   6.467   6.144   0.553  0.9478 -0.3368 -1.2250
   18CHTO    O1 7587   6.448   6.355   0.559 -0.3637  0.2321 -0.2393
   18CHTO    C5 7588   6.326   6.397   0.501  0.3251  0.0525 -0.2364
   18CHTO   H18 7589   6.262   6.310   0.490  0.6142 -0.2534  0.4663
   18CHTO   C16 7590   6.251   6.498   0.597 -0.0787 -0.0431  0.1961
   18CHTO   O11 7591   6.337   6.602   0.624  0.4237 -0.3777 -0.3432
   18CHTO    H5 7592   6.286   6.675   0.653 -1.9141 -0.4409 -3.9683
   18CHTO    O3 7593   6.649   6.246   0.587 -0.1936  0.4587  0.1896
   18CHTO    C6 7594   6.662   6.164   0.705  0.1280 -0.0997  0.6226
   18CHTO   H19 7595   6.564   6.124   0.733  0.0068 -1.2389 -1.3706
   18CHTO    C8 7596   6.760   6.050   0.678 -0.1382  0.6218 -0.1183
   18CHTO   H21 7597   6.854   6.093   0.644  0.3562  0.4758  1.0752
   18CHTO    O7 7598   6.697   5.957   0.582  0.2259 -0.0584 -0.8562
   18CHTO    H2 7599   6.659   6.004   0.510  1.3334  0.5966 -1.0252
   18CHTO   C12 7600   6.787   5.975   0.808 -0.9011  0.0769 -0.3312
   18CHTO   H25 7601   6.685   5.935   0.827 -0.2867 -2.1653 -1.5498
   18CHTO    N3 7602   6.873   5.852   0.799 -0.1645 -0.6422  0.0475
   18CHTO   H12 7603   6.798   5.776   0.783 -0.7983 -0.0965  0.4431
   18CHTO   H13 7604   6.931   5.835   0.888 -0.1821 -0.4490  0.0950
   18CHTO   C15 7605   6.829   6.074   0.924  0.1516  0.5298  0.1330
   18CHTO   H28 7606   6.923   6.125   0.901  0.3877 -1.3810 -3.6407
   18CHTO   O10 7607   6.836   5.994   1.072 -0.0898  0.3489  0.5426
   18CHTO    H4 7608   6.807   5.905   1.061 -0.7034  0.6008  0.1160
   18CHTO    O5 7609   6.731   6.172   0.941  0.6389  0.0211  0.2202
   18CHTO   C10 7610   6.711   6.254   0.826  0.3229 -0.1976  0.6192
   18CHTO   H23 7611   6.807   6.300   0.800 -0.3468  2.0407  1.9770
   18CHTO   C17 7612   6.609   6.365   0.868 -0.4683  0.4634  0.1574
   18CHTO   O12 7613   6.600   6.472   0.774  0.1123  0.8232  0.6394
   18CHTO    H6 7614   6.520   6.512   0.802  0.1968  2.3331 -1.1650
   19CHTO  H203 7615   6.797   7.947   1.719 -0.4659  0.2807 -0.1724
   19CHTO   O82 7616   6.739   7.983   1.783 -0.2600  0.5351 -0.1296
   19CHTO  C123 7617   6.610   7.926   1.756  0.1245  0.2461 -1.1609
   19CHTO  H227 7618   6.557   7.982   1.678  0.0433 -2.2345 -2.9623
   19CHTO   O77 7619   6.636   7.790   1.713  0.4101 -0.5319 -0.0097
   19CHTO  C118 7620   6.522   7.710   1.678  1.1424 -0.5379 -0.3792
   19CHTO  H222 7621   6.478   7.760   1.590  1.4414 -0.1456 -0.3082
   19CHTO  C125 7622   6.557   7.559   1.637  0.5265 -0.8585  0.2906
   19CHTO   O84 7623   6.623   7.555   1.510  0.0122 -0.4693 -0.4085
   19CHTO  H205 7624   6.705   7.598   1.525 -0.4006  0.2011 -0.0395
   19CHTO  C114 7625   6.412   7.712   1.790 -0.0084  0.3333 -0.0862
   19CHTO  H218 7626   6.451   7.670   1.882 -2.3404  0.7359  1.1275
   19CHTO  C116 7627   6.378   7.856   1.829 -0.1008 -0.4258 -0.0710
   19CHTO  H220 7628   6.332   7.912   1.745  0.2034  1.6288  1.0932
   19CHTO   O79 7629   6.275   7.839   1.927  0.1641  0.6680 -0.9327
   19CHTO  H201 7630   6.311   7.827   2.013 -0.1191  0.2512 -0.8724
   19CHTO  C120 7631   6.511   7.924   1.880 -0.1639  0.7929 -0.1921
   19CHTO  H224 7632   6.552   7.872   1.968 -1.7461  1.3962  0.9263
   19CHTO   N21 7633   6.488   8.059   1.936 -0.3908 -0.5666  0.4190
   19CHTO  H211 7634   6.568   8.129   1.918  0.3259 -1.7618 -1.1690
   19CHTO  H212 7635   6.477   8.066   2.043  0.8250  1.5502  0.4305
   19CHTO   O75 7636   6.305   7.633   1.739  0.5494 -0.6654 -0.0803
   19CHTO  C112 7637   6.255   7.513   1.846 -0.2160  0.1362 -0.1214
   19CHTO  H216 7638   6.278   7.531   1.952  2.0458 -0.2276 -0.5097
   19CHTO   O73 7639   6.316   7.391   1.801 -0.9313 -0.0507 -0.3320
   19CHTO  C113 7640   6.295   7.284   1.897 -0.2700 -0.2362 -0.4587
   19CHTO  H217 7641   6.331   7.323   1.994 -0.9360 -1.4794  0.2952
   19CHTO  C124 7642   6.369   7.155   1.870  0.4216  0.2734  0.2901
   19CHTO   O83 7643   6.512   7.167   1.876 -0.1767 -0.3838 -0.1528
   19CHTO  H204 7644   6.544   7.208   1.954  1.6675  0.0821 -1.1299
   19CHTO  C109 7645   6.141   7.247   1.890  0.2488  0.0665 -0.2597
   19CHTO  H213 7646   6.125   7.197   1.793  1.8052 -2.4108  0.6899
   19CHTO  C110 7647   6.046   7.375   1.915 -0.3137 -0.1361  0.5938
   19CHTO  H214 7648   6.040   7.398   2.021 -0.4022  1.2513  0.2939
   19CHTO   O78 7649   5.912   7.351   1.881  0.5260  0.6168 -0.0202
   19CHTO  H200 7650   5.874   7.273   1.918 -1.7504  1.6592 -0.0531
   19CHTO  C111 7651   6.098   7.493   1.829  0.2346 -0.4809 -0.1423
   19CHTO  H215 7652   6.081   7.470   1.723 -1.4846 -0.2729  0.0636
   19CHTO   N19 7653   6.035   7.626   1.856  0.8301 -0.5782  0.1485
   19CHTO  H207 7654   5.986   7.659   1.766  0.6909  2.4328  1.2632
   19CHTO  H208 7655   5.973   7.639   1.944 -0.0325 -0.2198 -0.5074
   19CHTO   O74 7656   6.114   7.146   1.992  0.1960  0.1351 -0.7761
   19CHTO  C115 7657   6.022   7.035   1.940  0.0573  0.3539 -0.2278
   19CHTO  H219 7658   5.945   7.078   1.877 -1.0694  1.0693  1.5783
   19CHTO   O76 7659   6.109   6.928   1.841  0.3011 -0.7856  0.0643
   19CHTO  C122 7660   6.034   6.808   1.816 -0.1638 -0.3139 -0.2094
   19CHTO  H226 7661   6.105   6.737   1.774 -0.8983 -1.1102 -0.1255
   19CHTO  C126 7662   5.936   6.837   1.701  0.1347 -0.4140 -0.6952
   19CHTO   O85 7663   5.871   6.718   1.658 -0.6039  0.3046  0.1915
   19CHTO  H206 7664   5.811   6.736   1.588 -0.4555 -3.2134 -0.9325
   19CHTO  C121 7665   5.980   6.738   1.953 -0.1573  0.9571  0.0626
   19CHTO  H225 7666   5.930   6.644   1.923 -0.0241  0.6527  0.7881
   19CHTO   O81 7667   6.097   6.701   2.024 -0.2436 -0.1437 -0.3391
   19CHTO  H202 7668   6.087   6.732   2.112  0.3581  1.6411 -0.8565
   19CHTO  C119 7669   5.877   6.841   2.022 -0.5116 -0.6655  0.3314
   19CHTO  H223 7670   5.812   6.875   1.942  1.3723 -0.0485 -0.9623
   19CHTO  C117 7671   5.958   6.971   2.064 -0.5780 -0.4128  0.0046
   19CHTO  H221 7672   6.047   6.952   2.124 -0.2164 -0.3413 -0.5030
   19CHTO   N20 7673   5.873   7.060   2.157 -0.0455 -0.2016  0.0367
   19CHTO  H209 7674   5.862   7.014   2.254  1.6677 -1.2297 -0.2348
   19CHTO  H210 7675   5.920   7.156   2.168  0.5140 -0.4999  0.2487
   19CHTO   O80 7676   5.765   6.768   2.135  0.0366  0.4715  0.2993
   19CHTO  C103 7677   5.735   6.596   2.140  0.3153  0.0053  0.8317
   19CHTO  H190 7678   5.793   6.548   2.062  0.6375 -0.6872  1.5041
   19CHTO  C101 7679   5.776   6.520   2.271  0.7272 -0.1823  0.5853
   19CHTO  H188 7680   5.717   6.554   2.357  1.7981  0.4413  1.0852
   19CHTO   O68 7681   5.946   6.554   2.303 -0.5144  0.1610  0.0326
   19CHTO  H168 7682   5.949   6.601   2.384  1.6950  1.2221 -0.6160
   19CHTO   C99 7683   5.737   6.372   2.253 -0.2966 -0.3047 -0.0820
   19CHTO  H186 7684   5.781   6.339   2.157  1.5135  0.7608  0.3610
   19CHTO   N17 7685   5.792   6.276   2.363  0.8379 -0.0459 -0.1356
   19CHTO  H174 7686   5.875   6.322   2.415  0.5859 -0.3425  0.5329
   19CHTO  H175 7687   5.718   6.238   2.431 -0.4004  0.9827 -0.8856
   19CHTO   C97 7688   5.582   6.373   2.235  0.9578  0.7289  0.1407
   19CHTO  H184 7689   5.540   6.423   2.324 -0.1542 -0.2512  0.1719
   19CHTO   O64 7690   5.548   6.443   2.114 -0.0701 -0.0924 -0.0428
   19CHTO  C104 7691   5.585   6.575   2.103 -0.4379 -0.4688 -0.0303
   19CHTO  H191 7692   5.525   6.627   2.178  0.6088  0.0563  0.4568
   19CHTO  C108 7693   5.554   6.641   1.968 -0.3254 -0.6084  0.5535
   19CHTO   O71 7694   5.599   6.560   1.857 -0.3514  0.1509  0.2405
   19CHTO  H171 7695   5.646   6.611   1.793 -0.0396 -0.1346  0.2421
   19CHTO   O62 7696   5.527   6.246   2.217  0.5156 -0.1646 -0.0452
   19CHTO   C91 7697   5.387   6.232   2.174 -0.3410 -0.4855  0.4594
   19CHTO  H178 7698   5.342   6.329   2.152 -2.3817 -1.3139  0.8803
   19CHTO   C92 7699   5.303   6.172   2.288 -0.2963  0.7946 -0.1249
   19CHTO  H179 7700   5.358   6.086   2.329  1.1960  1.5624 -0.4544
   19CHTO   O66 7701   5.300   6.270   2.399 -0.1081 -0.5653 -0.4269
   19CHTO  H166 7702   5.385   6.272   2.439  0.0506 -0.8403 -0.7538
   19CHTO   C93 7703   5.148   6.124   2.253 -0.6946 -0.0928  0.4396
   19CHTO  H180 7704   5.092   6.218   2.241 -1.4802 -0.7661 -1.3669
   19CHTO   N16 7705   5.069   6.046   2.355  0.2209  0.0875 -0.4607
   19CHTO  H172 7706   5.133   5.966   2.389 -1.7261 -1.9330 -1.3669
   19CHTO  H173 7707   4.968   6.022   2.323  0.2581 -2.3228  1.1056
   19CHTO   C94 7708   5.162   6.041   2.126 -0.7600 -0.8022  0.7407
   19CHTO  H181 7709   5.218   5.950   2.146 -0.7155 -0.9655 -0.1304
   19CHTO   O61 7710   5.224   6.118   2.025 -0.5451 -0.0666 -0.1385
   19CHTO   C95 7711   5.363   6.151   2.044  0.3337  0.3874 -0.6540
   19CHTO  H182 7712   5.414   6.055   2.051 -0.6955 -0.3045 -2.2607
   19CHTO  C106 7713   5.421   6.217   1.910  0.5459  0.4981  0.0241
   19CHTO   O69 7714   5.439   6.112   1.813 -0.2417 -0.3753  0.1115
   19CHTO  H169 7715   5.490   6.141   1.740 -1.2788  1.2971  0.0267
   19CHTO   O63 7716   5.006   6.006   2.062 -0.1323  0.6568 -0.0718
   19CHTO   C96 7717   5.007   5.866   1.989  0.2108  0.1014  0.2883
   19CHTO  H183 7718   5.052   5.798   2.061  0.5321  1.7373  1.6365
   19CHTO   C98 7719   5.095   5.866   1.860 -0.0843  0.0804  0.3017
   19CHTO  H185 7720   5.197   5.907   1.873 -0.4079  1.2334 -0.6890
   19CHTO   O67 7721   5.122   5.728   1.832  0.0406  0.0305 -0.0748
   19CHTO  H167 7722   5.040   5.684   1.848 -0.5102  1.3593  0.8481
   19CHTO  C102 7723   5.026   5.943   1.738  0.3142  0.5484  0.0642
   19CHTO  H189 7724   5.089   5.918   1.652 -0.6330  0.0866 -0.4989
   19CHTO   N18 7725   5.031   6.093   1.739  0.5049 -0.1058 -0.4307
   19CHTO  H176 7726   5.066   6.127   1.835 -1.5338 -1.2614  0.7479
   19CHTO  H177 7727   5.099   6.121   1.660 -0.3024 -1.1930 -1.5494
   19CHTO  C105 7728   4.875   5.886   1.725  0.0458 -0.4212 -0.0409
   19CHTO  H192 7729   4.800   5.963   1.741 -0.3477 -1.1925  1.8907
   19CHTO   O65 7730   4.843   5.781   1.812 -0.1864 -0.4585  0.8900
   19CHTO  C100 7731   4.864   5.812   1.956 -0.0951  0.1793  0.8566
   19CHTO  H187 7732   4.797   5.894   1.983  0.7933  0.9010  0.8886
   19CHTO  C107 7733   4.819   5.692   2.046 -0.1331  0.1863 -0.4030
   19CHTO   O70 7734   4.913   5.585   2.049 -0.1700  0.1337 -0.0738
   19CHTO  H170 7735   4.994   5.614   2.086  1.4131 -1.3566 -2.2891
   19CHTO   O57 7736   4.857   5.825   1.573 -0.6017 -0.2723  0.1292
   19CHTO   C85 7737   4.749   5.782   1.490  0.5604 -0.3758  0.4152
   19CHTO  H157 7738   4.663   5.776   1.560  0.0091 -0.5415 -0.2693
   19CHTO   C83 7739   4.781   5.629   1.446  1.0901 -0.2622  0.1298
   19CHTO  H155 7740   4.780   5.565   1.534  2.2450 -0.0501  0.2925
   19CHTO   O56 7741   4.918   5.622   1.401  0.3418 -0.7466 -0.3759
   19CHTO  H135 7742   4.928   5.680   1.328 -0.5119  0.6949  0.6346
   19CHTO   C81 7743   4.676   5.576   1.343 -1.6825  0.5587 -0.3822
   19CHTO  H153 7744   4.579   5.577   1.394 -1.2103  0.0519  0.5367
   19CHTO   N14 7745   4.695   5.435   1.316 -1.0231 -0.4046  0.1261
   19CHTO  H141 7746   4.774   5.395   1.376 -1.2195  0.3361  0.8904
   19CHTO  H142 7747   4.701   5.397   1.216  0.0066 -0.4341  0.1970
   19CHTO   C79 7748   4.666   5.678   1.222 -0.2416  0.4150 -0.4834
   19CHTO  H151 7749   4.586   5.646   1.154 -0.5419  0.0363  0.0430
   19CHTO   O52 7750   4.632   5.812   1.272 -0.1652 -0.3646 -0.3623
   19CHTO   C86 7751   4.720   5.874   1.368  0.0019  0.1685  0.0561
   19CHTO  H158 7752   4.813   5.897   1.312  0.6672  0.3886  1.2336
   19CHTO   C90 7753   4.660   6.007   1.404 -0.1583  0.1245 -0.2107
   19CHTO   O60 7754   4.745   6.078   1.497  0.0999  0.2457 -0.5096
   19CHTO  H138 7755   4.815   6.122   1.453  0.7259  0.7185  0.9162
   19CHTO   O50 7756   4.784   5.697   1.143  0.1901  0.0466 -0.0441
   19CHTO   C73 7757   4.869   5.665   1.032  0.0376  0.3841 -0.5463
   19CHTO  H145 7758   4.837   5.570   0.988 -0.2473  0.1646  0.1328
   19CHTO   C74 7759   5.024   5.644   1.080  0.3793 -0.5716  0.1213
   19CHTO  H146 7760   5.023   5.564   1.155 -2.1184 -0.8998 -0.2403
   19CHTO   O54 7761   5.103   5.597   0.970  0.2087  0.2492 -0.4936
   19CHTO  H133 7762   5.091   5.660   0.902 -0.3392 -0.4757 -1.0718
   19CHTO   C75 7763   5.080   5.781   1.139  0.1706 -0.5198 -0.3772
   19CHTO  H147 7764   5.037   5.799   1.238  2.3681  2.3864  0.1079
   19CHTO   N13 7765   5.225   5.783   1.174  0.6106 -0.1596 -0.1295
   19CHTO  H139 7766   5.265   5.884   1.168  1.0900 -0.1075  2.9531
   19CHTO  H140 7767   5.244   5.758   1.278  0.5366 -0.2485 -0.1377
   19CHTO   C76 7768   5.038   5.897   1.047  0.6200 -0.7967  0.9113
   19CHTO  H148 7769   5.117   5.923   0.977 -2.5651 -2.2203 -3.4148
   19CHTO   O49 7770   4.903   5.891   0.975  0.2713 -0.2738  0.2159
   19CHTO   C77 7771   4.875   5.769   0.914  0.3906 -0.6423  0.1945
   19CHTO  H149 7772   4.955   5.742   0.844  0.0152  0.3605 -0.6416
   19CHTO   C88 7773   4.746   5.792   0.829  0.0656  0.1634 -0.2513
   19CHTO   O58 7774   4.628   5.836   0.904 -0.6012  0.0744 -0.1306
   19CHTO  H136 7775   4.635   5.930   0.908  0.8457 -0.0310 -0.1275
   19CHTO   O51 7776   5.013   6.018   1.141 -0.1579 -0.2610  0.0864
   19CHTO   C78 7777   5.016   6.165   1.047 -0.3428 -0.1441 -0.0548
   19CHTO  H150 7778   5.016   6.152   0.937 -0.1597 -0.0643 -0.0647
   19CHTO   C80 7779   5.141   6.246   1.099  0.1809  0.6153  0.0847
   19CHTO  H152 7780   5.130   6.250   1.209 -0.3445  0.8206  0.0292
   19CHTO   O55 7781   5.252   6.164   1.054 -0.0850 -0.6999  0.3222
   19CHTO  H134 7782   5.264   6.161   0.961 -3.7375  0.3292 -0.2648
   19CHTO   C84 7783   5.150   6.392   1.040  0.1982 -0.2557  0.2442
   19CHTO  H156 7784   5.163   6.387   0.932 -0.7275  1.4584  0.0335
   19CHTO   N15 7785   5.275   6.467   1.087 -0.3275 -0.2824  0.0366
   19CHTO  H143 7786   5.363   6.406   1.090 -0.4384 -0.5319 -1.5598
   19CHTO  H144 7787   5.264   6.515   1.182  0.5875 -1.9842  1.0249
   19CHTO   C87 7788   5.016   6.459   1.068  0.4121  0.0978  0.1728
   19CHTO  H159 7789   5.009   6.482   1.174 -3.2527 -1.9359  0.4785
   19CHTO   O53 7790   4.898   6.365   1.008  0.6192 -0.1591 -0.3948
   19CHTO   C82 7791   4.883   6.241   1.078  0.2723 -0.4960 -0.2883
   19CHTO  H154 7792   4.864   6.257   1.184 -1.1297  1.5304 -0.8076
   19CHTO   C89 7793   4.762   6.166   1.021  0.4461  0.0597 -0.2315
   19CHTO   O59 7794   4.721   6.055   1.098  0.4554 -0.0513 -0.0450
   19CHTO  H137 7795   4.635   6.062   1.136  1.0469 -1.7520  1.6568
   19CHTO   O45 7796   5.010   6.606   0.983  0.2388  0.5318 -0.4164
   19CHTO   C67 7797   4.913   6.687   1.052  0.1782  0.0090  0.4418
   19CHTO  H124 7798   4.853   6.625   1.119  0.0041 -0.9175 -0.5644
   19CHTO   C65 7799   4.985   6.805   1.129 -0.2960 -0.1481  0.4898
   19CHTO  H122 7800   5.065   6.833   1.060 -0.3642 -3.3290 -0.9516
   19CHTO   O44 7801   5.045   6.757   1.255 -0.7755 -0.2828  0.0566
   19CHTO  H102 7802   5.099   6.682   1.241  1.0527  1.2622 -1.3780
   19CHTO   C63 7803   4.889   6.934   1.141 -0.4781  0.1821  0.0518
   19CHTO  H120 7804   4.899   6.989   1.048 -1.8628  0.8960  0.3215
   19CHTO   N11 7805   4.936   7.042   1.236 -0.0121 -0.1600  0.1734
   19CHTO  H108 7806   4.851   7.065   1.297 -0.4142 -2.1598  0.3873
   19CHTO  H109 7807   4.958   7.127   1.174  0.9958 -2.2636 -2.4841
   19CHTO   C61 7808   4.733   6.882   1.154  0.0450 -0.4244  0.5198
   19CHTO  H118 7809   4.672   6.974   1.161 -0.6897 -0.9677  1.5260
   19CHTO   O40 7810   4.697   6.813   1.029  0.0547 -0.2374 -0.3346
   19CHTO   C68 7811   4.807   6.748   0.954 -0.0438 -0.0980  0.1816
   19CHTO  H125 7812   4.866   6.821   0.895 -1.9870  0.2429 -1.3846
   19CHTO   C72 7813   4.745   6.642   0.860 -0.6778 -0.8507 -0.1698
   19CHTO   O48 7814   4.650   6.558   0.922 -0.9670 -0.2506 -0.3125
   19CHTO  H105 7815   4.588   6.532   0.857  0.5963 -1.1773 -1.4777
   19CHTO   O38 7816   4.727   6.802   1.275  0.7130 -0.4691  0.0540
   19CHTO   C55 7817   4.590   6.780   1.325  0.0004 -0.0719  0.1244
   19CHTO  H112 7818   4.518   6.784   1.242 -1.3154 -0.7963  1.2084
   19CHTO   C56 7819   4.551   6.873   1.442 -0.2000  0.0580 -0.1846
   19CHTO  H113 7820   4.631   6.859   1.516  0.4829 -0.3304 -0.9767
   19CHTO   O42 7821   4.542   7.012   1.394 -0.0469  0.1766  0.2387
   19CHTO  H100 7822   4.561   7.026   1.304  1.4189  1.3166  0.7139
   19CHTO   C57 7823   4.406   6.836   1.507  1.0168  0.3477 -0.7680
   19CHTO  H114 7824   4.333   6.872   1.434 -0.6050 -1.4132 -0.0728
   19CHTO   N10 7825   4.380   6.916   1.628  0.2140  0.1714  0.0020
   19CHTO  H106 7826   4.393   7.020   1.605  0.8323 -0.1338 -1.0550
   19CHTO  H107 7827   4.278   6.898   1.659  0.8248 -2.7014  0.5006
   19CHTO   C58 7828   4.389   6.684   1.531 -0.2427 -0.3741  0.1400
   19CHTO  H115 7829   4.444   6.657   1.623 -0.6152 -1.3629  0.0783
   19CHTO   O37 7830   4.449   6.606   1.423  0.6706 -0.6828  0.0566
   19CHTO   C59 7831   4.583   6.636   1.380 -0.2137 -0.7473  0.9651
   19CHTO  H116 7832   4.652   6.626   1.464  2.0452 -1.1184 -0.8909
   19CHTO   C70 7833   4.618   6.531   1.268 -0.5982 -0.4894 -0.4944
   19CHTO   O46 7834   4.605   6.394   1.313  0.0086  0.1042 -0.0403
   19CHTO  H103 7835   4.678   6.348   1.351  0.3809 -0.1068 -0.9794
   19CHTO   O39 7836   4.224   6.636   1.534 -0.6470  0.4429 -0.3399
   19CHTO   C60 7837   4.161   6.621   1.403 -0.4733  0.2783 -0.5641
   19CHTO  H117 7838   4.227   6.663   1.327  0.9812  1.9440  1.5895
   19CHTO   C62 7839   4.137   6.475   1.367  1.2367  0.1778  0.4561
   19CHTO  H119 7840   4.239   6.432   1.360  1.3106  0.3775  0.3239
   19CHTO   O43 7841   4.076   6.399   1.474  0.6916  0.3734  0.1724
   19CHTO  H101 7842   3.987   6.428   1.485  0.9225  1.1187  0.0723
   19CHTO   C66 7843   4.065   6.448   1.227  0.4200  0.3623 -0.3099
   19CHTO  H123 7844   4.136   6.482   1.153  1.5865  0.4597  0.8305
   19CHTO   N12 7845   4.026   6.310   1.190  0.3814  0.1841  0.6537
   19CHTO  H110 7846   3.968   6.316   1.099 -1.1132  0.9954  1.6391
   19CHTO  H111 7847   4.109   6.240   1.189 -0.4181 -0.7684 -1.0398
   19CHTO   C69 7848   3.945   6.540   1.200 -0.5967 -0.2888 -0.0309
   19CHTO  H126 7849   3.851   6.517   1.254 -1.2901 -0.6386 -1.3642
   19CHTO   O41 7850   3.969   6.685   1.254 -0.0129 -0.5921  0.4555
   19CHTO   C64 7851   4.023   6.692   1.395  0.0366  0.0112  0.5553
   19CHTO  H121 7852   3.949   6.655   1.469 -0.0736 -2.6158 -0.8328
   19CHTO   C71 7853   4.049   6.846   1.442  0.9019  0.2166 -0.4151
   19CHTO   O47 7854   3.924   6.918   1.457  0.0884  0.1121 -0.6182
   19CHTO  H104 7855   3.940   7.002   1.495  1.2912 -0.8924  1.1155
   19CHTO   O34 7856   3.915   6.548   1.051 -0.3418  1.1650  0.1917
   19CHTO   C49 7857   3.957   6.614   0.922 -0.0863 -0.4871  0.2222
   19CHTO   H91 7858   3.932   6.719   0.935  2.4615  0.1551  0.2960
   19CHTO   C47 7859   3.896   6.548   0.791  0.7093 -0.5532  0.3509
   19CHTO   H89 7860   3.912   6.618   0.706 -0.1010  1.2221  1.6309
   19CHTO   O33 7861   3.750   6.550   0.818 -0.4994 -0.1217  0.6012
   19CHTO   H70 7862   3.712   6.630   0.786 -0.3906  0.6264  2.3021
   19CHTO   C45 7863   3.948   6.399   0.779 -0.5417  0.9937  0.3452
   19CHTO   H87 7864   3.908   6.341   0.864 -1.2391 -0.7070 -1.0905
   19CHTO    N8 7865   3.890   6.343   0.647  0.2573  0.0547 -0.0821
   19CHTO   H75 7866   3.961   6.295   0.582 -0.1185 -0.6067 -0.0086
   19CHTO   H76 7867   3.796   6.375   0.604 -0.1912 -0.4871  0.4881
   19CHTO   C43 7868   4.103   6.398   0.792  0.6883  0.4792 -0.1596
   19CHTO   H85 7869   4.136   6.295   0.803 -0.3685  0.0269 -1.2722
   19CHTO   O29 7870   4.160   6.482   0.895 -0.0371 -0.1220 -0.1649
   19CHTO   C50 7871   4.107   6.611   0.913  0.9091 -0.7092 -0.5741
   19CHTO   H92 7872   4.154   6.662   0.999  1.2258  0.4688 -1.4271
   19CHTO   C54 7873   4.158   6.698   0.798  0.0634 -0.0970 -0.3833
   19CHTO   O36 7874   4.299   6.725   0.802 -0.0673 -0.0201 -0.0664
   19CHTO   H72 7875   4.321   6.771   0.724 -1.1065 -0.2139 -0.4858
   19CHTO   O27 7876   4.162   6.425   0.666 -0.6731 -0.3703 -0.1036
   19CHTO   C37 7877   4.279   6.414   0.572 -0.1763 -0.0619 -0.4438
   19CHTO   H79 7878   4.264   6.332   0.501 -1.2787  1.8168 -2.4270
   19CHTO   C38 7879   4.282   6.534   0.480  0.0623  0.3960 -0.5000
   19CHTO   H80 7880   4.296   6.624   0.542  1.1448  1.5352 -2.3385
   19CHTO   O31 7881   4.156   6.529   0.402 -0.0197 -0.3221 -0.2979
   19CHTO   H68 7882   4.153   6.460   0.339 -0.4477  0.0675 -0.7049
   19CHTO   C39 7883   4.413   6.536   0.386 -0.4432  1.0219 -1.0445
   19CHTO   H81 7884   4.415   6.448   0.322 -0.3202  1.0949 -1.1415
   19CHTO    N7 7885   4.417   6.661   0.298 -0.2020 -0.5457 -0.0274
   19CHTO   H73 7886   4.500   6.651   0.229 -0.1283 -1.5029  0.1978
   19CHTO   H74 7887   4.330   6.660   0.234 -0.0540 -0.4558 -0.2318
   19CHTO   C40 7888   4.536   6.515   0.473 -0.0133 -0.9888 -0.1062
   19CHTO   H82 7889   4.530   6.601   0.539  0.7979 -0.8167 -0.2600
   19CHTO   O26 7890   4.515   6.394   0.548  0.1972  0.1259 -0.1834
   19CHTO   C41 7891   4.415   6.397   0.648 -0.0680  0.3816 -0.0987
   19CHTO   H83 7892   4.431   6.481   0.718 -0.6827 -0.1466  0.6831
   19CHTO   C52 7893   4.414   6.269   0.743 -0.0918 -0.2429 -0.2651
   19CHTO   O35 7894   4.551   6.274   0.813 -0.2351  0.0444  0.0098
   19CHTO   H71 7895   4.614   6.240   0.753 -1.6833  0.8634 -2.0488
   19CHTO   O28 7896   4.661   6.511   0.401  0.0446  0.3559 -0.2036
   19CHTO   C42 7897   4.777   6.581   0.460 -0.3331 -0.0126  0.5461
   19CHTO   H84 7898   4.742   6.633   0.549 -1.0140  1.2351 -0.4249
   19CHTO   C44 7899   4.831   6.696   0.359 -0.0154  0.2870 -0.0139
   19CHTO   H86 7900   4.829   6.673   0.252  0.3699  0.8029 -0.1387
   19CHTO   O32 7901   4.723   6.796   0.360  0.0109 -0.2344 -0.2690
   19CHTO   H69 7902   4.726   6.853   0.434 -0.2567 -0.2907 -0.2161
   19CHTO   C48 7903   4.969   6.758   0.395 -0.0467 -0.3381 -0.0586
   19CHTO   H90 7904   4.967   6.811   0.491 -1.1139  0.3872 -0.4723
   19CHTO    N9 7905   5.017   6.867   0.306  0.2989 -0.2018  0.1153
   19CHTO   H77 7906   5.080   6.832   0.226  1.4404  1.1718  0.3972
   19CHTO   H78 7907   4.936   6.925   0.264 -0.4402 -2.0327 -1.0493
   19CHTO   C51 7908   5.071   6.640   0.414  0.1354  0.5779 -0.3028
   19CHTO   H93 7909   5.076   6.571   0.330  0.2029 -0.3997  0.4983
   19CHTO   O30 7910   5.030   6.569   0.531  0.1058 -0.7598 -0.1045
   19CHTO   C46 7911   4.902   6.486   0.498 -0.7056  0.7593 -0.3274
   19CHTO   H88 7912   4.920   6.424   0.410  1.5388  1.2660 -0.2369
   19CHTO   C53 7913   4.864   6.388   0.616  0.3244  0.1415  0.1916
   19CHTO   O72 7914   4.981   6.303   0.633  0.5161 -0.7549  0.4114
   19CHTO  H199 7915   4.964   6.218   0.597 -1.0088 -0.5166  0.5309
   19CHTO   O22 7916   5.195   6.690   0.465 -0.4709 -0.1100 -0.1971
   19CHTO   C31 7917   5.311   6.616   0.422  0.2000 -0.4807 -0.0517
   19CHTO   H59 7918   5.276   6.514   0.396  0.9088 -0.6058 -0.5269
   19CHTO   C29 7919   5.394   6.659   0.301 -0.5314  0.7959  0.9289
   19CHTO   H57 7920   5.438   6.759   0.315 -0.9841  1.0776  0.3884
   19CHTO   O21 7921   5.298   6.691   0.195  0.0412  0.0994 -0.0496
   19CHTO   H37 7922   5.319   6.631   0.126 -2.5223  0.1799 -0.9607
   19CHTO   C27 7923   5.509   6.558   0.257  0.3961 -0.8039  0.9096
   19CHTO   H55 7924   5.465   6.463   0.222  0.5435 -0.2693 -0.7853
   19CHTO    N5 7925   5.593   6.606   0.146 -0.3335 -0.1531 -0.6699
   19CHTO   H43 7926   5.534   6.618   0.057 -0.8278  0.8206 -0.2229
   19CHTO   H44 7927   5.655   6.691   0.171 -0.4699  0.3108 -1.8643
   19CHTO   C25 7928   5.606   6.524   0.372  0.2909 -0.5837 -0.2021
   19CHTO   H53 7929   5.689   6.592   0.394  1.3957 -1.6748 -0.8749
   19CHTO   O17 7930   5.521   6.508   0.495 -0.0284  0.0143  0.4559
   19CHTO   C32 7931   5.421   6.595   0.537 -0.8527 -0.2496  0.2704
   19CHTO   H60 7932   5.463   6.689   0.572 -2.1961  0.1942  0.7451
   19CHTO   C36 7933   5.345   6.537   0.657  0.2227 -0.4965  0.1266
   19CHTO   O25 7934   5.428   6.522   0.775  0.4387  0.9728 -0.1967
   19CHTO   H40 7935   5.432   6.598   0.830 -1.6718 -0.4849  2.0510
   19CHTO   O15 7936   5.682   6.375   0.340  0.4426  0.2448 -0.1260
   19CHTO   C19 7937   5.672   6.231   0.378 -0.0206 -0.3952 -0.6559
   19CHTO   H47 7938   5.676   6.241   0.487  1.3456  0.3010 -0.7550
   19CHTO   C20 7939   5.537   6.167   0.334 -0.2767 -0.3165  0.4955
   19CHTO   H48 7940   5.522   6.178   0.226 -1.3839 -0.4873  0.6292
   19CHTO   O19 7941   5.432   6.242   0.397  0.1708  0.0516  0.6302
   19CHTO   H35 7942   5.449   6.333   0.382  2.3218 -0.3470  0.4000
   19CHTO   C21 7943   5.536   6.018   0.368 -0.1052  0.0346 -0.7737
   19CHTO   H49 7944   5.527   6.013   0.477  1.0163 -2.2706 -0.7486
   19CHTO    N4 7945   5.420   5.945   0.311 -0.2613 -1.1579 -0.5193
   19CHTO   H41 7946   5.329   5.960   0.366  1.1536 -0.0197  1.5496
   19CHTO   H42 7947   5.401   5.956   0.205 -0.7200 -0.4573 -0.3637
   19CHTO   C22 7948   5.673   5.950   0.324  0.3204  0.7846  0.4405
   19CHTO   H50 7949   5.682   5.955   0.215  0.2931 -0.5111  0.3674
   19CHTO   O14 7950   5.777   6.023   0.391 -0.1142 -0.0484 -0.1782
   19CHTO   C23 7951   5.795   6.155   0.338 -0.2556  0.0282 -0.1902
   19CHTO   H51 7952   5.799   6.148   0.229 -0.1479 -2.6585 -0.0405
   19CHTO   C34 7953   5.922   6.222   0.391  0.0067  0.4572 -0.2651
   19CHTO   O23 7954   6.040   6.145   0.357 -0.4200  0.0235  0.4156
   19CHTO   H38 7955   6.025   6.063   0.398  0.8762 -0.1928  0.4536
   19CHTO   O16 7956   5.682   5.814   0.384  0.0298 -0.5281 -0.5503
   19CHTO   C24 7957   5.726   5.682   0.312 -0.7926  0.7372  0.4608
   19CHTO   H52 7958   5.805   5.633   0.369 -0.6560  0.4800  0.0493
   19CHTO   C26 7959   5.778   5.712   0.167 -0.0665  0.7041 -0.0330
   19CHTO   H54 7960   5.700   5.764   0.108  0.4845 -0.2626 -1.6604
   19CHTO   O20 7961   5.894   5.795   0.165 -0.0343  0.3117 -0.2983
   19CHTO   H36 7962   5.886   5.880   0.205 -0.2082  0.5385 -0.8101
   19CHTO   C30 7963   5.789   5.578   0.086  0.5448  0.9893  0.4884
   19CHTO   H58 7964   5.886   5.533   0.112  0.7653  1.8486  1.1464
   19CHTO    N6 7965   5.816   5.600  -0.060 -0.3117 -0.6737  0.3676
   19CHTO   H45 7966   5.821   5.510  -0.119 -0.3136  0.4143 -1.3195
   19CHTO   H46 7967   5.905   5.658  -0.082 -1.0025 -0.0835 -0.9281
   19CHTO   C33 7968   5.678   5.472   0.108 -0.1140  1.0864  0.7939
   19CHTO   H61 7969   5.583   5.504   0.062 -1.3023 -2.5358  0.5745
   19CHTO   O18 7970   5.658   5.466   0.250 -0.5947  0.0803  0.1931
   19CHTO   C28 7971   5.609   5.586   0.305  0.6812  0.3344  0.9782
   19CHTO   H56 7972   5.526   5.625   0.245  0.4093  0.8743  1.7071
   19CHTO   C35 7973   5.554   5.548   0.443 -0.4022 -0.5664 -0.1090
   19CHTO   O24 7974   5.449   5.455   0.433  0.1365  0.5362  0.2040
   19CHTO   H39 7975   5.421   5.440   0.345 -2.6846  0.8579  1.0112
   19CHTO    O9 7976   5.702   5.339   0.055  0.5784  0.2526 -0.3281
   19CHTO   C13 7977   5.554   5.274   0.014 -0.0643 -0.1790 -0.9439
   19CHTO   H26 7978   5.500   5.349  -0.047 -0.0846  0.5053 -0.1025
   19CHTO   C11 7979   5.474   5.238   0.143  0.2363  0.5590 -0.1745
   19CHTO   H24 7980   5.449   5.328   0.201 -0.1174 -0.9351  2.0476
   19CHTO    O8 7981   5.552   5.165   0.240  0.1385 -0.2044 -0.0724
   19CHTO    H3 7982   5.583   5.091   0.192 -0.0694  1.2975 -2.6307
   19CHTO    C9 7983   5.343   5.162   0.105 -0.9774  0.2468  0.7697
   19CHTO   H22 7984   5.292   5.229   0.034 -0.8239 -0.2636  0.1749
   19CHTO    N2 7985   5.245   5.142   0.214 -0.1936  0.3017 -0.4257
   19CHTO   H10 7986   5.156   5.096   0.173 -0.4028  0.6294 -0.3429
   19CHTO   H11 7987   5.221   5.240   0.252  2.2236  0.2215  1.4298
   19CHTO    C7 7988   5.380   5.022   0.039 -0.3058  0.4062 -0.0481
   19CHTO   H20 7989   5.281   4.992  -0.001 -1.3862  1.5753  1.7182
   19CHTO    O4 7990   5.469   5.043  -0.070 -0.6632  0.7236  0.6913
   19CHTO   C14 7991   5.586   5.136  -0.072 -0.0236  0.4783 -0.5044
   19CHTO   H27 7992   5.595   5.164  -0.179  1.5968 -0.8325 -0.7307
   19CHTO   C18 7993   5.714   5.064  -0.032 -0.1064 -0.0582  0.2905
   19CHTO   O13 7994   5.730   4.931  -0.086 -0.0448  0.7177  0.0914
   19CHTO    H7 7995   5.810   4.893  -0.055  1.2943  1.5374 -2.1957
   19CHTO    O2 7996   5.449   4.914   0.141  0.0278  0.0433  0.1935
   19CHTO    C1 7997   5.414   4.776   0.143 -0.1426 -0.1389 -0.8911
   19CHTO   H14 7998   5.512   4.731   0.167 -0.6091 -1.1783 -0.9112
   19CHTO    C2 7999   5.366   4.719   0.002 -0.2234 -0.4103 -0.0449
   19CHTO   H15 8000   5.284   4.785  -0.029  1.9925  1.9970 -0.9143
   19CHTO    O6 8001   5.474   4.721  -0.094  0.2804 -0.2127  0.0725
   19CHTO    H1 8002   5.447   4.675  -0.170 -1.9908  0.2448  0.5354
   19CHTO    C3 8003   5.311   4.565   0.017 -0.0498  0.5585 -0.5347
   19CHTO   H16 8004   5.391   4.491   0.034 -2.0413 -1.3724  0.5883
   19CHTO    N1 8005   5.245   4.518  -0.105 -0.5475 -0.6389  0.0312
   19CHTO    H8 8006   5.137   4.520  -0.094 -0.3078 -0.7940  2.6484
   19CHTO    H9 8007   5.280   4.577  -0.188 -0.1212 -1.9459 -0.7301
   19CHTO    C4 8008   5.219   4.552   0.140 -0.1738 -0.0112  0.3049
   19CHTO   H17 8009   5.130   4.613   0.124  0.2936  0.2128 -1.5626
   19CHTO    O1 8010   5.279   4.602   0.259 -0.3835 -0.2997  0.4611
   19CHTO    C5 8011   5.321   4.738   0.261 -0.0399  0.5108  0.4990
   19CHTO   H18 8012   5.231   4.800   0.249 -1.0536 -0.9157  0.6211
   19CHTO   C16 8013   5.392   4.768   0.387 -0.2100  0.5250 -0.1257
   19CHTO   O11 8014   5.300   4.771   0.498 -0.0654 -0.2331 -0.1328
   19CHTO    H5 8015   5.219   4.815   0.480  0.2185 -0.2412 -1.5054
   19CHTO    O3 8016   5.196   4.412   0.174  0.6982  0.0524  0.2831
   19CHTO    C6 8017   5.053   4.395   0.215  0.2711  0.5973 -0.3510
   19CHTO   H19 8018   5.012   4.485   0.261  2.2779  0.3308  2.0658
   19CHTO    C8 8019   4.963   4.366   0.092 -0.5661  0.1895 -0.6983
   19CHTO   H21 8020   4.997   4.279   0.035 -0.0768  0.4315 -0.7835
   19CHTO    O7 8021   4.965   4.476   0.000 -0.2384 -0.4180  0.0471
   19CHTO    H2 8022   4.913   4.457  -0.075  0.8625  0.1263 -0.8639
   19CHTO   C12 8023   4.816   4.335   0.139  0.1941 -0.1598  0.0556
   19CHTO   H25 8024   4.779   4.433   0.177 -1.3883  0.1754 -2.1888
   19CHTO    N3 8025   4.724   4.302   0.032 -0.1247 -0.2061  0.8274
   19CHTO   H12 8026   4.713   4.378  -0.045 -1.0346  0.4246  1.5667
   19CHTO   H13 8027   4.632   4.278   0.083 -0.5591  0.4121  0.3504
   19CHTO   C15 8028   4.809   4.229   0.256 -0.2311  0.2892 -0.4966
   19CHTO   H28 8029   4.825   4.129   0.217 -1.6196 -0.5856  1.0869
   19CHTO   O10 8030   4.697   4.242   0.329  0.5501  0.2042  0.2248
   19CHTO    H4 8031   4.630   4.223   0.266  1.5627  1.8941 -1.4330
   19CHTO    O5 8032   4.910   4.259   0.360 -0.3471 -0.4152  0.1904
   19CHTO   C10 8033   5.045   4.288   0.325 -0.1399 -0.8616  0.1277
   19CHTO   H23 8034   5.088   4.198   0.282 -0.5667 -1.0990  0.2009
   19CHTO   C17 8035   5.122   4.318   0.456  0.5484 -0.3105 -0.3837
   19CHTO   O12 8036   5.264   4.330   0.439  0.6303 -0.0029  0.3035
   19CHTO    H6 8037   5.293   4.386   0.509  1.3311  0.3781 -0.2905
   20CHTO  H203 8038   5.459   9.910   1.056  0.5039 -0.9061  0.3249
   20CHTO   O82 8039   5.409   9.878   1.128 -0.3555  0.4204  0.3396
   20CHTO  C123 8040   5.349   9.984   1.193 -0.4365  0.3037 -0.0618
   20CHTO  H227 8041   5.280   9.945   1.269  0.5107  1.3982  1.3849
   20CHTO   O77 8042   5.458  10.063   1.255  0.0750 -0.4709  0.2924
   20CHTO  C118 8043   5.405  10.167   1.329 -0.5214 -0.7605 -0.7321
   20CHTO  H222 8044   5.333  10.130   1.403  0.6700  2.8905  2.4517
   20CHTO  C125 8045   5.529  10.226   1.407 -0.0242  0.0262  0.1303
   20CHTO   O84 8046   5.582  10.136   1.504  0.1638  0.7790  0.1705
   20CHTO  H205 8047   5.654  10.089   1.467  1.4286  0.8540  2.4700
   20CHTO  C114 8048   5.334  10.267   1.235 -0.3167  0.4030  0.3344
   20CHTO  H218 8049   5.407  10.302   1.163 -0.0604  1.9878  1.3319
   20CHTO  C116 8050   5.217  10.199   1.155  0.1291 -0.2214  0.2210
   20CHTO  H220 8051   5.135  10.171   1.224  0.3863  2.2524  1.5984
   20CHTO   O79 8052   5.154  10.290   1.066  0.3476 -0.3347 -0.0885
   20CHTO  H201 8053   5.217  10.330   1.009  0.3685 -0.6015 -0.2507
   20CHTO  C120 8054   5.265  10.072   1.087 -0.1828  0.0882 -0.4576
   20CHTO  H224 8055   5.323  10.092   0.994 -0.7540  0.7763 -0.6657
   20CHTO   N21 8056   5.149  10.000   1.027  0.2119  0.3560 -0.5659
   20CHTO  H211 8057   5.138  10.039   0.927  0.4799  2.3855  0.1792
   20CHTO  H212 8058   5.056  10.012   1.081  0.9533  0.0708  0.8059
   20CHTO   O75 8059   5.290  10.374   1.320  0.1905 -0.8816 -0.1769
   20CHTO  C112 8060   5.330  10.531   1.261  0.3734  1.1815 -0.1261
   20CHTO  H216 8061   5.338  10.525   1.151 -0.7792 -1.2264 -0.0964
   20CHTO   O73 8062   5.460  10.565   1.324  0.0651 -0.2979 -0.3749
   20CHTO  C113 8063   5.517  10.688   1.272 -0.4395  0.3380  0.3358
   20CHTO  H217 8064   5.527  10.665   1.163  0.4062 -0.3537  0.5462
   20CHTO  C124 8065   5.659  10.716   1.334 -0.0769 -0.0628  0.6246
   20CHTO   O83 8066   5.750  10.621   1.287  0.1614  0.3059  0.8069
   20CHTO  H204 8067   5.807  10.665   1.227  0.6662 -0.5004  0.6920
   20CHTO  C109 8068   5.422  10.815   1.278 -0.0663  0.1995 -0.2322
   20CHTO  H213 8069   5.420  10.832   1.387  1.3281 -0.8572 -0.0233
   20CHTO  C110 8070   5.277  10.780   1.238 -0.3798  0.0082  0.0287
   20CHTO  H214 8071   5.273  10.775   1.130 -1.5377 -0.0484  0.0695
   20CHTO   O78 8072   5.190  10.878   1.299 -0.1544 -0.3666 -0.0943
   20CHTO  H200 8073   5.161  10.941   1.236  1.3961 -0.5881 -1.0630
   20CHTO  C111 8074   5.230  10.644   1.293  0.7527  0.1214  0.0046
   20CHTO  H215 8075   5.225  10.640   1.403  2.1370  2.4009  0.1952
   20CHTO   N19 8076   5.090  10.604   1.250  0.2299 -0.6950 -0.0558
   20CHTO  H207 8077   5.087  10.513   1.192 -1.7835  0.0949 -1.2135
   20CHTO  H208 8078   5.049  10.680   1.185 -0.3394 -0.2318  0.8345
   20CHTO   O74 8079   5.481  10.928   1.209  0.5988 -0.0129  0.0206
   20CHTO  C115 8080   5.571  11.033   1.278  0.0897 -0.2033 -0.1319
   20CHTO  H219 8081   5.596  11.002   1.380  1.5036 -1.5218 -0.8601
   20CHTO   O76 8082   5.725  11.056   1.196  0.5752  0.0366  0.4450
   20CHTO  C122 8083   5.702  11.077   1.058  0.3480  0.4856  0.5414
   20CHTO  H226 8084   5.678  10.988   1.000 -0.5004  0.0324  1.5796
   20CHTO  C126 8085   5.840  11.128   0.988  0.4393 -0.3574 -0.6213
   20CHTO   O85 8086   5.890  11.244   1.056 -0.1709  0.5032  0.1752
   20CHTO  H206 8087   5.976  11.270   1.032 -1.1108  1.0390 -2.8000
   20CHTO  C121 8088   5.584  11.189   1.034 -0.6026 -0.6202 -0.5768
   20CHTO  H225 8089   5.607  11.262   0.953 -2.3170  1.9296  1.1349
   20CHTO   O81 8090   5.466  11.120   0.991  0.3156 -0.4146 -0.1124
   20CHTO  H202 8091   5.389  11.145   1.038  0.4265 -1.2334  0.5245
   20CHTO  C119 8092   5.559  11.271   1.164  0.1538 -0.7652 -0.7712
   20CHTO  H223 8093   5.658  11.308   1.190 -0.1422 -0.3232 -0.2829
   20CHTO  C117 8094   5.499  11.177   1.272  0.3239 -0.1301 -0.7597
   20CHTO  H221 8095   5.395  11.148   1.256  0.1041  1.0874 -1.5803
   20CHTO   N20 8096   5.498  11.244   1.408  0.2281 -0.4402  0.2264
   20CHTO  H209 8097   5.431  11.199   1.480 -1.7208  2.1664  0.0946
   20CHTO  H210 8098   5.599  11.240   1.447  0.7200 -0.2646 -1.0234
   20CHTO   O80 8099   5.476  11.412   1.130  0.0782  0.2680 -0.5399
   20CHTO  C103 8100   5.547  11.534   1.051  0.3233  0.2073  0.1787
   20CHTO  H190 8101   5.514  11.632   1.087  0.3188  0.7394 -1.2746
   20CHTO  C101 8102   5.705  11.543   1.048 -0.1431 -0.3100  0.8989
   20CHTO  H188 8103   5.743  11.444   1.023 -2.4639 -0.8319 -0.7056
   20CHTO   O68 8104   5.736  11.578   1.176 -0.2323  0.0576 -0.1640
   20CHTO  H168 8105   5.824  11.551   1.192 -0.5046  0.2255  1.7577
   20CHTO   C99 8106   5.759  11.646   0.938  0.4089 -0.0340 -0.1690
   20CHTO  H186 8107   5.734  11.748   0.973  1.8787  0.2673  0.0621
   20CHTO   N17 8108   5.912  11.641   0.929 -0.2799  0.0444  0.6678
   20CHTO  H174 8109   5.949  11.724   0.870  0.3421 -1.1183 -0.6124
   20CHTO  H175 8110   5.947  11.549   0.885 -2.3728 -0.7725  0.6383
   20CHTO   C97 8111   5.682  11.618   0.803 -0.2742  0.1731 -0.2371
   20CHTO  H184 8112   5.718  11.521   0.766  0.9062 -0.3783  2.2381
   20CHTO   O64 8113   5.539  11.626   0.817 -0.5203 -0.3418 -0.0324
   20CHTO  C104 8114   5.489  11.519   0.900  0.2285  0.4353 -0.8464
   20CHTO  H191 8115   5.527  11.425   0.859 -1.7542 -0.4025 -0.8333
   20CHTO  C108 8116   5.332  11.516   0.876  0.5880  0.0712 -0.0706
   20CHTO   O71 8117   5.250  11.561   0.988  0.6614  0.3161 -0.4556
   20CHTO  H171 8118   5.246  11.494   1.053 -0.9764  0.8096 -0.0378
   20CHTO   O62 8119   5.716  11.718   0.702  0.1249 -0.2527  0.1704
   20CHTO   C91 8120   5.764  11.670   0.575 -0.3413  0.1302 -0.1053
   20CHTO  H178 8121   5.812  11.575   0.597 -1.0507 -0.2797 -0.3308
   20CHTO   C92 8122   5.877  11.769   0.537  0.2012  0.7359 -0.5000
   20CHTO  H179 8123   5.840  11.872   0.547 -1.0689  0.3074 -0.6824
   20CHTO   O66 8124   5.984  11.762   0.633  0.2297 -0.6393  0.4398
   20CHTO  H166 8125   6.013  11.675   0.655 -0.7991 -1.2490 -0.5293
   20CHTO   C93 8126   5.927  11.740   0.390  0.4249  0.8446 -0.5103
   20CHTO  H180 8127   5.973  11.640   0.393 -0.3533  0.5005  0.3333
   20CHTO   N16 8128   6.022  11.843   0.347 -0.0327  0.5952  0.7358
   20CHTO  H172 8129   6.069  11.801   0.259 -3.1872 -0.1148 -0.6950
   20CHTO  H173 8130   5.972  11.933   0.314  0.4578  0.5776 -0.0814
   20CHTO   C94 8131   5.816  11.730   0.282  0.1746 -0.0459  0.1948
   20CHTO  H181 8132   5.761  11.822   0.266  2.0433  1.0400 -0.0333
   20CHTO   O61 8133   5.719  11.635   0.331  0.0320 -0.0598  0.0838
   20CHTO   C95 8134   5.660  11.657   0.461 -0.2313 -0.0425  0.7557
   20CHTO  H182 8135   5.606  11.751   0.453  0.3990  0.1735 -1.2584
   20CHTO  C106 8136   5.551  11.539   0.482  0.4468 -0.0252  0.7292
   20CHTO   O69 8137   5.610  11.422   0.537  0.0948 -0.0054 -0.2795
   20CHTO  H169 8138   5.624  11.441   0.627 -0.0545  2.4837 -0.7471
   20CHTO   O63 8139   5.875  11.679   0.152  0.3998 -0.5503  0.1137
   20CHTO   C96 8140   5.775  11.602   0.060 -0.1138 -0.1326  1.0130
   20CHTO  H183 8141   5.736  11.514   0.111 -1.7140 -1.7858 -2.8373
   20CHTO   C98 8142   5.844  11.550  -0.064 -0.0819  0.2124  0.1150
   20CHTO  H185 8143   5.938  11.501  -0.033  0.9293  0.8877 -1.8025
   20CHTO   O67 8144   5.762  11.452  -0.130 -0.1085 -0.7234 -0.0217
   20CHTO  H167 8145   5.793  11.420  -0.212 -0.9676  1.4479 -1.2235
   20CHTO  C102 8146   5.884  11.665  -0.178  0.4771 -0.3697  0.2986
   20CHTO  H189 8147   5.881  11.618  -0.278  1.9397 -0.5841  0.3319
   20CHTO   N18 8148   6.019  11.720  -0.165  0.1589 -0.5447 -0.4106
   20CHTO  H176 8149   6.032  11.759  -0.066 -2.1970 -0.0095 -0.2727
   20CHTO  H177 8150   6.073  11.628  -0.179 -2.1104 -2.3588  2.0994
   20CHTO  C105 8151   5.783  11.784  -0.173  0.2734  0.1129 -0.2400
   20CHTO  H192 8152   5.823  11.869  -0.118  1.0331  0.6654 -1.6182
   20CHTO   O65 8153   5.656  11.747  -0.114  0.2598  0.7669  0.4226
   20CHTO  C100 8154   5.655  11.702   0.025 -0.4269 -0.2787  0.5624
   20CHTO  H187 8155   5.639  11.785   0.095 -0.5824 -1.3375  1.8059
   20CHTO  C107 8156   5.525  11.628   0.024 -0.3897  0.0662 -0.1219
   20CHTO   O70 8157   5.485  11.584   0.153  0.2398 -0.1247  0.1478
   20CHTO  H170 8158   5.395  11.601   0.169  0.1768 -1.1353  0.9481
   20CHTO   O57 8159   5.776  11.818  -0.319  0.8293  0.7113  0.1285
   20CHTO   C85 8160   5.677  11.916  -0.364  0.0745 -0.0604  0.2957
   20CHTO  H157 8161   5.655  11.984  -0.279  0.0480  1.5292 -0.9640
   20CHTO   C83 8162   5.544  11.848  -0.411 -0.1764  1.0842 -0.3051
   20CHTO  H155 8163   5.503  11.810  -0.317  1.1862 -2.0549 -0.9060
   20CHTO   O56 8164   5.567  11.739  -0.501  0.2041  0.1116  0.0876
   20CHTO  H135 8165   5.530  11.754  -0.586 -1.9201 -2.9998  0.3736
   20CHTO   C81 8166   5.453  11.961  -0.465 -0.1694  0.2107  0.4006
   20CHTO  H153 8167   5.437  12.035  -0.387  1.2178  1.3877 -0.4040
   20CHTO   N14 8168   5.319  11.913  -0.499 -0.1144 -0.5472  0.1726
   20CHTO  H141 8169   5.250  11.993  -0.515  1.2749  0.4580 -0.9669
   20CHTO  H142 8170   5.315  11.852  -0.586 -1.6064 -2.3899  1.4777
   20CHTO   C79 8171   5.521  12.044  -0.588  0.4711  0.7635  0.3535
   20CHTO  H151 8172   5.458  12.130  -0.612  1.4285  0.8637 -1.9114
   20CHTO   O52 8173   5.650  12.093  -0.546  0.9304  0.4489  0.4019
   20CHTO   C86 8174   5.740  11.997  -0.487 -0.1742  0.7105 -0.2762
   20CHTO  H158 8175   5.764  11.930  -0.572 -0.2030  1.7770 -1.1459
   20CHTO   C90 8176   5.876  12.060  -0.458 -0.2725  0.5458  0.1560
   20CHTO   O60 8177   5.867  12.166  -0.361 -0.1735 -1.1870  0.1207
   20CHTO  H138 8178   5.947  12.182  -0.314 -0.6958  0.0084  0.6299
   20CHTO   O50 8179   5.528  11.958  -0.703 -0.2171 -0.1388  0.0355
   20CHTO   C73 8180   5.551  11.910  -0.837 -0.9001  0.3337 -0.0037
   20CHTO  H145 8181   5.647  11.856  -0.849  0.7742  2.7211  2.0837
   20CHTO   C74 8182   5.551  12.028  -0.942 -0.8588  0.2860  0.5241
   20CHTO  H146 8183   5.631  12.099  -0.917 -1.3367  1.3254 -0.8572
   20CHTO   O54 8184   5.600  11.976  -1.067  0.1485  0.6160 -0.0463
   20CHTO  H133 8185   5.535  11.914  -1.096 -0.6995  1.1694  0.6278
   20CHTO   C75 8186   5.411  12.090  -0.947  0.0113 -0.0103  0.3121
   20CHTO  H147 8187   5.388  12.142  -0.853 -1.2402 -2.8742  1.6347
   20CHTO   N13 8188   5.401  12.205  -1.048 -0.1536 -0.1194 -0.2566
   20CHTO  H139 8189   5.450  12.292  -1.007 -0.3277  0.2321 -0.7843
   20CHTO  H140 8190   5.452  12.164  -1.134  0.2820 -1.2670  0.5495
   20CHTO   C76 8191   5.290  11.985  -0.957 -0.6865 -0.2696  0.6016
   20CHTO  H148 8192   5.293  11.954  -1.061 -0.0335 -1.5325  0.9890
   20CHTO   O49 8193   5.308  11.867  -0.872 -0.0968  0.0437  0.0641
   20CHTO   C77 8194   5.438  11.809  -0.877  0.3864  0.0782  0.1676
   20CHTO  H149 8195   5.453  11.777  -0.980  3.2827  2.5828 -0.2291
   20CHTO   C88 8196   5.444  11.677  -0.793  0.3129 -0.2074  0.4735
   20CHTO   O58 8197   5.572  11.615  -0.799 -0.5411 -0.0679  0.0802
   20CHTO  H136 8198   5.644  11.674  -0.804 -0.1034 -0.7349 -1.5964
   20CHTO   O51 8199   5.181  12.038  -0.909 -0.4208  0.2214 -0.0867
   20CHTO   C78 8200   5.035  11.963  -0.943  0.0024  0.0270 -0.4195
   20CHTO  H150 8201   5.052  11.862  -0.986 -0.6784  0.3591 -1.4913
   20CHTO   C80 8202   4.957  12.051  -1.048 -0.1121  0.0869 -0.2205
   20CHTO  H152 8203   4.951  12.156  -1.010  0.8032 -0.2729  0.9530
   20CHTO   O55 8204   5.027  12.054  -1.175 -0.3681 -0.4732 -0.2336
   20CHTO  H134 8205   4.979  12.119  -1.222 -0.8185  1.2049  2.4125
   20CHTO   C84 8206   4.808  11.996  -1.080  0.2930 -0.2488  0.7163
   20CHTO  H156 8207   4.819  11.902  -1.133 -1.8608  0.5790 -1.2273
   20CHTO   N15 8208   4.721  12.079  -1.170  0.5195  0.3860  0.0528
   20CHTO  H143 8209   4.758  12.176  -1.197 -0.8475  0.1341 -2.9491
   20CHTO  H144 8210   4.689  12.027  -1.258  1.1508  1.4049 -0.7984
   20CHTO   C87 8211   4.734  11.965  -0.945 -0.0798 -0.1696 -0.3333
   20CHTO  H159 8212   4.710  12.060  -0.897  1.6056 -1.0482  2.3422
   20CHTO   O53 8213   4.826  11.878  -0.855  0.0948  0.5240 -0.1962
   20CHTO   C82 8214   4.951  11.933  -0.817 -0.0856  0.1608  0.3219
   20CHTO  H154 8215   4.945  12.030  -0.766 -0.5276  0.3414 -0.0657
   20CHTO   C89 8216   5.025  11.837  -0.724  0.1698 -0.4349 -0.6288
   20CHTO   O59 8217   4.965  11.832  -0.593  0.5793 -0.3022  0.1996
   20CHTO  H137 8218   4.989  11.910  -0.547 -0.2522  0.6403 -0.9405
   20CHTO   O45 8219   4.599  11.865  -0.982  0.4976 -0.4866 -0.0809
   20CHTO   C67 8220   4.510  11.858  -0.870  0.4180  0.2472 -0.2781
   20CHTO  H124 8221   4.570  11.894  -0.786  0.2711  2.5055 -1.0995
   20CHTO   C65 8222   4.386  11.949  -0.881  0.2895 -0.6121  0.0045
   20CHTO  H122 8223   4.361  11.941  -0.986  1.0439  1.0959 -0.3217
   20CHTO   O44 8224   4.433  12.079  -0.840  0.2061  0.8063 -0.1377
   20CHTO  H102 8225   4.357  12.133  -0.833  0.2584  0.7028  1.4048
   20CHTO   C63 8226   4.258  11.884  -0.810  0.1232 -0.0031 -0.6621
   20CHTO  H120 8227   4.229  11.794  -0.864 -0.2391  0.3291 -1.0332
   20CHTO   N11 8228   4.132  11.963  -0.801 -0.4197 -0.6144  0.3059
   20CHTO  H108 8229   4.106  11.976  -0.698 -2.1572 -1.6355 -0.0012
   20CHTO  H109 8230   4.050  11.906  -0.839  0.0668 -1.4617  0.5086
   20CHTO   C61 8231   4.293  11.806  -0.678 -0.1957 -0.4252  0.1732
   20CHTO  H118 8232   4.199  11.763  -0.638 -1.9769  3.7692  0.8097
   20CHTO   O40 8233   4.389  11.692  -0.710 -0.4221  0.3160 -0.4541
   20CHTO   C68 8234   4.473  11.708  -0.830  0.4113 -0.0444  0.5224
   20CHTO  H125 8235   4.419  11.666  -0.917  0.5388 -0.0877  0.4646
   20CHTO   C72 8236   4.606  11.626  -0.818  0.8651  0.7671  0.1017
   20CHTO   O48 8237   4.707  11.654  -0.717  0.3214 -0.4601  0.4032
   20CHTO  H105 8238   4.788  11.607  -0.718 -0.1096 -1.2304  0.9233
   20CHTO   O38 8239   4.357  11.874  -0.564  0.3685  0.4908  0.2462
   20CHTO   C55 8240   4.319  11.826  -0.431 -0.4457  0.0073  0.1495
   20CHTO  H112 8241   4.262  11.732  -0.438  0.5190 -0.5757 -0.1148
   20CHTO   C56 8242   4.241  11.940  -0.353  0.2900  0.7263  0.7013
   20CHTO  H113 8243   4.294  12.034  -0.371  1.0328  0.6451  2.3399
   20CHTO   O42 8244   4.106  11.953  -0.402 -0.3179  0.3778 -0.3310
   20CHTO  H100 8245   4.055  11.877  -0.381 -0.4893  0.5287 -0.2017
   20CHTO   C57 8246   4.228  11.925  -0.193  0.0948  1.0759  0.1607
   20CHTO  H114 8247   4.145  11.857  -0.178 -2.4634  3.9100 -0.7058
   20CHTO   N10 8248   4.205  12.048  -0.112  0.6257  0.6868 -0.1146
   20CHTO  H106 8249   4.102  12.081  -0.119  1.1837  2.5407  0.1934
   20CHTO  H107 8250   4.229  12.026  -0.009 -0.6922 -1.2789 -0.1898
   20CHTO   C58 8251   4.355  11.854  -0.135  0.1642 -0.1778  0.4918
   20CHTO  H115 8252   4.431  11.933  -0.118  2.3631 -2.2389  0.6334
   20CHTO   O37 8253   4.414  11.750  -0.226 -0.5291 -0.3748 -0.0872
   20CHTO   C59 8254   4.456  11.797  -0.352 -0.5960  0.1266 -0.2721
   20CHTO  H116 8255   4.515  11.888  -0.351  1.9631 -1.5066  0.2827
   20CHTO   C70 8256   4.533  11.679  -0.419  0.1322  0.0190  0.3725
   20CHTO   O46 8257   4.667  11.665  -0.367 -0.5907 -0.1306  0.7653
   20CHTO  H103 8258   4.658  11.645  -0.276 -0.9894 -1.2168  0.4938
   20CHTO   O39 8259   4.331  11.773   0.011  0.3378 -0.1098  0.0947
   20CHTO   C60 8260   4.454  11.761   0.077  0.0576  0.5925 -0.2342
   20CHTO  H117 8261   4.525  11.763  -0.006 -0.2226  0.4444 -0.4764
   20CHTO   C62 8262   4.492  11.878   0.172 -0.0350  0.7654  0.4969
   20CHTO  H119 8263   4.499  11.963   0.101 -1.2474 -1.1213 -1.9412
   20CHTO   O43 8264   4.377  11.886   0.252 -0.3615 -0.2176 -0.2296
   20CHTO  H101 8265   4.377  11.817   0.316 -0.7661  0.5798  0.6522
   20CHTO   C66 8266   4.635  11.865   0.226 -0.7879 -0.2979 -0.0528
   20CHTO  H123 8267   4.706  11.854   0.145 -0.9413 -1.5094 -0.0388
   20CHTO   N12 8268   4.687  11.983   0.300  0.2797 -0.1203 -0.2593
   20CHTO  H110 8269   4.766  11.959   0.369  1.6482 -1.9682 -2.3734
   20CHTO  H111 8270   4.606  12.033   0.350 -0.3984 -2.2179  0.8099
   20CHTO   C69 8271   4.646  11.735   0.311 -0.4942 -0.4721 -0.3478
   20CHTO  H126 8272   4.580  11.741   0.400  0.6243 -0.5233  0.5011
   20CHTO   O41 8273   4.593  11.608   0.230 -0.2596 -0.5200  0.4244
   20CHTO   C64 8274   4.465  11.620   0.140 -0.3576 -1.2551 -0.2388
   20CHTO  H121 8275   4.371  11.611   0.199 -1.1220  1.3815 -1.0008
   20CHTO   C71 8276   4.455  11.510   0.032 -0.2268 -0.6689 -0.3748
   20CHTO   O47 8277   4.425  11.385   0.090  0.2447  0.2386  0.0521
   20CHTO  H104 8278   4.494  11.329   0.060 -1.0277 -0.7269 -1.1135
   20CHTO   O34 8279   4.794  11.704   0.350  0.2100  0.2561 -0.0341
   20CHTO   C49 8280   4.900  11.731   0.442  0.1892 -0.0867 -0.0040
   20CHTO   H91 8281   4.865  11.810   0.509 -0.0738 -0.8542  0.7632
   20CHTO   C47 8282   5.023  11.788   0.368 -0.2644  0.1805 -0.6220
   20CHTO   H89 8283   5.091  11.808   0.453 -0.9904 -3.8017  0.9962
   20CHTO   O33 8284   4.996  11.909   0.293  0.2023  0.0100  0.2412
   20CHTO   H70 8285   5.051  11.979   0.324  0.5614 -0.6157  1.0192
   20CHTO   C45 8286   5.082  11.683   0.265  1.0072 -0.5096  0.0120
   20CHTO   H87 8287   5.035  11.698   0.167  1.3289 -1.0337 -0.2258
   20CHTO    N8 8288   5.232  11.700   0.257  0.0874 -0.3956 -0.4079
   20CHTO   H75 8289   5.272  11.600   0.248  0.3412 -0.3630  0.3230
   20CHTO   H76 8290   5.253  11.760   0.170  1.1737  0.2025  0.2671
   20CHTO   C43 8291   5.039  11.531   0.315 -0.3533  0.1961 -0.2973
   20CHTO   H85 8292   4.939  11.513   0.277 -0.5227 -2.3055  1.1713
   20CHTO   O29 8293   5.049  11.519   0.458  0.2095  0.4092 -0.0160
   20CHTO   C50 8294   4.960  11.612   0.524 -0.1713  0.6678 -0.1967
   20CHTO   H92 8295   4.871  11.557   0.557  0.7852 -1.0023 -0.3323
   20CHTO   C54 8296   5.033  11.646   0.654 -1.4010  0.0674  0.1996
   20CHTO   O36 8297   4.949  11.735   0.735 -0.1040  0.6994 -1.0946
   20CHTO   H72 8298   4.974  11.725   0.825  0.7725  1.2908 -1.2638
   20CHTO   O27 8299   5.114  11.423   0.251 -0.2752  0.5972  0.8929
   20CHTO   C37 8300   5.111  11.338   0.140 -0.4311  0.0460 -0.3426
   20CHTO   H79 8301   5.060  11.243   0.161  0.3374 -0.2070  0.4174
   20CHTO   C38 8302   5.049  11.407   0.015 -0.5717 -0.1957 -0.6275
   20CHTO   H80 8303   5.105  11.499  -0.004  0.1195  0.1624  2.8246
   20CHTO   O31 8304   4.906  11.435   0.047  0.1165 -0.4205  0.0141
   20CHTO   H68 8305   4.894  11.458   0.137  1.6650 -2.1181  0.6875
   20CHTO   C39 8306   5.067  11.327  -0.122  0.3144 -0.4821 -0.3318
   20CHTO   H81 8307   5.002  11.240  -0.123 -1.4076  0.7951  0.0073
   20CHTO    N7 8308   5.023  11.409  -0.246 -0.1566 -0.0755  0.9921
   20CHTO   H73 8309   5.093  11.488  -0.270  0.4428 -0.8514  0.1707
   20CHTO   H74 8310   4.999  11.353  -0.335  3.8019  0.6401 -0.6093
   20CHTO   C40 8311   5.214  11.279  -0.136 -0.1050  0.5043  0.3866
   20CHTO   H82 8312   5.287  11.352  -0.170  0.7121  0.6627  2.3980
   20CHTO   O26 8313   5.256  11.215  -0.012  0.2035  0.0347 -0.4890
   20CHTO   C41 8314   5.262  11.300   0.102 -0.4235 -0.2195 -0.9612
   20CHTO   H83 8315   5.321  11.389   0.076  0.2909 -0.3197  0.2692
   20CHTO   C52 8316   5.331  11.227   0.222  0.5486  0.7752  1.3705
   20CHTO   O35 8317   5.476  11.178   0.174 -0.9392  0.4927 -0.5571
   20CHTO   H71 8318   5.514  11.215   0.097 -2.3356 -0.5654 -1.7780
   20CHTO   O28 8319   5.222  11.177  -0.239  0.4053  0.6104  0.3773
   20CHTO   C42 8320   5.347  11.133  -0.296  0.5538  0.8343 -0.8640
   20CHTO   H84 8321   5.315  11.072  -0.381 -1.4510  0.6696 -0.0057
   20CHTO   C44 8322   5.444  11.041  -0.204 -1.0165  0.0565  0.1373
   20CHTO   H86 8323   5.484  11.099  -0.121 -3.4223 -0.1047  1.4842
   20CHTO   O32 8324   5.369  10.931  -0.144 -0.0053  0.0356 -0.2758
   20CHTO   H69 8325   5.281  10.964  -0.133  0.1511 -0.0701  1.3294
   20CHTO   C48 8326   5.572  10.986  -0.280 -0.2702  0.0375  0.2143
   20CHTO   H90 8327   5.549  10.943  -0.377 -0.8910 -1.4147  0.9748
   20CHTO    N9 8328   5.659  10.882  -0.208  0.8655 -0.5335 -0.0233
   20CHTO   H77 8329   5.671  10.921  -0.108 -0.0729  0.9510 -0.4686
   20CHTO   H78 8330   5.615  10.784  -0.206  0.4813 -0.3432  1.8317
   20CHTO   C51 8331   5.649  11.105  -0.339 -0.4917  0.7183 -0.0801
   20CHTO   H93 8332   5.682  11.160  -0.252  1.1649  0.5607 -0.6005
   20CHTO   O30 8333   5.572  11.194  -0.426 -0.1123 -0.4972  0.6755
   20CHTO   C46 8334   5.432  11.249  -0.353  0.1172  0.0622 -0.1040
   20CHTO   H88 8335   5.469  11.306  -0.268 -0.4087  0.9062 -0.4397
   20CHTO   C53 8336   5.366  11.342  -0.464  0.1809  0.1621  0.2049
   20CHTO   O72 8337   5.372  11.473  -0.425 -0.2962 -0.3586  0.0846
   20CHTO  H199 8338   5.284  11.501  -0.411 -0.3615  0.5154 -2.0051
   20CHTO   O22 8339   5.752  11.064  -0.428  0.1629 -0.1792  0.2786
   20CHTO   C31 8340   5.881  11.140  -0.457 -0.6491 -0.5476 -0.2550
   20CHTO   H59 8341   5.934  11.085  -0.537 -0.1010  0.0640 -0.3115
   20CHTO   C29 8342   5.863  11.284  -0.509  0.2439 -0.2634  0.6993
   20CHTO   H57 8343   5.790  11.327  -0.439 -0.1617 -1.4080  0.9883
   20CHTO   O21 8344   5.794  11.284  -0.630 -0.7993  0.2469 -0.3710
   20CHTO   H37 8345   5.833  11.339  -0.695 -0.2092  0.2740  0.0027
   20CHTO   C27 8346   6.001  11.365  -0.507  0.5295 -0.1081 -0.5777
   20CHTO   H55 8347   6.069  11.315  -0.577  0.5053 -1.2925  0.2202
   20CHTO    N5 8348   5.985  11.504  -0.550 -0.0119  0.0974 -0.0719
   20CHTO   H43 8349   6.049  11.527  -0.635  1.0038  2.0128  1.1842
   20CHTO   H44 8350   5.881  11.523  -0.572 -0.3103 -1.2779  0.0956
   20CHTO   C25 8351   6.070  11.359  -0.368  0.1348  0.3694  0.1253
   20CHTO   H53 8352   6.008  11.409  -0.292  0.1277  0.1917  0.2369
   20CHTO   O17 8353   6.091  11.215  -0.346 -0.1090  0.3345 -0.1782
   20CHTO   C32 8354   5.972  11.139  -0.327  0.2832 -0.7613 -0.0363
   20CHTO   H60 8355   5.925  11.181  -0.238  1.6283  0.4548  0.1248
   20CHTO   C36 8356   6.020  10.994  -0.302  0.3779 -1.0049  0.1053
   20CHTO   O25 8357   6.079  10.984  -0.172 -0.2758 -0.2920  0.3873
   20CHTO   H40 8358   6.009  10.944  -0.125 -0.8494 -0.9124 -0.9504
   20CHTO   O15 8359   6.197  11.427  -0.363 -0.0562 -0.0143 -0.4662
   20CHTO   C19 8360   6.337  11.436  -0.408 -0.2186 -0.0459 -0.6754
   20CHTO   H47 8361   6.321  11.461  -0.514 -2.4574 -0.6659 -0.5083
   20CHTO   C20 8362   6.416  11.553  -0.333 -0.3973  0.3371  0.5765
   20CHTO   H48 8363   6.406  11.544  -0.224  0.0448 -0.4101  0.5604
   20CHTO   O19 8364   6.343  11.675  -0.366  0.0067  0.0175  0.5889
   20CHTO   H35 8365   6.252  11.677  -0.347 -0.3520 -1.0657 -0.8790
   20CHTO   C21 8366   6.565  11.561  -0.373 -0.1021  0.0372 -0.8311
   20CHTO   H49 8367   6.571  11.574  -0.481  0.4076 -0.7020 -0.8979
   20CHTO    N4 8368   6.649  11.659  -0.298 -0.3504  0.0028 -0.0253
   20CHTO   H41 8369   6.752  11.653  -0.331  0.0541 -0.6125  1.2961
   20CHTO   H42 8370   6.656  11.637  -0.193 -2.0419 -2.1289 -0.3301
   20CHTO   C22 8371   6.634  11.418  -0.358 -0.0574 -0.7890  0.1152
   20CHTO   H50 8372   6.636  11.388  -0.253 -0.4431  2.5309  1.1354
   20CHTO   O14 8373   6.563  11.322  -0.435  0.1418  0.3193  0.2492
   20CHTO   C23 8374   6.422  11.308  -0.407  0.8141 -0.7672  0.3762
   20CHTO   H51 8375   6.427  11.260  -0.308  1.8631  1.8655  1.6534
   20CHTO   C34 8376   6.377  11.198  -0.507  0.7356  0.6022  0.2722
   20CHTO   O23 8377   6.435  11.077  -0.462 -0.1267  0.3950  0.2863
   20CHTO   H38 8378   6.409  11.067  -0.372  0.6813  1.7291  0.6909
   20CHTO   O16 8379   6.769  11.414  -0.408  0.4038  0.1732 -0.6242
   20CHTO   C24 8380   6.863  11.304  -0.331  0.2850  0.0694 -0.1670
   20CHTO   H52 8381   6.804  11.245  -0.262 -0.4532 -0.8675 -1.5761
   20CHTO   C26 8382   6.991  11.368  -0.265  0.6160 -0.0008  0.1987
   20CHTO   H54 8383   7.030  11.446  -0.334  0.0478  0.9916  0.9867
   20CHTO   O20 8384   6.953  11.454  -0.152 -0.0667 -0.0934  0.4923
   20CHTO   H36 8385   7.023  11.509  -0.122 -0.9436  0.1769  2.1187
   20CHTO   C30 8386   7.098  11.272  -0.217  0.9809  0.5062 -0.0006
   20CHTO   H58 8387   7.090  11.258  -0.108 -0.5409 -0.3243 -0.2056
   20CHTO    N6 8388   7.240  11.303  -0.251  0.4175  0.0595 -0.2513
   20CHTO   H45 8389   7.248  11.343  -0.350 -1.2317 -0.3706 -0.5784
   20CHTO   H46 8390   7.308  11.221  -0.235 -0.6642 -0.4052  2.3103
   20CHTO   C33 8391   7.061  11.124  -0.250  0.4192 -0.5087 -0.0214
   20CHTO   H61 8392   7.149  11.063  -0.222  1.3233  0.6515 -0.2923
   20CHTO   O18 8393   7.020  11.107  -0.391  0.0612  0.5891 -0.5334
   20CHTO   C28 8394   6.921  11.201  -0.437 -0.0646 -0.9201  0.3187
   20CHTO   H56 8395   6.962  11.253  -0.523 -0.1917 -2.2781 -0.5749
   20CHTO   C35 8396   6.802  11.118  -0.480 -0.1846  0.1745 -0.1257
   20CHTO   O24 8397   6.807  11.028  -0.587 -0.0330  0.6632  0.6504
   20CHTO   H39 8398   6.731  11.031  -0.641  1.2847 -1.4139 -1.3855
   20CHTO    O9 8399   6.952  11.083  -0.157 -0.0743 -0.1051 -0.1474
   20CHTO   C13 8400   6.947  10.928  -0.112  0.2432 -0.2451 -0.6172
   20CHTO   H26 8401   7.053  10.913  -0.083  0.3721  0.4929 -0.6799
   20CHTO   C11 8402   6.897  10.832  -0.230  0.6745  0.2348  0.2978
   20CHTO   H24 8403   6.974  10.824  -0.309  0.4084 -0.9193  0.1407
   20CHTO    O8 8404   6.782  10.891  -0.290  0.0891 -0.1400 -0.4351
   20CHTO    H3 8405   6.750  10.844  -0.365 -1.9956 -0.9219  0.8731
   20CHTO    C9 8406   6.859  10.692  -0.168 -0.7746 -0.4334  0.0241
   20CHTO   H22 8407   6.943  10.661  -0.104  0.3881  2.2707 -0.1105
   20CHTO    N2 8408   6.844  10.588  -0.271 -0.0827 -0.3194  0.0364
   20CHTO   H10 8409   6.908  10.501  -0.281 -0.6882 -0.5887 -1.6751
   20CHTO   H11 8410   6.741  10.560  -0.287  0.2910 -0.4989 -2.2321
   20CHTO    C7 8411   6.738  10.715  -0.064  0.7678 -0.2751 -0.1877
   20CHTO   H20 8412   6.759  10.659   0.030  0.5324  2.6923  1.7385
   20CHTO    O4 8413   6.736  10.854  -0.020  0.0253 -0.1905  0.1940
   20CHTO   C14 8414   6.857  10.906   0.020  0.1211 -0.2356  0.4386
   20CHTO   H27 8415   6.917  10.837   0.083  1.1863 -0.2626 -0.5811
   20CHTO   C18 8416   6.845  11.040   0.104 -0.0635  0.3495  0.4918
   20CHTO   O13 8417   6.973  11.089   0.146 -0.1681  0.1308  0.8278
   20CHTO    H7 8418   6.962  11.179   0.169 -1.8726  0.6794 -1.8751
   20CHTO    O2 8419   6.599  10.686  -0.122  0.2841 -0.1509  0.2485
   20CHTO    C1 8420   6.512  10.666  -0.014  0.9291  0.1214 -0.1597
   20CHTO   H14 8421   6.546  10.710   0.082  0.5853 -0.9003  0.4344
   20CHTO    C2 8422   6.487  10.509   0.016 -0.0569  0.3812  0.4397
   20CHTO   H15 8423   6.439  10.467  -0.073  3.1285  1.6019 -1.9670
   20CHTO    O6 8424   6.615  10.449   0.041  0.0002  0.5257  0.2737
   20CHTO    H1 8425   6.598  10.365   0.078  3.6588 -0.5008 -0.1767
   20CHTO    C3 8426   6.384  10.486   0.137 -0.1526 -0.9525  0.2593
   20CHTO   H16 8427   6.428  10.541   0.222  0.0523 -1.2830  0.3713
   20CHTO    N1 8428   6.359  10.342   0.178  0.5391  0.2474 -0.4905
   20CHTO    H8 8429   6.453  10.309   0.218 -0.8559 -1.0150  1.8514
   20CHTO    H9 8430   6.328  10.277   0.097 -0.2719 -2.4646  1.8992
   20CHTO    C4 8431   6.251  10.565   0.098  0.4596  0.4536 -0.4856
   20CHTO   H17 8432   6.204  10.525   0.008 -1.3862  0.9071  0.2457
   20CHTO    O1 8433   6.288  10.703   0.071  0.1061 -0.3642 -0.1413
   20CHTO    C5 8434   6.371  10.722  -0.045 -0.1701 -0.1137  0.2042
   20CHTO   H18 8435   6.332  10.668  -0.132  0.9126  0.3573 -0.5891
   20CHTO   C16 8436   6.374  10.869  -0.083 -0.0153 -0.4160  0.1055
   20CHTO   O11 8437   6.369  10.887  -0.230  0.1298  0.7519  0.2438
   20CHTO    H5 8438   6.452  10.862  -0.265  0.2513  0.7905  0.5007
   20CHTO    O3 8439   6.163  10.566   0.208  0.6040 -0.3582 -0.4403
   20CHTO    C6 8440   6.024  10.622   0.175 -0.0030 -0.3969 -0.2558
   20CHTO   H19 8441   6.022  10.690   0.090 -0.2072 -0.4463 -0.2892
   20CHTO    C8 8442   5.934  10.508   0.151 -0.2044 -0.2011  0.1564
   20CHTO   H21 8443   5.926  10.451   0.244  0.1345  0.5936  0.6831
   20CHTO    O7 8444   5.969  10.434   0.032  0.0906  0.0508 -0.3002
   20CHTO    H2 8445   5.898  10.375   0.015  1.5285 -1.0242 -2.9011
   20CHTO   C12 8446   5.781  10.553   0.135 -0.2849  0.5978  0.5461
   20CHTO   H25 8447   5.780  10.601   0.035 -2.2559  2.4153  1.4036
   20CHTO    N3 8448   5.678  10.438   0.121 -0.8860  0.0112 -0.3066
   20CHTO   H12 8449   5.697  10.364   0.046  2.6038  0.8117 -0.3185
   20CHTO   H13 8450   5.584  10.489   0.110 -0.2297  0.6356 -3.2261
   20CHTO   C15 8451   5.749  10.670   0.237  0.5468 -0.5549 -0.0420
   20CHTO   H28 8452   5.702  10.631   0.328 -0.5230  2.2506  0.6652
   20CHTO   O10 8453   5.642  10.776   0.173 -0.1113 -0.5150  0.4378
   20CHTO    H4 8454   5.576  10.735   0.121 -1.0866 -0.1383  1.3609
   20CHTO    O5 8455   5.854  10.763   0.259  0.3871  0.1849  0.0552
   20CHTO   C10 8456   5.971  10.698   0.303 -0.2316 -0.2133  0.1030
   20CHTO   H23 8457   5.950  10.637   0.391 -1.1951  0.3611  0.2707
   20CHTO   C17 8458   6.064  10.811   0.344 -0.5960  0.3200  0.5230
   20CHTO   O12 8459   6.177  10.767   0.421 -0.3712  0.8522  0.2388
   20CHTO    H6 8460   6.137  10.720   0.491 -1.0763  0.2403 -0.5597
   21GLOH   H03 8461   8.258   3.637   3.671 -1.7551  2.6487  3.6752
   21GLOH    O1 8462   8.204   3.564   3.706  0.6608 -1.0982  0.0130
   21GLOH    C1 8463   8.116   3.608   3.814 -0.1229  0.5267 -0.4081
   21GLOH   H02 8464   8.185   3.621   3.897  2.0758 -1.8410 -1.7887
   21GLOH   H08 8465   8.033   3.539   3.832  0.0118  0.7613  1.1928
   21GLOH    C2 8466   8.046   3.736   3.775 -0.1909  0.2498  0.1293
   21GLOH   H04 8467   7.985   3.717   3.686  1.0939 -0.5001 -0.6126
   21GLOH    O2 8468   7.965   3.779   3.884 -0.9470 -0.7194 -0.6485
   21GLOH   H05 8469   7.936   3.871   3.874 -1.7686 -0.6931  1.5680
   21GLOH    C3 8470   8.150   3.842   3.720 -0.1591  0.1094 -0.0878
   21GLOH   H06 8471   8.211   3.874   3.804 -0.0132 -0.1819 -0.0859
   21GLOH   H07 8472   8.104   3.931   3.676  1.1499  1.3378  0.9931
   21GLOH    O3 8473   8.248   3.796   3.628 -0.2041  0.3668  0.2739
   21GLOH   H01 8474   8.321   3.859   3.616  0.2018 -0.3393 -1.0405
   22GLOH   H03 8475   3.692   4.715   3.930 -0.2408  0.2983  0.4272
   22GLOH    O1 8476   3.769   4.770   3.910 -0.1170 -0.0587 -0.0699
   22GLOH    C1 8477   3.763   4.884   3.994  0.2395 -0.7233  0.7536
   22GLOH   H02 8478   3.837   4.958   3.962 -0.3279 -0.5420 -0.1553
   22GLOH   H08 8479   3.786   4.868   4.100  0.4598 -0.5444  0.7361
   22GLOH    C2 8480   3.625   4.950   3.991 -0.3833 -0.2182 -0.3744
   22GLOH   H04 8481   3.555   4.875   4.031  1.8923 -1.0942  2.1096
   22GLOH    O2 8482   3.627   5.057   4.088 -0.3683 -0.1712  0.3436
   22GLOH   H05 8483   3.591   5.012   4.166 -0.1244 -1.7998 -0.4412
   22GLOH    C3 8484   3.567   4.985   3.857  0.1731  0.2254 -0.1865
   22GLOH   H06 8485   3.591   4.896   3.799 -0.0404  0.1162 -0.1075
   22GLOH   H07 8486   3.613   5.077   3.819  0.1863  0.5941  0.7117
   22GLOH    O3 8487   3.429   5.020   3.854  0.5078  0.5840  0.0630
   22GLOH   H01 8488   3.386   5.000   3.769  1.3066 -1.8522  0.1825
   23GLOH   H03 8489   2.610   5.130   0.710  1.1633 -1.1007 -1.3696
   23GLOH    O1 8490   2.623   5.213   0.660  0.2494 -0.1530 -0.0593
   23GLOH    C1 8491   2.548   5.197   0.542 -0.2683  0.1163  0.1984
   23GLOH   H02 8492   2.574   5.109   0.483  2.0718  2.2030 -2.0392
   23GLOH   H08 8493   2.575   5.275   0.471  1.3982  0.3334  1.0477
   23GLOH    C2 8494   2.398   5.220   0.559  0.5638 -0.3142 -0.2788
   23GLOH   H04 8495   2.351   5.169   0.474 -1.1385 -0.6792  0.8448
   23GLOH    O2 8496   2.352   5.154   0.681  0.3192 -0.4927  0.2675
   23GLOH   H05 8497   2.306   5.071   0.657 -0.3296  1.2024 -5.0710
   23GLOH    C3 8498   2.359   5.368   0.539  0.1620  0.6867  0.5198
   23GLOH   H06 8499   2.413   5.431   0.609  0.7981 -1.2663  1.8236
   23GLOH   H07 8500   2.252   5.366   0.561 -0.4271 -0.5495 -2.2005
   23GLOH    O3 8501   2.374   5.420   0.405  0.6851  0.1071 -0.4610
   23GLOH   H01 8502   2.361   5.349   0.340  0.1247 -0.8542  0.6776
   24GLOH   H03 8503   0.416   4.049   1.558  1.5217  0.9808 -0.3583
   24GLOH    O1 8504   0.493   4.002   1.594  0.9200  0.1016 -0.2035
   24GLOH    C1 8505   0.510   3.872   1.540 -0.5718 -0.0570 -0.1415
   24GLOH   H02 8506   0.413   3.828   1.519 -1.0865  1.2752 -0.5974
   24GLOH   H08 8507   0.556   3.804   1.612 -2.3248 -1.3644 -0.2077
   24GLOH    C2 8508   0.595   3.856   1.413 -0.7829 -0.7553 -0.7431
   24GLOH   H04 8509   0.604   3.747   1.403 -0.3542 -0.9934  1.7630
   24GLOH    O2 8510   0.530   3.900   1.293 -0.5448  0.1105 -0.5059
   24GLOH   H05 8511   0.579   3.882   1.212  1.1526  2.1545  0.0241
   24GLOH    C3 8512   0.737   3.921   1.430  0.3246  0.6620 -0.0390
   24GLOH   H06 8513   0.732   4.029   1.446  1.0744  0.6339  0.4158
   24GLOH   H07 8514   0.793   3.897   1.339 -0.5073  2.4579 -1.0560
   24GLOH    O3 8515   0.804   3.862   1.543 -0.4243  0.3515  0.4389
   24GLOH   H01 8516   0.814   3.767   1.524 -0.0014 -0.0609  2.5946
   25GLOH   H03 8517   8.844   1.722   3.718 -1.0718  0.2212 -1.0221
   25GLOH    O1 8518   8.910   1.763   3.659  0.0499  0.1720  0.1782
   25GLOH    C1 8519   8.894   1.912   3.654 -0.1040  0.7250 -0.0446
   25GLOH   H02 8520   8.944   1.961   3.737  0.8633  0.4740 -0.4699
   25GLOH   H08 8521   8.787   1.934   3.648 -0.9055 -2.6865  0.6325
   25GLOH    C2 8522   8.972   1.964   3.533  0.8779 -0.4053  0.5264
   25GLOH   H04 8523   9.074   1.931   3.556  0.9446  1.3359  2.8470
   25GLOH    O2 8524   8.931   1.911   3.400 -0.5749 -0.3481 -0.1056
   25GLOH   H05 8525   8.982   1.828   3.395 -1.4139 -0.8946  0.3101
   25GLOH    C3 8526   8.971   2.119   3.540 -0.0067 -0.8342  0.3209
   25GLOH   H06 8527   8.870   2.155   3.523  0.2901 -1.4987 -3.1609
   25GLOH   H07 8528   9.022   2.152   3.450  1.4410  0.2360  1.5055
   25GLOH    O3 8529   9.038   2.174   3.653 -0.1539  0.5383  0.4517
   25GLOH   H01 8530   9.100   2.242   3.620  0.8068  0.1478  1.4361
   26GLOH   H03 8531   0.299   0.710   4.011  2.3601 -3.5137 -0.4208
   26GLOH    O1 8532   0.335   0.728   4.100  0.1081  0.1058 -0.1200
   26GLOH    C1 8533   0.469   0.676   4.118  0.2823 -0.1138 -0.2085
   26GLOH   H02 8534   0.541   0.711   4.044 -2.2946  1.0029 -2.2554
   26GLOH   H08 8535   0.475   0.569   4.101  1.6718 -0.1435  0.3255
   26GLOH    C2 8536   0.530   0.709   4.257 -0.7377  0.4656  0.3227
   26GLOH   H04 8537   0.469   0.674   4.342 -0.0812  1.0948  1.0629
   26GLOH    O2 8538   0.648   0.638   4.266  0.4631  0.9436  0.2992
   26GLOH   H05 8539   0.628   0.554   4.312 -0.9449  0.2496 -1.5200
   26GLOH    C3 8540   0.545   0.865   4.261 -0.8630  0.4471 -0.0658
   26GLOH   H06 8541   0.454   0.918   4.234 -0.4962 -0.1469 -2.5945
   26GLOH   H07 8542   0.622   0.890   4.187  0.4475  1.8566  1.7276
   26GLOH    O3 8543   0.604   0.893   4.391 -0.2365 -0.5581  0.3139
   26GLOH   H01 8544   0.623   0.810   4.437 -1.5548  0.4301  2.7293
   27GLOH   H03 8545   8.369   7.288   0.873 -2.0996 -0.6253  1.6438
   27GLOH    O1 8546   8.329   7.376   0.857  0.2412  0.2283  0.1237
   27GLOH    C1 8547   8.398   7.465   0.942  0.2490 -1.0820  0.1364
   27GLOH   H02 8548   8.505   7.465   0.923  0.4601  1.0263  1.2281
   27GLOH   H08 8549   8.401   7.426   1.044  1.2506 -0.6987  0.2606
   27GLOH    C2 8550   8.359   7.612   0.948  0.1574 -0.6606  0.1406
   27GLOH   H04 8551   8.253   7.628   0.972  0.3622  1.3427 -0.2313
   27GLOH    O2 8552   8.421   7.683   1.060  0.1717 -0.7254  0.2126
   27GLOH   H05 8553   8.516   7.696   1.046  0.0369 -0.5374 -0.5198
   27GLOH    C3 8554   8.372   7.688   0.811 -1.2358 -0.3007  0.0957
   27GLOH   H06 8555   8.340   7.791   0.827  0.8283  0.5784 -1.1935
   27GLOH   H07 8556   8.295   7.639   0.751 -0.2857 -1.9251  0.1640
   27GLOH    O3 8557   8.499   7.671   0.752 -0.4147 -0.0972  0.4882
   27GLOH   H01 8558   8.538   7.760   0.754  0.4609 -0.5016  2.7157
   28GLOH   H03 8559   0.470   5.234   0.274 -3.5483  1.7299 -0.4016
   28GLOH    O1 8560   0.509   5.289   0.204 -0.3763 -0.1257 -0.2074
   28GLOH    C1 8561   0.565   5.406   0.267 -0.0466 -0.4972  0.1286
   28GLOH   H02 8562   0.532   5.413   0.371  2.8338  1.3668  0.9669
   28GLOH   H08 8563   0.532   5.498   0.216 -0.4490 -0.5951  0.2102
   28GLOH    C2 8564   0.716   5.414   0.280 -0.2943  0.0250 -1.0065
   28GLOH   H04 8565   0.741   5.509   0.329  2.2063 -0.9828 -0.2430
   28GLOH    O2 8566   0.770   5.313   0.367 -0.3770 -0.0590 -0.0557
   28GLOH   H05 8567   0.754   5.225   0.330 -0.2894  0.1076 -0.4979
   28GLOH    C3 8568   0.797   5.413   0.149 -0.6184 -0.1145 -0.5402
   28GLOH   H06 8569   0.776   5.321   0.096  0.4922 -1.6813  1.6855
   28GLOH   H07 8570   0.902   5.424   0.176 -0.2705 -1.8251 -1.1583
   28GLOH    O3 8571   0.764   5.513   0.047 -0.1062 -0.9392 -0.0915
   28GLOH   H01 8572   0.787   5.607   0.059  0.5308 -1.1666  0.5003
   29GLOH   H03 8573   3.081   5.836   3.871 -0.5845  1.5006 -1.7544
   29GLOH    O1 8574   3.007   5.888   3.908  0.0948  1.2809 -0.0215
   29GLOH    C1 8575   2.913   5.921   3.806  0.8859 -0.5073  0.1087
   29GLOH   H02 8576   2.903   5.836   3.738 -1.3876  1.2062 -1.8189
   29GLOH   H08 8577   2.950   6.003   3.744  2.3877 -0.2414  1.3333
   29GLOH    C2 8578   2.772   5.952   3.860  0.3035 -0.4979  0.3285
   29GLOH   H04 8579   2.787   6.024   3.941 -2.4443  1.3477 -0.7144
   29GLOH    O2 8580   2.686   6.011   3.758  0.9922 -0.0839  0.2621
   29GLOH   H05 8581   2.649   5.942   3.700 -0.7369  1.1142 -0.0662
   29GLOH    C3 8582   2.714   5.823   3.920  0.6082 -0.0210 -0.4981
   29GLOH   H06 8583   2.615   5.840   3.962 -0.8564 -1.8936 -3.0275
   29GLOH   H07 8584   2.779   5.792   4.002 -0.3296  2.0501  1.0454
   29GLOH    O3 8585   2.692   5.730   3.815 -0.3953  0.2422 -0.2562
   29GLOH   H01 8586   2.775   5.680   3.807 -0.6856 -0.4646  0.9647
   30GLOH   H03 8587   8.536   1.853   2.239  0.1680  0.2070 -1.2994
   30GLOH    O1 8588   8.610   1.825   2.296 -0.1764  0.1081 -0.9082
   30GLOH    C1 8589   8.569   1.721   2.387 -0.4676  0.2747 -0.2314
   30GLOH   H02 8590   8.650   1.661   2.427 -1.4936 -0.1681  1.2063
   30GLOH   H08 8591   8.502   1.652   2.336 -0.1886 -2.4182  2.9373
   30GLOH    C2 8592   8.497   1.781   2.505  0.1395  0.4907 -0.1768
   30GLOH   H04 8593   8.421   1.852   2.470  0.5443  0.8857 -0.2605
   30GLOH    O2 8594   8.438   1.664   2.570  0.4137 -0.3830  0.6951
   30GLOH   H05 8595   8.506   1.596   2.585  0.5266 -0.5829 -0.5914
   30GLOH    C3 8596   8.581   1.861   2.607 -0.3068  0.3440 -0.5570
   30GLOH   H06 8597   8.622   1.944   2.550  0.7568 -0.5329 -1.0740
   30GLOH   H07 8598   8.660   1.793   2.638 -0.9374 -0.4086 -0.5920
   30GLOH    O3 8599   8.497   1.908   2.719 -0.5354 -0.2728  0.0095
   30GLOH   H01 8600   8.513   2.004   2.726  0.5523 -0.4423  0.0006
   31GLOH   H03 8601   4.513   4.652   1.494 -0.2979  1.9692  1.9422
   31GLOH    O1 8602   4.466   4.706   1.428 -0.5828 -0.1479  0.3675
   31GLOH    C1 8603   4.327   4.665   1.409 -0.0340 -0.2867  0.5802
   31GLOH   H02 8604   4.290   4.624   1.503  1.4510 -0.9034  0.9158
   31GLOH   H08 8605   4.314   4.582   1.339 -2.0380  1.1188 -0.7981
   31GLOH    C2 8606   4.232   4.773   1.363 -0.3196 -0.2124 -1.0683
   31GLOH   H04 8607   4.247   4.795   1.256 -1.0524 -2.1329 -1.5852
   31GLOH    O2 8608   4.108   4.704   1.381 -0.3283  0.0179 -0.3443
   31GLOH   H05 8609   4.109   4.610   1.355 -0.6147 -0.0601 -0.0845
   31GLOH    C3 8610   4.246   4.897   1.457 -0.1312  0.1061 -0.3513
   31GLOH   H06 8611   4.199   4.869   1.552 -0.8401 -0.9845 -1.0093
   31GLOH   H07 8612   4.181   4.978   1.422  0.3322 -0.3246 -2.2296
   31GLOH    O3 8613   4.380   4.947   1.461 -0.4008 -0.6618 -0.0572
   31GLOH   H01 8614   4.438   4.869   1.467  0.1274 -0.3285 -0.7459
   32GLOH   H03 8615   9.097   3.741   3.748 -1.4174  1.8633 -0.5510
   32GLOH    O1 8616   9.169   3.804   3.730 -0.2772  0.6631 -0.2966
   32GLOH    C1 8617   9.148   3.926   3.805  0.8098 -0.7229  0.1210
   32GLOH   H02 8618   9.143   3.890   3.907  3.4134  1.7840  1.1845
   32GLOH   H08 8619   9.060   3.985   3.778  1.2971  0.0342  0.1932
   32GLOH    C2 8620   9.279   4.016   3.800  0.0060 -0.6112 -0.3038
   32GLOH   H04 8621   9.309   4.027   3.695  1.2406  0.3188  0.1356
   32GLOH    O2 8622   9.256   4.154   3.842  0.2131 -0.2665 -0.0817
   32GLOH   H05 8623   9.205   4.172   3.922  0.9579  1.5823 -0.0031
   32GLOH    C3 8624   9.389   3.946   3.880 -0.2872  0.5249 -0.2123
   32GLOH   H06 8625   9.364   3.961   3.985 -2.0433 -2.7316 -0.0958
   32GLOH   H07 8626   9.483   3.997   3.860 -1.5481  1.6375 -3.6298
   32GLOH    O3 8627   9.402   3.806   3.843 -0.4743 -0.1337 -0.4080
   32GLOH   H01 8628   9.312   3.771   3.825 -0.4944  0.5350 -1.6494
   33GLOH   H03 8629   0.989   8.741   0.870  1.3875  1.1558 -1.2858
   33GLOH    O1 8630   0.991   8.662   0.813  1.0022  0.0511  0.2100
   33GLOH    C1 8631   1.119   8.603   0.807 -1.0938 -0.5541  0.1780
   33GLOH   H02 8632   1.103   8.502   0.771 -3.3532 -0.1601 -0.0057
   33GLOH   H08 8633   1.162   8.596   0.907 -2.4120  0.0916  0.8144
   33GLOH    C2 8634   1.223   8.677   0.718 -0.0137 -0.2113 -0.2443
   33GLOH   H04 8635   1.243   8.767   0.777 -1.5225  1.9393 -2.8669
   33GLOH    O2 8636   1.343   8.600   0.713 -0.2761 -0.3227 -0.5497
   33GLOH   H05 8637   1.319   8.508   0.734  0.6958 -0.9677 -2.1770
   33GLOH    C3 8638   1.160   8.712   0.581 -0.0991 -0.4932 -0.2769
   33GLOH   H06 8639   1.238   8.774   0.537  1.6041 -0.7186  2.3199
   33GLOH   H07 8640   1.072   8.773   0.597  0.6459  0.4951  0.1001
   33GLOH    O3 8641   1.153   8.594   0.498  1.1028  0.0503 -0.4369
   33GLOH   H01 8642   1.068   8.548   0.514  1.4669  0.0005  1.4169
   34GLOH   H03 8643   1.497   8.678   0.680 -1.5568  2.8903 -1.0101
   34GLOH    O1 8644   1.583   8.722   0.677 -0.2353  0.4299 -0.2610
   34GLOH    C1 8645   1.585   8.797   0.800 -0.2088 -0.0248  0.2047
   34GLOH   H02 8646   1.543   8.746   0.887 -0.1510 -0.5609 -0.0816
   34GLOH   H08 8647   1.529   8.891   0.791  1.3414  0.7948 -1.3276
   34GLOH    C2 8648   1.721   8.840   0.859  0.3981 -0.5525  0.3444
   34GLOH   H04 8649   1.776   8.892   0.779 -1.4572  1.1676  0.1279
   34GLOH    O2 8650   1.688   8.930   0.967 -0.1134  0.1864  0.3417
   34GLOH   H05 8651   1.775   8.954   1.003  0.7094  0.2675 -1.6306
   34GLOH    C3 8652   1.804   8.717   0.904 -0.1756  0.5093  0.3895
   34GLOH   H06 8653   1.905   8.759   0.905 -0.2661  0.7751 -1.0439
   34GLOH   H07 8654   1.800   8.640   0.828  1.1306  0.9905 -0.1850
   34GLOH    O3 8655   1.762   8.660   1.031 -0.0052  0.9206 -0.2884
   34GLOH   H01 8656   1.683   8.605   1.023  0.6243 -0.1114  0.5109
   35GLOH   H03 8657   6.495   0.346   3.387  0.4697 -2.3872 -1.5078
   35GLOH    O1 8658   6.441   0.370   3.310 -0.1981 -0.2730 -0.4096
   35GLOH    C1 8659   6.346   0.265   3.289 -0.4404 -0.3160 -0.3261
   35GLOH   H02 8660   6.288   0.249   3.380 -0.2833  0.7678 -0.0208
   35GLOH   H08 8661   6.403   0.174   3.270  1.3034  0.8889 -1.0292
   35GLOH    C2 8662   6.246   0.298   3.179  0.6292  0.3589  1.1278
   35GLOH   H04 8663   6.307   0.298   3.088  1.1018 -0.0865  1.4436
   35GLOH    O2 8664   6.138   0.206   3.173  0.5718 -0.1069  0.0266
   35GLOH   H05 8665   6.083   0.190   3.252 -1.2904  0.1438 -1.1985
   35GLOH    C3 8666   6.183   0.439   3.209 -0.1160  0.5510 -0.2511
   35GLOH   H06 8667   6.257   0.515   3.232 -1.5090  2.1670 -1.0493
   35GLOH   H07 8668   6.118   0.436   3.297  0.0664 -1.8474 -0.1649
   35GLOH    O3 8669   6.107   0.482   3.095 -1.4293  0.0647  0.0118
   35GLOH   H01 8670   6.018   0.446   3.109 -0.9147 -0.7111  1.3840
   36GLOH   H03 8671   8.016   9.916   2.451  2.4947 -1.0148 -1.9703
   36GLOH    O1 8672   8.041   9.848   2.516 -0.2323 -0.1767  0.0497
   36GLOH    C1 8673   8.149   9.770   2.463 -0.1393  0.1343  0.5373
   36GLOH   H02 8674   8.235   9.830   2.433 -1.1265  0.6008 -1.4437
   36GLOH   H08 8675   8.115   9.716   2.374 -0.7510 -1.9752  2.0143
   36GLOH    C2 8676   8.200   9.661   2.555  0.5157  0.1019 -0.0194
   36GLOH   H04 8677   8.248   9.692   2.649  0.1852 -1.1859  0.5878
   36GLOH    O2 8678   8.097   9.563   2.578 -0.2208  0.2115 -0.1161
   36GLOH   H05 8679   8.007   9.599   2.569  0.2603  1.3537 -0.4501
   36GLOH    C3 8680   8.319   9.591   2.487 -0.5667 -0.0264  0.4218
   36GLOH   H06 8681   8.268   9.543   2.403 -3.1672  1.5537  1.0541
   36GLOH   H07 8682   8.356   9.507   2.546 -1.1667 -0.1754  0.5893
   36GLOH    O3 8683   8.425   9.676   2.445 -0.3463 -0.1712 -0.3038
   36GLOH   H01 8684   8.508   9.625   2.432 -0.3070 -0.5215  1.3293
   37GLOH   H03 8685   3.586   6.003   2.769 -0.0701  1.3282 -0.0231
   37GLOH    O1 8686   3.537   5.979   2.850  0.7661  0.7839  0.3293
   37GLOH    C1 8687   3.510   5.837   2.833  0.2111 -0.1440  1.0380
   37GLOH   H02 8688   3.526   5.805   2.730  2.1888  1.1470  0.9162
   37GLOH   H08 8689   3.414   5.800   2.869  0.3366 -0.9124  0.5838
   37GLOH    C2 8690   3.618   5.760   2.911 -0.0251  0.1984  0.7880
   37GLOH   H04 8691   3.602   5.766   3.019 -0.5790  0.9549  0.6701
   37GLOH    O2 8692   3.620   5.619   2.871 -0.4334 -0.3626 -0.0438
   37GLOH   H05 8693   3.565   5.607   2.792 -0.1550  1.9144 -0.5994
   37GLOH    C3 8694   3.757   5.825   2.871 -0.1309  0.0210 -0.5596
   37GLOH   H06 8695   3.848   5.775   2.904 -0.2647 -0.2199 -0.5550
   37GLOH   H07 8696   3.756   5.922   2.920  0.7577  0.8636 -2.1587
   37GLOH    O3 8697   3.779   5.852   2.732  0.6061  0.5701 -0.1215
   37GLOH   H01 8698   3.835   5.785   2.688 -2.7013 -2.9159  0.7971
   38GLOH   H03 8699   9.365   4.437   2.733  0.4305 -0.3088 -1.6683
   38GLOH    O1 8700   9.348   4.341   2.730 -0.3905 -0.2625  0.4236
   38GLOH    C1 8701   9.252   4.311   2.834 -0.7245 -0.2752 -0.4332
   38GLOH   H02 8702   9.158   4.357   2.804 -1.5634  0.9292  3.7688
   38GLOH   H08 8703   9.294   4.353   2.925  2.2410  0.2794 -1.9894
   38GLOH    C2 8704   9.239   4.157   2.866  0.0618 -0.8208 -0.6118
   38GLOH   H04 8705   9.337   4.116   2.896  0.5440 -1.0414 -2.4340
   38GLOH    O2 8706   9.147   4.140   2.974  0.1289  0.3646 -0.2603
   38GLOH   H05 8707   9.184   4.174   3.058 -0.4931  0.0600  0.1393
   38GLOH    C3 8708   9.193   4.078   2.741  0.2275 -0.4933  0.0211
   38GLOH   H06 8709   9.089   4.097   2.715  0.5925  1.3743 -0.1180
   38GLOH   H07 8710   9.191   3.972   2.769  0.2714 -0.2244  1.0869
   38GLOH    O3 8711   9.288   4.091   2.632  0.0286 -0.1686  0.3146
   38GLOH   H01 8712   9.318   4.183   2.650 -0.7673 -0.0756  1.2014
   39GLOH   H03 8713   7.858   5.418   0.502  2.5025  0.3796  0.9546
   39GLOH    O1 8714   7.875   5.379   0.414 -0.7461  0.0815  0.3817
   39GLOH    C1 8715   7.850   5.477   0.313  0.2664 -0.1137  0.0636
   39GLOH   H02 8716   7.745   5.507   0.315  0.2122 -0.3288  0.6380
   39GLOH   H08 8717   7.868   5.423   0.220 -2.2163 -1.1993  0.1721
   39GLOH    C2 8718   7.948   5.595   0.319 -0.1154 -0.1170 -0.2023
   39GLOH   H04 8719   8.045   5.562   0.360  1.1636  0.1891 -2.8859
   39GLOH    O2 8720   7.971   5.650   0.188  0.0117  0.3533  0.3843
   39GLOH   H05 8721   8.037   5.592   0.146  1.6084  1.2356  1.6198
   39GLOH    C3 8722   7.900   5.716   0.406  0.0605  0.3652 -0.3147
   39GLOH   H06 8723   7.804   5.748   0.366 -0.5493 -1.1223 -0.0737
   39GLOH   H07 8724   7.976   5.793   0.390 -0.5593  1.0714  0.1313
   39GLOH    O3 8725   7.894   5.676   0.547  0.3654  0.6256 -0.5280
   39GLOH   H01 8726   7.988   5.661   0.570  0.5089  0.9492 -0.8997
   40GLOH   H03 8727   3.257   8.852   3.057  0.3117  0.7112 -0.2796
   40GLOH    O1 8728   3.284   8.776   3.002 -0.7272 -0.4011  0.7078
   40GLOH    C1 8729   3.222   8.784   2.873  0.6271  0.3832  0.3193
   40GLOH   H02 8730   3.255   8.877   2.825  1.3563 -0.3511 -0.6134
   40GLOH   H08 8731   3.117   8.808   2.891 -0.0031 -1.1350 -1.1682
   40GLOH    C2 8732   3.236   8.663   2.772 -0.0461 -0.3163 -0.1944
   40GLOH   H04 8733   3.193   8.589   2.841 -1.0076  0.3703 -0.0628
   40GLOH    O2 8734   3.161   8.688   2.651  0.1743  0.0125 -0.6739
   40GLOH   H05 8735   3.117   8.775   2.651 -1.4309 -0.7120 -3.8354
   40GLOH    C3 8736   3.380   8.624   2.739 -0.2689  0.4555  0.1040
   40GLOH   H06 8737   3.421   8.692   2.664  0.2773 -0.6882 -0.6505
   40GLOH   H07 8738   3.372   8.522   2.702 -0.6358  0.5561 -0.0931
   40GLOH    O3 8739   3.458   8.627   2.862 -0.3845  0.3128  0.0974
   40GLOH   H01 8740   3.423   8.700   2.916  1.0144  1.4279 -0.4792
   41GLOH   H03 8741   3.152   5.891   0.901 -3.9513 -2.8230 -1.7868
   41GLOH    O1 8742   3.210   5.813   0.898  0.1375 -0.0202 -0.6022
   41GLOH    C1 8743   3.223   5.770   1.034 -0.3106 -0.5980  0.3156
   41GLOH   H02 8744   3.126   5.739   1.075  0.9060 -1.7197  2.4536
   41GLOH   H08 8745   3.260   5.848   1.100 -0.9555 -1.0553  1.2450
   41GLOH    C2 8746   3.323   5.654   1.050  0.3735  0.7948  0.1905
   41GLOH   H04 8747   3.416   5.694   1.005 -1.5055  2.8176 -2.0411
   41GLOH    O2 8748   3.340   5.621   1.188  0.5359 -0.7485  0.2792
   41GLOH   H05 8749   3.254   5.635   1.233  0.2957 -1.8307  0.1818
   41GLOH    C3 8750   3.278   5.533   0.975  0.3025  0.5066 -0.6662
   41GLOH   H06 8751   3.184   5.507   1.023  2.4227 -1.1020  2.7412
   41GLOH   H07 8752   3.336   5.443   0.994  2.1593  1.9575  0.7847
   41GLOH    O3 8753   3.266   5.568   0.838  0.2631 -0.4446  0.0795
   41GLOH   H01 8754   3.255   5.664   0.854  3.8565 -0.1210  1.0581
   42GLOH   H03 8755   5.078   1.539   1.513 -0.6938 -2.4632  1.0635
   42GLOH    O1 8756   4.987   1.567   1.533 -0.1546 -0.1022  0.3201
   42GLOH    C1 8757   4.912   1.478   1.619  0.8280  0.0969  0.1953
   42GLOH   H02 8758   4.918   1.379   1.573 -1.0728  0.4827 -0.9029
   42GLOH   H08 8759   4.809   1.511   1.624  0.7802 -0.2208  1.6386
   42GLOH    C2 8760   4.966   1.466   1.765 -0.7317  0.1133  0.6722
   42GLOH   H04 8761   4.893   1.414   1.829 -0.2546  0.9315  1.8975
   42GLOH    O2 8762   5.089   1.405   1.770  0.8201 -0.2105 -0.2575
   42GLOH   H05 8763   5.087   1.329   1.831  1.6901 -0.1871 -0.1954
   42GLOH    C3 8764   4.982   1.607   1.828 -0.4486 -0.6822 -0.3371
   42GLOH   H06 8765   5.027   1.669   1.750 -0.1867  0.9167  1.0560
   42GLOH   H07 8766   5.047   1.594   1.915  1.8637 -1.1518 -2.0640
   42GLOH    O3 8767   4.862   1.674   1.870  0.1782 -0.1783 -0.8506
   42GLOH   H01 8768   4.838   1.732   1.796 -0.2092  0.6049 -0.1258
   43GLOH   H03 8769   9.482   0.972   1.902 -0.7093  0.2654 -0.8100
   43GLOH    O1 8770   9.412   0.925   1.951 -0.3457 -0.4685 -0.9938
   43GLOH    C1 8771   9.382   1.014   2.062  0.0368 -0.1885  0.8315
   43GLOH   H02 8772   9.303   0.975   2.126 -0.8920  2.6115  1.4514
   43GLOH   H08 8773   9.347   1.108   2.020  0.1282 -1.5291 -2.3900
   43GLOH    C2 8774   9.509   1.038   2.149 -0.5034  0.9190  0.2210
   43GLOH   H04 8775   9.588   1.084   2.088 -2.1682  2.3244 -0.9558
   43GLOH    O2 8776   9.471   1.130   2.255  0.2125 -0.4983  0.6599
   43GLOH   H05 8777   9.441   1.078   2.331 -1.7732 -0.8004 -0.3084
   43GLOH    C3 8778   9.563   0.899   2.193 -0.2581 -0.1529  0.1005
   43GLOH   H06 8779   9.654   0.922   2.248 -0.7635  2.0535  0.0822
   43GLOH   H07 8780   9.590   0.834   2.110 -2.6430 -3.0028  1.4572
   43GLOH    O3 8781   9.469   0.834   2.281  0.4647  0.2512 -0.0988
   43GLOH   H01 8782   9.524   0.793   2.350  1.3037 -0.0201 -0.9282
   44GLOH   H03 8783   1.845   9.274   1.173 -0.7691  0.3799 -0.2968
   44GLOH    O1 8784   1.794   9.234   1.245  0.3564 -0.2122  0.1904
   44GLOH    C1 8785   1.859   9.248   1.376 -0.1262 -0.0714 -0.5120
   44GLOH   H02 8786   1.780   9.249   1.451  1.5356  1.1996  1.2709
   44GLOH   H08 8787   1.914   9.342   1.384  1.2123 -0.7363 -1.4829
   44GLOH    C2 8788   1.959   9.123   1.408  0.2326 -0.2984 -0.1733
   44GLOH   H04 8789   1.905   9.027   1.403  0.4281 -0.4615  0.8142
   44GLOH    O2 8790   2.051   9.116   1.296 -0.5912 -0.2455 -0.4027
   44GLOH   H05 8791   2.057   9.022   1.273 -0.8080 -0.3736  0.0537
   44GLOH    C3 8792   2.017   9.148   1.553  0.4828 -0.5672  0.1965
   44GLOH   H06 8793   2.063   9.247   1.551 -1.3414  0.3102  0.3522
   44GLOH   H07 8794   2.107   9.090   1.572  0.9035  0.6789  2.1924
   44GLOH    O3 8795   1.914   9.142   1.656 -0.1759  0.1762  0.2674
   44GLOH   H01 8796   1.881   9.051   1.670  2.5134 -1.1552 -1.3967
   45GLOH   H03 8797   2.542   1.930   0.647  0.4945  2.7575 -0.9997
   45GLOH    O1 8798   2.556   1.880   0.563  0.3849  0.5935  0.2241
   45GLOH    C1 8799   2.695   1.861   0.564 -0.6059 -0.0639  0.7725
   45GLOH   H02 8800   2.731   1.818   0.658  2.7655  0.4008 -0.2441
   45GLOH   H08 8801   2.751   1.954   0.553  0.2714 -0.7963 -1.1394
   45GLOH    C2 8802   2.742   1.780   0.441  0.2232 -0.6955  0.2732
   45GLOH   H04 8803   2.851   1.794   0.441  0.0470  0.8585  0.3840
   45GLOH    O2 8804   2.715   1.642   0.454  0.0568  0.4287 -0.0920
   45GLOH   H05 8805   2.759   1.615   0.536  0.2258 -0.6574 -0.5351
   45GLOH    C3 8806   2.690   1.838   0.302  0.4593 -0.0775 -0.3848
   45GLOH   H06 8807   2.582   1.843   0.299  0.4210  0.7892  1.4658
   45GLOH   H07 8808   2.717   1.761   0.230 -1.9634  0.3496 -1.7783
   45GLOH    O3 8809   2.755   1.961   0.271 -0.5863  0.0685 -0.1731
   45GLOH   H01 8810   2.713   2.019   0.336 -0.3155  0.3885 -0.2875
   46GLOH   H03 8811   4.601   9.212   0.168 -0.7073 -0.5733 -0.9052
   46GLOH    O1 8812   4.607   9.288   0.107 -0.6551  0.3359  0.2122
   46GLOH    C1 8813   4.665   9.245  -0.015  0.7636 -0.2355 -0.2356
   46GLOH   H02 8814   4.617   9.291  -0.102  1.1993 -2.3407 -1.6147
   46GLOH   H08 8815   4.645   9.141  -0.038  0.3054 -0.3382  0.6151
   46GLOH    C2 8816   4.810   9.280  -0.037  0.5872  0.2011 -0.2482
   46GLOH   H04 8817   4.853   9.254  -0.134  1.6798  0.0779  0.2560
   46GLOH    O2 8818   4.826   9.422  -0.028 -0.1169 -0.0301  0.1281
   46GLOH   H05 8819   4.762   9.470  -0.083 -0.3280 -1.4443 -0.8791
   46GLOH    C3 8820   4.898   9.216   0.076 -0.2394  0.4647 -0.5809
   46GLOH   H06 8821   4.886   9.255   0.177 -0.3925 -0.3869 -0.2625
   46GLOH   H07 8822   5.002   9.234   0.049  0.2179 -0.8672  0.2145
   46GLOH    O3 8823   4.882   9.075   0.086 -0.4085  0.2174  0.0189
   46GLOH   H01 8824   4.819   9.059   0.159  0.0464 -1.7809 -0.0238
   47GLOH   H03 8825   9.597   7.295   3.846 -1.8617  0.1836  1.1813
   47GLOH    O1 8826   9.553   7.260   3.767 -0.1480  0.0994  0.2353
   47GLOH    C1 8827   9.616   7.298   3.648 -0.6386  0.0656 -0.2855
   47GLOH   H02 8828   9.600   7.223   3.570 -0.3141 -0.3511  0.0440
   47GLOH   H08 8829   9.723   7.289   3.668 -0.1357  2.0876 -1.9043
   47GLOH    C2 8830   9.590   7.431   3.573  0.5391 -0.0956  0.4926
   47GLOH   H04 8831   9.647   7.419   3.479  0.8614 -0.4993  0.7371
   47GLOH    O2 8832   9.453   7.434   3.534  0.1543  0.1701  0.4191
   47GLOH   H05 8833   9.449   7.374   3.459  0.1995  1.4197 -0.6029
   47GLOH    C3 8834   9.638   7.558   3.653  0.0556  0.4814 -0.3564
   47GLOH   H06 8835   9.589   7.561   3.751 -1.3049  0.6768 -1.0280
   47GLOH   H07 8836   9.607   7.651   3.606  0.1153  0.6953  0.0259
   47GLOH    O3 8837   9.779   7.552   3.679 -0.4524 -0.0508  0.2684
   47GLOH   H01 8838   9.829   7.556   3.595 -1.0279  0.3067 -0.0680
   48GLOH   H03 8839   9.064   7.282   2.816 -0.9110 -1.0830 -0.9024
   48GLOH    O1 8840   9.109   7.196   2.809 -0.2959 -0.8019 -0.3844
   48GLOH    C1 8841   9.214   7.184   2.903  0.4710  0.0359 -0.3436
   48GLOH   H02 8842   9.185   7.126   2.991  0.4881  1.0123  0.3236
   48GLOH   H08 8843   9.240   7.284   2.941  0.8340 -0.3946  0.5651
   48GLOH    C2 8844   9.337   7.119   2.836  0.2314 -0.4605  0.1550
   48GLOH   H04 8845   9.366   7.182   2.750  1.8882 -1.2531  0.1034
   48GLOH    O2 8846   9.459   7.111   2.917 -0.0778 -0.0391 -0.0279
   48GLOH   H05 8847   9.484   7.202   2.939 -1.1345  0.8569 -2.3248
   48GLOH    C3 8848   9.304   6.980   2.777 -0.0497 -0.7434 -0.5834
   48GLOH   H06 8849   9.392   6.967   2.714 -0.0952  0.9571 -1.0465
   48GLOH   H07 8850   9.229   6.990   2.698  0.5751 -1.9346 -1.3350
   48GLOH    O3 8851   9.277   6.862   2.857 -0.0148  0.5573  0.0114
   48GLOH   H01 8852   9.314   6.881   2.945 -2.6778  0.5986  1.1948
   49GLOH   H03 8853   4.960   7.859   0.875  0.7691  0.3569 -0.2465
   49GLOH    O1 8854   4.957   7.853   0.972  0.6325  0.2499 -0.2568
   49GLOH    C1 8855   4.937   7.719   1.017  0.1611  0.1154 -0.5238
   49GLOH   H02 8856   5.035   7.672   1.025 -1.1840 -2.5183  1.0677
   49GLOH   H08 8857   4.888   7.660   0.941 -2.4328  0.2191  1.0273
   49GLOH    C2 8858   4.869   7.720   1.156  0.9046 -0.0709 -0.5794
   49GLOH   H04 8859   4.768   7.762   1.141  0.3806  0.4215  3.5344
   49GLOH    O2 8860   4.848   7.586   1.209  0.3785  0.1057  0.3486
   49GLOH   H05 8861   4.809   7.535   1.135  1.9109 -0.6017  0.0097
   49GLOH    C3 8862   4.936   7.818   1.259  0.9653  0.0826  0.3474
   49GLOH   H06 8863   5.036   7.777   1.274  0.9099 -0.0903  0.2503
   49GLOH   H07 8864   4.881   7.816   1.353  1.9330  0.4799  0.9221
   49GLOH    O3 8865   4.953   7.951   1.212 -0.6240  0.3618 -0.1784
   49GLOH   H01 8866   4.986   7.935   1.121 -0.9782 -4.0415  0.3552
   50GLOH   H03 8867   0.209   5.168   1.750  0.5267  1.1945  1.6582
   50GLOH    O1 8868   0.120   5.136   1.774  0.4230 -0.2335 -0.5641
   50GLOH    C1 8869   0.044   5.118   1.653  0.0347  0.3739 -0.5601
   50GLOH   H02 8870   0.108   5.123   1.565 -0.2481  2.3984 -0.6794
   50GLOH   H08 8871  -0.021   5.205   1.646  0.1631  0.6645  1.6580
   50GLOH    C2 8872  -0.040   4.995   1.638 -0.9229  0.3841  0.5158
   50GLOH   H04 8873  -0.106   4.987   1.726  0.9060  0.1480  1.8971
   50GLOH    O2 8874  -0.118   4.993   1.516 -0.0176  0.5420 -0.3663
   50GLOH   H05 8875  -0.107   4.909   1.470 -3.3248 -0.5244  0.6573
   50GLOH    C3 8876   0.055   4.875   1.635 -0.5424 -0.1845  0.2085
   50GLOH   H06 8877   0.136   4.878   1.709  0.3470 -1.4778 -0.6979
   50GLOH   H07 8878   0.118   4.870   1.546  1.6570 -1.5271  1.7772
   50GLOH    O3 8879  -0.015   4.755   1.645 -0.7180 -0.1562 -0.1829
   50GLOH   H01 8880  -0.057   4.738   1.731 -0.0214  1.2465  0.4444
   51GLOH   H03 8881   8.281   4.563   1.653 -0.4382  0.0644 -0.2558
   51GLOH    O1 8882   8.281   4.524   1.742  0.2687 -0.2417 -0.3868
   51GLOH    C1 8883   8.274   4.633   1.826 -0.2479  0.0542 -0.2632
   51GLOH   H02 8884   8.370   4.685   1.834  0.9731 -2.1561 -0.3986
   51GLOH   H08 8885   8.249   4.600   1.927 -0.7364  0.5756 -0.2051
   51GLOH    C2 8886   8.168   4.740   1.775 -0.4651  0.1997  0.4831
   51GLOH   H04 8887   8.073   4.690   1.751  0.1211 -1.4651  1.5297
   51GLOH    O2 8888   8.156   4.843   1.876  0.2555  0.2232  0.1984
   51GLOH   H05 8889   8.126   4.928   1.841 -0.3231  0.1766  0.5791
   51GLOH    C3 8890   8.220   4.810   1.644  0.3982 -0.1244  0.1053
   51GLOH   H06 8891   8.309   4.872   1.659  1.5068 -2.0663  1.7475
   51GLOH   H07 8892   8.154   4.883   1.596  0.6239  0.5209  0.7522
   51GLOH    O3 8893   8.249   4.700   1.552 -0.0790  0.1441  0.6767
   51GLOH   H01 8894   8.334   4.711   1.507 -1.0809  1.1220 -1.0255
   52GLOH   H03 8895   5.964   0.173   3.449 -1.7173 -1.4111 -2.8555
   52GLOH    O1 8896   5.976   0.240   3.379  0.2868  0.5104 -0.8034
   52GLOH    C1 8897   5.848   0.302   3.349  1.1617  0.3670 -0.0910
   52GLOH   H02 8898   5.855   0.411   3.359  1.5032  0.5487 -2.2131
   52GLOH   H08 8899   5.774   0.272   3.423  0.1510  1.6164 -0.5598
   52GLOH    C2 8900   5.800   0.280   3.205 -0.8771  0.6063 -0.4366
   52GLOH   H04 8901   5.691   0.299   3.204 -1.2064 -0.9598  2.3653
   52GLOH    O2 8902   5.866   0.375   3.120  0.4894 -0.2923  0.2671
   52GLOH   H05 8903   5.796   0.404   3.060  0.9910  0.4338  0.0267
   52GLOH    C3 8904   5.817   0.135   3.158 -0.3561  0.0944 -0.2979
   52GLOH   H06 8905   5.923   0.116   3.175 -0.2941  1.3261  0.7925
   52GLOH   H07 8906   5.813   0.124   3.049 -2.5812  0.2600 -0.2520
   52GLOH    O3 8907   5.743   0.039   3.231 -0.0531  0.2266  0.5134
   52GLOH   H01 8908   5.754  -0.050   3.191  0.0475 -0.0529  1.1663
   53GLOH   H03 8909   7.211   7.400   3.130  0.6076  0.0966  1.6852
   53GLOH    O1 8910   7.195   7.496   3.131 -0.5988 -0.0729 -0.0981
   53GLOH    C1 8911   7.058   7.529   3.105 -1.0487  0.4764  0.1176
   53GLOH   H02 8912   7.026   7.487   3.010 -0.2395 -1.6255  0.7395
   53GLOH   H08 8913   7.046   7.637   3.099  0.4211  0.5958 -0.7466
   53GLOH    C2 8914   6.960   7.489   3.213 -0.2297 -0.2298  0.1773
   53GLOH   H04 8915   6.855   7.503   3.182  0.2601 -0.3483 -1.5372
   53GLOH    O2 8916   6.976   7.352   3.254  0.2527 -0.1526  0.5133
   53GLOH   H05 8917   7.067   7.320   3.246  0.2241  0.0407 -0.6246
   53GLOH    C3 8918   6.980   7.580   3.333 -0.4222 -0.7945 -0.6740
   53GLOH   H06 8919   7.085   7.561   3.354  0.8721  3.0775 -3.0706
   53GLOH   H07 8920   6.919   7.553   3.419 -3.1803  1.5328 -1.7811
   53GLOH    O3 8921   6.961   7.723   3.313  0.0265  0.6371  0.3444
   53GLOH   H01 8922   6.903   7.739   3.236  1.2581 -1.0618 -0.9703
   54GLOH   H03 8923   2.522   6.370   0.373 -1.0829 -2.3804 -0.6105
   54GLOH    O1 8924   2.563   6.339   0.455 -0.2775  0.1624 -0.0160
   54GLOH    C1 8925   2.703   6.301   0.442 -1.2786 -0.4588  0.1164
   54GLOH   H02 8926   2.764   6.389   0.426 -0.7311 -0.9786 -0.6881
   54GLOH   H08 8927   2.707   6.240   0.352  0.0886 -0.2316  0.0150
   54GLOH    C2 8928   2.763   6.218   0.552  0.4102 -0.1378 -0.7080
   54GLOH   H04 8929   2.719   6.117   0.550  0.7126 -0.4569  3.9781
   54GLOH    O2 8930   2.902   6.191   0.515  0.1989  0.3363 -0.3197
   54GLOH   H05 8931   2.905   6.095   0.500  2.2478  0.5365 -1.4263
   54GLOH    C3 8932   2.750   6.287   0.693 -0.3967 -0.3577  0.1893
   54GLOH   H06 8933   2.644   6.310   0.706 -0.2707  0.0845  0.4468
   54GLOH   H07 8934   2.810   6.378   0.698  0.0169 -0.6195  0.0286
   54GLOH    O3 8935   2.780   6.190   0.799  0.0594 -0.2566  0.3765
   54GLOH   H01 8936   2.730   6.107   0.794  2.5025 -1.8763  1.9014
   55GLOH   H03 8937   2.574   1.822   1.403  1.5849  1.5157 -0.3891
   55GLOH    O1 8938   2.513   1.860   1.337  0.2715 -0.3322 -0.2998
   55GLOH    C1 8939   2.560   2.000   1.355 -0.4192  0.8956  0.7312
   55GLOH   H02 8940   2.662   2.010   1.320 -0.5498 -0.7327 -0.1498
   55GLOH   H08 8941   2.551   2.033   1.459 -3.3452 -2.2979  1.5869
   55GLOH    C2 8942   2.474   2.089   1.269 -0.8651  0.0549 -0.9459
   55GLOH   H04 8943   2.452   2.042   1.172 -3.2419  0.9942 -0.9077
   55GLOH    O2 8944   2.350   2.117   1.336  0.2472 -0.1148  0.3824
   55GLOH   H05 8945   2.296   2.037   1.335 -0.1945  0.1371  1.8873
   55GLOH    C3 8946   2.543   2.223   1.236 -0.7111 -0.9941 -0.0821
   55GLOH   H06 8947   2.588   2.262   1.327  0.1893 -1.0731 -0.4781
   55GLOH   H07 8948   2.471   2.296   1.201  0.7473 -0.1149 -1.3281
   55GLOH    O3 8949   2.638   2.199   1.132 -0.1097 -0.4375  0.0083
   55GLOH   H01 8950   2.725   2.203   1.176  0.1086  2.4209 -0.5564
   56GLOH   H03 8951   8.444   7.085   3.700  0.3069  0.8393 -0.0824
   56GLOH    O1 8952   8.422   7.107   3.792 -0.4870 -0.0532 -0.0557
   56GLOH    C1 8953   8.288   7.144   3.820  0.6497 -0.3092 -0.2801
   56GLOH   H02 8954   8.242   7.070   3.884  1.7933  2.2293  3.6288
   56GLOH   H08 8955   8.237   7.144   3.723  0.9893  0.8122 -0.4651
   56GLOH    C2 8956   8.285   7.283   3.887 -0.3510  0.3196 -0.1461
   56GLOH   H04 8957   8.352   7.280   3.974  0.1058 -0.8893 -0.5343
   56GLOH    O2 8958   8.328   7.392   3.801  0.1132 -0.4714 -0.0579
   56GLOH   H05 8959   8.342   7.476   3.849 -1.8939  0.3178 -0.8034
   56GLOH    C3 8960   8.152   7.317   3.956 -0.4686  0.2354  0.3204
   56GLOH   H06 8961   8.068   7.292   3.891 -0.2711  0.4401 -0.0083
   56GLOH   H07 8962   8.161   7.425   3.970 -1.6833  0.3280  0.4357
   56GLOH    O3 8963   8.132   7.251   4.082  0.0508  0.2965  0.4176
   56GLOH   H01 8964   8.058   7.297   4.126 -2.7104 -1.8625 -1.7163
   57GLOH   H03 8965   7.853   0.405   3.682  0.9852  0.0955  1.8083
   57GLOH    O1 8966   7.828   0.499   3.675  0.4269 -0.1613  0.4019
   57GLOH    C1 8967   7.751   0.513   3.551  0.3707  0.3407  0.6536
   57GLOH   H02 8968   7.773   0.431   3.482 -1.4338  1.0007 -0.7663
   57GLOH   H08 8969   7.763   0.605   3.493 -0.5153 -0.3266 -0.6149
   57GLOH    C2 8970   7.600   0.515   3.578 -1.0161  0.2215 -0.1507
   57GLOH   H04 8971   7.571   0.613   3.619 -0.6100  0.0144  0.6286
   57GLOH    O2 8972   7.524   0.496   3.455 -0.2705  0.3300 -0.8130
   57GLOH   H05 8973   7.438   0.453   3.473 -0.2394  0.7593  0.4046
   57GLOH    C3 8974   7.560   0.408   3.691  0.8954  0.9591 -0.3899
   57GLOH   H06 8975   7.585   0.306   3.663 -0.4597  0.6304 -0.4056
   57GLOH   H07 8976   7.453   0.400   3.709  1.2001 -0.4976  0.8042
   57GLOH    O3 8977   7.617   0.453   3.813 -0.1830 -0.7349 -0.6029
   57GLOH   H01 8978   7.712   0.465   3.792 -0.7732  1.4998 -2.2020
   58GLOH   H03 8979   7.862   8.223   3.939 -2.4520  0.4525  1.6099
   58GLOH    O1 8980   7.922   8.297   3.960  0.0718 -1.0438 -0.1246
   58GLOH    C1 8981   8.020   8.304   3.856  0.7920 -0.0241  0.6632
   58GLOH   H02 8982   7.981   8.362   3.772  0.1264  0.5161  1.3335
   58GLOH   H08 8983   8.055   8.206   3.824 -1.2029 -0.3391 -0.7138
   58GLOH    C2 8984   8.146   8.380   3.898 -0.5293  0.2114 -0.4025
   58GLOH   H04 8985   8.187   8.342   3.993 -0.2043 -1.6304 -1.2518
   58GLOH    O2 8986   8.257   8.376   3.804 -0.0493 -0.6382  0.2750
   58GLOH   H05 8987   8.329   8.323   3.841 -0.4841  0.7783  3.2945
   58GLOH    C3 8988   8.110   8.526   3.932  0.6496  0.2559  0.4372
   58GLOH   H06 8989   8.050   8.564   3.849  0.1342 -0.6944  0.3713
   58GLOH   H07 8990   8.200   8.588   3.926 -0.5655  1.9542 -0.9584
   58GLOH    O3 8991   8.044   8.546   4.060  0.1697  0.3077  0.3460
   58GLOH   H01 8992   7.976   8.476   4.059 -0.6010  1.0491  0.4989
   59GLOH   H03 8993   5.073   9.943   2.801  1.4239  1.9583 -1.2987
   59GLOH    O1 8994   5.042   9.905   2.717 -0.3253  0.1515  0.1196
   59GLOH    C1 8995   5.151   9.863   2.638 -0.1250  0.1299  0.5431
   59GLOH   H02 8996   5.177   9.762   2.668  0.4371 -0.1809 -0.9041
   59GLOH   H08 8997   5.238   9.920   2.669  0.1191 -0.0540  0.1972
   59GLOH    C2 8998   5.130   9.877   2.485  1.0073 -1.1384  0.3128
   59GLOH   H04 8999   5.101   9.983   2.482 -1.2454 -1.7488 -0.2864
   59GLOH    O2 9000   5.257   9.856   2.421 -0.3232 -0.0585  0.2336
   59GLOH   H05 9001   5.243   9.831   2.328 -0.6096  1.4113 -0.1239
   59GLOH    C3 9002   5.005   9.800   2.435  0.2128  0.0913 -0.0185
   59GLOH   H06 9003   4.996   9.697   2.470  0.8775  0.8836  2.5688
   59GLOH   H07 9004   4.999   9.799   2.326 -1.9114  0.6738  0.0585
   59GLOH    O3 9005   4.883   9.869   2.472  0.2908 -0.0821 -0.2162
   59GLOH   H01 9006   4.893   9.960   2.438  0.3244 -0.0106 -0.0158
   60GLOH   H03 9007   8.202   7.407   1.572  0.5352  0.4817  1.0858
   60GLOH    O1 9008   8.185   7.363   1.657  0.2933 -0.6348  0.4640
   60GLOH    C1 9009   8.118   7.457   1.740  0.0106 -0.4575  0.3181
   60GLOH   H02 9010   8.183   7.502   1.814  0.3087  0.8100 -0.6835
   60GLOH   H08 9011   8.042   7.406   1.798  0.9149 -0.8607  1.1463
   60GLOH    C2 9012   8.062   7.573   1.658  0.2019 -0.2749  0.4591
   60GLOH   H04 9013   7.992   7.534   1.583  0.9842 -0.9898  0.0909
   60GLOH    O2 9014   8.002   7.675   1.742  0.1253 -0.3682 -0.2273
   60GLOH   H05 9015   7.936   7.643   1.806 -0.9398  0.4178 -0.9309
   60GLOH    C3 9016   8.170   7.638   1.566  0.1023  0.0379 -0.0476
   60GLOH   H06 9017   8.247   7.680   1.630  0.4613  0.1961 -0.5829
   60GLOH   H07 9018   8.131   7.722   1.509  1.4204  0.5257 -0.2374
   60GLOH    O3 9019   8.232   7.540   1.474 -0.2702  0.3248  0.1589
   60GLOH   H01 9020   8.260   7.591   1.396  0.7366  1.8522  1.4945
   61GLOH   H03 9021   5.141   3.054   0.433  0.2055 -1.3096 -0.0379
   61GLOH    O1 9022   5.051   3.069   0.467  0.2887 -0.3521 -0.2277
   61GLOH    C1 9023   5.067   3.087   0.609  0.0207 -0.5683  1.3239
   61GLOH   H02 9024   4.972   3.069   0.659 -0.6725  0.6912  0.4789
   61GLOH   H08 9025   5.097   3.190   0.629 -1.9238  0.3298 -0.2518
   61GLOH    C2 9026   5.177   3.003   0.677 -0.0655 -0.6710 -0.5659
   61GLOH   H04 9027   5.268   3.019   0.618  0.1662  1.4356  0.3064
   61GLOH    O2 9028   5.201   3.049   0.816 -0.6235 -0.0435 -0.1331
   61GLOH   H05 9029   5.122   3.033   0.871  0.3466 -0.5570  1.1244
   61GLOH    C3 9030   5.142   2.852   0.684 -0.4047 -0.2080  0.2820
   61GLOH   H06 9031   5.037   2.844   0.710 -0.3269 -2.4938 -0.0021
   61GLOH   H07 9032   5.208   2.801   0.754  0.2610 -0.4272 -0.4907
   61GLOH    O3 9033   5.158   2.792   0.558  0.4255 -0.1051  0.1335
   61GLOH   H01 9034   5.073   2.780   0.511  1.4730  1.7203 -2.3541
   62GLOH   H03 9035   4.634   1.287   3.196  1.2616 -1.8695 -0.6862
   62GLOH    O1 9036   4.552   1.239   3.173  0.0885 -0.4864  0.5442
   62GLOH    C1 9037   4.541   1.220   3.030 -0.0489 -0.0160 -0.2845
   62GLOH   H02 9038   4.512   1.116   3.017  1.0829 -0.3098 -0.4576
   62GLOH   H08 9039   4.639   1.226   2.983  0.6575  0.3844  1.1998
   62GLOH    C2 9040   4.431   1.310   2.966  0.1249 -0.1597 -0.8146
   62GLOH   H04 9041   4.463   1.415   2.960  1.2326 -0.5801 -2.5878
   62GLOH    O2 9042   4.404   1.280   2.830  0.3370  0.0591  0.2365
   62GLOH   H05 9043   4.352   1.353   2.791  0.2425 -0.4468 -0.5870
   62GLOH    C3 9044   4.302   1.298   3.049 -0.4954  0.0636 -0.4618
   62GLOH   H06 9045   4.282   1.193   3.069  0.6908 -0.2856 -1.0574
   62GLOH   H07 9046   4.220   1.347   2.998  1.0638  1.7509 -1.3957
   62GLOH    O3 9047   4.331   1.372   3.173  0.5001 -0.0716  0.4505
   62GLOH   H01 9048   4.411   1.335   3.213  0.2774 -0.6195  0.3920
   63GLOH   H03 9049   7.308   6.376   0.053  1.0738  0.5607  1.3671
   63GLOH    O1 9050   7.319   6.473   0.058 -0.2921  0.8139 -0.0228
   63GLOH    C1 9051   7.410   6.516   0.167 -0.1547 -0.2184 -0.4548
   63GLOH   H02 9052   7.399   6.441   0.246 -1.3857  1.2081  0.7502
   63GLOH   H08 9053   7.388   6.614   0.208 -0.7849  0.1094 -1.5900
   63GLOH    C2 9054   7.558   6.528   0.125  0.3195 -0.0140 -0.7612
   63GLOH   H04 9055   7.609   6.555   0.219 -0.8097 -1.7863  0.3930
   63GLOH    O2 9056   7.607   6.403   0.080 -0.2433  0.0565  0.2392
   63GLOH   H05 9057   7.599   6.395  -0.016  2.1986 -0.7010  0.0643
   63GLOH    C3 9058   7.575   6.637   0.016  0.3020 -0.1505 -0.0284
   63GLOH   H06 9059   7.536   6.729   0.060  0.9205  0.1433 -0.0837
   63GLOH   H07 9060   7.514   6.612  -0.070  0.1746  2.9383 -0.8987
   63GLOH    O3 9061   7.715   6.669  -0.011  0.1713 -0.0392  0.5857
   63GLOH   H01 9062   7.726   6.676  -0.108  0.6031  0.1823  0.6500
   64GLOH   H03 9063   8.971   9.170   3.649 -1.0029 -1.1536  1.0021
   64GLOH    O1 9064   9.046   9.110   3.637 -0.1795  0.0548 -0.1449
   64GLOH    C1 9065   9.160   9.174   3.697  0.6746  0.3712 -0.9667
   64GLOH   H02 9066   9.148   9.187   3.804  0.5193 -2.6562 -0.5704
   64GLOH   H08 9067   9.169   9.272   3.650 -0.2253 -0.7580 -3.5759
   64GLOH    C2 9068   9.288   9.091   3.681  0.3329 -0.2571  0.0746
   64GLOH   H04 9069   9.317   9.100   3.575  0.2908  3.0518  0.2825
   64GLOH    O2 9070   9.393   9.153   3.757 -0.7379  0.1577  0.0884
   64GLOH   H05 9071   9.394   9.113   3.846 -0.1953  1.0506  0.4880
   64GLOH    C3 9072   9.270   8.943   3.722 -0.1702  0.1150  0.2267
   64GLOH   H06 9073   9.367   8.900   3.746 -1.4301 -2.9174  0.1064
   64GLOH   H07 9074   9.233   8.884   3.639 -1.5743 -0.2091  1.0496
   64GLOH    O3 9075   9.181   8.932   3.834  0.7102 -0.0731 -0.5543
   64GLOH   H01 9076   9.195   9.007   3.894  2.6885  0.1312 -1.2216
   65GLOH   H03 9077   4.584   7.377   3.906 -0.3380  0.4332 -0.0843
   65GLOH    O1 9078   4.601   7.388   4.002 -0.0580 -0.4349 -0.0324
   65GLOH    C1 9079   4.499   7.333   4.072  0.2742  0.8498 -0.5637
   65GLOH   H02 9080   4.508   7.224   4.068  0.9871  0.8753  0.2191
   65GLOH   H08 9081   4.408   7.359   4.019  0.9949  0.2658 -2.1394
   65GLOH    C2 9082   4.501   7.386   4.219  0.4753  0.0985 -0.2857
   65GLOH   H04 9083   4.480   7.494   4.215  0.4031  0.1332  0.8822
   65GLOH    O2 9084   4.399   7.320   4.298 -0.1722  0.1514 -0.4418
   65GLOH   H05 9085   4.373   7.375   4.374 -0.4962 -0.1849 -0.3068
   65GLOH    C3 9086   4.641   7.340   4.278  0.1990  0.1159 -0.0212
   65GLOH   H06 9087   4.637   7.231   4.279  0.4953  0.1119  1.1999
   65GLOH   H07 9088   4.651   7.373   4.381  1.9875  1.6528 -0.6389
   65GLOH    O3 9089   4.759   7.378   4.205  0.1670 -0.1281 -0.1248
   65GLOH   H01 9090   4.715   7.398   4.120  1.4733 -1.8829 -1.2496
   66GLOH   H03 9091   6.187   7.349   3.394  0.4673 -1.7408  0.1098
   66GLOH    O1 9092   6.280   7.372   3.376  0.1739 -0.4673  0.1767
   66GLOH    C1 9093   6.293   7.514   3.374 -0.1140  0.0814  0.6237
   66GLOH   H02 9094   6.322   7.558   3.470  0.7492  1.7970 -0.3881
   66GLOH   H08 9095   6.209   7.569   3.332  0.8366  2.2825  1.4880
   66GLOH    C2 9096   6.409   7.558   3.280 -0.2481 -0.1037  0.0420
   66GLOH   H04 9097   6.371   7.540   3.178 -1.5785  0.8842  0.3515
   66GLOH    O2 9098   6.441   7.697   3.288  0.4456 -0.5719 -0.4899
   66GLOH   H05 9099   6.403   7.749   3.215 -0.1846  1.7586  1.4150
   66GLOH    C3 9100   6.538   7.481   3.305  0.0172  0.2726  0.2189
   66GLOH   H06 9101   6.576   7.503   3.405  2.7816  0.6518 -0.8738
   66GLOH   H07 9102   6.611   7.504   3.228  2.2781 -1.7278  1.7247
   66GLOH    O3 9103   6.521   7.340   3.300 -0.3833 -0.2515 -0.1440
   66GLOH   H01 9104   6.436   7.336   3.348  0.1688  1.6007  1.0631
   67GLOH   H03 9105   3.292   7.081   0.251 -0.4926  1.1103  0.0870
   67GLOH    O1 9106   3.286   7.027   0.170 -0.5985 -0.1510  0.9209
   67GLOH    C1 9107   3.377   6.911   0.177  0.4290 -0.4952 -0.8817
   67GLOH   H02 9108   3.386   6.878   0.281 -0.0207  0.0426 -0.6686
   67GLOH   H08 9109   3.480   6.928   0.146  0.2662 -1.2331 -1.8223
   67GLOH    C2 9110   3.332   6.792   0.100 -0.2340 -0.3911  0.0273
   67GLOH   H04 9111   3.405   6.712   0.122 -0.7898 -0.1145  3.1961
   67GLOH    O2 9112   3.204   6.748   0.151  0.2656 -0.4501 -0.0884
   67GLOH   H05 9113   3.192   6.775   0.244  0.0310 -0.2326 -0.1818
   67GLOH    C3 9114   3.334   6.831  -0.046  0.0320  0.0174  0.3825
   67GLOH   H06 9115   3.264   6.912  -0.064 -1.5630 -1.2494  0.7056
   67GLOH   H07 9116   3.285   6.745  -0.093  1.5448 -0.8741  0.4111
   67GLOH    O3 9117   3.467   6.851  -0.090 -0.6340  0.8190 -0.4976
   67GLOH   H01 9118   3.470   6.831  -0.185 -3.5609 -3.8066  0.2663
   68GLOH   H03 9119   8.559   0.255   0.043  2.9912  0.8080  0.7726
   68GLOH    O1 9120   8.544   0.350   0.026  0.3492  0.1498 -0.8778
   68GLOH    C1 9121   8.402   0.369   0.058  0.2715  0.3081  0.1295
   68GLOH   H02 9122   8.358   0.287   0.115 -0.0744  0.8412  0.6375
   68GLOH   H08 9123   8.346   0.371  -0.036  0.3697 -2.1033 -0.0229
   68GLOH    C2 9124   8.365   0.502   0.124 -0.4426  0.4604 -0.4894
   68GLOH   H04 9125   8.255   0.508   0.130 -0.5431  0.2248 -1.8870
   68GLOH    O2 9126   8.426   0.482   0.252 -0.6696 -0.6086  0.2212
   68GLOH   H05 9127   8.398   0.558   0.305 -1.1761 -0.6820  0.0658
   68GLOH    C3 9128   8.423   0.627   0.051  0.2724  0.1555  1.1312
   68GLOH   H06 9129   8.532   0.627   0.040  0.1587  1.9666 -0.1467
   68GLOH   H07 9130   8.405   0.715   0.113  0.9349  1.6837 -0.7975
   68GLOH    O3 9131   8.373   0.639  -0.085 -0.0052  0.1578 -0.1389
   68GLOH   H01 9132   8.321   0.720  -0.104  0.4666 -0.0943 -2.6796
   69GLOH   H03 9133   2.069   0.122   0.274 -0.2175  1.0429  0.5523
   69GLOH    O1 9134   1.994   0.094   0.219  0.3781  0.1677  0.1596
   69GLOH    C1 9135   1.917  -0.007   0.282  1.1698  0.5519  0.9344
   69GLOH   H02 9136   1.812  -0.005   0.251  1.4809  0.8210 -0.1437
   69GLOH   H08 9137   1.920  -0.001   0.390 -0.7883 -3.1490  1.2976
   69GLOH    C2 9138   1.972  -0.145   0.269  0.4888  0.3577 -0.6027
   69GLOH   H04 9139   2.081  -0.150   0.286  0.1546 -1.0076  1.3525
   69GLOH    O2 9140   1.903  -0.240   0.350  0.4518  0.2735  0.2332
   69GLOH   H05 9141   1.830  -0.278   0.298 -0.5204  2.2508  0.1172
   69GLOH    C3 9142   1.966  -0.205   0.124  0.0708  0.5986  0.3185
   69GLOH   H06 9143   2.020  -0.130   0.065 -0.5340 -0.0404 -1.0762
   69GLOH   H07 9144   1.868  -0.207   0.077  0.9618 -0.2713 -1.5804
   69GLOH    O3 9145   2.031  -0.334   0.106 -0.4628 -0.2952 -0.3822
   69GLOH   H01 9146   2.007  -0.366   0.017  1.9172 -1.8589 -0.5184
   70GLOH   H03 9147   4.187   3.147   3.419  0.6896 -0.2641  0.1323
   70GLOH    O1 9148   4.182   3.108   3.330 -0.7372  0.0185  0.0734
   70GLOH    C1 9149   4.282   3.173   3.247  0.1421  0.2777 -0.0328
   70GLOH   H02 9150   4.379   3.185   3.295  0.1879  0.9320 -0.2859
   70GLOH   H08 9151   4.249   3.272   3.216 -1.7738 -0.3127  0.0492
   70GLOH    C2 9152   4.316   3.093   3.123 -0.7430  0.0869  0.3759
   70GLOH   H04 9153   4.393   3.145   3.065  0.2871  1.9652  3.3130
   70GLOH    O2 9154   4.360   2.957   3.153 -0.5764 -0.4346 -0.0277
   70GLOH   H05 9155   4.362   2.912   3.067  2.1237  1.3672 -0.9643
   70GLOH    C3 9156   4.188   3.086   3.039  0.3812  0.5601  0.7468
   70GLOH   H06 9157   4.119   3.028   3.101  2.2985 -1.6409  0.8793
   70GLOH   H07 9158   4.227   3.018   2.963  0.8245  0.2622  1.2442
   70GLOH    O3 9159   4.138   3.216   2.995 -0.3454 -0.8127  0.4504
   70GLOH   H01 9160   4.080   3.208   2.917  0.5525  1.5248 -0.5087
   71GLOH   H03 9161   9.861   5.054   0.004 -0.3781 -1.5767  0.0534
   71GLOH    O1 9162   9.917   5.043   0.083  0.2751 -0.3112 -0.2264
   71GLOH    C1 9163  10.024   4.950   0.059 -0.1847  0.0188  0.8072
   71GLOH   H02 9164  10.085   4.944   0.149  1.9452 -0.5853 -0.6450
   71GLOH   H08 9165  10.088   4.982  -0.023  0.4024 -1.8170  0.5068
   71GLOH    C2 9166   9.980   4.804   0.028  0.1756  0.4939  0.1893
   71GLOH   H04 9167   9.889   4.803  -0.033 -0.6005  0.5878  1.3212
   71GLOH    O2 9168  10.092   4.729  -0.033 -0.2054 -0.2915  0.1658
   71GLOH   H05 9169  10.082   4.734  -0.130  0.1917  1.3766  0.1952
   71GLOH    C3 9170   9.931   4.737   0.160  0.3129  0.4211  0.1041
   71GLOH   H06 9171  10.006   4.755   0.237  2.4414 -2.3400 -1.2244
   71GLOH   H07 9172   9.922   4.631   0.139  0.1071  0.3468  0.5748
   71GLOH    O3 9173   9.801   4.779   0.196  0.0577  0.2458  0.8687
   71GLOH   H01 9174   9.773   4.710   0.258  1.2728 -0.4210  0.6926
   72GLOH   H03 9175   2.293   5.892   3.339  0.3981 -0.0539 -0.4490
   72GLOH    O1 9176   2.204   5.865   3.369  0.3640  0.1753 -0.3414
   72GLOH    C1 9177   2.101   5.936   3.299 -0.4806  0.4681 -0.1678
   72GLOH   H02 9178   2.087   5.886   3.203 -1.1512  0.1423  0.0890
   72GLOH   H08 9179   2.124   6.040   3.278  0.5033  0.8836  2.7942
   72GLOH    C2 9180   1.971   5.913   3.376 -0.4420  0.1495 -0.0154
   72GLOH   H04 9181   1.996   5.934   3.481 -2.0223  0.6203  0.2873
   72GLOH    O2 9182   1.862   6.006   3.337  0.4757  0.1036 -0.4254
   72GLOH   H05 9183   1.806   6.018   3.415  0.5996  0.3149 -0.3705
   72GLOH    C3 9184   1.934   5.767   3.364  0.9253 -0.0531  0.6461
   72GLOH   H06 9185   2.011   5.697   3.396 -0.0515 -0.9828  0.9868
   72GLOH   H07 9186   1.913   5.729   3.264 -1.2751  1.5745  0.4451
   72GLOH    O3 9187   1.815   5.735   3.435 -0.0286  0.5170 -0.4548
   72GLOH   H01 9188   1.836   5.726   3.530 -2.4383  2.1951  0.2939
   73GLOH   H03 9189   0.034   0.262   1.599  0.3594 -1.6723 -1.4805
   73GLOH    O1 9190   0.049   0.204   1.677  0.1964  0.5653  0.2806
   73GLOH    C1 9191  -0.012   0.075   1.643  0.7716 -1.3416 -0.2398
   73GLOH   H02 9192  -0.099   0.094   1.581 -0.4166 -2.6851  0.9760
   73GLOH   H08 9193  -0.045   0.020   1.731 -1.5289  0.5582  0.1441
   73GLOH    C2 9194   0.093  -0.020   1.573 -0.4426  0.5601 -0.0092
   73GLOH   H04 9195   0.168  -0.038   1.652 -0.7349  1.3389  0.4501
   73GLOH    O2 9196   0.022  -0.143   1.546 -0.1447 -0.2492 -0.3175
   73GLOH   H05 9197   0.031  -0.152   1.449  0.6698 -2.9677 -0.0346
   73GLOH    C3 9198   0.159   0.039   1.448 -0.1192 -0.7047  0.0146
   73GLOH   H06 9199   0.216   0.125   1.482  1.7264 -1.0584 -2.0452
   73GLOH   H07 9200   0.078   0.071   1.383 -0.0207 -3.4188 -1.5328
   73GLOH    O3 9201   0.250  -0.043   1.367  0.6160  0.2449 -0.6647
   73GLOH   H01 9202   0.244  -0.129   1.412 -2.1330  0.7443 -0.0260
   74GLOH   H03 9203   8.037   4.109   1.302  3.0110  2.7569  0.7846
   74GLOH    O1 9204   8.076   4.102   1.213 -0.2482 -0.0959 -0.5842
   74GLOH    C1 9205   7.966   4.147   1.129  0.3776 -0.1663 -0.5759
   74GLOH   H02 9206   7.909   4.231   1.170 -1.1066  1.4140 -5.5283
   74GLOH   H08 9207   7.889   4.071   1.118 -1.4209  1.4786  0.2933
   74GLOH    C2 9208   8.009   4.196   0.987 -0.4421  0.5738 -0.2383
   74GLOH   H04 9209   8.063   4.119   0.930 -4.0260 -2.3816  0.2012
   74GLOH    O2 9210   7.891   4.239   0.905 -0.0086  0.1622 -0.0588
   74GLOH   H05 9211   7.897   4.330   0.874  0.1715  1.5398  3.7847
   74GLOH    C3 9212   8.093   4.321   1.007 -0.6654 -0.1138  0.1287
   74GLOH   H06 9213   8.135   4.361   0.915  0.4616 -1.0270  0.2390
   74GLOH   H07 9214   8.178   4.280   1.061  1.3053  2.2161 -1.1346
   74GLOH    O3 9215   8.012   4.418   1.070 -0.3706 -0.5855  0.3356
   74GLOH   H01 9216   8.079   4.477   1.110 -2.2081  3.8185 -2.7805
   75GLOH   H03 9217   3.080   7.791   3.992 -0.0870 -1.0523 -1.7227
   75GLOH    O1 9218   3.176   7.799   3.984  0.0044 -0.0078  0.1204
   75GLOH    C1 9219   3.221   7.691   3.901 -0.6231 -0.0797  0.1007
   75GLOH   H02 9220   3.185   7.699   3.798  0.1814 -2.1588 -0.3787
   75GLOH   H08 9221   3.193   7.594   3.942 -0.6796 -0.1037  0.0057
   75GLOH    C2 9222   3.374   7.700   3.882 -0.1243 -0.3212  0.3092
   75GLOH   H04 9223   3.421   7.705   3.982 -0.9074  0.9038  0.6192
   75GLOH    O2 9224   3.428   7.574   3.828 -0.2646 -0.0105  0.0450
   75GLOH   H05 9225   3.525   7.575   3.828 -0.2642  1.5083 -0.3622
   75GLOH    C3 9226   3.385   7.828   3.793 -0.5905  0.2133 -1.0173
   75GLOH   H06 9227   3.367   7.913   3.859 -2.3894 -1.3133  0.5176
   75GLOH   H07 9228   3.316   7.837   3.709  1.3916 -0.4409 -2.7702
   75GLOH    O3 9229   3.517   7.849   3.738  0.2826  0.3489 -0.0391
   75GLOH   H01 9230   3.585   7.823   3.802 -0.9709 -0.7830  0.8617
   76GLOH   H03 9231   1.502   8.112   2.322 -2.1678  2.0105 -0.0534
   76GLOH    O1 9232   1.476   8.071   2.238  0.1842  0.2314  0.0146
   76GLOH    C1 9233   1.385   8.166   2.169 -0.2596  0.8765 -0.1816
   76GLOH   H02 9234   1.313   8.099   2.121 -0.0311  0.1216  0.5176
   76GLOH   H08 9235   1.432   8.220   2.086  2.7855 -0.3312  0.7067
   76GLOH    C2 9236   1.306   8.268   2.252  0.2380  0.3095  0.0124
   76GLOH   H04 9237   1.380   8.319   2.317 -0.1474  1.3862 -0.3941
   76GLOH    O2 9238   1.249   8.374   2.179  0.2673  0.1278  0.3145
   76GLOH   H05 9239   1.313   8.430   2.132  1.2721 -0.9093  0.4432
   76GLOH    C3 9240   1.209   8.196   2.350 -0.3331  0.9640  0.0278
   76GLOH   H06 9241   1.156   8.262   2.418 -0.4692  0.6016  0.2750
   76GLOH   H07 9242   1.271   8.142   2.421 -1.8830  1.4323  1.7726
   76GLOH    O3 9243   1.109   8.109   2.286 -0.2271 -0.1044  0.9493
   76GLOH   H01 9244   1.113   8.015   2.312 -0.3774 -0.3885 -0.0485
   77GLOH   H03 9245   8.297   6.145   0.977  0.8210 -1.5357  0.3785
   77GLOH    O1 9246   8.237   6.144   1.053  0.5894 -0.5952  0.2114
   77GLOH    C1 9247   8.166   6.265   1.035 -0.5592  0.7599  0.2943
   77GLOH   H02 9248   8.072   6.250   0.982  0.1596 -0.7091 -0.5903
   77GLOH   H08 9249   8.222   6.343   0.984 -1.3995  0.1964 -1.5485
   77GLOH    C2 9250   8.119   6.307   1.176  0.2548  0.1177  0.2893
   77GLOH   H04 9251   8.215   6.315   1.229 -0.1620  0.7598  0.9434
   77GLOH    O2 9252   8.057   6.439   1.179  0.2830 -0.1919 -0.4978
   77GLOH   H05 9253   8.112   6.511   1.143  2.2426 -0.6574  1.4299
   77GLOH    C3 9254   8.018   6.206   1.240  0.5136 -0.0178  0.3125
   77GLOH   H06 9255   7.922   6.193   1.189  1.5585 -1.9207 -1.2409
   77GLOH   H07 9256   7.995   6.254   1.335  0.7157  0.3172  0.1925
   77GLOH    O3 9257   8.077   6.079   1.267  0.4141  0.2002 -0.1020
   77GLOH   H01 9258   8.134   6.058   1.190 -0.6857 -2.4717 -0.2135
   78GLOH   H03 9259   3.430   8.548   3.023  0.0712 -0.2425 -0.2392
   78GLOH    O1 9260   3.432   8.496   3.105  0.3541  0.0139 -0.0819
   78GLOH    C1 9261   3.556   8.429   3.125  0.0549  0.3834 -0.1369
   78GLOH   H02 9262   3.573   8.417   3.232 -1.2960  0.2162  0.0585
   78GLOH   H08 9263   3.642   8.488   3.091 -0.0478  1.3868  1.2770
   78GLOH    C2 9264   3.555   8.293   3.049  0.5689  0.3692  0.3590
   78GLOH   H04 9265   3.652   8.244   3.066 -0.0897 -1.0188  0.0993
   78GLOH    O2 9266   3.450   8.211   3.098 -0.3795  0.0111  0.5654
   78GLOH   H05 9267   3.475   8.190   3.189 -1.1097  0.3500  0.8530
   78GLOH    C3 9268   3.538   8.318   2.895  0.0554 -0.2070  0.3620
   78GLOH   H06 9269   3.435   8.345   2.876 -0.2918 -0.8249  1.3554
   78GLOH   H07 9270   3.562   8.218   2.857  2.1786  0.3984  0.0141
   78GLOH    O3 9271   3.630   8.427   2.862  0.4921 -0.3492  0.1405
   78GLOH   H01 9272   3.571   8.502   2.841 -1.5806 -1.4018  1.8971
   79GLOH   H03 9273   4.926   0.520   3.388 -2.0688 -2.1812 -1.9628
   79GLOH    O1 9274   4.906   0.588   3.321  0.3452 -0.0123 -0.5648
   79GLOH    C1 9275   4.942   0.526   3.198  0.5639 -0.3096  0.0839
   79GLOH   H02 9276   4.850   0.527   3.138  1.3932  1.4748 -1.1825
   79GLOH   H08 9277   4.965   0.420   3.209 -1.2465 -0.8340 -0.9165
   79GLOH    C2 9278   5.064   0.589   3.118 -0.7598  0.7696  0.4711
   79GLOH   H04 9279   5.155   0.585   3.178 -1.1252  0.4962  1.0107
   79GLOH    O2 9280   5.068   0.521   2.988 -0.1736  0.1128 -0.2755
   79GLOH   H05 9281   4.978   0.519   2.954  0.4756 -1.4928 -1.9715
   79GLOH    C3 9282   5.042   0.743   3.083 -0.3657  0.2181 -0.2432
   79GLOH   H06 9283   5.142   0.776   3.052  0.0565 -1.2381 -0.5115
   79GLOH   H07 9284   5.013   0.800   3.171  2.1666  0.2813  0.5999
   79GLOH    O3 9285   4.945   0.770   2.978 -0.6216  0.0590 -0.2721
   79GLOH   H01 9286   4.855   0.732   2.987  0.1950 -1.6698  1.0238
   80GLOH   H03 9287   5.131   9.647   2.195 -0.4023  0.1108 -0.6879
   80GLOH    O1 9288   5.204   9.711   2.202 -0.5851  0.2470 -0.0528
   80GLOH    C1 9289   5.329   9.635   2.204 -0.1284  0.1469  1.0432
   80GLOH   H02 9290   5.408   9.702   2.236 -0.8573  1.1622  0.7479
   80GLOH   H08 9291   5.358   9.601   2.105  0.8912  1.9155  0.7156
   80GLOH    C2 9292   5.335   9.519   2.306  0.3561  0.5871 -0.1720
   80GLOH   H04 9293   5.300   9.548   2.406 -1.7218  3.3823 -1.6536
   80GLOH    O2 9294   5.251   9.413   2.257 -0.0016 -0.0271 -0.1458
   80GLOH   H05 9295   5.243   9.348   2.329 -0.3497  1.7686  1.4926
   80GLOH    C3 9296   5.486   9.476   2.317  0.2232 -0.1828  0.5536
   80GLOH   H06 9297   5.504   9.435   2.218 -1.6981  3.4786 -1.3783
   80GLOH   H07 9298   5.500   9.387   2.378 -1.7805 -0.3295  0.8287
   80GLOH    O3 9299   5.572   9.575   2.351 -0.5193  0.5857  0.0811
   80GLOH   H01 9300   5.663   9.542   2.340 -0.6593 -0.8103  2.6080
   81GLOH   H03 9301   3.976   1.729   3.752  0.1444  0.3380 -0.8194
   81GLOH    O1 9302   4.041   1.682   3.695  0.4886 -0.3134  0.1000
   81GLOH    C1 9303   4.079   1.558   3.763 -0.2224  0.0840  0.0748
   81GLOH   H02 9304   3.984   1.517   3.795 -2.2305  1.0593 -4.3543
   81GLOH   H08 9305   4.135   1.574   3.855  3.2217 -0.3460 -1.8587
   81GLOH    C2 9306   4.163   1.471   3.666 -0.4893 -0.0185 -0.0546
   81GLOH   H04 9307   4.244   1.522   3.613  1.6564 -2.1071  1.1160
   81GLOH    O2 9308   4.226   1.368   3.739  0.7074  0.3451 -0.2602
   81GLOH   H05 9309   4.176   1.329   3.812  1.5660 -0.1952  0.0369
   81GLOH    C3 9310   4.077   1.413   3.553 -0.4708  0.8956 -0.5985
   81GLOH   H06 9311   4.014   1.336   3.598  1.4936  0.1908  1.0501
   81GLOH   H07 9312   4.139   1.357   3.483 -1.0591 -2.5872  1.5418
   81GLOH    O3 9313   4.005   1.521   3.486  0.5109 -0.1471 -0.4017
   81GLOH   H01 9314   4.034   1.600   3.536 -1.5035  1.0954 -1.1275
   82GLOH   H03 9315   8.576   4.007   2.633  1.3053 -0.9480  1.5362
   82GLOH    O1 9316   8.535   4.061   2.703  0.0717  0.3055 -0.1087
   82GLOH    C1 9317   8.491   4.186   2.656 -0.4054  0.5071 -0.3043
   82GLOH   H02 9318   8.573   4.238   2.606 -0.1737  2.1086  1.7137
   82GLOH   H08 9319   8.482   4.248   2.745 -0.1611  0.3084 -0.1373
   82GLOH    C2 9320   8.361   4.190   2.583 -0.4194  0.5801  0.1569
   82GLOH   H04 9321   8.277   4.175   2.653 -1.1093  0.2379 -0.7426
   82GLOH    O2 9322   8.353   4.320   2.517  0.2179 -0.8860  0.2281
   82GLOH   H05 9323   8.397   4.320   2.431 -1.5118  1.0647 -0.6866
   82GLOH    C3 9324   8.365   4.080   2.484 -0.2634  0.0937 -0.1375
   82GLOH   H06 9325   8.462   4.085   2.433 -0.5528  0.9934 -0.5961
   82GLOH   H07 9326   8.292   4.093   2.405  1.6743  0.1184 -1.9779
   82GLOH    O3 9327   8.337   3.944   2.529 -0.4228  0.0754  0.1868
   82GLOH   H01 9328   8.386   3.937   2.614  0.7660 -0.5055 -0.5298
   83GLOH   H03 9329   2.462   1.966   3.742 -0.8896 -1.2282 -2.2124
   83GLOH    O1 9330   2.550   1.980   3.704 -0.1890  0.2969 -0.1116
   83GLOH    C1 9331   2.650   2.010   3.801 -0.1918  0.3382  0.1277
   83GLOH   H02 9332   2.614   2.102   3.848 -1.6408  0.4519 -1.1682
   83GLOH   H08 9333   2.751   2.022   3.761 -0.4192 -0.1574 -0.5995
   83GLOH    C2 9334   2.665   1.909   3.918  0.4780 -0.1452  0.8147
   83GLOH   H04 9335   2.741   1.939   3.991 -1.7503  2.8966  1.9629
   83GLOH    O2 9336   2.535   1.883   3.987  0.0710 -0.3168  0.8628
   83GLOH   H05 9337   2.503   1.966   4.027 -1.1823  0.1930 -1.1248
   83GLOH    C3 9338   2.699   1.776   3.853  0.4689 -0.3195 -0.0071
   83GLOH   H06 9339   2.637   1.755   3.766 -1.3081 -1.1116  1.4252
   83GLOH   H07 9340   2.682   1.691   3.920  2.9960 -0.8385  0.0434
   83GLOH    O3 9341   2.839   1.762   3.820  0.1706  0.8296  0.1051
   83GLOH   H01 9342   2.875   1.688   3.872 -1.8360 -1.3751 -1.5414
   84GLOH   H03 9343   8.063   2.445   2.643 -2.4256 -0.1099 -1.0290
   84GLOH    O1 9344   8.112   2.513   2.594 -0.7420 -0.3878  0.1841
   84GLOH    C1 9345   8.079   2.524   2.453  0.5390 -0.2459 -0.7342
   84GLOH   H02 9346   7.973   2.503   2.436  0.3179  1.6114 -1.7884
   84GLOH   H08 9347   8.128   2.446   2.394  3.4036  0.8310  0.1765
   84GLOH    C2 9348   8.119   2.668   2.404  0.7126 -0.3184 -0.5890
   84GLOH   H04 9349   8.228   2.670   2.417  0.6421 -0.7347  0.0570
   84GLOH    O2 9350   8.077   2.684   2.270 -0.3470  0.3123  0.2059
   84GLOH   H05 9351   8.147   2.724   2.216 -0.6300  1.7781  0.8670
   84GLOH    C3 9352   8.045   2.771   2.497  0.2864 -0.1449  0.6434
   84GLOH   H06 9353   7.943   2.738   2.518  1.1416 -2.0257  2.0091
   84GLOH   H07 9354   8.050   2.869   2.450  0.3991  0.5992  2.2155
   84GLOH    O3 9355   8.099   2.784   2.626  0.6161  0.7880  0.1878
   84GLOH   H01 9356   8.134   2.697   2.651 -2.5725 -0.6889 -0.3146
   85GLOH   H03 9357   2.171   0.046   2.325 -0.6329  1.0259  1.0780
   85GLOH    O1 9358   2.082   0.008   2.319 -0.0847 -0.2224  0.5802
   85GLOH    C1 9359   2.092  -0.124   2.377  0.0807  0.2421  0.1984
   85GLOH   H02 9360   1.998  -0.152   2.426  0.1128 -0.7841 -0.3008
   85GLOH   H08 9361   2.171  -0.124   2.451 -0.5286 -2.2496  0.8940
   85GLOH    C2 9362   2.129  -0.242   2.287  0.7714 -0.2686  0.0398
   85GLOH   H04 9363   2.221  -0.211   2.235  0.5067 -0.3398 -0.4694
   85GLOH    O2 9364   2.159  -0.357   2.371 -0.4796 -0.0754  0.5486
   85GLOH   H05 9365   2.247  -0.389   2.342 -0.2884  0.8974  0.0147
   85GLOH    C3 9366   2.031  -0.254   2.174  0.3819  0.2030  0.0844
   85GLOH   H06 9367   2.021  -0.162   2.117  1.1426 -0.1702 -0.6771
   85GLOH   H07 9368   1.934  -0.276   2.217 -1.1158  1.1548 -2.6922
   85GLOH    O3 9369   2.059  -0.366   2.089  0.3656 -0.2990  0.2584
   85GLOH   H01 9370   2.144  -0.336   2.052  0.0508  0.2649 -0.0037
   86GLOH   H03 9371   8.735   5.179   1.797  0.1424  1.4252  0.8216
   86GLOH    O1 9372   8.816   5.186   1.742 -0.3437 -0.3907 -0.1700
   86GLOH    C1 9373   8.799   5.113   1.618  0.1875 -0.2072  0.1882
   86GLOH   H02 9374   8.835   5.012   1.638  1.3990  0.0285 -0.7697
   86GLOH   H08 9375   8.864   5.150   1.539 -0.7518 -2.8572 -1.8879
   86GLOH    C2 9376   8.656   5.101   1.566 -0.1117 -0.2079 -0.1047
   86GLOH   H04 9377   8.622   5.198   1.527  0.3673 -0.3921 -0.9911
   86GLOH    O2 9378   8.647   5.010   1.460 -0.3071 -0.2196 -0.0707
   86GLOH   H05 9379   8.651   5.059   1.376  0.0407 -0.3140 -0.1100
   86GLOH    C3 9380   8.557   5.038   1.674 -0.5103 -0.2790 -0.0024
   86GLOH   H06 9381   8.598   4.940   1.698 -1.9515 -0.6180  1.1991
   86GLOH   H07 9382   8.461   5.034   1.623  0.2367 -2.2256 -1.3237
   86GLOH    O3 9383   8.539   5.124   1.791 -0.1077 -0.0634 -0.7089
   86GLOH   H01 9384   8.508   5.064   1.861 -0.6048  0.7110 -0.2634
   87GLOH   H03 9385   6.282   9.853   1.748 -2.6510 -0.3404 -0.1533
   87GLOH    O1 9386   6.275   9.937   1.796 -0.3714 -0.2389  0.0692
   87GLOH    C1 9387   6.130   9.970   1.804  0.0631  0.1023  0.1457
   87GLOH   H02 9388   6.074   9.956   1.712 -0.5945 -0.3521  0.6157
   87GLOH   H08 9389   6.121  10.076   1.831 -1.8198  0.2294 -0.9229
   87GLOH    C2 9390   6.056   9.891   1.914  0.7988 -0.5133 -0.0505
   87GLOH   H04 9391   5.949   9.901   1.893  0.8597  1.1457  0.3892
   87GLOH    O2 9392   6.087   9.750   1.920  0.2340 -0.6054  0.0588
   87GLOH   H05 9393   6.183   9.743   1.939  0.1436  0.3904  0.9559
   87GLOH    C3 9394   6.082   9.959   2.055 -0.0285  0.0522 -0.1789
   87GLOH   H06 9395   6.177   9.923   2.095 -0.8835 -2.0683  0.0445
   87GLOH   H07 9396   6.004   9.917   2.119  2.0907 -2.6849  0.7270
   87GLOH    O3 9397   6.078  10.103   2.070 -0.5565  0.4045  0.4682
   87GLOH   H01 9398   6.165  10.132   2.104 -0.0542  2.1866 -2.1799
   88GLOH   H03 9399   4.487   3.219   0.657  0.6084 -0.8065  1.9261
   88GLOH    O1 9400   4.397   3.181   0.664 -0.0059  0.2297  0.1172
   88GLOH    C1 9401   4.299   3.291   0.665 -0.0387 -0.0914  0.2067
   88GLOH   H02 9402   4.342   3.374   0.721  1.3009  0.8225 -2.1125
   88GLOH   H08 9403   4.200   3.275   0.706 -0.7125 -0.9225 -1.7073
   88GLOH    C2 9404   4.275   3.350   0.520 -0.2538  0.5725 -0.1165
   88GLOH   H04 9405   4.205   3.284   0.467 -0.3763 -0.8407  1.7561
   88GLOH    O2 9406   4.193   3.465   0.534 -0.1350 -0.3940 -0.4410
   88GLOH   H05 9407   4.206   3.530   0.463 -2.1459 -0.4364 -0.8812
   88GLOH    C3 9408   4.401   3.375   0.425  0.1295 -0.1307 -0.4305
   88GLOH   H06 9409   4.365   3.371   0.323 -0.9006 -0.1101 -0.0776
   88GLOH   H07 9410   4.457   3.285   0.451  0.4633  0.8247  2.3108
   88GLOH    O3 9411   4.467   3.498   0.455 -0.3708 -0.4862  0.4352
   88GLOH   H01 9412   4.559   3.476   0.430  0.0774  0.1519  1.5023
   89GLOH   H03 9413   4.268   9.386   2.938 -0.5096  0.5128  0.2859
   89GLOH    O1 9414   4.196   9.396   2.873 -0.1180 -0.3972 -0.2865
   89GLOH    C1 9415   4.071   9.423   2.926  0.1618  0.9582  0.2576
   89GLOH   H02 9416   4.022   9.507   2.878  0.2875  1.0123  0.2285
   89GLOH   H08 9417   4.080   9.457   3.029  2.4923 -1.3938  0.8941
   89GLOH    C2 9418   3.985   9.293   2.931  0.6572  0.3986  0.6997
   89GLOH   H04 9419   3.994   9.238   2.836  1.3052 -1.4787  1.8225
   89GLOH    O2 9420   4.022   9.204   3.037 -0.2019 -0.0139  0.0884
   89GLOH   H05 9421   4.111   9.167   3.024 -1.0743 -2.1734  0.0265
   89GLOH    C3 9422   3.840   9.345   2.939  0.5963 -0.2408 -0.2029
   89GLOH   H06 9423   3.818   9.404   3.028  0.1889 -1.0085  0.2244
   89GLOH   H07 9424   3.771   9.260   2.948 -0.0030  0.4317  1.7672
   89GLOH    O3 9425   3.799   9.423   2.825 -0.4166  0.1361 -0.5628
   89GLOH   H01 9426   3.755   9.508   2.844  1.3557  1.1111 -0.6784
   90GLOH   H03 9427   4.851   2.958   3.595 -0.6111  0.3311  0.8191
   90GLOH    O1 9428   4.803   2.963   3.510 -0.2753 -0.3627  0.5795
   90GLOH    C1 9429   4.676   3.026   3.534 -0.5565  0.5587  0.1201
   90GLOH   H02 9430   4.696   3.130   3.507 -1.6838  0.7401 -0.0180
   90GLOH   H08 9431   4.651   3.031   3.640  1.1178 -0.4527  0.5769
   90GLOH    C2 9432   4.564   2.964   3.452 -0.3235  0.3489  0.1803
   90GLOH   H04 9433   4.470   3.007   3.488 -0.8108  1.4373 -2.2995
   90GLOH    O2 9434   4.571   2.977   3.306  0.0985 -0.5815  0.3904
   90GLOH   H05 9435   4.485   2.975   3.261  0.3371  2.3297 -0.3294
   90GLOH    C3 9436   4.545   2.817   3.497  0.1320 -0.2225  0.0744
   90GLOH   H06 9437   4.628   2.755   3.462 -0.3592 -0.2335 -1.0884
   90GLOH   H07 9438   4.451   2.786   3.452  0.1444 -2.3304  1.4087
   90GLOH    O3 9439   4.538   2.812   3.640  0.6579 -0.0198  0.3594
   90GLOH   H01 9440   4.458   2.759   3.657 -0.7928  2.4726  1.7064
   91GLOH   H03 9441   7.415   9.893   0.072  1.1368 -0.3044 -1.6989
   91GLOH    O1 9442   7.497   9.947   0.066  0.7767  0.4236 -0.3251
   91GLOH    C1 9443   7.464  10.090   0.047 -1.0454  0.2464  0.0925
   91GLOH   H02 9444   7.475  10.145   0.141  0.7778 -0.6383  0.4196
   91GLOH   H08 9445   7.358  10.098   0.023 -1.4681 -0.3576  1.6690
   91GLOH    C2 9446   7.540  10.175  -0.058  0.1699 -0.1748 -0.2844
   91GLOH   H04 9447   7.523  10.150  -0.164  0.1987 -1.7421  0.0691
   91GLOH    O2 9448   7.509  10.319  -0.047  0.5292  0.6035 -0.4200
   91GLOH   H05 9449   7.550  10.372  -0.117  1.0359  2.6219  1.3611
   91GLOH    C3 9450   7.689  10.160  -0.026  0.9723 -0.4412 -0.0606
   91GLOH   H06 9451   7.710  10.203   0.072  1.2822 -0.9297  0.0935
   91GLOH   H07 9452   7.746  10.219  -0.098 -0.8678  2.3826  0.7171
   91GLOH    O3 9453   7.716  10.020  -0.039 -0.1645 -0.3786  0.0438
   91GLOH   H01 9454   7.652   9.969   0.014  0.5153 -0.1471  1.0905
   92GLOH   H03 9455   4.583   1.437   0.787  1.0024 -0.8995  1.1041
   92GLOH    O1 9456   4.631   1.521   0.792  0.1987 -0.3820  0.2412
   92GLOH    C1 9457   4.579   1.610   0.688 -0.5145 -0.3983  0.4432
   92GLOH   H02 9458   4.471   1.595   0.678 -0.2846 -1.9903  0.1383
   92GLOH   H08 9459   4.618   1.576   0.592 -1.3721  1.7138 -0.6710
   92GLOH    C2 9460   4.605   1.762   0.702  0.0004  0.2229 -0.4989
   92GLOH   H04 9461   4.710   1.765   0.670 -0.8060  1.6802 -3.1051
   92GLOH    O2 9462   4.536   1.849   0.609  0.2919  0.3773 -0.4189
   92GLOH   H05 9463   4.565   1.940   0.627 -1.2954  0.6997  0.5929
   92GLOH    C3 9464   4.593   1.807   0.850 -0.4882 -0.0843 -0.3288
   92GLOH   H06 9465   4.493   1.805   0.892  0.0557  0.7587  1.0441
   92GLOH   H07 9466   4.623   1.912   0.847  0.4876 -0.3683 -0.8145
   92GLOH    O3 9467   4.692   1.726   0.922 -0.1953 -0.0269 -0.0908
   92GLOH   H01 9468   4.695   1.638   0.880  1.2686 -0.6570  1.2385
   93GLOH   H03 9469   4.998   1.072   2.445 -2.8615 -1.7646  2.6815
   93GLOH    O1 9470   5.048   1.113   2.518  0.2286 -0.3508 -0.0411
   93GLOH    C1 9471   4.967   1.155   2.627 -0.4740 -0.2679  0.0965
   93GLOH   H02 9472   4.874   1.098   2.630 -0.2069 -0.8464 -1.9488
   93GLOH   H08 9473   4.948   1.262   2.626  2.1555  0.2311 -0.5857
   93GLOH    C2 9474   5.037   1.150   2.769  0.6978 -0.1365  1.0104
   93GLOH   H04 9475   5.117   1.225   2.777 -0.2780  0.8327  1.7286
   93GLOH    O2 9476   4.944   1.194   2.870  0.1895 -0.1508  0.3409
   93GLOH   H05 9477   4.877   1.124   2.881 -0.5966  0.6474  0.6878
   93GLOH    C3 9478   5.093   1.013   2.807 -0.1786 -0.0854  0.6914
   93GLOH   H06 9479   5.108   1.028   2.914  1.3656  0.3378  0.4350
   93GLOH   H07 9480   5.189   1.004   2.755 -0.0347  2.6053  0.4255
   93GLOH    O3 9481   4.991   0.919   2.788  0.0495  0.0527  0.1100
   93GLOH   H01 9482   4.991   0.867   2.871 -0.9765  0.4863  0.3851
   94GLOH   H03 9483   2.690   3.050   0.216 -0.4624 -0.1777 -0.9219
   94GLOH    O1 9484   2.630   2.988   0.169 -0.4098 -0.5805 -0.4610
   94GLOH    C1 9485   2.588   3.060   0.050  0.3705 -0.8143 -0.5548
   94GLOH   H02 9486   2.564   2.980  -0.021  0.9697 -2.3285  0.9319
   94GLOH   H08 9487   2.664   3.122   0.002 -0.6565  1.3424  0.5134
   94GLOH    C2 9488   2.460   3.139   0.071 -0.3301 -0.0464 -0.3585
   94GLOH   H04 9489   2.449   3.190  -0.026 -1.1772  0.2470 -0.1154
   94GLOH    O2 9490   2.349   3.053   0.086  0.3779  0.6247  0.1841
   94GLOH   H05 9491   2.332   3.012  -0.000  0.6830  1.2921 -0.1994
   94GLOH    C3 9492   2.474   3.239   0.185 -0.0632  0.8267  0.0114
   94GLOH   H06 9493   2.473   3.176   0.274  1.6543  2.7086  1.4384
   94GLOH   H07 9494   2.383   3.299   0.176  0.4053  1.6171  0.4355
   94GLOH    O3 9495   2.591   3.320   0.172 -0.2768 -0.3406 -0.5761
   94GLOH   H01 9496   2.662   3.279   0.224 -1.4562 -0.0591  1.3006
   95GLOH   H03 9497   4.847   8.731   0.085  0.9425  0.1589  1.3636
   95GLOH    O1 9498   4.767   8.733   0.141  0.0259 -0.0040  0.0941
   95GLOH    C1 9499   4.811   8.801   0.258  0.0115  0.5442  0.0030
   95GLOH   H02 9500   4.858   8.892   0.222  0.3274 -0.0270 -1.0506
   95GLOH   H08 9501   4.877   8.733   0.312 -3.2893 -3.1026 -0.3368
   95GLOH    C2 9502   4.700   8.853   0.349  0.2501  0.4940 -0.1614
   95GLOH   H04 9503   4.627   8.772   0.364 -1.4704  2.6264  3.6927
   95GLOH    O2 9504   4.753   8.895   0.478 -0.4647  0.1187  0.1128
   95GLOH   H05 9505   4.728   8.830   0.545 -0.7414 -1.0913 -1.1223
   95GLOH    C3 9506   4.613   8.962   0.289 -0.2484 -0.3063 -0.3083
   95GLOH   H06 9507   4.526   8.979   0.352 -0.3894  1.3168 -0.9213
   95GLOH   H07 9508   4.574   8.913   0.200  1.9399 -1.6857 -0.5749
   95GLOH    O3 9509   4.690   9.080   0.256  0.4415 -0.1821 -0.8097
   95GLOH   H01 9510   4.747   9.105   0.331 -1.3762  0.6124  0.3501
   96GLOH   H03 9511   3.634   6.552   2.650 -0.1609  1.6604 -0.7020
   96GLOH    O1 9512   3.726   6.567   2.680  0.0351 -0.1877 -0.3553
   96GLOH    C1 9513   3.732   6.712   2.659 -0.2457 -0.4089 -0.9161
   96GLOH   H02 9514   3.657   6.731   2.583  1.2547 -1.4043 -2.6857
   96GLOH   H08 9515   3.832   6.740   2.625  0.3676 -1.2769  0.1430
   96GLOH    C2 9516   3.718   6.800   2.783  0.7506  0.6053  0.0181
   96GLOH   H04 9517   3.816   6.796   2.832  0.8523  0.5843 -0.1845
   96GLOH    O2 9518   3.693   6.935   2.735  0.4103 -0.0962  0.2626
   96GLOH   H05 9519   3.725   7.009   2.788  0.7431  1.0451 -1.4731
   96GLOH    C3 9520   3.609   6.749   2.875  0.2766 -0.2335  0.3358
   96GLOH   H06 9521   3.642   6.651   2.907  2.0101  0.5654  1.0461
   96GLOH   H07 9522   3.515   6.737   2.821 -0.3195 -1.3301  1.5937
   96GLOH    O3 9523   3.605   6.836   2.989  0.4726 -0.2429 -0.0969
   96GLOH   H01 9524   3.695   6.848   3.023 -0.3624 -1.7561  2.8296
   97GLOH   H03 9525   4.860   2.236   2.043  0.9792  1.3014  0.2415
   97GLOH    O1 9526   4.836   2.288   2.122 -0.2253  0.4488  0.4511
   97GLOH    C1 9527   4.943   2.257   2.212  0.1660  0.3780 -0.9651
   97GLOH   H02 9528   4.947   2.151   2.235 -2.7223  0.2969 -0.7229
   97GLOH   H08 9529   4.943   2.303   2.311  0.9277  0.3916 -0.9681
   97GLOH    C2 9530   5.082   2.298   2.149  0.4301  0.6640 -0.2437
   97GLOH   H04 9531   5.154   2.244   2.212  0.1010  0.8511  0.2995
   97GLOH    O2 9532   5.091   2.247   2.019  0.3824 -0.5950  0.2408
   97GLOH   H05 9533   5.129   2.318   1.964 -0.0853  0.7512  1.6195
   97GLOH    C3 9534   5.110   2.450   2.159  0.6807 -0.0758 -0.0957
   97GLOH   H06 9535   5.046   2.494   2.083  2.6892  0.5914 -1.4499
   97GLOH   H07 9536   5.214   2.471   2.131  0.2477  0.4055 -1.3610
   97GLOH    O3 9537   5.084   2.510   2.288 -0.3679 -0.2943 -0.3468
   97GLOH   H01 9538   5.110   2.604   2.289  0.6911 -0.5921  1.3232
   98GLOH   H03 9539   6.924   8.142   2.252  0.6418 -0.9804 -0.5724
   98GLOH    O1 9540   6.841   8.106   2.288  0.5432  0.3392  0.5892
   98GLOH    C1 9541   6.767   8.041   2.186 -0.1030 -0.1077 -0.1204
   98GLOH   H02 9542   6.731   8.115   2.114 -0.8384 -0.5699 -0.2402
   98GLOH   H08 9543   6.677   7.995   2.227 -1.0252  0.6087 -1.3022
   98GLOH    C2 9544   6.841   7.926   2.122 -0.6655 -0.2008  0.4509
   98GLOH   H04 9545   6.782   7.903   2.032 -1.0100  0.8616  0.4026
   98GLOH    O2 9546   6.971   7.966   2.071  0.2700  0.0128 -0.3277
   98GLOH   H05 9547   6.956   8.049   2.022  0.8798  0.8808  0.9208
   98GLOH    C3 9548   6.853   7.809   2.219 -0.0019  0.3534 -0.1685
   98GLOH   H06 9549   6.900   7.846   2.310  1.5233 -2.1893  0.1180
   98GLOH   H07 9550   6.919   7.741   2.167 -0.8712 -0.0301 -0.7872
   98GLOH    O3 9551   6.724   7.755   2.256  0.2566 -0.9756  0.5319
   98GLOH   H01 9552   6.694   7.822   2.321 -1.0576 -0.8252 -0.2161
   99GLOH   H03 9553   7.827   0.686   1.524  0.2544 -0.0590 -1.5361
   99GLOH    O1 9554   7.778   0.602   1.528  0.1693  0.0262 -0.6626
   99GLOH    C1 9555   7.829   0.521   1.639  0.0713  0.1734  0.4571
   99GLOH   H02 9556   7.815   0.547   1.744 -0.5921 -0.3763  0.5055
   99GLOH   H08 9557   7.937   0.513   1.627  0.2003  0.7433  1.1995
   99GLOH    C2 9558   7.779   0.380   1.618  0.3654 -0.0622 -0.1303
   99GLOH   H04 9559   7.830   0.333   1.533  1.2214  2.4976 -1.0841
   99GLOH    O2 9560   7.821   0.288   1.722  0.5867 -0.9957  0.4781
   99GLOH   H05 9561   7.790   0.197   1.706 -0.8378 -0.4996  0.3014
   99GLOH    C3 9562   7.624   0.381   1.602  0.5317  0.0203 -0.2261
   99GLOH   H06 9563   7.594   0.430   1.510 -0.8257 -0.4415 -0.0324
   99GLOH   H07 9564   7.587   0.445   1.682  1.5296  2.3549 -1.5885
   99GLOH    O3 9565   7.568   0.244   1.622 -0.2991 -0.0846  0.1822
   99GLOH   H01 9566   7.556   0.196   1.538 -0.4849 -0.7177  0.5642
  100GLOH   H03 9567   7.557   8.275   3.878  0.3600 -1.6883  2.6013
  100GLOH    O1 9568   7.652   8.268   3.856 -0.1909  0.2402 -0.6734
  100GLOH    C1 9569   7.694   8.228   3.723  0.1344  0.1978  0.2036
  100GLOH   H02 9570   7.797   8.192   3.722  0.2908  0.6370 -0.0261
  100GLOH   H08 9571   7.691   8.312   3.654 -0.6781 -0.0795 -0.1002
  100GLOH    C2 9572   7.616   8.108   3.669  0.2104  0.1912 -0.1240
  100GLOH   H04 9573   7.516   8.125   3.711  0.0072 -0.3959 -0.3607
  100GLOH    O2 9574   7.602   8.101   3.526 -0.0572 -0.2444 -0.1866
  100GLOH   H05 9575   7.546   8.024   3.510 -0.5702  0.1890 -0.4850
  100GLOH    C3 9576   7.656   7.970   3.719 -0.1697  0.1559 -0.0768
  100GLOH   H06 9577   7.585   7.898   3.679 -0.7949  1.2060 -0.8828
  100GLOH   H07 9578   7.647   7.974   3.827 -0.2908 -2.7299  0.0552
  100GLOH    O3 9579   7.795   7.944   3.698  0.7592  0.2448  0.4109
  100GLOH   H01 9580   7.795   7.895   3.614 -0.9278 -0.4417  0.7970
  101GLOH   H03 9581   1.932   3.631   3.484 -1.0893  1.0418 -0.2849
  101GLOH    O1 9582   1.930   3.643   3.581 -0.1992  0.4723 -0.1844
  101GLOH    C1 9583   1.816   3.566   3.621 -0.0402  0.1747  0.2438
  101GLOH   H02 9584   1.819   3.548   3.728  0.3617 -0.5624  0.1120
  101GLOH   H08 9585   1.824   3.467   3.576  1.4269  0.8442 -1.0093
  101GLOH    C2 9586   1.688   3.643   3.579 -0.2198 -0.0357 -0.7354
  101GLOH   H04 9587   1.694   3.668   3.472 -0.4312 -0.4122 -0.8375
  101GLOH    O2 9588   1.575   3.559   3.598 -0.2412 -0.2732  0.2081
  101GLOH   H05 9589   1.547   3.561   3.691  0.7787  0.2806  0.5031
  101GLOH    C3 9590   1.678   3.783   3.642 -0.1058 -0.1120  0.1531
  101GLOH   H06 9591   1.774   3.831   3.624 -0.0611 -0.1323  0.3442
  101GLOH   H07 9592   1.668   3.773   3.750 -2.1836  2.7987  0.3010
  101GLOH    O3 9593   1.570   3.856   3.585  0.2621  0.4573  0.3064
  101GLOH   H01 9594   1.492   3.839   3.642 -0.2539 -1.3772 -0.8977
  102GLOH   H03 9595   1.195   9.573   0.584 -0.7628 -0.0739 -2.2951
  102GLOH    O1 9596   1.272   9.517   0.563 -0.1893 -0.0904 -0.2431
  102GLOH    C1 9597   1.211   9.395   0.509 -0.4212  0.6251 -0.1545
  102GLOH   H02 9598   1.159   9.350   0.594  0.1948  0.6435  0.2377
  102GLOH   H08 9599   1.290   9.324   0.487 -1.4853 -0.8902  0.8020
  102GLOH    C2 9600   1.102   9.400   0.396  0.7359  0.0508  0.4422
  102GLOH   H04 9601   1.047   9.304   0.395 -2.6299  1.8765  0.5205
  102GLOH    O2 9602   0.998   9.504   0.431 -0.2996 -0.6937 -0.4822
  102GLOH   H05 9603   0.966   9.488   0.521  1.4508  0.9987  0.4722
  102GLOH    C3 9604   1.163   9.430   0.259 -0.5285  0.0423 -0.7451
  102GLOH   H06 9605   1.173   9.539   0.251 -0.3690  0.1189  0.3902
  102GLOH   H07 9606   1.095   9.409   0.176  0.7460  1.0101 -2.0491
  102GLOH    O3 9607   1.281   9.356   0.247  0.1579  0.5229  0.6611
  102GLOH   H01 9608   1.339   9.360   0.326 -1.1337  0.2805  1.6258
  103GLOH   H03 9609   9.277   4.465   1.815 -1.3233  0.5825 -0.2391
  103GLOH    O1 9610   9.244   4.407   1.886  0.4136 -0.2257 -0.0571
  103GLOH    C1 9611   9.341   4.302   1.914 -0.0247 -0.7603  0.5329
  103GLOH   H02 9612   9.388   4.265   1.823  0.4229 -0.3397  0.5919
  103GLOH   H08 9613   9.272   4.223   1.942 -2.9776  0.7647 -2.0820
  103GLOH    C2 9614   9.456   4.342   2.013 -0.3848 -0.0227 -0.3814
  103GLOH   H04 9615   9.408   4.360   2.110 -0.3871 -0.6871 -0.2537
  103GLOH    O2 9616   9.547   4.229   2.022  0.1857  0.2448  0.2041
  103GLOH   H05 9617   9.632   4.260   2.058 -0.1704  1.4334  0.0243
  103GLOH    C3 9618   9.527   4.465   1.961  0.0656  0.6751  0.0033
  103GLOH   H06 9619   9.464   4.554   1.956 -2.7190 -1.3204 -1.6043
  103GLOH   H07 9620   9.558   4.452   1.857 -1.4515 -0.7737 -0.2846
  103GLOH    O3 9621   9.626   4.490   2.060 -0.1779 -0.8543 -0.0461
  103GLOH   H01 9622   9.710   4.452   2.027 -1.7786 -2.5241 -2.4044
  104GLOH   H03 9623   8.029   9.332   0.005 -0.0316 -0.5407 -0.0611
  104GLOH    O1 9624   8.007   9.298  -0.084 -0.2557  0.2499 -0.3110
  104GLOH    C1 9625   8.095   9.360  -0.182  0.1683 -0.0721  0.1380
  104GLOH   H02 9626   8.194   9.375  -0.140  0.3519 -0.3178 -0.2009
  104GLOH   H08 9627   8.069   9.462  -0.211  0.2141 -0.3481 -0.9037
  104GLOH    C2 9628   8.116   9.265  -0.302  0.3763 -0.0186  0.2607
  104GLOH   H04 9629   8.017   9.225  -0.329 -0.1447 -0.7889  3.2092
  104GLOH    O2 9630   8.182   9.320  -0.419 -0.3746 -0.2099  0.4433
  104GLOH   H05 9631   8.149   9.410  -0.436 -0.7807 -0.8601 -2.4557
  104GLOH    C3 9632   8.197   9.141  -0.263  0.0319  0.0883  0.3966
  104GLOH   H06 9633   8.299   9.176  -0.247 -0.1100 -0.0438  1.6351
  104GLOH   H07 9634   8.197   9.071  -0.347  1.5883  0.5267  0.0152
  104GLOH    O3 9635   8.134   9.079  -0.157 -0.5790 -0.1098 -0.1541
  104GLOH   H01 9636   8.105   9.155  -0.102  0.2030 -0.3154  0.5486
  105GLOH   H03 9637   0.762   4.962   3.386 -0.1878 -0.8865  0.4378
  105GLOH    O1 9638   0.775   4.928   3.296  0.4960  1.0127 -0.2106
  105GLOH    C1 9639   0.660   4.860   3.255 -0.2844 -0.8106 -0.7798
  105GLOH   H02 9640   0.610   4.807   3.336 -0.4277 -0.8516 -0.8951
  105GLOH   H08 9641   0.675   4.786   3.176 -0.6457 -1.5972 -0.1147
  105GLOH    C2 9642   0.567   4.984   3.224 -0.3961  0.2311  0.4420
  105GLOH   H04 9643   0.550   5.034   3.320  0.7830  0.6874  0.4280
  105GLOH    O2 9644   0.635   5.054   3.122  0.0970 -0.5886 -0.4126
  105GLOH   H05 9645   0.708   5.106   3.160 -0.4258  0.7354 -1.1813
  105GLOH    C3 9646   0.437   4.932   3.164  0.9898 -0.7460 -0.4201
  105GLOH   H06 9647   0.464   4.892   3.067  1.6377  1.5160 -1.2109
  105GLOH   H07 9648   0.373   5.019   3.148 -1.0619 -2.2548 -0.6232
  105GLOH    O3 9649   0.370   4.836   3.244 -0.4374  0.0568  0.4771
  105GLOH   H01 9650   0.299   4.794   3.191  1.0973 -0.9134 -0.8332
  106GLOH   H03 9651   0.471   7.684   2.117  2.0629  1.2211  1.4559
  106GLOH    O1 9652   0.453   7.763   2.063  0.2240 -0.4140 -0.4174
  106GLOH    C1 9653   0.310   7.780   2.080 -0.6006 -0.3007  0.0241
  106GLOH   H02 9654   0.283   7.810   2.181  0.9612 -1.7526  0.9075
  106GLOH   H08 9655   0.255   7.686   2.069  1.4657 -1.3921 -1.3039
  106GLOH    C2 9656   0.251   7.882   1.980 -0.1018  0.1700 -0.7182
  106GLOH   H04 9657   0.280   7.860   1.876  1.4182 -1.7459  0.0847
  106GLOH    O2 9658   0.106   7.891   1.977  0.0126 -0.4451 -0.5026
  106GLOH   H05 9659   0.080   7.938   1.896 -0.3015 -0.0645 -0.1814
  106GLOH    C3 9660   0.296   8.027   2.014  0.3997  0.2774  0.2189
  106GLOH   H06 9661   0.247   8.051   2.108 -0.2757  1.4440 -0.4154
  106GLOH   H07 9662   0.257   8.100   1.943 -0.3635  0.6387  0.9972
  106GLOH    O3 9663   0.437   8.038   2.022  0.1956 -0.0920 -0.3750
  106GLOH   H01 9664   0.475   7.948   2.018 -0.4981 -0.3721 -0.7406
  107GLOH   H03 9665   1.460   7.131   0.877 -0.6214  0.8599 -0.5298
  107GLOH    O1 9666   1.400   7.121   0.954 -0.0948 -0.2296 -0.2517
  107GLOH    C1 9667   1.342   7.246   1.000 -0.7208  0.3220  0.2385
  107GLOH   H02 9668   1.276   7.223   1.083  0.1269 -0.7177  0.6319
  107GLOH   H08 9669   1.298   7.293   0.912 -1.5048  0.7031  0.8294
  107GLOH    C2 9670   1.450   7.341   1.058 -0.0711  0.2536  0.6570
  107GLOH   H04 9671   1.518   7.363   0.974 -0.0858  1.6153  0.9972
  107GLOH    O2 9672   1.393   7.465   1.102  0.3567  0.0991 -0.4193
  107GLOH   H05 9673   1.396   7.523   1.023 -0.0095 -0.1681 -0.6269
  107GLOH    C3 9674   1.530   7.294   1.182 -1.1129 -0.1424 -0.1227
  107GLOH   H06 9675   1.465   7.305   1.270 -1.5042 -0.3304 -0.3854
  107GLOH   H07 9676   1.615   7.359   1.202 -1.8756  0.4222  1.4132
  107GLOH    O3 9677   1.570   7.156   1.164 -0.6551 -0.3713 -0.7869
  107GLOH   H01 9678   1.499   7.113   1.111 -1.2821 -2.6298  1.7679
  108GLOH   H03 9679   5.407   9.503   2.715 -0.3573 -0.2713 -1.0435
  108GLOH    O1 9680   5.328   9.455   2.743 -0.4804  0.4099 -0.1950
  108GLOH    C1 9681   5.373   9.326   2.790  0.2045  0.3473 -0.3051
  108GLOH   H02 9682   5.460   9.288   2.737 -0.3180 -0.9140 -0.2631
  108GLOH   H08 9683   5.294   9.253   2.775  1.0467 -0.5582 -0.3474
  108GLOH    C2 9684   5.403   9.326   2.944  0.0904 -0.1061 -0.6310
  108GLOH   H04 9685   5.324   9.383   2.995  0.4190  0.6568 -0.9673
  108GLOH    O2 9686   5.415   9.195   3.002  0.0007 -0.1751  0.4240
  108GLOH   H05 9687   5.498   9.152   2.979 -0.3462 -1.6046  1.6989
  108GLOH    C3 9688   5.530   9.410   2.969 -0.4246 -0.0681  0.1579
  108GLOH   H06 9689   5.517   9.504   2.915 -1.7865 -0.1268  0.3636
  108GLOH   H07 9690   5.608   9.347   2.928 -1.3803 -1.7607  0.8667
  108GLOH    O3 9691   5.553   9.432   3.113  0.2664  0.1796 -0.1052
  108GLOH   H01 9692   5.517   9.358   3.164 -2.3240  0.9505 -0.7252
  109GLOH   H03 9693   4.190   2.079   0.885  1.0933  0.5539  1.5353
  109GLOH    O1 9694   4.147   2.022   0.950 -0.6656  0.2015  0.1110
  109GLOH    C1 9695   4.231   2.032   1.066 -0.1621 -0.2541  0.2986
  109GLOH   H02 9696   4.222   2.130   1.111 -1.4691 -1.1260  2.0085
  109GLOH   H08 9697   4.335   2.017   1.036 -0.0782 -1.5368  1.1517
  109GLOH    C2 9698   4.193   1.923   1.163  0.0399  0.6828 -0.0198
  109GLOH   H04 9699   4.274   1.925   1.238  1.3251 -1.2912 -1.3172
  109GLOH    O2 9700   4.070   1.951   1.230 -0.1884 -0.4175  0.2807
  109GLOH   H05 9701   4.091   2.022   1.293 -1.0238  1.2472 -1.2714
  109GLOH    C3 9702   4.184   1.784   1.109 -0.3137 -0.8793  0.8632
  109GLOH   H06 9703   4.119   1.785   1.022  0.0270  1.6721  0.6108
  109GLOH   H07 9704   4.139   1.712   1.177 -0.2634 -1.1254  0.6363
  109GLOH    O3 9705   4.306   1.713   1.075  0.0676  0.2070 -0.0892
  109GLOH   H01 9706   4.285   1.644   1.009 -2.7121  0.6506  0.2620
  110GLOH   H03 9707   2.213   0.994   1.210 -0.0805 -2.1450  1.6409
  110GLOH    O1 9708   2.283   1.027   1.270  0.3066 -0.1640  0.1628
  110GLOH    C1 9709   2.264   1.171   1.259  0.8951  0.6048 -0.7046
  110GLOH   H02 9710   2.161   1.196   1.281  1.1602  1.6205 -0.5763
  110GLOH   H08 9711   2.285   1.212   1.160 -2.2264  2.3918 -0.6625
  110GLOH    C2 9712   2.343   1.243   1.372  0.1356 -0.2265  0.1131
  110GLOH   H04 9713   2.451   1.242   1.354  0.5150  0.3051  2.3104
  110GLOH    O2 9714   2.305   1.381   1.380 -0.1695  0.1603 -0.2760
  110GLOH   H05 9715   2.386   1.434   1.378 -0.1881  0.3472  2.4694
  110GLOH    C3 9716   2.317   1.184   1.514  0.3881  0.5913 -0.2116
  110GLOH   H06 9717   2.337   1.077   1.520  0.4830  0.7544  2.9311
  110GLOH   H07 9718   2.213   1.195   1.545  0.6954 -0.7442  1.3663
  110GLOH    O3 9719   2.398   1.250   1.615  0.1397 -0.3628  0.3082
  110GLOH   H01 9720   2.387   1.347   1.603 -1.7301 -0.4914  0.8784
  111GLOH   H03 9721   5.109   2.772   2.758  1.2098  0.4992 -1.3867
  111GLOH    O1 9722   5.066   2.703   2.705  0.0613  0.4216 -0.3647
  111GLOH    C1 9723   4.930   2.669   2.751 -0.0180  0.5094  0.0236
  111GLOH   H02 9724   4.899   2.728   2.837  0.1443 -0.6999  0.9275
  111GLOH   H08 9725   4.930   2.566   2.786  2.0773  0.4559 -0.0427
  111GLOH    C2 9726   4.819   2.689   2.657 -0.1217  0.0217 -0.1783
  111GLOH   H04 9727   4.830   2.613   2.579  2.6101 -4.1360  4.0481
  111GLOH    O2 9728   4.692   2.681   2.727 -0.2607  0.2573  0.3752
  111GLOH   H05 9729   4.685   2.588   2.754 -0.1714  0.6224  1.6579
  111GLOH    C3 9730   4.823   2.822   2.571  0.3278  0.6964 -0.0944
  111GLOH   H06 9731   4.829   2.915   2.627 -0.1629  0.7740 -0.1687
  111GLOH   H07 9732   4.724   2.838   2.529  0.2621  1.0791  0.2046
  111GLOH    O3 9733   4.917   2.827   2.457  0.0151 -0.2968  0.4021
  111GLOH   H01 9734   4.883   2.766   2.389  1.3060 -1.4466  0.7841
  112GLOH   H03 9735   1.002   4.494   2.766  2.9513  1.0872 -1.1952
  112GLOH    O1 9736   0.976   4.520   2.676 -0.7924  0.8580 -0.2431
  112GLOH    C1 9737   0.843   4.468   2.641 -0.0130  0.1133 -0.5768
  112GLOH   H02 9738   0.828   4.378   2.700 -1.0368  1.4975  1.3250
  112GLOH   H08 9739   0.835   4.442   2.536  1.1516 -1.9247 -0.1883
  112GLOH    C2 9740   0.739   4.574   2.680  0.4010  0.4735 -0.5445
  112GLOH   H04 9741   0.634   4.547   2.662 -0.2461  3.1722 -0.9927
  112GLOH    O2 9742   0.748   4.605   2.822 -0.5593  0.0918  0.3404
  112GLOH   H05 9743   0.706   4.532   2.870 -0.3014 -1.1777 -1.3070
  112GLOH    C3 9744   0.761   4.697   2.589  0.4900 -0.1001  0.2534
  112GLOH   H06 9745   0.861   4.738   2.601  0.5075  0.3198 -1.2739
  112GLOH   H07 9746   0.681   4.766   2.617 -0.0597 -0.9641  0.8627
  112GLOH    O3 9747   0.752   4.654   2.450  0.5043 -0.0277 -0.3512
  112GLOH   H01 9748   0.658   4.673   2.431  0.7995 -0.1371 -1.9899
  113GLOH   H03 9749   7.785   1.142   3.409  2.7569 -1.1027 -1.2079
  113GLOH    O1 9750   7.752   1.136   3.317 -0.3012  0.3788 -0.2748
  113GLOH    C1 9751   7.635   1.050   3.319 -1.0420 -0.9808  0.3461
  113GLOH   H02 9752   7.552   1.111   3.354 -0.4204 -0.5467  1.0723
  113GLOH   H08 9753   7.650   0.956   3.372  1.8581 -0.5098  0.4490
  113GLOH    C2 9754   7.601   1.007   3.179  0.0483 -0.1049 -0.0922
  113GLOH   H04 9755   7.693   0.964   3.135 -0.3390 -1.1092  0.0632
  113GLOH    O2 9756   7.510   0.896   3.178 -0.1705 -0.0210  0.2834
  113GLOH   H05 9757   7.481   0.894   3.085  0.6343 -1.3216  0.0488
  113GLOH    C3 9758   7.569   1.123   3.082  0.0817 -0.4578  0.2039
  113GLOH   H06 9759   7.465   1.155   3.088  0.7535  1.9149 -0.0776
  113GLOH   H07 9760   7.575   1.084   2.981  0.6570 -3.1870  1.2585
  113GLOH    O3 9761   7.666   1.228   3.096  0.1952 -0.5014 -0.0061
  113GLOH   H01 9762   7.707   1.210   3.183  0.3333 -1.7351 -0.3171
  114GLOH   H03 9763   8.972   0.264   1.872 -0.3118  0.3823  0.4697
  114GLOH    O1 9764   8.877   0.262   1.854 -0.0849 -0.0161 -0.7216
  114GLOH    C1 9765   8.805   0.302   1.973  0.0453 -0.3165  0.1616
  114GLOH   H02 9766   8.816   0.411   1.983  2.3264 -0.4158 -0.9206
  114GLOH   H08 9767   8.842   0.259   2.066  1.3176 -0.4118 -0.3747
  114GLOH    C2 9768   8.655   0.279   1.953  0.2247  0.4346 -0.6785
  114GLOH   H04 9769   8.640   0.171   1.964  0.8407  0.5819  1.8413
  114GLOH    O2 9770   8.591   0.352   2.059 -0.6345  0.0220  0.6483
  114GLOH   H05 9771   8.525   0.411   2.018 -0.8942 -1.6358 -1.3734
  114GLOH    C3 9772   8.604   0.349   1.823  0.0875 -0.0443 -0.5747
  114GLOH   H06 9773   8.615   0.457   1.836 -1.7603  0.2968 -1.7060
  114GLOH   H07 9774   8.498   0.325   1.816  0.2162 -1.0360  0.7014
  114GLOH    O3 9775   8.668   0.298   1.710  0.2383 -0.3969 -0.5625
  114GLOH   H01 9776   8.753   0.257   1.733 -0.6374 -2.6366 -1.1701
  115GLOH   H03 9777   9.469   7.616   2.243  0.9806 -2.0982 -1.1964
  115GLOH    O1 9778   9.498   7.584   2.331 -0.4179 -0.1342 -0.0029
  115GLOH    C1 9779   9.631   7.617   2.351 -0.1467  0.4804  0.2228
  115GLOH   H02 9780   9.659   7.565   2.443  3.0092  0.8915 -0.4528
  115GLOH   H08 9781   9.651   7.723   2.365  0.0452  0.7931 -2.2069
  115GLOH    C2 9782   9.724   7.570   2.233 -0.3052  0.2918  0.5192
  115GLOH   H04 9783   9.691   7.592   2.131  3.5211  1.0923 -0.6473
  115GLOH    O2 9784   9.858   7.630   2.246 -0.4921  1.0661  0.3371
  115GLOH   H05 9785   9.880   7.674   2.163 -0.5539 -0.6314 -0.5910
  115GLOH    C3 9786   9.725   7.413   2.232 -0.1104 -0.5426 -0.6262
  115GLOH   H06 9787   9.624   7.377   2.211 -1.0211  1.6290 -0.0781
  115GLOH   H07 9788   9.750   7.380   2.333 -2.5371  1.1865  0.6001
  115GLOH    O3 9789   9.816   7.363   2.134 -0.4655 -0.1088 -0.0463
  115GLOH   H01 9790   9.904   7.405   2.140  0.9535 -2.8572 -0.8588
  116GLOH   H03 9791   7.811   3.654   1.179  0.6606  2.2302 -0.3804
  116GLOH    O1 9792   7.820   3.665   1.276 -0.1514 -0.2233  0.0184
  116GLOH    C1 9793   7.735   3.778   1.312  0.0845  0.4076  0.6276
  116GLOH   H02 9794   7.670   3.761   1.398  1.2374  1.3842  1.7222
  116GLOH   H08 9795   7.670   3.795   1.227  2.2161  0.4142 -1.0435
  116GLOH    C2 9796   7.816   3.909   1.347 -0.3663  0.3027 -0.3506
  116GLOH   H04 9797   7.850   3.939   1.247 -0.8908 -0.7972 -0.8634
  116GLOH    O2 9798   7.723   4.005   1.396 -0.0275 -0.0398  0.2563
  116GLOH   H05 9799   7.780   4.076   1.430 -0.8573  0.0615  1.4549
  116GLOH    C3 9800   7.940   3.899   1.440 -0.2799  0.1382  0.8224
  116GLOH   H06 9801   8.009   3.827   1.396 -0.5805 -0.9642  2.1157
  116GLOH   H07 9802   7.894   3.868   1.533 -0.8468  0.8282  0.7768
  116GLOH    O3 9803   8.003   4.026   1.453 -0.7088  0.5815  0.3358
  116GLOH   H01 9804   8.054   4.030   1.537  0.0829 -2.1333  0.0255
  117GLOH   H03 9805   8.693   3.822   1.611  0.0141 -0.3618  0.8130
  117GLOH    O1 9806   8.667   3.731   1.588 -0.1440 -0.1943  0.3345
  117GLOH    C1 9807   8.532   3.706   1.547 -0.5869  0.0482  0.3093
  117GLOH   H02 9808   8.474   3.667   1.631 -0.3261 -1.3984 -0.1727
  117GLOH   H08 9809   8.545   3.628   1.472  1.5381 -0.1433  0.8293
  117GLOH    C2 9810   8.446   3.822   1.498  0.2087 -0.1644  0.6618
  117GLOH   H04 9811   8.438   3.890   1.584  0.6026 -0.0622  0.6185
  117GLOH    O2 9812   8.505   3.894   1.393 -0.3048  0.0609  0.1989
  117GLOH   H05 9813   8.442   3.962   1.365  0.2077  0.1844 -0.6639
  117GLOH    C3 9814   8.311   3.760   1.457  0.1687 -0.4532 -0.3119
  117GLOH   H06 9815   8.331   3.713   1.361 -1.7398 -1.2217 -0.3590
  117GLOH   H07 9816   8.238   3.839   1.441 -0.8933 -0.9597  1.8532
  117GLOH    O3 9817   8.261   3.671   1.555 -0.1070  0.5207 -0.9977
  117GLOH   H01 9818   8.235   3.593   1.502 -1.1969 -0.5515  1.0764
  118GLOH   H03 9819   2.963   8.029   3.127 -0.5437 -0.6362 -0.0756
  118GLOH    O1 9820   2.929   8.120   3.130 -0.3509 -0.5524 -0.4006
  118GLOH    C1 9821   3.001   8.192   3.032  1.1992 -0.3322 -0.2439
  118GLOH   H02 9822   2.953   8.289   3.016  2.2045  0.2265  0.0513
  118GLOH   H08 9823   3.010   8.146   2.934 -2.5036  0.0616 -0.8361
  118GLOH    C2 9824   3.145   8.230   3.079 -0.3626 -0.1832  0.2081
  118GLOH   H04 9825   3.195   8.131   3.081 -2.0351 -1.0550 -0.6747
  118GLOH    O2 9826   3.205   8.329   2.996 -0.3691  0.0514  0.2250
  118GLOH   H05 9827   3.295   8.351   3.025 -1.2819  0.5116  2.8665
  118GLOH    C3 9828   3.137   8.294   3.216  0.2722 -0.0707  0.0162
  118GLOH   H06 9829   3.065   8.375   3.205 -1.8903 -1.7770  1.0924
  118GLOH   H07 9830   3.236   8.324   3.251  1.0501 -2.7670  0.2910
  118GLOH    O3 9831   3.082   8.213   3.319  0.6766  0.0501  0.0095
  118GLOH   H01 9832   2.994   8.186   3.285  0.6850 -0.7113  0.5921
  119GLOH   H03 9833   8.793   6.923   1.286  0.9458  0.3664  0.9348
  119GLOH    O1 9834   8.847   6.869   1.226 -0.4696  0.0675 -0.0764
  119GLOH    C1 9835   8.778   6.878   1.098  0.3477  0.1919 -0.1864
  119GLOH   H02 9836   8.850   6.889   1.017 -1.6533 -2.8872 -2.4500
  119GLOH   H08 9837   8.704   6.958   1.098 -0.0582 -0.1884 -0.5650
  119GLOH    C2 9838   8.698   6.748   1.088  0.3590 -0.3240 -0.1710
  119GLOH   H04 9839   8.618   6.759   1.162 -0.4488 -0.0195 -1.0784
  119GLOH    O2 9840   8.626   6.743   0.958  0.1198 -0.7449 -0.3340
  119GLOH   H05 9841   8.539   6.784   0.973 -0.2271 -1.4468 -0.3975
  119GLOH    C3 9842   8.773   6.616   1.109 -0.0679  0.3050 -0.5243
  119GLOH   H06 9843   8.824   6.589   1.016  0.1595  0.8332 -0.5561
  119GLOH   H07 9844   8.696   6.542   1.127 -0.6667  1.0150 -0.1465
  119GLOH    O3 9845   8.851   6.615   1.229 -0.0615 -0.1463 -0.0943
  119GLOH   H01 9846   8.886   6.706   1.233 -0.1575 -0.0577 -1.1763
  120GLOH   H03 9847   7.436   9.786   1.690  1.8862  1.8914  1.2238
  120GLOH    O1 9848   7.492   9.717   1.651  0.2361  1.0305  0.2941
  120GLOH    C1 9849   7.620   9.719   1.717 -0.4057 -0.0651 -0.4460
  120GLOH   H02 9850   7.696   9.671   1.655 -2.3188  0.1964 -3.0695
  120GLOH   H08 9851   7.611   9.659   1.808  2.3355 -0.5740 -0.4807
  120GLOH    C2 9852   7.681   9.853   1.750 -0.4162  0.0577  0.0849
  120GLOH   H04 9853   7.599   9.915   1.789  0.4398  1.9090 -0.9946
  120GLOH    O2 9854   7.773   9.844   1.863  0.2880  0.2257  0.0944
  120GLOH   H05 9855   7.849   9.902   1.842  0.4786 -0.2582 -0.5804
  120GLOH    C3 9856   7.739   9.915   1.621 -0.8488 -0.6212 -0.1290
  120GLOH   H06 9857   7.661   9.922   1.546 -1.6823  0.4394  0.8334
  120GLOH   H07 9858   7.804   9.837   1.579 -1.4111 -1.0794 -0.1539
  120GLOH    O3 9859   7.806  10.041   1.635  0.6314  0.4987 -0.7084
  120GLOH   H01 9860   7.837  10.068   1.546 -0.9820 -0.5573 -1.6160
  121ACOH    H4 9861   4.831   6.880   3.398 -0.6672  1.1632 -1.2077
  121ACOH    O2 9862   4.835   6.789   3.365  0.3417  0.4929  0.6922
  121ACOH    C2 9863   4.958   6.785   3.306  0.6346  0.0482  0.8010
  121ACOH    O1 9864   5.032   6.876   3.279  0.8934 -0.2920 -0.0375
  121ACOH    C1 9865   4.976   6.647   3.251 -0.0501 -0.7909 -1.2174
  121ACOH    H1 9866   4.889   6.620   3.191 -2.0564 -0.5262  1.5053
  121ACOH    H2 9867   4.983   6.577   3.334 -0.1047  1.0655  0.3827
  121ACOH    H3 9868   5.066   6.641   3.189 -0.2638 -2.2696 -1.3970
  122ACOH    H4 9869   7.984   6.497   1.303 -2.0933 -0.2919 -1.4499
  122ACOH    O2 9870   7.941   6.526   1.386 -0.0995 -0.4232 -0.3573
  122ACOH    C2 9871   7.889   6.645   1.351  0.9825 -0.2207 -0.3936
  122ACOH    O1 9872   7.907   6.707   1.250 -0.1034  0.1568  0.1078
  122ACOH    C1 9873   7.831   6.703   1.471 -0.5149  0.1587 -0.1366
  122ACOH    H1 9874   7.794   6.628   1.540 -0.4616  0.2619  0.0053
  122ACOH    H2 9875   7.747   6.771   1.455 -0.6465  0.2805  1.0771
  122ACOH    H3 9876   7.904   6.764   1.525 -2.0199  0.8880  1.1267
  123ACOH    H4 9877   4.654   5.757   2.437 -0.7854  0.5647 -1.1863
  123ACOH    O2 9878   4.637   5.841   2.482 -0.4478 -0.1174  0.2568
  123ACOH    C2 9879   4.519   5.876   2.436 -0.2784  0.7423 -0.3285
  123ACOH    O1 9880   4.460   5.834   2.337 -0.6595  0.0056  0.4839
  123ACOH    C1 9881   4.468   5.992   2.516  0.7515  0.6545  0.1443
  123ACOH    H1 9882   4.363   6.016   2.498  0.1961 -1.0763  0.9499
  123ACOH    H2 9883   4.531   6.080   2.502  0.3963  1.4177  3.0029
  123ACOH    H3 9884   4.474   5.974   2.623  1.3660 -0.2220 -0.0326
  124ACOH    H4 9885   6.081   8.269   1.613 -2.0413 -0.1485  1.0068
  124ACOH    O2 9886   6.052   8.346   1.562  0.0324  0.2086  0.2973
  124ACOH    C2 9887   5.926   8.381   1.603 -0.1287 -0.1789  0.5300
  124ACOH    O1 9888   5.854   8.319   1.672 -0.1127 -0.0424 -0.0798
  124ACOH    C1 9889   5.888   8.514   1.541  0.0193 -0.0001  0.1730
  124ACOH    H1 9890   5.850   8.492   1.441  0.7752 -0.8696  0.0694
  124ACOH    H2 9891   5.964   8.593   1.538 -1.5150  1.4600 -0.6213
  124ACOH    H3 9892   5.807   8.558   1.598  1.9620  0.5520  2.6173
  125ACOH    H4 9893   7.650   3.055   3.935 -0.7454  1.0728 -1.3075
  125ACOH    O2 9894   7.686   3.128   3.989 -0.2017  0.0052 -0.2052
  125ACOH    C2 9895   7.821   3.130   3.985  0.2879 -0.2532  0.1346
  125ACOH    O1 9896   7.894   3.073   3.907  0.1031  0.4035  0.1349
  125ACOH    C1 9897   7.873   3.207   4.092 -0.0751  0.5978  0.0674
  125ACOH    H1 9898   7.789   3.244   4.149  0.3148  0.5097  0.7090
  125ACOH    H2 9899   7.917   3.296   4.048  0.7450  0.5130  0.6820
  125ACOH    H3 9900   7.942   3.151   4.155  1.0807 -0.5712 -2.1628
  126ACOH    H4 9901   4.927   0.729   3.830  1.9620 -0.5929 -0.6134
  126ACOH    O2 9902   4.975   0.727   3.915 -0.2925  0.2061  0.7108
  126ACOH    C2 9903   4.980   0.849   3.964  0.5834  0.3838  0.7765
  126ACOH    O1 9904   4.932   0.950   3.918  0.3263  0.3400  0.0327
  126ACOH    C1 9905   5.054   0.854   4.096  0.0685 -0.3773  0.1169
  126ACOH    H1 9906   5.017   0.786   4.172 -0.3282  1.0987  1.2616
  126ACOH    H2 9907   5.037   0.953   4.139  0.7788  0.9489 -2.5548
  126ACOH    H3 9908   5.161   0.838   4.084  0.1640 -0.5682  1.1869
  127ACOH    H4 9909   4.880   7.503   1.323 -2.1613 -0.3483  0.1416
  127ACOH    O2 9910   4.914   7.457   1.402  0.5762  0.0712 -0.7169
  127ACOH    C2 9911   4.807   7.390   1.444  0.4024  0.6196 -0.5636
  127ACOH    O1 9912   4.696   7.390   1.400  0.2257 -0.0051  0.2653
  127ACOH    C1 9913   4.831   7.333   1.584  0.1596 -0.7430  0.1412
  127ACOH    H1 9914   4.928   7.363   1.622 -0.0965  0.6878 -0.3261
  127ACOH    H2 9915   4.831   7.224   1.584  0.1783 -0.7438 -0.7270
  127ACOH    H3 9916   4.753   7.367   1.653 -1.5542 -1.3105 -1.4837
  128ACOH    H4 9917   4.400   4.331   3.921 -2.8105  0.1654  0.7281
  128ACOH    O2 9918   4.436   4.411   3.964 -0.4591 -0.5149  0.1080
  128ACOH    C2 9919   4.465   4.499   3.867  1.1975  0.3448  0.0373
  128ACOH    O1 9920   4.438   4.480   3.751  0.0687 -0.0067  0.0059
  128ACOH    C1 9921   4.535   4.618   3.912  0.2286 -0.3568 -0.4601
  128ACOH    H1 9922   4.536   4.629   4.020 -1.8439 -2.0352 -0.2401
  128ACOH    H2 9923   4.487   4.708   3.873 -1.9056 -1.1117  0.3787
  128ACOH    H3 9924   4.634   4.617   3.865  0.4169 -0.2136 -0.0684
  129ACOH    H4 9925   7.277   2.932   0.396  3.3650 -0.9283 -0.7528
  129ACOH    O2 9926   7.252   2.852   0.348  0.4604 -0.2234 -0.4867
  129ACOH    C2 9927   7.338   2.845   0.243 -0.1449  0.1185 -0.0162
  129ACOH    O1 9928   7.429   2.918   0.218  0.1025 -0.4584  0.0444
  129ACOH    C1 9929   7.320   2.721   0.163 -0.1250 -0.4971  0.1517
  129ACOH    H1 9930   7.333   2.736   0.056  4.1404 -2.8350  0.2392
  129ACOH    H2 9931   7.220   2.678   0.166 -1.0446  1.6812  1.3186
  129ACOH    H3 9932   7.391   2.646   0.197 -0.7295 -0.6740  1.0488
  130ACOH    H4 9933   6.688   0.311   2.040  0.0409 -0.0690 -2.6754
  130ACOH    O2 9934   6.603   0.358   2.041  0.1582  0.1736 -0.0451
  130ACOH    C2 9935   6.573   0.403   2.164  0.7981  0.4156  0.3152
  130ACOH    O1 9936   6.621   0.367   2.277  0.3221 -0.4981  1.0670
  130ACOH    C1 9937   6.452   0.486   2.161  0.2142 -0.4635 -0.3103
  130ACOH    H1 9938   6.364   0.426   2.181 -1.2438  1.9482  0.7006
  130ACOH    H2 9939   6.451   0.541   2.067 -0.8915 -1.2209 -0.7473
  130ACOH    H3 9940   6.469   0.561   2.238 -1.6563 -1.3184  0.9501
  131ACOH    H4 9941   3.936   5.876   3.653 -0.4503  2.0902 -0.7884
  131ACOH    O2 9942   4.017   5.903   3.700 -0.1487  0.1126 -0.1070
  131ACOH    C2 9943   3.983   6.009   3.780  0.4433 -0.2111 -0.1324
  131ACOH    O1 9944   3.890   6.087   3.765  0.0615  0.2082  0.1008
  131ACOH    C1 9945   4.092   6.038   3.874 -0.2452 -0.1456 -0.1407
  131ACOH    H1 9946   4.178   5.976   3.847 -1.0051 -1.3894  0.2385
  131ACOH    H2 9947   4.068   6.011   3.977 -0.1674 -1.8185 -0.5394
  131ACOH    H3 9948   4.129   6.140   3.879 -0.1167 -0.2203  0.4866
  132ACOH    H4 9949   4.598   5.131   1.860 -1.5676  1.5520 -0.2324
  132ACOH    O2 9950   4.670   5.185   1.821 -0.4192 -0.1015 -0.4430
  132ACOH    C2 9951   4.644   5.318   1.841  0.7613  0.2170 -0.4926
  132ACOH    O1 9952   4.546   5.359   1.901 -0.0244 -0.3660  0.5104
  132ACOH    C1 9953   4.756   5.402   1.806  0.0830  0.2648 -0.6161
  132ACOH    H1 9954   4.823   5.419   1.890 -0.6590  1.4324 -0.2388
  132ACOH    H2 9955   4.719   5.502   1.780  1.4727  0.8826 -0.2520
  132ACOH    H3 9956   4.804   5.357   1.720 -0.1125  0.1863 -0.6841
  133ACOH    H4 9957   7.141   6.228   3.850  1.2633 -0.1219 -1.1940
  133ACOH    O2 9958   7.196   6.148   3.846  0.5299 -0.6840 -0.3647
  133ACOH    C2 9959   7.244   6.120   3.961  0.3182 -0.3631  0.1117
  133ACOH    O1 9960   7.247   6.202   4.055 -0.0513 -0.4430  0.0130
  133ACOH    C1 9961   7.318   5.991   3.964 -0.5272  0.4703  1.2099
  133ACOH    H1 9962   7.353   5.970   3.863  1.8140  2.9620  1.4545
  133ACOH    H2 9963   7.258   5.909   4.003 -0.4404  0.6504  1.7303
  133ACOH    H3 9964   7.407   5.992   4.028 -0.7115 -0.1827  1.4804
  134ACOH    H4 9965   4.683   1.766   2.591  3.2465 -0.5093  0.1354
  134ACOH    O2 9966   4.659   1.713   2.669 -0.0894  0.5068 -0.1429
  134ACOH    C2 9967   4.769   1.654   2.712 -0.5863  0.1269  0.4023
  134ACOH    O1 9968   4.872   1.639   2.647 -0.1688  0.5310 -0.3811
  134ACOH    C1 9969   4.756   1.586   2.842  0.3472 -0.2695  0.3268
  134ACOH    H1 9970   4.818   1.648   2.907 -1.5081 -1.4402  3.2944
  134ACOH    H2 9971   4.786   1.481   2.849  1.1768  0.1150  3.0289
  134ACOH    H3 9972   4.657   1.599   2.885 -0.5075 -0.1022 -1.6077
  135ACOH    H4 9973   4.756   5.410   2.744  0.1807  1.7743 -0.8703
  135ACOH    O2 9974   4.824   5.425   2.812 -0.4341 -0.6227  0.3222
  135ACOH    C2 9975   4.834   5.323   2.899  1.3302  0.5627 -0.4381
  135ACOH    O1 9976   4.776   5.219   2.882 -0.0274 -0.0512 -0.2420
  135ACOH    C1 9977   4.905   5.355   3.024  0.0257 -0.3789  0.1022
  135ACOH    H1 9978   4.982   5.278   3.024  1.0770  0.6310 -1.6320
  135ACOH    H2 9979   4.833   5.353   3.106 -0.6542 -0.5543 -0.5045
  135ACOH    H3 9980   4.957   5.451   3.018  2.9044 -1.7601  1.9180
  136ACOH    H4 9981   0.839   3.925   2.633  0.2302 -0.0459  0.3557
  136ACOH    O2 9982   0.746   3.944   2.613  0.3764  0.6379  0.3097
  136ACOH    C2 9983   0.733   4.078   2.623  0.0833 -0.5983  0.3257
  136ACOH    O1 9984   0.815   4.153   2.573  0.9681 -0.0301  0.2821
  136ACOH    C1 9985   0.590   4.108   2.611  0.1543  0.0090 -0.5963
  136ACOH    H1 9986   0.533   4.124   2.703  1.0451  1.0617 -0.2087
  136ACOH    H2 9987   0.538   4.030   2.556 -0.9397 -0.8015  1.5412
  136ACOH    H3 9988   0.572   4.197   2.550 -1.7851 -0.2954 -0.4793
  137ACOH    H4 9989   3.792   6.900   0.649  0.4920 -1.7621  2.6794
  137ACOH    O2 9990   3.799   6.827   0.584 -0.2619  0.4707 -0.0370
  137ACOH    C2 9991   3.703   6.846   0.494  0.0143  0.7504 -0.3513
  137ACOH    O1 9992   3.667   6.957   0.466  0.4098  0.0836  0.3831
  137ACOH    C1 9993   3.689   6.728   0.403 -0.5076 -0.1536 -0.8170
  137ACOH    H1 9994   3.595   6.739   0.350 -1.1754 -0.1872  0.3404
  137ACOH    H2 9995   3.689   6.634   0.459  0.6657 -0.2337 -0.9510
  137ACOH    H3 9996   3.768   6.731   0.329 -1.3153  0.4103 -1.6600
  138ACOH    H4 9997   6.565   9.721   3.693 -0.3862  0.4260 -1.2507
  138ACOH    O2 9998   6.499   9.669   3.743  1.3002 -0.1995  0.3763
  138ACOH    C2 9999   6.529   9.685   3.875 -0.4055 -0.4744  0.0174
  138ACOH    O110000   6.591   9.773   3.936  0.3648  0.3417  0.2155
  138ACOH    C110001   6.480   9.577   3.957 -0.1708  0.0430  0.5123
  138ACOH    H110002   6.398   9.538   3.896  1.4956  0.7067 -2.2527
  138ACOH    H210003   6.447   9.600   4.058 -0.7557 -0.3298  0.4102
  138ACOH    H310004   6.553   9.496   3.962  0.0439  0.1941 -0.1588
  139ACOH    H410005   2.274   1.102   3.731  0.2121 -0.0736 -1.0767
  139ACOH    O210006   2.205   1.124   3.797  1.2995  0.5493 -0.1399
  139ACOH    C210007   2.193   1.261   3.796 -0.3235 -0.3003  0.2350
  139ACOH    O110008   2.298   1.318   3.786 -0.6562  0.7861  0.3630
  139ACOH    C110009   2.081   1.309   3.886 -0.1830  0.2531  0.1316
  139ACOH    H110010   1.987   1.270   3.847  0.1059 -0.2454 -0.0734
  139ACOH    H210011   2.069   1.417   3.890 -1.3909  0.0748  2.3239
  139ACOH    H310012   2.100   1.273   3.987 -1.8854 -1.4789 -0.1415
  140ACOH    H410013   7.256   0.028   0.955  0.3509  1.6285 -0.2285
  140ACOH    O210014   7.182   0.042   0.892 -0.4789  0.0527  0.3721
  140ACOH    C210015   7.213   0.153   0.828  0.7200 -0.1910 -0.2446
  140ACOH    O110016   7.318   0.215   0.810 -0.2393  0.3309  0.4525
  140ACOH    C110017   7.106   0.175   0.724  0.0659  0.1966 -0.1748
  140ACOH    H110018   7.159   0.184   0.630  0.6875  0.3224  0.1823
  140ACOH    H210019   7.068   0.274   0.747  0.9325 -0.2723  3.6306
  140ACOH    H310020   7.031   0.096   0.715  0.2096 -0.0094  0.3924
  141ACOH    H410021   7.518   0.165   1.752 -0.5756  1.2377  0.4198
  141ACOH    O210022   7.460   0.129   1.821  0.2449  0.5443  0.7611
  141ACOH    C210023   7.530   0.137   1.931  0.4769 -0.8924 -0.3163
  141ACOH    O110024   7.650   0.157   1.942  0.0536  0.2939 -0.0929
  141ACOH    C110025   7.453   0.074   2.038  0.4435  0.9773  0.1896
  141ACOH    H110026   7.436  -0.031   2.013  1.0631  0.7614  0.7011
  141ACOH    H210027   7.355   0.123   2.045  1.3784  2.9551 -0.2646
  141ACOH    H310028   7.502   0.064   2.134 -0.1290 -0.8896  0.3172
  142ACOH    H410029   8.047   2.278   2.821 -1.3367  0.2529  1.5980
  142ACOH    O210030   8.000   2.346   2.770 -0.1773  0.3520  0.6509
  142ACOH    C210031   7.875   2.296   2.755  0.6390  0.1913 -0.0075
  142ACOH    O110032   7.833   2.196   2.805  0.1533 -0.3020 -0.5472
  142ACOH    C110033   7.792   2.384   2.677  0.0950 -0.3355  0.2491
  142ACOH    H110034   7.837   2.408   2.581 -0.6595  2.3904  0.5286
  142ACOH    H210035   7.777   2.482   2.723  0.4744  1.3290 -3.0348
  142ACOH    H310036   7.698   2.338   2.647  0.8279 -1.8484  0.2136
  143ACOH    H410037   7.775   2.174   1.345 -0.0736  0.0776  2.9923
  143ACOH    O210038   7.700   2.235   1.345 -0.1307  0.0641  0.3990
  143ACOH    C210039   7.740   2.359   1.380 -0.2047  0.2819  0.0153
  143ACOH    O110040   7.834   2.392   1.448 -0.3203 -0.0243  0.2428
  143ACOH    C110041   7.632   2.449   1.342 -0.3001  0.1112 -0.0364
  143ACOH    H110042   7.649   2.549   1.383  0.1248  0.3403 -0.7501
  143ACOH    H210043   7.532   2.409   1.360 -0.9481  1.7778  0.2069
  143ACOH    H310044   7.642   2.453   1.233 -1.3305  1.4522 -0.1020
  144ACOH    H410045   3.043   8.250   0.751 -0.0800 -0.6315  0.5841
  144ACOH    O210046   3.040   8.247   0.849  0.2329 -0.0664  0.6120
  144ACOH    C210047   3.100   8.360   0.889  0.5349  0.3245 -0.3882
  144ACOH    O110048   3.102   8.470   0.832 -0.2565 -0.1332 -0.3535
  144ACOH    C110049   3.136   8.338   1.033  0.0636 -0.5223 -0.0065
  144ACOH    H110050   3.233   8.382   1.053  0.0530 -0.2295 -0.5778
  144ACOH    H210051   3.132   8.235   1.068  0.0435  0.4861  3.1455
  144ACOH    H310052   3.062   8.385   1.099 -1.2310  0.2299 -1.9284
  145ACOH    H410053   8.521   7.158   1.008 -0.5030  0.0550  0.8129
  145ACOH    O210054   8.485   7.171   0.919 -0.0033  0.5077  0.6699
  145ACOH    C210055   8.569   7.126   0.821 -1.0302 -0.4934  0.3263
  145ACOH    O110056   8.684   7.082   0.840 -0.0059 -0.7702 -0.0547
  145ACOH    C110057   8.501   7.139   0.684 -0.2979  0.3482  0.8442
  145ACOH    H110058   8.399   7.102   0.679  0.2357 -0.7575 -3.5048
  145ACOH    H210059   8.563   7.083   0.614 -0.1370  1.3222  0.2004
  145ACOH    H310060   8.502   7.244   0.654  0.5801  0.3657  0.9147
  146ACOH    H410061   5.461   6.920   2.675  1.6499 -0.3160  0.3557
  146ACOH    O210062   5.482   6.901   2.582  0.2564 -0.0965 -0.0197
  146ACOH    C210063   5.490   7.009   2.510  0.3540 -0.8746  0.4030
  146ACOH    O110064   5.438   7.115   2.530 -0.2548 -0.5585  0.6414
  146ACOH    C110065   5.534   6.968   2.376 -0.5871 -0.1543 -0.4843
  146ACOH    H110066   5.641   6.947   2.381 -0.6370 -0.1383  1.1489
  146ACOH    H210067   5.503   7.026   2.290  1.6708  0.8880 -0.6316
  146ACOH    H310068   5.480   6.877   2.354 -1.1880 -0.2551  1.3295
  147ACOH    H410069   7.724   9.572   0.678  1.0470  3.8837 -3.1491
  147ACOH    O210070   7.813   9.569   0.717 -0.1203 -0.5661 -0.2914
  147ACOH    C210071   7.808   9.468   0.802 -0.2351  0.7759 -0.5821
  147ACOH    O110072   7.705   9.408   0.837  0.3364 -0.2659 -0.1228
  147ACOH    C110073   7.942   9.439   0.853 -0.0660  0.4682  0.3259
  147ACOH    H110074   7.927   9.350   0.915  0.2765  0.6668  0.6964
  147ACOH    H210075   7.980   9.506   0.930 -0.9374 -1.1526  2.2073
  147ACOH    H310076   8.012   9.427   0.770 -1.9441  0.5640 -1.3127
  148ACOH    H410077   5.029   1.262   3.019  3.0901  3.5711 -2.0064
  148ACOH    O210078   5.089   1.256   3.095  0.8543  0.1410 -0.4140
  148ACOH    C210079   5.064   1.372   3.167 -0.3473 -0.4484 -0.6847
  148ACOH    O110080   4.982   1.452   3.134 -0.3945  0.4097  0.2676
  148ACOH    C110081   5.156   1.395   3.280 -0.5231  0.0230  0.1672
  148ACOH    H110082   5.096   1.447   3.355  0.6127  0.7615  0.5776
  148ACOH    H210083   5.242   1.454   3.248 -1.2813  1.5436  0.8442
  148ACOH    H310084   5.194   1.300   3.318  0.4453  0.8422  1.2994
  149ACOH    H410085   8.205   3.195   3.600 -0.3685 -0.3464  1.8875
  149ACOH    O210086   8.274   3.157   3.658  1.2986 -0.3847 -0.0872
  149ACOH    C210087   8.349   3.058   3.597  0.4006 -0.0388  0.2713
  149ACOH    O110088   8.363   3.039   3.479 -0.2081 -0.4883 -0.0183
  149ACOH    C110089   8.440   2.993   3.692 -0.5081 -0.0558 -1.1428
  149ACOH    H110090   8.543   3.023   3.675 -0.3280 -0.8494 -1.5088
  149ACOH    H210091   8.426   2.885   3.680  0.4449 -0.3947  0.5353
  149ACOH    H310092   8.406   3.012   3.794 -1.1730 -1.7001 -1.0441
  150ACOH    H410093   7.146   4.164   0.683  1.3420 -0.1707  1.2270
  150ACOH    O210094   7.099   4.114   0.752  0.6163 -0.3985  0.5709
  150ACOH    C210095   7.017   4.212   0.807  0.8753 -0.1163 -0.2632
  150ACOH    O110096   6.986   4.320   0.758 -0.5285  0.4599  0.8595
  150ACOH    C110097   6.963   4.163   0.940 -0.0044  0.4743 -0.3922
  150ACOH    H110098   6.997   4.228   1.020  0.8579 -1.3205  0.7429
  150ACOH    H210099   7.010   4.066   0.956 -0.6873  0.2133  0.0840
  150ACOH    H310100   6.854   4.155   0.935  0.1177  0.0974 -3.1848
  151ACOH    H410101   5.090   7.449   0.388  1.4883 -1.6910 -0.1416
  151ACOH    O210102   5.168   7.508   0.390 -0.1230  0.4865  0.2956
  151ACOH    C210103   5.137   7.628   0.450 -0.0123  0.3280 -0.3925
  151ACOH    O110104   5.030   7.660   0.491 -0.0558  0.0926  0.0710
  151ACOH    C110105   5.259   7.703   0.478 -0.3473 -0.3269  0.4187
  151ACOH    H110106   5.330   7.694   0.396 -1.8675  2.4661 -1.2893
  151ACOH    H210107   5.305   7.669   0.571 -0.3308 -0.1430  0.4775
  151ACOH    H310108   5.236   7.809   0.480 -1.6836 -0.5660 -1.1258
  152ACOH    H410109   4.817   6.830   3.015  0.5601 -0.8684 -0.4135
  152ACOH    O210110   4.788   6.737   3.016 -0.4071 -0.5780 -0.4735
  152ACOH    C210111   4.868   6.677   2.931  0.8394 -0.4503  0.0963
  152ACOH    O110112   4.981   6.708   2.908 -0.1301 -0.5162  0.1398
  152ACOH    C110113   4.832   6.536   2.906 -0.4077  0.2617  0.5318
  152ACOH    H110114   4.891   6.469   2.968 -0.6344 -0.0673  0.3901
  152ACOH    H210115   4.845   6.504   2.803  0.0181  0.9824  0.3597
  152ACOH    H310116   4.727   6.530   2.934 -0.1656  0.7992  1.5997
  153ACOH    H410117   8.493   4.050   1.954  0.0380  0.1287  1.0494
  153ACOH    O210118   8.523   4.141   1.971  0.4552  0.1517  0.2316
  153ACOH    C210119   8.411   4.219   1.945  0.4270 -0.6896 -0.5056
  153ACOH    O110120   8.328   4.191   1.860 -0.4616  0.5574  0.0994
  153ACOH    C110121   8.415   4.341   2.023  0.6389 -0.8822 -0.0115
  153ACOH    H110122   8.502   4.347   2.088  0.6447  2.2949 -0.2489
  153ACOH    H210123   8.317   4.351   2.071  0.6689  0.1278 -0.1522
  153ACOH    H310124   8.419   4.417   1.945 -0.3580 -0.0711  0.6991
  154ACOH    H410125   7.771   6.758   0.118  2.0217  3.8527 -1.8755
  154ACOH    O210126   7.770   6.809   0.200 -0.0939  0.2259  0.4948
  154ACOH    C210127   7.888   6.795   0.278  0.2647  0.7561 -0.0225
  154ACOH    O110128   7.984   6.721   0.264 -0.0068  0.5464  0.4014
  154ACOH    C110129   7.883   6.902   0.381  1.3636  0.2717 -0.4724
  154ACOH    H110130   7.798   6.876   0.444  0.9120  1.4719 -0.5877
  154ACOH    H210131   7.877   7.004   0.343  0.4735  0.3412 -0.1632
  154ACOH    H310132   7.970   6.905   0.447  0.6277 -0.7033  0.5810
  155ACOH    H410133   5.704   0.716   1.832 -0.1170 -0.5598  0.6139
  155ACOH    O210134   5.784   0.678   1.792  0.2164  0.2062  0.5290
  155ACOH    C210135   5.751   0.587   1.697 -0.4157  0.5513 -0.9260
  155ACOH    O110136   5.646   0.557   1.651  0.5424 -0.5290 -0.2107
  155ACOH    C110137   5.867   0.513   1.646  0.3471 -0.3608 -0.5094
  155ACOH    H110138   5.870   0.513   1.537  0.9839 -1.7789 -0.5090
  155ACOH    H210139   5.872   0.412   1.687  0.0460  0.3965  1.4765
  155ACOH    H310140   5.964   0.557   1.668 -0.2404  2.4833 -3.4009
  156ACOH    H410141   8.120   2.668   3.410  1.5019  0.6716 -1.1466
  156ACOH    O210142   8.069   2.743   3.446  0.9996  0.0579 -0.5754
  156ACOH    C210143   8.070   2.739   3.580 -0.7176 -0.5091  0.3297
  156ACOH    O110144   8.115   2.643   3.642 -0.1537  0.2629 -0.3181
  156ACOH    C110145   7.993   2.848   3.639  1.0924  0.0806  0.3078
  156ACOH    H110146   8.001   2.934   3.573 -0.9206 -0.8109 -1.1568
  156ACOH    H210147   8.047   2.876   3.730  2.1938  0.2510 -0.3889
  156ACOH    H310148   7.897   2.806   3.669  1.9112 -0.6844  1.9227
  157ACOH    H410149   2.873   1.122   1.060 -0.6065 -0.0280  0.7360
  157ACOH    O210150   2.824   1.098   0.979  0.1827  0.1676  0.1932
  157ACOH    C210151   2.883   0.986   0.925 -0.2057 -0.3878  0.6593
  157ACOH    O110152   2.999   0.963   0.929  0.0354  0.1813 -0.2444
  157ACOH    C110153   2.797   0.923   0.817 -0.0526  0.0895  0.4506
  157ACOH    H110154   2.696   0.954   0.844 -0.4726 -1.6836  0.9872
  157ACOH    H210155   2.819   0.817   0.824 -0.6372 -0.3107 -2.7432
  157ACOH    H310156   2.823   0.967   0.720 -1.5726  0.2015  0.0852
  158ACOH    H410157   1.980   1.632   4.040  0.3157 -0.8998 -1.4826
  158ACOH    O210158   1.989   1.562   4.107  0.0525  0.2475 -0.2301
  158ACOH    C210159   1.916   1.606   4.211 -0.2069 -0.0497  0.2705
  158ACOH    O110160   1.833   1.693   4.205  0.1576  0.7929  0.4204
  158ACOH    C110161   1.922   1.516   4.328  0.1622  0.2242 -0.1550
  158ACOH    H110162   1.919   1.416   4.286  0.6320  0.2492 -0.2474
  158ACOH    H210163   1.836   1.518   4.395  0.9251  0.1943  0.8304
  158ACOH    H310164   2.009   1.521   4.393  2.7502  1.5852 -3.5910
  159ACOH    H410165   8.592   7.065   0.122  0.0646  0.2421 -0.0693
  159ACOH    O210166   8.640   7.101   0.199 -0.2836  0.2345  0.1529
  159ACOH    C210167   8.615   7.233   0.214  0.6081  0.2275  0.6470
  159ACOH    O110168   8.594   7.321   0.128 -0.0290 -0.3661 -0.3424
  159ACOH    C110169   8.623   7.268   0.353  0.0476 -0.4614  0.1914
  159ACOH    H110170   8.581   7.185   0.411 -1.6478  0.3668  0.2017
  159ACOH    H210171   8.557   7.354   0.365  0.8335  0.5421 -2.3110
  159ACOH    H310172   8.723   7.299   0.381 -1.1028  2.1301  1.6857
  160ACOH    H410173   7.841   5.983   3.839 -1.2679 -0.1049  0.2747
  160ACOH    O210174   7.822   5.939   3.754 -0.3157  0.2649 -0.1287
  160ACOH    C210175   7.689   5.938   3.731 -0.2195 -0.4222 -0.7959
  160ACOH    O110176   7.609   5.982   3.816 -0.4403 -1.1814  0.4308
  160ACOH    C110177   7.663   5.902   3.588 -0.0058 -0.3744 -0.1315
  160ACOH    H110178   7.589   5.822   3.586 -0.7695  0.3318 -2.5359
  160ACOH    H210179   7.759   5.866   3.551  1.6523  1.5240  2.1660
  160ACOH    H310180   7.616   5.980   3.528  1.3969  1.1834  0.7695
  161ACOH    H410181   9.121   7.100   0.109 -1.0747 -1.2332  1.5862
  161ACOH    O210182   9.055   7.129   0.044  0.5379 -0.2013  0.3884
  161ACOH    C210183   8.949   7.048   0.071 -0.3796 -0.3018  0.5987
  161ACOH    O110184   8.930   6.975   0.168  0.5067 -0.2917  0.0630
  161ACOH    C110185   8.874   7.041  -0.056  0.2032  0.7996  0.2720
  161ACOH    H110186   8.785   6.978  -0.051 -0.2547  1.2974 -1.2208
  161ACOH    H210187   8.937   7.004  -0.138  0.0195 -2.7344  1.6708
  161ACOH    H310188   8.841   7.130  -0.111  1.0604 -0.1446 -1.8386
  162ACOH    H410189   7.241   6.888   3.009 -0.9939 -2.5116 -1.6160
  162ACOH    O210190   7.145   6.903   3.010 -0.6158  0.0837 -0.3464
  162ACOH    C210191   7.110   6.938   3.137 -0.2133  0.2772 -0.0805
  162ACOH    O110192   7.187   6.970   3.227  0.1451 -0.2376 -0.0774
  162ACOH    C110193   6.962   6.920   3.158  0.2727 -0.3846 -0.6593
  162ACOH    H110194   6.914   6.896   3.063  1.0670  0.7579 -1.3514
  162ACOH    H210195   6.919   7.011   3.200 -0.3871 -1.2330  0.5606
  162ACOH    H310196   6.947   6.841   3.233 -2.0837  0.8622  0.2395
  163ACOH    H410197   5.065   2.075   2.032  0.0459  0.0903 -0.3348
  163ACOH    O210198   5.085   1.988   2.071 -0.3381  0.0212 -0.2839
  163ACOH    C210199   5.175   1.925   1.985  0.6809 -0.4190  0.1280
  163ACOH    O110200   5.193   1.954   1.869  0.3806  0.5772 -0.4380
  163ACOH    C110201   5.227   1.803   2.052 -0.7426  0.1368 -0.1713
  163ACOH    H110202   5.296   1.822   2.134 -0.4241  3.6001 -1.1601
  163ACOH    H210203   5.280   1.746   1.975  0.7382  0.3521  0.6632
  163ACOH    H310204   5.158   1.730   2.094  0.3540 -0.7155  0.1691
  164ACOH    H410205   8.886   7.763   1.888 -3.9971 -0.0892 -0.0768
  164ACOH    O210206   8.894   7.857   1.863  0.0296 -0.2224  0.2804
  164ACOH    C210207   8.978   7.869   1.748 -0.0847  0.1714  0.0087
  164ACOH    O110208   9.047   7.780   1.693 -0.0468  0.0038 -0.0807
  164ACOH    C110209   8.980   8.006   1.690  0.8294  0.0735 -0.0223
  164ACOH    H110210   8.888   8.056   1.719  0.6101  0.1451 -0.8189
  164ACOH    H210211   8.990   7.994   1.582  1.1560 -1.7217  0.1945
  164ACOH    H310212   9.064   8.063   1.729 -0.1972  1.9868 -0.5178
  165ACOH    H410213   6.238   8.241   1.791 -2.1399 -1.5192  1.7510
  165ACOH    O210214   6.197   8.181   1.726 -0.3527 -0.8735 -0.0347
  165ACOH    C210215   6.113   8.100   1.796  0.0919  0.0421 -0.6034
  165ACOH    O110216   6.121   8.080   1.917  0.5290 -0.8453  0.1464
  165ACOH    C110217   6.044   8.014   1.703  0.8997 -0.7290 -0.5998
  165ACOH    H110218   6.023   8.058   1.605 -3.2763 -0.8546  0.1660
  165ACOH    H210219   5.947   7.997   1.748  1.2713  0.9987  0.9178
  165ACOH    H310220   6.098   7.920   1.694 -0.5543 -1.7889  1.3026
  166ACOH    H410221   7.192   3.456   0.714 -1.9856  0.5331 -1.3431
  166ACOH    O210222   7.131   3.383   0.734 -0.2038 -0.4190  0.9076
  166ACOH    C210223   7.189   3.267   0.719  0.1310 -0.3235  0.4605
  166ACOH    O110224   7.309   3.247   0.727 -0.5291  1.0687  0.5944
  166ACOH    C110225   7.088   3.158   0.710  0.7091  0.3847  0.6330
  166ACOH    H110226   6.992   3.193   0.748  0.4870 -0.0414  0.4673
  166ACOH    H210227   7.113   3.074   0.775 -2.0152 -2.0341 -1.3002
  166ACOH    H310228   7.081   3.123   0.607  0.2879  0.6835  0.5592
  167ACOH    H410229   6.751   9.620   1.050 -1.3930  2.0921 -0.7357
  167ACOH    O210230   6.675   9.572   1.087  0.1787 -0.2394 -0.3783
  167ACOH    C210231   6.681   9.443   1.052  0.0820  0.2022  0.5641
  167ACOH    O110232   6.753   9.393   0.967  0.5926 -0.0938 -0.2360
  167ACOH    C110233   6.560   9.378   1.094 -0.3138 -0.0565 -0.0444
  167ACOH    H110234   6.508   9.342   1.005  2.6775 -0.9445 -1.5195
  167ACOH    H210235   6.495   9.426   1.167 -0.5190  1.7485 -1.3782
  167ACOH    H310236   6.576   9.286   1.150 -1.1822 -0.1119  0.1182
  168ACOH    H410237   6.343   0.712   2.805  0.2929  0.8311  0.7143
  168ACOH    O210238   6.414   0.751   2.751 -0.1513  0.3667 -0.2343
  168ACOH    C210239   6.534   0.735   2.807 -0.0126 -0.0886 -0.4734
  168ACOH    O110240   6.551   0.707   2.922 -0.1412  0.8766  1.2109
  168ACOH    C110241   6.651   0.778   2.722  0.5813  0.5272  0.1327
  168ACOH    H110242   6.657   0.886   2.707 -0.1728  0.7740  1.5144
  168ACOH    H210243   6.628   0.731   2.626 -2.0273 -0.3165  1.1016
  168ACOH    H310244   6.749   0.749   2.759  0.3899  0.3175  0.4765
  169ACOH    H410245   4.244   4.158   3.898  0.0761 -0.4181  1.2026
  169ACOH    O210246   4.334   4.181   3.869 -0.1798 -0.2696  0.5021
  169ACOH    C210247   4.364   4.093   3.775  0.2481 -0.2322  0.2422
  169ACOH    O110248   4.284   4.037   3.700  0.2996 -0.2595 -0.0093
  169ACOH    C110249   4.507   4.088   3.729 -0.0884 -0.7155 -0.8457
  169ACOH    H110250   4.572   4.126   3.808  0.6536  0.9854 -2.2430
  169ACOH    H210251   4.516   4.155   3.643 -3.2632  1.0563  0.1314
  169ACOH    H310252   4.536   3.987   3.701 -2.1006 -0.5883 -3.5805
  170ACOH    H410253   4.225   6.946   0.226 -0.1107  0.1429 -0.7857
  170ACOH    O210254   4.160   6.875   0.237 -0.0459  0.2464  0.3324
  170ACOH    C210255   4.150   6.798   0.128  0.7668 -0.1850 -0.0808
  170ACOH    O110256   4.223   6.802   0.036  0.0940 -0.7813  0.4989
  170ACOH    C110257   4.024   6.723   0.134 -0.3788  0.0631 -0.1227
  170ACOH    H110258   3.942   6.794   0.147 -0.0147  0.5356 -0.3987
  170ACOH    H210259   4.020   6.645   0.210 -1.1576  1.9021  1.7968
  170ACOH    H310260   4.021   6.681   0.034 -0.5866 -0.3731  0.0659
  171ACOH    H410261   6.160   0.592   2.978  1.9898 -0.4964  0.2570
  171ACOH    O210262   6.169   0.661   2.910  0.0682 -0.0225  0.4411
  171ACOH    C210263   6.045   0.686   2.856  0.2624  0.2491 -0.1942
  171ACOH    O110264   5.935   0.634   2.879  0.0473  0.6569  0.7109
  171ACOH    C110265   6.060   0.796   2.765 -0.1057 -0.3507 -0.2154
  171ACOH    H110266   5.964   0.819   2.719 -0.1688  2.1190  1.0255
  171ACOH    H210267   6.135   0.783   2.688 -0.8951  0.1299 -1.0841
  171ACOH    H310268   6.077   0.885   2.826  0.6068 -1.2930  0.9905
  172ACOH    H410269   9.378   8.077   1.992  0.3734 -0.6365 -0.2110
  172ACOH    O210270   9.407   8.135   2.065  0.0592 -0.4456 -0.2377
  172ACOH    C210271   9.451   8.245   1.999 -0.0928 -0.1563  0.9843
  172ACOH    O110272   9.437   8.283   1.884 -0.4164  0.0673  0.4257
  172ACOH    C110273   9.542   8.316   2.091  0.8887 -0.4795  0.2845
  172ACOH    H110274   9.470   8.358   2.162 -0.7622 -1.5445 -0.7223
  172ACOH    H210275   9.603   8.396   2.048 -0.4327  0.5414  0.2635
  172ACOH    H310276   9.601   8.241   2.143  1.5713 -1.7947 -2.3087
  173ACOH    H410277   7.290   1.069   2.904  2.1656  1.3365  0.4840
  173ACOH    O210278   7.254   1.160   2.901 -0.2722  0.3860 -0.7537
  173ACOH    C210279   7.119   1.146   2.888 -0.8679  0.2217 -0.0479
  173ACOH    O110280   7.059   1.039   2.901 -0.0875 -0.2027  0.2223
  173ACOH    C110281   7.057   1.272   2.844  0.4382 -0.1351 -0.7994
  173ACOH    H110282   7.071   1.294   2.738 -0.4608 -1.0882 -1.1305
  173ACOH    H210283   7.094   1.349   2.912  0.1462  0.2603 -1.0871
  173ACOH    H310284   6.948   1.272   2.854  0.5133  0.1106  0.0639
  174ACOH    H410285   3.918   4.587   0.230 -1.4748  0.7260 -0.3690
  174ACOH    O210286   3.980   4.584   0.155 -0.4398 -0.1507  0.5118
  174ACOH    C210287   4.037   4.458   0.169  0.3711 -0.2723 -0.0874
  174ACOH    O110288   4.033   4.389   0.271  0.0819  0.1033  0.4654
  174ACOH    C110289   4.138   4.426   0.068  0.2855 -0.0689  0.3427
  174ACOH    H110290   4.089   4.385  -0.020  0.3448 -1.5640  1.0000
  174ACOH    H210291   4.209   4.353   0.106  0.9600  1.3464  1.9089
  174ACOH    H310292   4.189   4.515   0.030 -1.9554  0.9874 -0.3088
  175ACOH    H410293   5.203   1.501   1.743 -0.5255  0.3755 -0.7820
  175ACOH    O210294   5.273   1.567   1.760 -0.2049 -0.2983  0.6004
  175ACOH    C210295   5.387   1.512   1.791  0.2834  1.0879 -0.0377
  175ACOH    O110296   5.407   1.393   1.797  0.0778  1.0625 -0.2041
  175ACOH    C110297   5.501   1.603   1.816  0.4269 -0.2039 -0.5468
  175ACOH    H110298   5.480   1.700   1.771  0.1194  0.7356  1.5747
  175ACOH    H210299   5.590   1.548   1.784  0.4311 -2.2099  2.6895
  175ACOH    H310300   5.506   1.622   1.923  1.1010 -1.9344 -0.2433
  176ACOH    H410301   4.883   4.912   2.146 -0.5957 -0.1218  0.9876
  176ACOH    O210302   4.970   4.873   2.167 -0.0642  0.3640 -0.2988
  176ACOH    C210303   5.010   4.804   2.061  0.5624  0.0623  0.0866
  176ACOH    O110304   4.947   4.774   1.964 -0.2301  0.2154  0.5161
  176ACOH    C110305   5.127   4.726   2.090  0.4335 -0.0546  0.3605
  176ACOH    H110306   5.204   4.799   2.114  1.8727 -1.2786 -0.4623
  176ACOH    H210307   5.161   4.664   2.007  0.0400 -0.6581  0.6472
  176ACOH    H310308   5.120   4.655   2.173 -0.3421  0.2873  0.5900
  177ACOH    H410309   5.250   8.073   2.945 -1.0918 -0.2191 -0.0737
  177ACOH    O210310   5.219   8.035   2.861 -0.3448 -0.6215 -0.1722
  177ACOH    C210311   5.102   7.983   2.903  0.3307  0.2840 -0.6409
  177ACOH    O110312   5.079   7.924   3.007 -0.0689 -0.1433  0.5089
  177ACOH    C110313   5.024   7.956   2.779 -0.8421  0.0193  0.3794
  177ACOH    H110314   5.042   7.854   2.747  0.9899  0.9369 -1.5741
  177ACOH    H210315   5.053   8.017   2.694 -1.3996  0.2552  0.3573
  177ACOH    H310316   4.918   7.969   2.800 -1.3631 -2.1904 -0.7299
  178ACOH    H410317   6.689   9.713   0.066 -0.3982 -1.5920  0.4523
  178ACOH    O210318   6.695   9.710   0.163  0.6359 -0.2103  0.4546
  178ACOH    C210319   6.831   9.731   0.198  0.6821  1.2488 -0.8059
  178ACOH    O110320   6.919   9.754   0.118  0.1362  0.4581  0.1407
  178ACOH    C110321   6.856   9.725   0.346 -0.2555  0.0553 -0.1874
  178ACOH    H110322   6.942   9.664   0.375 -0.6825  0.1872  1.3908
  178ACOH    H210323   6.768   9.694   0.401 -0.0632 -3.9757 -1.9408
  178ACOH    H310324   6.875   9.830   0.367 -3.4880  0.5527  0.4424
  179ACOH    H410325   7.436   1.728   3.197 -0.3018 -0.1564 -2.6449
  179ACOH    O210326   7.366   1.795   3.189 -0.1653  0.4768  0.5378
  179ACOH    C210327   7.415   1.895   3.113 -0.3366 -0.1854 -0.5681
  179ACOH    O110328   7.532   1.913   3.099 -0.1080 -0.8274 -0.2264
  179ACOH    C110329   7.314   1.988   3.061 -0.8978  0.0769 -0.0766
  179ACOH    H110330   7.219   1.936   3.074 -0.4617 -1.0830 -1.3197
  179ACOH    H210331   7.331   2.009   2.955  0.9064 -0.0479  0.1781
  179ACOH    H310332   7.319   2.086   3.108 -3.0669  0.5865 -0.8628
  180ACOH    H410333   7.847   7.730   0.079  1.9223 -0.4585  0.9354
  180ACOH    O210334   7.785   7.778   0.137  0.5681 -0.7213 -0.2531
  180ACOH    C210335   7.801   7.729   0.259 -0.9419  0.4052 -0.0108
  180ACOH    O110336   7.862   7.633   0.298 -0.3510 -0.3447 -0.5077
  180ACOH    C110337   7.733   7.821   0.355 -0.8523 -0.9164 -0.0250
  180ACOH    H110338   7.704   7.762   0.441 -1.6971  0.0958  0.3967
  180ACOH    H210339   7.648   7.872   0.310  0.6914  2.3724  0.5826
  180ACOH    H310340   7.809   7.897   0.377 -0.4642 -1.2286 -0.2881
  181ACOH    H410341   7.889   8.408   0.566 -1.8142 -0.8890 -0.8933
  181ACOH    O210342   7.912   8.317   0.594  0.1132 -0.2779 -0.3696
  181ACOH    C210343   7.803   8.254   0.636  0.4744  0.6160  0.0821
  181ACOH    O110344   7.698   8.304   0.664  0.0174 -0.1230  0.5262
  181ACOH    C110345   7.830   8.110   0.662  0.1007 -0.4466  0.0187
  181ACOH    H110346   7.748   8.050   0.625  0.9936 -0.8873 -1.2578
  181ACOH    H210347   7.840   8.088   0.769 -0.0362 -1.9582 -0.2807
  181ACOH    H310348   7.922   8.078   0.614  0.9521  3.1122 -0.8493
  182ACOH    H410349   7.594   4.602   0.094  0.8238 -0.5850 -0.7494
  182ACOH    O210350   7.593   4.515   0.138 -0.5637 -0.3538 -0.2901
  182ACOH    C210351   7.559   4.540   0.266  0.4600 -0.0787 -0.5760
  182ACOH    O110352   7.492   4.624   0.322 -0.2104  0.8464 -0.3771
  182ACOH    C110353   7.588   4.407   0.328 -0.3941 -0.3852  0.1782
  182ACOH    H110354   7.628   4.426   0.427  0.1896  0.0240 -0.1376
  182ACOH    H210355   7.660   4.340   0.281  1.7122 -0.2207  3.0421
  182ACOH    H310356   7.492   4.356   0.339  0.0480 -0.8764  1.9575
  183ACOH    H410357   4.244   7.275   2.535 -1.7301  0.6664  0.5392
  183ACOH    O210358   4.189   7.223   2.474 -0.6342  0.0792  0.0177
  183ACOH    C210359   4.210   7.293   2.360  0.1516 -0.1913  0.0111
  183ACOH    O110360   4.264   7.404   2.356  0.1241 -0.1284 -0.2373
  183ACOH    C110361   4.131   7.239   2.247 -0.4238 -0.0139  0.0498
  183ACOH    H110362   4.205   7.194   2.183 -2.1485 -0.4301 -1.6955
  183ACOH    H210363   4.088   7.317   2.183  0.8455  1.0901  0.5220
  183ACOH    H310364   4.053   7.170   2.281  0.6700  0.0097  2.7656
  184ACOH    H410365   7.913   8.226   0.988 -0.6584  1.4723  3.5577
  184ACOH    O210366   7.826   8.264   0.966 -0.1466  0.6416 -0.3202
  184ACOH    C210367   7.740   8.210   1.056  0.5967 -0.8252 -0.0299
  184ACOH    O110368   7.771   8.129   1.140 -0.4107 -0.4607 -0.5082
  184ACOH    C110369   7.601   8.238   1.024  0.3016 -0.2061  0.2592
  184ACOH    H110370   7.596   8.321   0.953 -0.0342  0.7986  1.4443
  184ACOH    H210371   7.558   8.269   1.119  0.5515  1.6350 -0.2106
  184ACOH    H310372   7.547   8.155   0.978 -0.2222  0.5691 -0.5501
  185ACOH    H410373   4.570   9.286   3.311  0.1520  1.7757 -0.8288
  185ACOH    O210374   4.545   9.326   3.396  0.6740 -0.7974  0.5997
  185ACOH    C210375   4.650   9.308   3.482 -0.0765 -0.0284 -0.3747
  185ACOH    O110376   4.677   9.393   3.564  0.9950  0.3709  0.0715
  185ACOH    C110377   4.760   9.218   3.445 -0.1471 -0.2474 -0.1894
  185ACOH    H110378   4.806   9.183   3.536 -0.0867 -3.0871 -1.2679
  185ACOH    H210379   4.834   9.272   3.386  0.8057  1.5909  2.5816
  185ACOH    H310380   4.718   9.133   3.390  0.3293 -1.3364  1.1232
  186ACOH    H410381   4.530   4.825   2.630  0.0896 -1.4050 -0.3677
  186ACOH    O210382   4.620   4.862   2.637 -0.4754 -0.1312  0.3537
  186ACOH    C210383   4.661   4.878   2.506  0.7877 -0.0203  0.1156
  186ACOH    O110384   4.602   4.847   2.404 -0.1139 -0.1395  0.3050
  186ACOH    C110385   4.789   4.951   2.497  0.1292 -0.3173  0.5374
  186ACOH    H110386   4.845   4.956   2.404  1.5581  1.1223  1.4382
  186ACOH    H210387   4.851   4.913   2.579  1.3302 -0.1311 -0.2833
  186ACOH    H310388   4.766   5.056   2.517  1.2994  0.2031 -0.8169
  187ACOH    H410389   2.975   1.724   1.107 -2.3389 -2.2477  1.7136
  187ACOH    O210390   2.903   1.789   1.112  0.0925  0.6139  0.5950
  187ACOH    C210391   2.875   1.821   0.985 -0.3780  0.1647  0.3587
  187ACOH    O110392   2.910   1.769   0.881  0.2011  0.3987  0.4434
  187ACOH    C110393   2.768   1.921   0.995 -0.4249 -0.3073 -0.5499
  187ACOH    H110394   2.684   1.879   1.050 -0.5837 -1.4202 -1.6293
  187ACOH    H210395   2.735   1.947   0.895  1.4661 -0.8367 -1.3390
  187ACOH    H310396   2.817   2.009   1.037  1.4450 -2.1750  1.2631
  188ACOH    H410397   8.709   4.027   3.857 -4.9406  2.6090 -0.1498
  188ACOH    O210398   8.734   4.053   3.948  0.2104 -0.5565 -0.4401
  188ACOH    C210399   8.625   4.021   4.025 -0.6389  0.1351 -0.5254
  188ACOH    O110400   8.557   3.919   4.013 -0.4837 -0.3523 -0.0030
  188ACOH    C110401   8.627   4.086   4.156  0.2522  0.5140  0.2733
  188ACOH    H110402   8.653   4.190   4.137 -1.1927  1.1353  1.6201
  188ACOH    H210403   8.709   4.041   4.212  0.2655 -0.5190 -0.5565
  188ACOH    H310404   8.534   4.080   4.213  0.3803 -0.6211  0.3899
  189ACOH    H410405   6.905   9.458   0.690  1.1098 -0.3507 -0.6459
  189ACOH    O210406   6.933   9.543   0.726 -0.1957 -0.0882 -0.2177
  189ACOH    C210407   7.065   9.532   0.706 -0.4822 -0.3561  0.7084
  189ACOH    O110408   7.127   9.449   0.638  0.5568 -0.0884 -0.3375
  189ACOH    C110409   7.152   9.626   0.785 -0.0094 -0.5379  0.0636
  189ACOH    H110410   7.194   9.573   0.870  1.9428 -0.5973 -0.9220
  189ACOH    H210411   7.095   9.715   0.811 -1.6669 -1.5465 -0.0323
  189ACOH    H310412   7.233   9.671   0.727 -0.4024  0.1792  0.0642
  190ACOH    H410413   0.257   5.001   3.840 -0.5471  0.6612  0.8121
  190ACOH    O210414   0.336   4.995   3.897 -0.0850  0.0619  0.1209
  190ACOH    C210415   0.342   5.119   3.952  0.3883  0.5398 -0.6628
  190ACOH    O110416   0.253   5.196   3.965 -0.2271 -0.0698  1.0381
  190ACOH    C110417   0.488   5.153   3.983 -0.0683  0.4519 -0.3815
  190ACOH    H110418   0.528   5.149   3.881 -0.2196  0.6914 -0.4505
  190ACOH    H210419   0.541   5.085   4.049 -2.7660  0.4232  1.8402
  190ACOH    H310420   0.499   5.254   4.021  2.1345 -0.8489  2.5342
  191ACOH    H410421   0.765   8.022   0.442 -0.2367 -1.3723 -1.0524
  191ACOH    O210422   0.854   8.013   0.480 -0.3174  0.4363 -0.3560
  191ACOH    C210423   0.932   7.965   0.379 -0.0023 -0.1260 -0.4297
  191ACOH    O110424   0.930   8.012   0.270 -0.2336 -0.1358  0.4488
  191ACOH    C110425   1.052   7.893   0.437 -0.1564  0.4894 -0.0358
  191ACOH    H110426   1.080   7.938   0.532  3.3089 -2.1032  0.2641
  191ACOH    H210427   1.134   7.918   0.370 -0.4315  0.5943 -0.3358
  191ACOH    H310428   1.041   7.787   0.461  0.1050  0.7102  1.0725
  192ACOH    H410429   7.703   4.055   0.233  0.5001  1.3111  1.0943
  192ACOH    O210430   7.617   4.069   0.277 -0.2196  0.2252  0.0378
  192ACOH    C210431   7.613   4.003   0.394  0.2162  0.0882 -0.0534
  192ACOH    O110432   7.702   3.932   0.444  0.5378  0.0852 -0.0684
  192ACOH    C110433   7.492   4.033   0.476 -0.9638 -0.3007 -0.0659
  192ACOH    H110434   7.515   4.092   0.564 -0.2123 -0.5491 -0.0966
  192ACOH    H210435   7.454   3.936   0.507  0.8440 -1.1176 -0.3804
  192ACOH    H310436   7.418   4.084   0.413  0.2991  0.2152 -1.1540
  193ACOH    H410437   1.063   9.632   2.433  1.5762 -0.2969  1.3460
  193ACOH    O210438   1.017   9.553   2.467  0.2310 -0.0926  0.0415
  193ACOH    C210439   0.888   9.586   2.497  0.1388 -0.1849  0.0230
  193ACOH    O110440   0.841   9.696   2.494  0.9712 -0.0403  1.0570
  193ACOH    C110441   0.802   9.475   2.547 -0.2162  0.8444 -0.0883
  193ACOH    H110442   0.850   9.378   2.536 -0.7646  0.1624  3.0277
  193ACOH    H210443   0.723   9.461   2.473 -0.8942 -0.1478  0.8157
  193ACOH    H310444   0.753   9.482   2.644 -0.0912  1.2840 -0.0554
  194ACOH    H410445   6.108   0.014   2.879 -1.4775 -1.4563 -1.3904
  194ACOH    O210446   6.177  -0.054   2.864 -0.4705 -0.8197  0.1961
  194ACOH    C210447   6.135  -0.173   2.914 -1.1263 -0.5408  0.2280
  194ACOH    O110448   6.030  -0.197   2.965  0.0768  1.2047 -0.2573
  194ACOH    C110449   6.228  -0.280   2.864  0.7003  0.1977 -0.0112
  194ACOH    H110450   6.204  -0.372   2.917  0.8211 -0.1119 -0.4922
  194ACOH    H210451   6.336  -0.267   2.874  0.7851  1.9851 -2.6200
  194ACOH    H310452   6.215  -0.289   2.756 -2.0741  1.4834  0.1726
  195ACOH    H410453   7.826   3.749   3.950 -1.2579 -1.0143 -1.5383
  195ACOH    O210454   7.746   3.770   4.001 -0.0187  0.2511 -0.0576
  195ACOH    C210455   7.759   3.678   4.099 -0.1143  0.5084 -0.2058
  195ACOH    O110456   7.834   3.584   4.104  0.4252  0.0968  0.4721
  195ACOH    C110457   7.666   3.702   4.218 -0.5714  0.3133  0.4333
  195ACOH    H110458   7.699   3.657   4.312 -1.7692  0.3095  0.8641
  195ACOH    H210459   7.562   3.670   4.207  0.2818 -2.9806  1.2108
  195ACOH    H310460   7.660   3.807   4.245  1.3964 -0.0709  2.5890
  196ACOH    H410461   2.875   9.344   3.007  0.4458 -0.1834 -3.4117
  196ACOH    O210462   2.970   9.336   3.027 -0.1649 -0.3856 -0.2483
  196ACOH    C210463   3.019   9.459   3.061  0.1214 -0.1312 -0.2453
  196ACOH    O110464   2.972   9.570   3.039 -0.5483  0.3092 -0.1416
  196ACOH    C110465   3.148   9.437   3.127  0.0968 -0.5871  0.2419
  196ACOH    H110466   3.157   9.481   3.226 -2.3106 -0.9499  0.6513
  196ACOH    H210467   3.228   9.478   3.065 -1.2921  1.3284 -0.3357
  196ACOH    H310468   3.163   9.330   3.144  0.5613 -0.7951 -1.3534
  197ACOH    H410469   7.683   8.143   0.289  2.7553  3.3260  3.1019
  197ACOH    O210470   7.600   8.182   0.321 -0.2130 -0.3764  0.2725
  197ACOH    C210471   7.594   8.313   0.301  0.1189 -0.1279 -0.4743
  197ACOH    O110472   7.681   8.386   0.255 -0.7269  0.0710 -0.1396
  197ACOH    C110473   7.473   8.374   0.359 -0.0094 -0.0523 -0.6900
  197ACOH    H110474   7.484   8.478   0.389 -0.1912 -0.9351  2.6599
  197ACOH    H210475   7.424   8.315   0.437  0.0741  0.2713 -0.3938
  197ACOH    H310476   7.414   8.374   0.267  0.7322  0.3958 -1.1714
  198ACOH    H410477   5.493   7.143   3.201  0.4028 -0.2347  0.3180
  198ACOH    O210478   5.510   7.176   3.291 -0.3478 -0.0039  0.3730
  198ACOH    C210479   5.638   7.205   3.291 -0.2104  0.2699 -1.1539
  198ACOH    O110480   5.724   7.147   3.231  0.0319 -0.1761 -0.2445
  198ACOH    C110481   5.655   7.278   3.420  0.5929  0.0752  1.0869
  198ACOH    H110482   5.762   7.295   3.423  0.4439  1.6678 -0.8812
  198ACOH    H210483   5.615   7.217   3.501  0.4032 -0.9900  0.2025
  198ACOH    H310484   5.605   7.375   3.422 -0.4695 -0.4391  0.2450
  199ACOH    H410485   7.092   7.922   2.493  2.3346  0.1118  1.9988
  199ACOH    O210486   7.041   7.884   2.566 -0.1910 -0.1847  0.1503
  199ACOH    C210487   7.075   7.751   2.567 -0.2039 -0.4497 -0.1117
  199ACOH    O110488   7.191   7.711   2.567  0.4269  0.2433 -0.6204
  199ACOH    C110489   6.968   7.665   2.617 -0.5988  0.5302 -0.5882
  199ACOH    H110490   6.918   7.628   2.528 -0.1534 -1.3131 -0.0974
  199ACOH    H210491   6.897   7.714   2.684 -0.7242 -0.8966  0.3548
  199ACOH    H310492   7.019   7.585   2.671 -1.6565  0.5929  0.5339
  200ACOH    H410493   0.180   8.827   3.051  0.3339 -1.9150 -1.7752
  200ACOH    O210494   0.236   8.883   2.995 -0.1219  0.2800 -0.1113
  200ACOH    C210495   0.173   8.893   2.881 -0.5939  0.0899 -0.1485
  200ACOH    O110496   0.113   8.796   2.834  0.4690 -0.0753  0.0236
  200ACOH    C110497   0.210   9.016   2.805  0.1638 -0.5583 -1.1187
  200ACOH    H110498   0.136   9.094   2.824  1.1242 -0.4159  2.3038
  200ACOH    H210499   0.215   8.987   2.700 -2.3380  2.7051 -2.2493
  200ACOH    H310500   0.309   9.047   2.841 -0.3389  0.0684 -0.2626
  201ACOH    H410501   7.455   1.697   2.631 -0.5028  0.2829  3.1366
  201ACOH    O210502   7.452   1.602   2.648  0.6487 -0.3340  0.1636
  201ACOH    C210503   7.435   1.583   2.779 -0.1855  0.2032  0.0132
  201ACOH    O110504   7.448   1.652   2.876 -0.4203  0.4475  0.0680
  201ACOH    C110505   7.408   1.437   2.790  0.3107 -0.6629  0.1949
  201ACOH    H110506   7.448   1.395   2.882 -0.0535  0.1261  0.7139
  201ACOH    H210507   7.440   1.376   2.706 -0.9819  2.0691 -2.3801
  201ACOH    H310508   7.300   1.426   2.792  0.3560 -1.7168 -1.5010
  202ACOH    H410509   7.288   9.388   3.716 -1.8691 -2.9887 -2.0963
  202ACOH    O210510   7.300   9.318   3.783  0.3713 -0.4722  0.2323
  202ACOH    C210511   7.385   9.234   3.730 -0.1008 -0.2370  0.4157
  202ACOH    O110512   7.459   9.256   3.634 -0.9003  0.1401 -0.2988
  202ACOH    C110513   7.408   9.110   3.807 -0.3576  0.5671  0.1189
  202ACOH    H110514   7.369   9.032   3.741  0.8636 -0.0191  0.0669
  202ACOH    H210515   7.350   9.104   3.899  0.1946  0.9734  0.4961
  202ACOH    H310516   7.514   9.102   3.835 -0.1734 -0.5139 -0.8517
  203ACOH    H410517   7.076   7.837   1.998 -1.5948 -0.4016 -1.7167
  203ACOH    O210518   7.153   7.822   1.941  0.0472  0.2836  0.2623
  203ACOH    C210519   7.256   7.875   1.996 -0.3805 -0.1383 -0.1765
  203ACOH    O110520   7.264   7.926   2.103  0.0816 -0.2677 -0.6745
  203ACOH    C110521   7.368   7.872   1.902  0.1929 -0.0805 -0.5104
  203ACOH    H110522   7.386   7.976   1.875  0.4539 -0.1310 -0.5280
  203ACOH    H210523   7.345   7.817   1.811  0.6628 -0.4036 -0.4318
  203ACOH    H310524   7.457   7.826   1.944 -0.2651 -1.6541 -1.2393
  204ACOH    H410525   3.862   5.397   3.255  0.6815 -0.3388  0.3507
  204ACOH    O210526   3.815   5.404   3.340 -0.1740 -0.2672 -0.1198
  204ACOH    C210527   3.861   5.300   3.412 -0.0788  0.2348  0.1215
  204ACOH    O110528   3.957   5.230   3.386  0.4094 -0.1640 -0.3135
  204ACOH    C110529   3.802   5.295   3.544 -0.0714 -0.2438  0.0992
  204ACOH    H110530   3.699   5.259   3.539 -0.5585  1.4127 -2.7898
  204ACOH    H210531   3.804   5.394   3.591 -0.4838  0.1311 -0.6609
  204ACOH    H310532   3.851   5.232   3.618 -1.1459 -3.3413 -1.7134
  205ACOH    H410533   8.019   7.019   0.721  0.0807  0.8950  0.4147
  205ACOH    O210534   7.973   6.979   0.796 -0.2123  0.9639  0.2705
  205ACOH    C210535   8.002   6.845   0.797 -0.5951 -0.2217 -0.5182
  205ACOH    O110536   8.029   6.787   0.694 -0.7569 -0.5212 -0.5553
  205ACOH    C110537   7.956   6.783   0.927  0.1277 -0.3173 -0.7193
  205ACOH    H110538   7.961   6.674   0.934  0.2301 -0.2526  0.3725
  205ACOH    H210539   7.849   6.801   0.936  0.1704 -0.3546 -0.1530
  205ACOH    H310540   8.004   6.823   1.016 -2.5730  0.9451  0.2313
  206ACOH    H410541   5.223   0.499   2.956 -1.2291  0.8942 -1.2805
  206ACOH    O210542   5.294   0.485   2.891  0.1722  0.0647  0.4075
  206ACOH    C210543   5.385   0.392   2.929 -0.7835 -0.0972  0.2150
  206ACOH    O110544   5.436   0.382   3.041  0.4870  0.0592 -0.5145
  206ACOH    C110545   5.437   0.315   2.808 -0.6024 -0.0750 -0.0379
  206ACOH    H110546   5.447   0.387   2.727 -0.9161  1.1974  1.0436
  206ACOH    H210547   5.364   0.243   2.772  0.6469  0.9193 -4.8397
  206ACOH    H310548   5.534   0.268   2.827  0.0317  0.0940 -2.6630
  207ACOH    H410549   1.915   2.995   1.063 -1.1261  0.1931 -0.2716
  207ACOH    O210550   1.942   2.929   0.996 -0.4074  0.1901  0.0170
  207ACOH    C210551   1.885   2.811   1.022 -0.0969  0.1223  0.5965
  207ACOH    O110552   1.787   2.792   1.094  0.2698  0.1922 -0.7461
  207ACOH    C110553   1.929   2.704   0.935 -0.2208 -0.2729  0.1523
  207ACOH    H110554   1.965   2.620   0.995 -0.8650 -2.6654 -2.6816
  207ACOH    H210555   2.006   2.736   0.865  1.1609 -0.1576  1.6795
  207ACOH    H310556   1.843   2.663   0.882 -0.1963 -0.2757  0.1154
  208ACOH    H410557   4.981   3.719   1.362  2.7626 -2.2552  0.5762
  208ACOH    O210558   4.966   3.752   1.452 -0.4209  0.4681 -0.8490
  208ACOH    C210559   4.969   3.887   1.445 -0.0161 -0.0457  0.4508
  208ACOH    O110560   5.042   3.941   1.367 -0.6611  0.3774  0.2378
  208ACOH    C110561   4.926   3.950   1.573  0.3263  0.4029  0.3230
  208ACOH    H110562   4.962   4.052   1.588 -1.7683  0.6983  3.7147
  208ACOH    H210563   4.975   3.897   1.654  0.1016 -1.1424 -0.5307
  208ACOH    H310564   4.819   3.936   1.587  0.3842 -0.8047 -0.4053
  209ACOH    H410565   7.756   5.730   2.316 -0.5562 -0.1910 -0.0954
  209ACOH    O210566   7.707   5.762   2.238 -0.0380 -0.6176 -0.6002
  209ACOH    C210567   7.797   5.842   2.182 -0.1582 -0.1008  0.4240
  209ACOH    O110568   7.909   5.809   2.146 -0.2320  0.1405 -0.2663
  209ACOH    C110569   7.721   5.927   2.086 -0.1303  0.6971  0.3059
  209ACOH    H110570   7.615   5.938   2.107 -0.3671 -2.0978  0.6658
  209ACOH    H210571   7.738   5.894   1.983 -1.4503 -0.3825  0.4248
  209ACOH    H310572   7.771   6.024   2.090  1.6413 -0.1701 -0.0829
  210ACOH    H410573   6.516   7.742   3.419 -2.4789  0.4988  0.1235
  210ACOH    O210574   6.557   7.758   3.505 -0.2811 -0.3231 -0.7308
  210ACOH    C210575   6.455   7.820   3.566 -0.1477 -0.2961 -0.3677
  210ACOH    O110576   6.353   7.859   3.516  0.5465  0.5918 -0.0918
  210ACOH    C110577   6.482   7.849   3.707 -0.0624 -0.4005  0.7590
  210ACOH    H110578   6.562   7.923   3.713 -0.4255 -0.0390  1.1689
  210ACOH    H210579   6.499   7.754   3.757 -1.1310 -1.2987 -0.5699
  210ACOH    H310580   6.397   7.899   3.755  0.6745  1.7282 -0.0779
  211ACOH    H410581   7.678   4.963   3.946 -0.4368  0.1162  0.1139
  211ACOH    O210582   7.620   4.992   4.018 -0.7483  0.0794 -0.1245
  211ACOH    C210583   7.625   4.907   4.121 -0.2680 -0.5051  0.6715
  211ACOH    O110584   7.649   4.792   4.112 -0.6807 -0.6575  0.2053
  211ACOH    C110585   7.572   4.977   4.239  0.1513  0.1531  0.6432
  211ACOH    H110586   7.480   5.030   4.212 -1.1873 -1.1129  2.5328
  211ACOH    H210587   7.636   5.056   4.277 -1.0030  1.1288  0.6065
  211ACOH    H310588   7.543   4.906   4.317  0.4813  1.2912  1.8248
  212ACOH    H410589   9.289   3.323   1.496  0.4228  0.7315 -0.7128
  212ACOH    O210590   9.267   3.396   1.557 -0.1254  0.2222 -0.3007
  212ACOH    C210591   9.222   3.350   1.668 -0.7693 -0.5054  0.0420
  212ACOH    O110592   9.231   3.238   1.711  0.1649 -0.4711  0.1724
  212ACOH    C110593   9.169   3.457   1.748 -0.4654  0.1779 -0.2243
  212ACOH    H110594   9.119   3.530   1.684 -0.6830  1.9881  1.9672
  212ACOH    H210595   9.257   3.493   1.801 -0.1607  0.9618 -1.2422
  212ACOH    H310596   9.099   3.418   1.821  0.4925 -1.4362 -0.1323
  213ACOH    H410597   4.038   2.279   3.252 -0.1727 -0.7317 -0.2374
  213ACOH    O210598   4.133   2.280   3.273 -0.3257  0.2146  0.4024
  213ACOH    C210599   4.151   2.300   3.401  0.2375  0.8356 -0.3749
  213ACOH    O110600   4.064   2.329   3.478  0.3598  0.0058  0.0075
  213ACOH    C110601   4.294   2.280   3.435  0.6111 -0.5221  0.0817
  213ACOH    H110602   4.356   2.361   3.396  2.3209 -1.7045  0.3127
  213ACOH    H210603   4.328   2.189   3.386  2.3451 -0.6911  1.5517
  213ACOH    H310604   4.310   2.275   3.543  3.3486  0.0464 -0.2693
  214ACOH    H410605   5.254   9.714   3.760  0.8518  0.6571 -1.9374
  214ACOH    O210606   5.328   9.651   3.755 -0.0542 -0.5877 -0.0914
  214ACOH    C210607   5.340   9.615   3.629  0.6237 -0.2281  0.2021
  214ACOH    O110608   5.255   9.613   3.542 -0.1682  0.1286 -0.2506
  214ACOH    C110609   5.476   9.552   3.613 -0.3454 -0.6952 -0.0410
  214ACOH    H110610   5.543   9.615   3.555 -1.2359 -1.6835 -2.2268
  214ACOH    H210611   5.461   9.458   3.558 -1.7376 -0.5970  0.1429
  214ACOH    H310612   5.509   9.529   3.714 -1.8491  0.8354  0.8169
  215ACOH    H410613   8.149   4.935   1.089  1.1485 -0.3618  0.2686
  215ACOH    O210614   8.105   4.866   1.142  0.5493 -0.0511  0.1856
  215ACOH    C210615   8.062   4.935   1.245 -0.0540  0.1124  0.0242
  215ACOH    O110616   8.054   5.058   1.256 -0.2242  0.1039  0.0204
  215ACOH    C110617   7.986   4.861   1.347 -0.2252  0.2516 -0.3782
  215ACOH    H110618   8.035   4.767   1.372  0.3931  0.8010  0.5358
  215ACOH    H210619   7.888   4.837   1.308  0.7803 -1.2352 -2.0497
  215ACOH    H310620   7.978   4.925   1.435 -0.2790  1.9533 -1.6024
  216ACOH    H410621   8.533   0.252   2.166  0.6189  1.2814  1.6260
  216ACOH    O210622   8.490   0.211   2.243 -0.8584 -0.5372 -0.0949
  216ACOH    C210623   8.573   0.106   2.274 -0.4117  0.3264 -0.2053
  216ACOH    O110624   8.689   0.082   2.247 -0.1890  0.1884  0.9210
  216ACOH    C110625   8.493   0.013   2.359 -0.0997  0.2062  0.0942
  216ACOH    H110626   8.566  -0.034   2.425 -0.1764 -0.4668 -0.2939
  216ACOH    H210627   8.439  -0.061   2.299 -0.1181  0.0591  0.2934
  216ACOH    H310628   8.421   0.065   2.422 -0.3630 -0.5937  0.4759
  217ACOH    H410629   4.477   2.586   0.189  0.8149 -0.0819  0.2720
  217ACOH    O210630   4.474   2.522   0.115 -0.2585  0.2574  0.0058
  217ACOH    C210631   4.449   2.402   0.168 -0.4028 -0.0507 -0.0899
  217ACOH    O110632   4.413   2.384   0.282  0.0227  0.0239 -0.4656
  217ACOH    C110633   4.466   2.287   0.073  0.5965 -0.5531 -0.3814
  217ACOH    H110634   4.511   2.199   0.118 -0.3820 -0.4039  0.9280
  217ACOH    H210635   4.522   2.316  -0.016 -0.1062  0.7972 -0.4045
  217ACOH    H310636   4.364   2.260   0.045  1.1132 -1.2720 -1.5641
  218ACOH    H410637   7.009   4.386   0.602 -0.3409  1.2560  0.0498
  218ACOH    O210638   7.040   4.413   0.514  0.0370 -0.0971 -0.2461
  218ACOH    C210639   7.156   4.352   0.483 -0.3698 -0.1036 -0.1907
  218ACOH    O110640   7.218   4.273   0.551  0.1038 -0.2529  0.6137
  218ACOH    C110641   7.221   4.411   0.364  0.5298 -0.3478  0.1749
  218ACOH    H110642   7.246   4.339   0.286 -2.0757  0.5733 -1.5695
  218ACOH    H210643   7.314   4.455   0.401  0.3178 -0.3716  0.7395
  218ACOH    H310644   7.163   4.487   0.313 -0.5911 -0.8451  0.6834
  219ACOH    H410645   5.009   8.304   1.450 -1.7011 -0.5218  0.7703
  219ACOH    O210646   5.019   8.386   1.500 -0.0270 -0.3337  0.1478
  219ACOH    C210647   4.891   8.429   1.521 -0.3869  0.1220 -0.1617
  219ACOH    O110648   4.787   8.365   1.514 -0.4466 -0.0246  0.2960
  219ACOH    C110649   4.900   8.566   1.563  0.7961  0.5460  0.3891
  219ACOH    H110650   4.899   8.575   1.672 -1.3589  1.6586  0.3176
  219ACOH    H210651   4.817   8.627   1.528  0.5265  0.3776  0.7287
  219ACOH    H310652   4.992   8.614   1.530  0.3676  0.7539 -0.5255
  220ACOH    H410653   7.306   8.783   0.972 -0.7615 -0.6549  0.2956
  220ACOH    O210654   7.304   8.698   0.924 -0.4266 -0.2649 -0.4194
  220ACOH    C210655   7.370   8.711   0.809 -0.2029 -0.3514  0.4979
  220ACOH    O110656   7.399   8.816   0.751 -0.1994  0.7602  0.5852
  220ACOH    C110657   7.392   8.590   0.731  0.4478 -0.3691  0.5138
  220ACOH    H110658   7.374   8.603   0.624  0.1923 -0.6099  0.5263
  220ACOH    H210659   7.320   8.514   0.761 -0.8849 -0.3270 -2.4689
  220ACOH    H310660   7.494   8.551   0.741  0.1949 -0.6297  2.1539
  221ACOH    H410661   6.601   7.652   2.301  0.2052  0.1002  2.3710
  221ACOH    O210662   6.542   7.577   2.321 -0.4431 -0.1422 -0.2478
  221ACOH    C210663   6.540   7.479   2.222  0.3227 -0.4846 -0.4304
  221ACOH    O110664   6.606   7.473   2.121  0.9619 -0.2933 -0.5673
  221ACOH    C110665   6.436   7.378   2.248  0.4876 -0.5131 -0.4317
  221ACOH    H110666   6.450   7.344   2.351 -0.5967  1.2809  0.3262
  221ACOH    H210667   6.434   7.293   2.179  0.0399 -0.3482 -0.6174
  221ACOH    H310668   6.336   7.421   2.243  1.3216  1.6195  0.5430
  222ACOH    H410669   8.042   3.288   1.975  1.1485  1.8799 -0.5708
  222ACOH    O210670   8.032   3.296   2.072 -0.3355 -0.9633 -0.4206
  222ACOH    C210671   7.980   3.185   2.124 -0.0455 -0.0024 -0.1639
  222ACOH    O110672   7.950   3.080   2.064 -0.7032  0.4110  0.0748
  222ACOH    C110673   7.958   3.205   2.269  0.0487 -0.7558  0.8635
  222ACOH    H110674   7.936   3.117   2.330 -0.4302  0.4445  2.4683
  222ACOH    H210675   7.879   3.278   2.284  0.0728 -0.0360 -2.1923
  222ACOH    H310676   8.044   3.259   2.310  0.0854  0.4995 -0.8078
  223ACOH    H410677   5.195   0.087   2.149 -0.2723 -1.3373 -1.1561
  223ACOH    O210678   5.280   0.050   2.179  0.1969  0.3349 -0.3399
  223ACOH    C210679   5.336   0.122   2.283  0.1343 -0.6234 -0.3394
  223ACOH    O110680   5.286   0.220   2.336  0.2040  0.5826  0.4605
  223ACOH    C110681   5.463   0.052   2.330 -0.2775  0.0062  0.1901
  223ACOH    H110682   5.441  -0.001   2.422 -1.9461  1.7909  0.8514
  223ACOH    H210683   5.547   0.122   2.331 -1.4434  1.6304 -3.9319
  223ACOH    H310684   5.473  -0.028   2.257 -1.9946 -1.3727  1.4181
  224ACOH    H410685   8.142   4.556   3.878 -0.1189  0.4488 -1.4976
  224ACOH    O210686   8.050   4.525   3.878 -0.0088  0.0803 -0.2193
  224ACOH    C210687   8.021   4.490   4.006  0.2274  0.0180  0.0757
  224ACOH    O110688   8.099   4.489   4.098 -0.0494  0.5976 -0.3007
  224ACOH    C110689   7.882   4.446   4.018  0.0641 -0.4850  0.8317
  224ACOH    H110690   7.862   4.402   4.116  0.5567 -0.0142  1.1491
  224ACOH    H210691   7.875   4.365   3.946 -3.7080 -0.7220  1.3386
  224ACOH    H310692   7.809   4.523   3.991  0.0738 -0.2651  1.4164
  225ACOH    H410693   5.872   6.887   2.711  2.2260  0.5834 -0.8825
  225ACOH    O210694   5.871   6.804   2.660  0.1721  0.4384 -0.6567
  225ACOH    C210695   5.986   6.754   2.696 -0.4531  0.1874  0.0794
  225ACOH    O110696   6.049   6.791   2.797 -0.6883  0.0141 -0.0299
  225ACOH    C110697   5.996   6.611   2.645 -0.3677 -0.8922  0.3716
  225ACOH    H110698   6.093   6.586   2.602 -0.2214  1.9810 -1.1224
  225ACOH    H210699   5.915   6.595   2.573  0.7572  0.5612 -1.2822
  225ACOH    H310700   5.980   6.547   2.731  1.6546 -1.6182  0.2280
  226ACOH    H410701   7.650   1.367   1.770 -1.4739 -0.1534  0.8529
  226ACOH    O210702   7.621   1.435   1.708 -0.3167 -0.1659  0.2817
  226ACOH    C210703   7.556   1.374   1.608  0.4132  0.3177 -0.1838
  226ACOH    O110704   7.511   1.259   1.602  0.0617 -0.2859  0.1287
  226ACOH    C110705   7.515   1.468   1.499  0.6675  0.0543 -0.2688
  226ACOH    H110706   7.595   1.536   1.472 -0.5122  1.1631 -0.9815
  226ACOH    H210707   7.428   1.523   1.534  0.2374 -0.9834  0.3165
  226ACOH    H310708   7.486   1.410   1.411  1.6400 -0.1567 -0.4544
  227ACOH    H410709   6.293   7.747   2.540  1.3009 -2.8795 -1.4662
  227ACOH    O210710   6.309   7.791   2.455  0.0059  0.0778 -0.2386
  227ACOH    C210711   6.260   7.712   2.358  0.0636 -0.4374 -0.3405
  227ACOH    O110712   6.192   7.615   2.372 -0.0354 -0.0503  0.1003
  227ACOH    C110713   6.294   7.767   2.222 -0.1058  0.2306 -0.6301
  227ACOH    H110714   6.337   7.686   2.163 -0.3506  0.3715 -0.9979
  227ACOH    H210715   6.370   7.845   2.218 -0.7722  0.8918 -0.4293
  227ACOH    H310716   6.200   7.796   2.177 -0.6428 -2.9492 -1.7092
  228ACOH    H410717   2.853   3.775   1.110  0.6098 -0.3572 -1.1385
  228ACOH    O210718   2.817   3.691   1.143  0.8076  0.1864  0.4952
  228ACOH    C210719   2.874   3.592   1.073 -0.3415  0.5838  0.3197
  228ACOH    O110720   2.981   3.605   1.011 -0.2928 -0.1256  0.5133
  228ACOH    C110721   2.793   3.473   1.059  0.0474  0.2291  0.2362
  228ACOH    H110722   2.726   3.473   0.973 -1.0009  0.4770  1.0365
  228ACOH    H210723   2.735   3.477   1.151 -0.8167 -0.5955 -0.2672
  228ACOH    H310724   2.840   3.375   1.053  0.1019  0.1177  2.1578
  229ACOH    H410725   9.329   7.403   2.349  0.3614 -0.6231 -1.3600
  229ACOH    O210726   9.256   7.339   2.337  0.0236 -0.6192  0.4764
  229ACOH    C210727   9.288   7.247   2.426 -0.3992 -0.6698 -0.3667
  229ACOH    O110728   9.398   7.226   2.474  0.2323 -0.8075  0.3246
  229ACOH    C110729   9.178   7.155   2.466 -1.0766  0.2518  0.4260
  229ACOH    H110730   9.203   7.051   2.444 -1.2277  0.3548 -0.2697
  229ACOH    H210731   9.097   7.180   2.397 -0.5941 -0.4345 -0.4054
  229ACOH    H310732   9.160   7.180   2.570 -1.1817  0.5020  0.3481
  230ACOH    H410733   7.880   7.296   2.155 -0.3280 -1.1083 -0.9846
  230ACOH    O210734   7.791   7.328   2.135 -0.1486 -0.0584 -0.1382
  230ACOH    C210735   7.737   7.364   2.256  0.3244  0.0295 -0.7809
  230ACOH    O110736   7.785   7.326   2.362  0.3733  0.3262  0.1222
  230ACOH    C110737   7.604   7.423   2.251  0.1936  0.2212 -0.0275
  230ACOH    H110738   7.531   7.376   2.316 -0.5639  1.7739  0.2681
  230ACOH    H210739   7.566   7.423   2.149  0.1772  0.4658 -0.0213
  230ACOH    H310740   7.614   7.530   2.271 -1.7573  0.5094 -0.4899
  231ACOH    H410741   7.077   8.223   3.527  0.3270 -1.0408 -1.1713
  231ACOH    O210742   6.998   8.177   3.559  0.0763  0.3951  0.3220
  231ACOH    C210743   6.944   8.113   3.453  0.6045  0.2443  0.2585
  231ACOH    O110744   6.962   8.150   3.340  0.3165 -0.5360  0.0650
  231ACOH    C110745   6.837   8.017   3.487  0.6609  0.2446 -0.4170
  231ACOH    H110746   6.810   7.953   3.403 -1.0640  0.6027 -0.1519
  231ACOH    H210747   6.755   8.078   3.523 -0.2223 -0.2848 -1.5024
  231ACOH    H310748   6.877   7.956   3.568 -0.0139  0.6365  0.2147
  232ACOH    H410749   7.281   6.512   3.941  1.2628  0.5133  0.5813
  232ACOH    O210750   7.288   6.549   3.851 -0.0053 -0.0166  0.2543
  232ACOH    C210751   7.181   6.505   3.783 -0.2687  0.6146  0.0694
  232ACOH    O110752   7.114   6.405   3.817 -0.0523  0.0465  0.9442
  232ACOH    C110753   7.192   6.547   3.645 -0.0445  0.2382  0.6198
  232ACOH    H110754   7.295   6.549   3.609 -0.4338  1.0073 -0.4544
  232ACOH    H210755   7.141   6.643   3.633  0.5221  0.5883  1.0048
  232ACOH    H310756   7.137   6.488   3.573  0.3200  1.0536 -0.3377
  233ACOH    H410757   8.096   4.083   3.971 -1.3011  1.3785  0.3930
  233ACOH    O210758   8.103   4.131   3.887 -0.0417  0.1787 -0.2076
  233ACOH    C210759   7.978   4.124   3.837 -0.0441 -0.1411  0.2183
  233ACOH    O110760   7.886   4.054   3.882 -0.4466 -0.0824 -0.0390
  233ACOH    C110761   7.975   4.214   3.718 -0.2157  0.7944 -0.0811
  233ACOH    H110762   8.069   4.269   3.706 -0.5745  1.1360 -1.4059
  233ACOH    H210763   7.885   4.274   3.725 -0.5457  0.2232  0.6609
  233ACOH    H310764   7.982   4.154   3.627 -0.5417 -0.2201  0.5498
  234ACOH    H410765   4.725   8.811   3.466  0.7613  1.4310 -0.7150
  234ACOH    O210766   4.811   8.765   3.468  0.0855  0.1519 -0.4563
  234ACOH    C210767   4.889   8.806   3.571  0.4972  0.7360 -0.4867
  234ACOH    O110768   4.869   8.912   3.624  0.3217 -0.6712 -0.4321
  234ACOH    C110769   5.015   8.728   3.578 -0.2628 -0.1007 -0.6422
  234ACOH    H110770   5.093   8.779   3.521 -1.0174  0.0797 -1.5183
  234ACOH    H210771   4.999   8.628   3.537 -0.3062  0.2651 -1.5182
  234ACOH    H310772   5.048   8.706   3.680  0.9943  0.1312 -0.9869
  235ACOH    H410773   4.777   0.538   0.764  0.3639 -0.5475  0.1109
  235ACOH    O210774   4.813   0.453   0.735  0.8843 -0.3535  0.1746
  235ACOH    C210775   4.889   0.399   0.831 -0.5082 -0.7665 -0.1485
  235ACOH    O110776   4.890   0.433   0.950  0.7309  0.3386  0.2011
  235ACOH    C110777   4.968   0.287   0.776 -0.8779  0.5502 -0.2390
  235ACOH    H110778   4.946   0.189   0.819  1.9432 -1.5895 -3.4197
  235ACOH    H210779   5.075   0.303   0.784 -0.8784  0.4247  0.0259
  235ACOH    H310780   4.949   0.294   0.669 -0.9279  1.9700 -0.1469
  236ACOH    H410781   3.706   5.184   0.013 -0.2944  0.7420  0.3104
  236ACOH    O210782   3.756   5.252  -0.035  0.5705  0.2494  0.5146
  236ACOH    C210783   3.660   5.320  -0.098 -0.4417 -0.2929  0.7961
  236ACOH    O110784   3.543   5.318  -0.075 -0.5831  0.0677 -0.0623
  236ACOH    C110785   3.719   5.403  -0.206  0.0580 -0.2748 -0.0544
  236ACOH    H110786   3.649   5.412  -0.289  2.5710  2.5341 -1.9991
  236ACOH    H210787   3.814   5.355  -0.230  0.3941  0.1831  0.3438
  236ACOH    H310788   3.739   5.502  -0.165  0.5921 -0.5884  0.4487
  237ACOH    H410789   4.922   2.924   3.369  1.6547  2.1761  0.7201
  237ACOH    O210790   4.984   2.895   3.300 -0.5564  1.0513 -0.9024
  237ACOH    C210791   5.031   3.005   3.239 -0.1132 -0.0846  0.4282
  237ACOH    O110792   4.981   3.114   3.250 -0.1861 -0.1505  0.6142
  237ACOH    C110793   5.137   2.972   3.142 -0.0500  0.7962  0.2877
  237ACOH    H110794   5.209   3.054   3.136 -1.2514  2.0463  2.2279
  237ACOH    H210795   5.092   2.954   3.045  2.9266  0.6055 -1.1125
  237ACOH    H310796   5.184   2.880   3.179 -1.8048  0.4555  1.7485
  238ACOH    H410797   5.000   3.108   2.677  0.3276 -1.1119 -0.0528
  238ACOH    O210798   5.094   3.123   2.658  0.2172  0.4999  0.5963
  238ACOH    C210799   5.165   3.047   2.737  0.4339  0.2213  0.3821
  238ACOH    O110800   5.120   2.949   2.794 -0.1158  0.2393  0.1185
  238ACOH    C110801   5.307   3.050   2.699 -0.1561 -0.7246  0.2202
  238ACOH    H110802   5.318   3.000   2.603 -1.3720  0.2708 -0.4403
  238ACOH    H210803   5.373   2.997   2.769 -0.8171 -1.1608  0.5173
  238ACOH    H310804   5.334   3.155   2.695 -1.5717 -0.3789 -0.4142
  239ACOH    H410805   6.700   7.044   3.100  1.9854 -0.0912 -1.1392
  239ACOH    O210806   6.680   6.966   3.046  0.2014 -0.2091 -0.3386
  239ACOH    C210807   6.550   6.966   3.010  0.3152  0.2812 -0.1019
  239ACOH    O110808   6.463   7.027   3.069 -0.2231 -0.1565  0.1607
  239ACOH    C110809   6.531   6.852   2.912  0.3776 -0.0257 -0.6979
  239ACOH    H110810   6.570   6.883   2.815  0.9749 -0.5985 -0.6369
  239ACOH    H210811   6.422   6.846   2.904  0.3618 -0.1422 -0.3660
  239ACOH    H310812   6.567   6.760   2.956  0.5040  1.4848  2.4610
  240ACOH    H410813   4.471   7.013   2.078  0.1098  1.5574 -1.8366
  240ACOH    O210814   4.552   7.019   2.131 -0.2672 -0.3912 -0.9908
  240ACOH    C210815   4.511   7.027   2.261 -0.5960  0.1065  0.0731
  240ACOH    O110816   4.394   7.025   2.300 -0.2249  0.0399  0.3772
  240ACOH    C110817   4.627   7.027   2.354 -0.8736  0.4759  1.0575
  240ACOH    H110818   4.720   7.043   2.300 -0.6852 -0.6713  1.0246
  240ACOH    H210819   4.633   6.929   2.401 -0.5036 -0.3464 -0.6770
  240ACOH    H310820   4.616   7.102   2.432  0.3932  0.5650  1.1641
  241ACOH    H410821   4.584   2.001   1.255  0.9476  0.1941 -0.6650
  241ACOH    O210822   4.539   2.067   1.199  0.6351  0.3800 -0.2002
  241ACOH    C210823   4.617   2.089   1.089  0.3411 -0.2550  0.4429
  241ACOH    O110824   4.719   2.031   1.066 -0.3206 -0.3282  0.0264
  241ACOH    C110825   4.585   2.209   1.001 -0.4294 -0.0177 -0.3184
  241ACOH    H110826   4.503   2.266   1.045  0.2496 -0.2143  1.2438
  241ACOH    H210827   4.574   2.169   0.900 -0.8065 -2.5090  0.6846
  241ACOH    H310828   4.664   2.284   0.999 -0.8065  0.3396 -2.7767
  242ACOH    H410829   4.682   5.273   2.171  1.4405 -2.9873 -0.3019
  242ACOH    O210830   4.761   5.320   2.138 -0.1722 -0.5145 -0.8653
  242ACOH    C210831   4.850   5.271   2.232 -1.0324 -0.0740 -0.4572
  242ACOH    O110832   4.840   5.292   2.356 -0.0637 -0.6396  0.1241
  242ACOH    C110833   4.978   5.237   2.166 -0.7254 -0.5041  0.5845
  242ACOH    H110834   4.960   5.230   2.059 -0.8334  1.5443  0.4494
  242ACOH    H210835   5.010   5.138   2.199  0.3143 -0.3641  0.0056
  242ACOH    H310836   5.051   5.313   2.193 -0.8266 -0.8646  1.9359
  243ACOH    H410837   4.595   3.889   3.964 -0.7425 -0.9576 -1.8723
  243ACOH    O210838   4.676   3.927   3.926 -0.4617  0.0831 -0.2894
  243ACOH    C210839   4.773   3.922   4.028 -0.2723 -0.9063  0.2525
  243ACOH    O110840   4.751   3.884   4.141 -0.2384  0.3692  0.3900
  243ACOH    C110841   4.913   3.955   3.974  0.1803 -0.1793  0.1274
  243ACOH    H110842   4.988   3.951   4.053  1.3444 -0.6212 -0.9851
  243ACOH    H210843   4.923   4.049   3.921  0.1689 -0.9525 -1.2718
  243ACOH    H310844   4.936   3.881   3.897  3.3576  1.6064 -0.7123
  244ACOH    H410845   7.669   0.663   1.405  0.2396  1.9681  1.1039
  244ACOH    O210846   7.611   0.695   1.333 -0.1180 -0.4630  0.2705
  244ACOH    C210847   7.678   0.682   1.213 -0.9131 -0.3395 -0.1390
  244ACOH    O110848   7.770   0.603   1.193 -0.0849  0.0233 -0.2920
  244ACOH    C110849   7.591   0.749   1.107  0.1299 -0.4406 -0.1229
  244ACOH    H110850   7.645   0.797   1.025 -0.9656 -0.9997 -1.1872
  244ACOH    H210851   7.532   0.828   1.152  3.1130  0.2863  2.7151
  244ACOH    H310852   7.525   0.670   1.072  1.2119 -1.2229 -0.4560
  245ACOH    H410853   4.863   6.780   2.362 -1.4977  1.3346 -0.4382
  245ACOH    O210854   4.806   6.702   2.376  0.4942  0.0596  0.8835
  245ACOH    C210855   4.872   6.604   2.436  0.1244 -0.6359  0.7580
  245ACOH    O110856   4.989   6.595   2.466  0.1682 -0.5422 -0.5246
  245ACOH    C110857   4.791   6.484   2.438  0.6697  0.6313 -0.3510
  245ACOH    H110858   4.690   6.491   2.397 -0.1784 -0.9633  1.3686
  245ACOH    H210859   4.779   6.432   2.533  1.8544  1.5458  0.3037
  245ACOH    H310860   4.830   6.414   2.365  1.8385 -1.6735  2.3642
  246ACOH    H410861   7.208   3.445   0.353 -0.0041  0.1946  0.1643
  246ACOH    O210862   7.178   3.537   0.340  0.5715  0.4100  0.3349
  246ACOH    C210863   7.217   3.592   0.454  0.9795  0.3083  0.6071
  246ACOH    O110864   7.257   3.535   0.552 -0.7030 -0.3942 -0.1366
  246ACOH    C110865   7.193   3.738   0.463  0.1355 -0.1153  0.5031
  246ACOH    H110866   7.183   3.781   0.363  0.8514  0.6308  0.7530
  246ACOH    H210867   7.272   3.788   0.517  1.4924  0.3381 -1.8342
  246ACOH    H310868   7.101   3.749   0.521  0.7254  2.3073  1.0446
  247ACOH    H410869   9.526   9.081   3.695 -1.9496 -1.0788 -1.7772
  247ACOH    O210870   9.604   9.051   3.647 -0.1996  0.0023  0.2958
  247ACOH    C210871   9.706   9.054   3.735 -0.9374 -0.2298  0.2492
  247ACOH    O110872   9.711   9.111   3.841  0.1493  0.0024  0.4426
  247ACOH    C110873   9.826   9.001   3.670 -0.2760  0.7030 -0.0830
  247ACOH    H110874   9.905   8.996   3.745 -1.4564  1.1392  1.2243
  247ACOH    H210875   9.852   9.065   3.586 -1.0388  1.8188  0.5062
  247ACOH    H310876   9.810   8.905   3.623  0.1215 -0.3159  1.8146
  248ACOH    H410877   5.487   3.282   0.642 -0.7896  2.2834  3.0817
  248ACOH    O210878   5.559   3.337   0.608 -0.0166 -0.2493  0.3184
  248ACOH    C210879   5.591   3.438   0.695 -0.8996 -0.7341 -0.0648
  248ACOH    O110880   5.540   3.472   0.800  0.7866  0.2213  0.3624
  248ACOH    C110881   5.704   3.520   0.652  0.7848  0.0180  0.6578
  248ACOH    H110882   5.719   3.494   0.548  0.1697  0.5350  0.4330
  248ACOH    H210883   5.792   3.504   0.714  1.2595 -2.9633 -0.7313
  248ACOH    H310884   5.670   3.624   0.653  0.0544 -0.1944 -1.3017
  249ACOH    H410885   3.865   0.116   0.753  1.3072 -1.3111 -1.6611
  249ACOH    O210886   3.835   0.036   0.801 -0.4765 -0.0440 -0.5910
  249ACOH    C210887   3.945  -0.034   0.824 -0.6672 -1.0953  0.1986
  249ACOH    O110888   4.061  -0.000   0.808 -0.0479 -0.3488 -0.4542
  249ACOH    C110889   3.918  -0.153   0.907  0.0812 -0.0550 -0.5167
  249ACOH    H110890   3.812  -0.177   0.914 -0.0249  0.9261  1.9871
  249ACOH    H210891   3.963  -0.141   1.006  0.2172  0.3285 -0.6237
  249ACOH    H310892   3.972  -0.233   0.855  0.5846 -1.6469  2.3168
  250ACOH    H410893   5.092   2.254   2.508 -0.5642 -0.9801  1.1371
  250ACOH    O210894   5.130   2.181   2.456 -0.3326 -0.3000  0.3437
  250ACOH    C210895   5.059   2.073   2.488  0.0807 -0.1175 -0.2434
  250ACOH    O110896   4.952   2.075   2.551  0.7077  0.1041  0.8105
  250ACOH    C110897   5.122   1.958   2.416 -0.6837  0.6083 -0.4235
  250ACOH    H110898   5.123   1.871   2.482 -1.0140  0.7059 -0.2870
  250ACOH    H210899   5.228   1.973   2.394 -1.0601  0.8073 -2.1654
  250ACOH    H310900   5.057   1.934   2.332  1.1461 -1.7515 -1.2230
  251ACOH    H410901   7.433   8.369   1.340  0.6880  0.3052 -0.6342
  251ACOH    O210902   7.381   8.337   1.265  0.3157  0.2818 -0.3641
  251ACOH    C210903   7.347   8.441   1.184  0.1923 -1.0430 -0.5817
  251ACOH    O110904   7.389   8.557   1.188  0.4466  0.3473 -0.1832
  251ACOH    C110905   7.258   8.392   1.067  0.3913  1.2167  0.0045
  251ACOH    H110906   7.219   8.292   1.084  1.4984  0.5495 -1.2975
  251ACOH    H210907   7.314   8.387   0.974 -2.6682 -2.5400 -1.7209
  251ACOH    H310908   7.177   8.465   1.060  0.2596  1.0211 -0.4705
  252ACOH    H410909   2.000   1.183   1.006 -0.6561  3.2433  1.5659
  252ACOH    O210910   1.909   1.149   1.012  0.3341  0.1363 -0.2282
  252ACOH    C210911   1.859   1.206   1.123 -0.2523 -0.1880  0.6342
  252ACOH    O110912   1.916   1.255   1.215 -0.6059  0.2926  0.6401
  252ACOH    C110913   1.713   1.175   1.117  0.6769 -0.6555  0.6248
  252ACOH    H110914   1.667   1.205   1.023  0.3586  0.3140  1.0896
  252ACOH    H210915   1.658   1.215   1.201 -1.6354  1.1835 -1.6697
  252ACOH    H310916   1.711   1.066   1.113 -1.0641 -0.5882 -5.1749
  253ACOH    H410917   5.299   3.348   0.593  0.0881  0.1086  0.4418
  253ACOH    O210918   5.251   3.392   0.521  0.4540  0.0502  0.1643
  253ACOH    C210919   5.252   3.304   0.413  0.3661  0.1477  0.5133
  253ACOH    O110920   5.310   3.195   0.406  0.1364 -0.3631  1.3047
  253ACOH    C110921   5.159   3.349   0.305  0.2945  0.5109  0.1965
  253ACOH    H110922   5.161   3.270   0.229  0.3324 -0.5328  1.2560
  253ACOH    H210923   5.178   3.446   0.260 -1.5416  2.0680  2.6544
  253ACOH    H310924   5.058   3.354   0.346  0.1609 -0.6951  0.0548
  254ACOH    H410925   7.854   5.715   0.095  0.1315 -0.2876 -0.5065
  254ACOH    O210926   7.776   5.731   0.039 -0.2348 -1.0313 -0.2013
  254ACOH    C210927   7.778   5.669  -0.080  0.6588 -0.3131 -0.4185
  254ACOH    O110928   7.878   5.630  -0.139  0.2080 -0.4106  0.6909
  254ACOH    C110929   7.643   5.646  -0.121 -0.3185  0.3994  0.0229
  254ACOH    H110930   7.576   5.689  -0.047 -2.4058  1.7577 -2.5650
  254ACOH    H210931   7.628   5.538  -0.115  0.9546  0.3141  2.5380
  254ACOH    H310932   7.622   5.679  -0.223  2.0042  3.0743  0.3663
  255ACOH    H410933   4.563   2.149   0.601 -0.5323 -0.5169  1.0042
  255ACOH    O210934   4.645   2.101   0.619  0.2308  0.3752 -0.0061
  255ACOH    C210935   4.747   2.178   0.576  0.4734 -0.4667  0.2914
  255ACOH    O110936   4.740   2.291   0.525  1.2923 -0.3015  0.3362
  255ACOH    C110937   4.877   2.124   0.610 -0.3646  0.9610  0.0067
  255ACOH    H110938   4.877   2.016   0.601  1.6967  1.1689 -3.0298
  255ACOH    H210939   4.921   2.152   0.706 -0.6934 -0.7386  0.6694
  255ACOH    H310940   4.950   2.161   0.538  0.3480  0.5569  0.5063
  256ACOH    H410941   7.576   6.009   3.286  3.2413  0.3895  1.4378
  256ACOH    O210942   7.593   5.913   3.280  0.1243 -0.1333 -0.1526
  256ACOH    C210943   7.575   5.868   3.154 -0.1060  0.0847 -0.6409
  256ACOH    O110944   7.545   5.940   3.062  0.1881  0.2355  0.1249
  256ACOH    C110945   7.566   5.722   3.150 -0.3975  0.0065 -0.3304
  256ACOH    H110946   7.465   5.704   3.187 -0.1200 -0.8664  0.0022
  256ACOH    H210947   7.645   5.687   3.215 -0.0195  0.6709 -0.4230
  256ACOH    H310948   7.564   5.687   3.047  0.3759  2.1164 -1.0890
  257ACOH    H410949   8.976   1.759   2.564 -0.2433 -1.1598 -0.9607
  257ACOH    O210950   9.039   1.805   2.505 -0.0743 -0.1460 -0.0169
  257ACOH    C210951   9.033   1.934   2.540  0.6476 -0.5437  0.2023
  257ACOH    O110952   8.953   1.991   2.608  0.4883  0.2521 -0.6438
  257ACOH    C110953   9.126   2.008   2.453 -0.3567  0.3679 -0.3077
  257ACOH    H110954   9.189   2.076   2.510  1.3974 -0.6620 -0.9706
  257ACOH    H210955   9.078   2.056   2.368  1.9181 -0.3550 -2.0450
  257ACOH    H310956   9.198   1.936   2.413 -0.1860  0.4871 -0.2147
  258ACOH    H410957   0.276   8.689   2.854  0.5143  1.8165  2.9476
  258ACOH    O210958   0.355   8.634   2.865 -0.3145 -0.1324 -0.0377
  258ACOH    C210959   0.461   8.717   2.847 -0.2671 -0.0205 -0.9489
  258ACOH    O110960   0.456   8.833   2.805  0.0088 -0.3603  0.3388
  258ACOH    C110961   0.585   8.660   2.921 -0.2041  0.2158  0.1048
  258ACOH    H110962   0.669   8.636   2.855 -0.0226 -0.5623  0.6185
  258ACOH    H210963   0.560   8.563   2.962 -0.3359 -0.5130 -1.6479
  258ACOH    H310964   0.623   8.725   3.000 -1.4227  2.5217 -1.1415
  259ACOH    H410965   7.661   5.087   1.314  1.2424 -1.8695  0.4475
  259ACOH    O210966   7.674   5.042   1.228  0.4584  0.2605 -0.8085
  259ACOH    C210967   7.731   5.135   1.149 -0.7164 -0.6106  0.1575
  259ACOH    O110968   7.736   5.259   1.151 -0.2067 -0.3755  0.0543
  259ACOH    C110969   7.800   5.065   1.039  0.3577  0.4160  0.3389
  259ACOH    H110970   7.900   5.042   1.077  0.2812 -1.1139 -0.3747
  259ACOH    H210971   7.816   5.136   0.958 -0.3753 -1.3162 -1.3759
  259ACOH    H310972   7.746   4.975   1.011 -0.7051  1.2287 -0.2447
  260ACOH    H410973   5.160   9.268   1.722  0.6060  1.3473 -0.1152
  260ACOH    O210974   5.240   9.214   1.709 -0.1639  0.1975 -0.2164
  260ACOH    C210975   5.299   9.276   1.609  0.3419  0.0036  0.4349
  260ACOH    O110976   5.262   9.369   1.543 -0.1549  0.4727  0.0476
  260ACOH    C110977   5.435   9.217   1.590  0.0780 -1.0272 -0.3160
  260ACOH    H110978   5.427   9.178   1.489 -0.0697  1.2354 -1.2168
  260ACOH    H210979   5.465   9.138   1.658 -2.1039 -1.2895  0.3619
  260ACOH    H310980   5.518   9.288   1.580 -0.7173 -0.0664 -0.1781
  261ACOH    H410981   2.982   9.146   2.867  0.2346 -0.3632  0.8209
  261ACOH    O210982   2.901   9.132   2.814  0.6038  0.6976 -0.0334
  261ACOH    C210983   2.842   9.029   2.879 -0.5488 -0.4272  0.5077
  261ACOH    O110984   2.885   8.974   2.980 -0.5913 -0.3137  0.4559
  261ACOH    C110985   2.718   8.991   2.806 -0.0020  0.5141  0.0327
  261ACOH    H110986   2.729   8.966   2.700 -1.9428 -2.2856  0.4421
  261ACOH    H210987   2.642   9.069   2.813 -0.2754  0.1963  0.6293
  261ACOH    H310988   2.685   8.897   2.848  4.1540 -0.2897  1.7749
  262ACOH    H410989   5.068   2.877   2.456  0.4096  0.6836 -0.3754
  262ACOH    O210990   5.155   2.913   2.430  0.8942 -0.5106 -0.4447
  262ACOH    C210991   5.185   2.872   2.309  0.5493 -0.3096 -0.0239
  262ACOH    O110992   5.141   2.776   2.250  0.0143 -0.1201  0.4009
  262ACOH    C110993   5.319   2.923   2.256 -0.6081  0.1892 -0.0422
  262ACOH    H110994   5.320   2.957   2.152 -1.3876 -1.8891 -0.7641
  262ACOH    H210995   5.394   2.845   2.268 -2.1532 -1.1700  0.9650
  262ACOH    H310996   5.359   3.005   2.315  3.1624 -1.2738 -0.4540
  263ACOH    H410997   5.066   9.831   3.783 -0.1521  2.1239  0.8771
  263ACOH    O210998   5.157   9.852   3.757  0.4116 -0.1413  0.8509
  263ACOH    C210999   5.143   9.964   3.684 -0.0548  0.0468 -0.3023
  263ACOH    O111000   5.076  10.060   3.704  0.7412 -0.0602  0.1813
  263ACOH    C111001   5.239   9.952   3.573  0.1401 -0.3638 -0.0778
  263ACOH    H111002   5.207   9.866   3.514  0.8958 -0.4717 -0.3286
  263ACOH    H211003   5.342   9.951   3.608  0.8694  1.1057 -2.0808
  263ACOH    H311004   5.237  10.048   3.520  0.4976 -0.3311 -0.0290
  264ACOH    H411005   8.103   8.247   0.835  2.8784 -1.9058 -0.8821
  264ACOH    O211006   8.102   8.201   0.920  0.1901  0.4852  0.4445
  264ACOH    C211007   8.203   8.110   0.917 -0.8878  0.1159 -0.0788
  264ACOH    O111008   8.203   8.025   0.831 -0.0750 -0.0101  0.3862
  264ACOH    C111009   8.248   8.079   1.058  0.0865  0.4246  0.1239
  264ACOH    H111010   8.188   8.142   1.124  0.0477  0.5349 -0.0163
  264ACOH    H211011   8.355   8.086   1.078  1.0471 -2.1248 -3.6453
  264ACOH    H311012   8.223   7.976   1.083 -2.9568  1.0866  0.0193
  265ACOH    H411013   1.696   6.614   2.374  3.1253 -1.4321 -1.7597
  265ACOH    O211014   1.726   6.703   2.348 -0.3111  0.2926 -0.1500
  265ACOH    C211015   1.765   6.693   2.217  0.0121 -0.3123  0.1870
  265ACOH    O111016   1.806   6.591   2.170  0.3125  0.0580  0.3538
  265ACOH    C111017   1.796   6.826   2.164  0.4018  0.3437 -0.0431
  265ACOH    H111018   1.703   6.882   2.175  1.1977  1.5693  0.5346
  265ACOH    H211019   1.829   6.841   2.062  2.9499  0.7007  0.8056
  265ACOH    H311020   1.869   6.884   2.221  1.1035 -1.1964  0.6468
  266ACOH    H411021   8.186   1.465   1.186  0.5786  0.2301  2.1140
  266ACOH    O211022   8.183   1.561   1.197  0.4186  0.4735  0.1413
  266ACOH    C211023   8.103   1.586   1.306  0.2577  0.2122  0.0902
  266ACOH    O111024   8.050   1.495   1.373  0.1388 -0.4856 -0.4775
  266ACOH    C111025   8.096   1.732   1.332 -0.1620  0.6174  0.1466
  266ACOH    H111026   8.016   1.746   1.405 -1.1755 -2.3971 -0.2803
  266ACOH    H211027   8.080   1.780   1.235  1.2410  0.3848 -0.2176
  266ACOH    H311028   8.190   1.760   1.378  0.7624 -0.8977 -0.7413
  267ACOH    H411029   5.235   8.546   3.628 -0.9910 -3.0115 -1.2513
  267ACOH    O211030   5.273   8.592   3.550 -0.5570 -0.1776  0.5393
  267ACOH    C211031   5.377   8.517   3.507 -0.4002 -0.5813 -0.8544
  267ACOH    O111032   5.388   8.396   3.528 -0.1147  0.1060 -0.2277
  267ACOH    C111033   5.469   8.608   3.427 -0.4101  0.9218 -0.0397
  267ACOH    H111034   5.480   8.563   3.329  0.9686  1.1592  0.0048
  267ACOH    H211035   5.568   8.606   3.471 -1.5734 -1.5695  2.6111
  267ACOH    H311036   5.433   8.710   3.411 -2.0426  0.1710 -1.2746
  268ACOH    H411037   5.413   1.786   1.413  0.1264  0.1055  0.1931
  268ACOH    O211038   5.432   1.846   1.339  0.0164 -0.1645 -0.0512
  268ACOH    C211039   5.341   1.829   1.243 -0.3992  0.6128 -0.2753
  268ACOH    O111040   5.248   1.748   1.243  0.2688 -0.5314  0.6248
  268ACOH    C111041   5.372   1.918   1.128  0.1524 -0.0084  0.0948
  268ACOH    H111042   5.289   1.922   1.058 -0.0949  0.8690  0.4297
  268ACOH    H211043   5.460   1.881   1.074  0.3164  0.7115 -0.1300
  268ACOH    H311044   5.406   2.016   1.160 -1.1187  1.1786 -2.0591
  269ACOH    H411045   1.993   6.821   3.751  0.1559  1.6989  0.7708
  269ACOH    O211046   1.926   6.811   3.821 -0.1691  0.2091  0.2619
  269ACOH    C211047   1.804   6.807   3.767  0.1413  0.6140 -0.1080
  269ACOH    O111048   1.774   6.815   3.652  0.6243  0.0180 -0.4844
  269ACOH    C111049   1.698   6.799   3.872  0.4008  0.5400  0.1801
  269ACOH    H111050   1.612   6.843   3.822 -0.2249 -2.0437 -1.1105
  269ACOH    H211051   1.728   6.859   3.958  0.7341  2.0769 -0.9931
  269ACOH    H311052   1.682   6.693   3.890 -0.3316  0.5605 -0.3271
  270ACOH    H411053   4.228   6.669   2.053 -0.5502 -0.1499 -0.1682
  270ACOH    O211054   4.324   6.680   2.048 -0.5352 -0.3373 -0.2970
  270ACOH    C211055   4.376   6.637   2.161  0.5684 -0.0648 -0.0623
  270ACOH    O111056   4.330   6.576   2.253  0.2795  0.7637 -0.1486
  270ACOH    C111057   4.524   6.672   2.177  0.5110 -0.5197  0.2076
  270ACOH    H111058   4.537   6.780   2.170 -0.5017 -0.3988  0.1143
  270ACOH    H211059   4.585   6.623   2.101 -0.3233 -0.9079 -0.2255
  270ACOH    H311060   4.566   6.646   2.274  1.3446  2.8514  0.8062
  271ACOH    H411061   4.794   3.255   1.076  0.3088  0.6950  0.0838
  271ACOH    O211062   4.744   3.239   1.158  0.1853 -0.1042 -0.1423
  271ACOH    C211063   4.835   3.210   1.254  0.0021 -0.0385 -0.1529
  271ACOH    O111064   4.959   3.231   1.248 -0.1098  0.0002 -0.4211
  271ACOH    C111065   4.760   3.194   1.382 -0.1872 -0.1461  0.4608
  271ACOH    H111066   4.669   3.254   1.377 -0.8691 -1.3135 -1.4868
  271ACOH    H211067   4.820   3.223   1.468 -0.7749  1.5359  0.3397
  271ACOH    H311068   4.734   3.089   1.388 -1.7803  0.2482  0.7592
  272ACOH    H411069   4.488   4.175   1.332  1.4359 -2.0804 -1.0225
  272ACOH    O211070   4.521   4.241   1.270 -0.7651 -0.0818 -0.1580
  272ACOH    C211071   4.412   4.277   1.200 -0.6146 -0.5666 -0.3142
  272ACOH    O111072   4.296   4.240   1.213  0.1595  0.9641 -0.0771
  272ACOH    C111073   4.451   4.388   1.102  0.0283  0.1575  0.6811
  272ACOH    H111074   4.386   4.394   1.015 -0.3236  1.4234  1.0201
  272ACOH    H211075   4.547   4.356   1.062 -0.6870  0.0735 -1.0107
  272ACOH    H311076   4.447   4.486   1.149  0.8567  0.9610 -0.9288
  273ACOH    H411077   4.231   7.036   0.666 -1.7311  0.4007 -0.9873
  273ACOH    O211078   4.285   7.013   0.589 -0.2633  0.9992 -0.1483
  273ACOH    C211079   4.418   7.025   0.625 -0.2458 -0.7977 -0.3187
  273ACOH    O111080   4.460   7.035   0.738  0.8003 -0.2200  0.6207
  273ACOH    C111081   4.507   7.005   0.508  0.5783  0.7996 -0.3062
  273ACOH    H111082   4.611   6.986   0.534  0.3893  0.4798  0.2162
  273ACOH    H211083   4.508   7.097   0.450  1.0699  1.3016  0.4856
  273ACOH    H311084   4.477   6.914   0.455 -0.6279  0.8757  0.2320
  274ACOH    H411085   3.598   6.058   2.987  0.8521 -0.5295 -0.5704
  274ACOH    O211086   3.648   6.109   3.053 -0.2184  0.1802 -0.3002
  274ACOH    C211087   3.723   6.199   2.982  0.4208  0.3567  0.1156
  274ACOH    O111088   3.777   6.173   2.878 -0.2989 -0.7943 -1.0088
  274ACOH    C111089   3.775   6.304   3.069  0.1201 -0.0612  0.5072
  274ACOH    H111090   3.759   6.287   3.175  0.2951  2.3350  0.9474
  274ACOH    H211091   3.722   6.396   3.046  0.9028  0.7820  2.0132
  274ACOH    H311092   3.880   6.321   3.045 -0.1788  1.6243  0.3274
  275ACOH    H411093   7.574   5.202   3.457 -0.2915  1.7686  1.0554
  275ACOH    O211094   7.482   5.190   3.428  0.0975 -0.2147  0.5335
  275ACOH    C211095   7.428   5.315   3.419  0.2182 -0.3156  0.2218
  275ACOH    O111096   7.487   5.416   3.451 -0.4891 -0.7463 -0.8864
  275ACOH    C111097   7.298   5.304   3.344  0.6628  0.0820  0.2581
  275ACOH    H111098   7.221   5.361   3.396 -1.8144 -0.3595 -2.8619
  275ACOH    H211099   7.263   5.202   3.329 -0.8949  0.5761  0.5122
  275ACOH    H311100   7.312   5.354   3.249 -2.1762 -1.4239 -1.0049
  276ACOH    H411101   2.640   3.536   2.572  1.2899  0.7291 -1.7342
  276ACOH    O211102   2.696   3.471   2.617 -0.2272  0.4557 -0.1845
  276ACOH    C211103   2.799   3.436   2.541  0.5357 -0.2606  0.1116
  276ACOH    O111104   2.812   3.466   2.425 -0.3236  0.1078 -0.3142
  276ACOH    C111105   2.888   3.342   2.608  0.2635  0.1397  0.2153
  276ACOH    H111106   2.864   3.244   2.567 -1.7827  0.5077  0.4502
  276ACOH    H211107   2.879   3.339   2.717 -0.4377 -0.7628  0.1455
  276ACOH    H311108   2.987   3.382   2.590 -0.1052  1.9117  1.9146
  277ACOH    H411109   5.267   9.198   3.095 -0.0049  0.3207  1.8917
  277ACOH    O211110   5.177   9.182   3.128 -0.6460 -0.1564 -0.0095
  277ACOH    C211111   5.186   9.068   3.202  0.4480 -0.3051 -0.2177
  277ACOH    O111112   5.289   9.004   3.226  0.6181  0.0863 -0.1332
  277ACOH    C111113   5.058   9.038   3.267  0.2853 -0.2321  0.1366
  277ACOH    H111114   5.049   9.090   3.362 -1.2221 -0.0209 -0.1104
  277ACOH    H211115   5.050   8.933   3.295  0.7461 -0.4316 -0.4863
  277ACOH    H311116   4.976   9.067   3.200 -0.2895 -0.9647  0.5170
  278ACOH    H411117   7.530   1.341   0.674 -0.7643  1.8916 -0.4194
  278ACOH    O211118   7.442   1.303   0.690  0.0877  0.1636  0.3429
  278ACOH    C211119   7.354   1.390   0.634 -0.5267 -0.0566  0.2206
  278ACOH    O111120   7.383   1.497   0.591  0.4969 -0.0622 -0.0531
  278ACOH    C111121   7.219   1.323   0.620  0.1298 -0.5101  0.5863
  278ACOH    H111122   7.218   1.244   0.695 -1.5702 -1.2525 -0.2093
  278ACOH    H211123   7.208   1.288   0.518 -3.3695 -0.6730  0.9531
  278ACOH    H311124   7.138   1.386   0.657  1.5409  0.0985  2.7806
  279ACOH    H411125   4.643   2.944   2.218 -1.7950  1.8246 -1.1965
  279ACOH    O211126   4.698   3.005   2.270  0.1337 -0.5677 -0.3114
  279ACOH    C211127   4.820   3.032   2.219 -0.4453  0.3413  0.2330
  279ACOH    O111128   4.854   3.030   2.103  0.0408  0.2054  0.5722
  279ACOH    C111129   4.908   3.112   2.312  0.9189  0.0650  0.9061
  279ACOH    H111130   4.916   3.218   2.291  2.0826  0.5528  3.5572
  279ACOH    H211131   5.009   3.073   2.321  0.4437 -1.5233 -0.4234
  279ACOH    H311132   4.870   3.110   2.414 -0.3820  0.2231  0.4410
  280ACOH    H411133   4.894   9.401   0.995 -0.3455 -1.0340 -0.2627
  280ACOH    O211134   4.809   9.445   0.977  0.0456 -0.0075  0.3288
  280ACOH    C211135   4.732   9.361   0.904  0.2310  0.2416 -0.2830
  280ACOH    O111136   4.607   9.375   0.905  0.1839  0.1214  0.4639
  280ACOH    C111137   4.813   9.246   0.860  0.1183  0.1354 -0.3289
  280ACOH    H111138   4.892   9.201   0.919 -0.0192  0.0207 -0.2335
  280ACOH    H211139   4.858   9.281   0.767 -0.1943 -0.6248 -0.7640
  280ACOH    H311140   4.746   9.167   0.825  0.3547 -1.7705  3.2718
  281ACOH    H411141   7.176   1.361   0.329  0.0789 -0.3345  3.1623
  281ACOH    O211142   7.079   1.363   0.321  0.2552  0.1354  0.5251
  281ACOH    C211143   7.044   1.466   0.245  0.7621 -0.7884 -0.7623
  281ACOH    O111144   7.122   1.538   0.184  0.8314 -0.2833  0.5846
  281ACOH    C111145   6.894   1.488   0.258  0.0093  0.3215  1.0995
  281ACOH    H111146   6.838   1.395   0.253 -0.1228  0.5109 -2.7066
  281ACOH    H211147   6.863   1.542   0.168  0.4405  0.4503  1.0259
  281ACOH    H311148   6.865   1.550   0.343 -2.2680 -2.2657  2.2624
  282ACOH    H411149   5.788   9.280   2.039 -0.2279 -0.2884  1.2485
  282ACOH    O211150   5.699   9.317   2.034 -0.2696 -0.5333  0.1202
  282ACOH    C211151   5.644   9.280   1.913  0.9598  0.6578 -0.2069
  282ACOH    O111152   5.684   9.193   1.836 -0.0340 -0.6422  0.3529
  282ACOH    C111153   5.508   9.336   1.901  0.2792  0.3176 -0.8726
  282ACOH    H111154   5.486   9.391   1.810  2.0580  0.5936 -1.1456
  282ACOH    H211155   5.482   9.410   1.977 -0.6868 -2.1351  1.2837
  282ACOH    H311156   5.434   9.256   1.907  1.8036 -1.0057  1.2108
  283ACOH    H411157   4.994   2.800   1.230  0.4908 -0.1396  2.2816
  283ACOH    O211158   5.075   2.855   1.228 -0.2220  0.8751 -0.8545
  283ACOH    C211159   5.163   2.790   1.291 -0.0668  0.7082 -0.2381
  283ACOH    O111160   5.147   2.698   1.368  0.3022  0.0936  0.3658
  283ACOH    C111161   5.293   2.850   1.255 -0.0130 -0.2510  0.2264
  283ACOH    H111162   5.315   2.830   1.150  2.4600  0.4044  0.5936
  283ACOH    H211163   5.378   2.808   1.309 -0.8645 -2.4331 -0.0803
  283ACOH    H311164   5.295   2.958   1.269 -2.6611 -0.4364  2.4977
  284ACOH    H411165   6.421   0.028   1.775  0.8224 -2.9351  0.1228
  284ACOH    O211166   6.499   0.059   1.823 -0.0851 -0.5231  0.1021
  284ACOH    C211167   6.607  -0.017   1.792 -0.4112 -0.1261 -0.2487
  284ACOH    O111168   6.597  -0.121   1.731  0.1777  0.5604  0.0752
  284ACOH    C111169   6.731   0.017   1.870  0.1188 -0.4009  0.5591
  284ACOH    H111170   6.806  -0.058   1.845 -1.4192 -2.2644  1.3516
  284ACOH    H211171   6.716   0.014   1.978  3.0405  0.9451  1.0289
  284ACOH    H311172   6.767   0.115   1.840  1.8907 -1.5898 -1.3526
  285ACOH    H411173   5.506   7.157   2.957 -0.6172 -1.0463 -0.7116
  285ACOH    O211174   5.475   7.099   3.029 -0.1385 -0.7398 -0.2612
  285ACOH    C211175   5.421   7.000   2.970 -0.2337 -0.4520 -0.3813
  285ACOH    O111176   5.423   6.975   2.851 -0.0458 -0.1922  0.0755
  285ACOH    C111177   5.353   6.921   3.074  0.0383  0.3739  0.2105
  285ACOH    H111178   5.411   6.923   3.166 -0.4383  0.2995  0.5142
  285ACOH    H211179   5.367   6.821   3.032 -0.9240 -0.4837  1.8927
  285ACOH    H311180   5.254   6.962   3.089  0.0327 -0.1951  1.8006
  286ACOH    H411181   7.861   4.458   1.055 -0.4553 -0.1481 -1.1175
  286ACOH    O211182   7.767   4.472   1.071 -0.2438 -0.1004  0.0800
  286ACOH    C211183   7.751   4.609   1.058 -0.2392  0.2223 -0.4868
  286ACOH    O111184   7.828   4.688   1.012 -0.1176  0.5650  0.7103
  286ACOH    C111185   7.618   4.657   1.102 -0.5277  0.2877  0.0742
  286ACOH    H111186   7.594   4.761   1.077 -0.6265 -0.2233 -2.0755
  286ACOH    H211187   7.606   4.642   1.209  2.5962 -0.7380  0.3133
  286ACOH    H311188   7.542   4.591   1.060  0.5588 -0.0466 -1.4258
  287ACOH    H411189   3.754   0.147   1.173  1.4961  0.1387 -1.9278
  287ACOH    O211190   3.696   0.224   1.163  0.7017 -0.2554 -0.6205
  287ACOH    C211191   3.771   0.313   1.097  0.1060  0.2114  0.8103
  287ACOH    O111192   3.893   0.295   1.078 -0.0901  0.4530 -0.9847
  287ACOH    C111193   3.694   0.429   1.057 -0.6139  0.7659 -0.0734
  287ACOH    H111194   3.589   0.401   1.048  0.0560 -2.7095  2.0100
  287ACOH    H211195   3.721   0.458   0.955  0.7432  0.7253  0.2712
  287ACOH    H311196   3.693   0.508   1.131  0.4949  0.1343  0.6255
  288ACOH    H411197   7.689   4.698   3.380  3.3057 -1.0501  0.9259
  288ACOH    O211198   7.661   4.618   3.333  0.6977  0.3390  0.0205
  288ACOH    C211199   7.771   4.580   3.272 -0.2549  0.3785 -0.1494
  288ACOH    O111200   7.859   4.650   3.226 -0.2165  0.1914 -0.4007
  288ACOH    C111201   7.763   4.445   3.212 -0.1309 -0.2650 -0.1693
  288ACOH    H111202   7.676   4.403   3.262 -1.2334  1.4275 -0.6231
  288ACOH    H211203   7.855   4.388   3.225  1.0279  1.2169 -1.5720
  288ACOH    H311204   7.749   4.455   3.104 -0.1308  0.9878 -0.0628
  289ACOH    H411205   3.608   5.919   1.597 -2.1513 -1.4807  0.6348
  289ACOH    O211206   3.567   5.984   1.657 -0.6433  0.0882  0.0043
  289ACOH    C211207   3.450   6.021   1.597  0.3066 -1.0338  0.1352
  289ACOH    O111208   3.402   5.972   1.495 -0.3783  0.5875  0.7856
  289ACOH    C111209   3.387   6.132   1.665 -1.1999  0.5535 -0.5754
  289ACOH    H111210   3.291   6.098   1.703 -1.7915  1.9139 -0.8025
  289ACOH    H211211   3.372   6.219   1.601 -1.0232  0.5489 -0.6222
  289ACOH    H311212   3.454   6.161   1.746 -3.1002  0.3326  1.1186
  290ACOH    H411213   7.327   1.458   2.290  1.1227 -0.1776  0.0496
  290ACOH    O211214   7.308   1.476   2.196  0.2736 -0.0079  0.2531
  290ACOH    C211215   7.410   1.446   2.119  0.1553 -0.3849 -0.5226
  290ACOH    O111216   7.529   1.437   2.155  0.1244 -0.6672 -0.1973
  290ACOH    C111217   7.375   1.462   1.975 -0.1634  0.6211  0.7216
  290ACOH    H111218   7.432   1.389   1.918 -0.2708  0.1554  1.2040
  290ACOH    H211219   7.405   1.561   1.939  2.3589 -0.7714 -1.1517
  290ACOH    H311220   7.269   1.444   1.959 -0.5815  1.8253  2.0225
  291ACOH    H411221   7.333   0.274   2.490  0.1353 -1.3487 -0.7197
  291ACOH    O211222   7.380   0.285   2.406  0.4628  0.3545 -0.3398
  291ACOH    C211223   7.510   0.272   2.445  0.2803  0.3900 -0.0081
  291ACOH    O111224   7.558   0.281   2.557 -0.1970 -0.3201  0.4129
  291ACOH    C111225   7.604   0.291   2.327 -0.3234 -0.0808  0.5479
  291ACOH    H111226   7.631   0.396   2.320 -0.1934 -0.0543  1.3731
  291ACOH    H211227   7.562   0.264   2.231  0.8365 -0.2663  0.0855
  291ACOH    H311228   7.695   0.234   2.347  1.3337  1.7317 -1.7165
  292ACOH    H411229   4.911   2.691   1.965 -1.2286  0.6703 -0.8729
  292ACOH    O211230   4.974   2.758   1.934  0.0675 -0.0672  0.0611
  292ACOH    C211231   4.895   2.843   1.860  0.0854 -0.8856 -0.1013
  292ACOH    O111232   4.780   2.810   1.827  1.0828  0.4110 -0.3766
  292ACOH    C111233   4.968   2.955   1.794 -0.2512 -0.2637 -0.0573
  292ACOH    H111234   5.053   2.977   1.858  0.1668  0.6216 -0.8981
  292ACOH    H211235   4.912   3.048   1.792 -1.2462 -0.8299 -3.9299
  292ACOH    H311236   4.989   2.935   1.688  4.0449  1.1901  0.4382
  293ACOH    H411237   7.189   3.941   1.018 -1.0150  0.4479  0.1787
  293ACOH    O211238   7.192   3.973   1.109  0.2577  0.0297  0.3051
  293ACOH    C211239   7.296   3.915   1.167 -0.1666 -0.3609  0.4157
  293ACOH    O111240   7.365   3.829   1.115 -0.3304 -0.6646 -0.3603
  293ACOH    C111241   7.308   3.947   1.311 -0.4466 -0.2551  0.1315
  293ACOH    H111242   7.269   4.046   1.336  0.4710  0.0757  0.2633
  293ACOH    H211243   7.415   3.953   1.329  0.0309 -1.8456 -1.9644
  293ACOH    H311244   7.270   3.873   1.381 -2.4439  1.3548  0.7973
  294ACOH    H411245   8.380   4.405   3.469  1.2079  0.5044 -0.0558
  294ACOH    O211246   8.361   4.464   3.394  0.0153  0.6242  0.3368
  294ACOH    C211247   8.225   4.459   3.384  0.1286  0.1275 -0.2766
  294ACOH    O111248   8.152   4.371   3.437 -0.0620 -0.0449  0.0288
  294ACOH    C111249   8.164   4.577   3.317 -0.7027  0.2184 -0.2343
  294ACOH    H111250   8.127   4.658   3.380  2.1728  2.5542 -1.4609
  294ACOH    H211251   8.079   4.544   3.257 -1.1405  0.5596  0.1919
  294ACOH    H311252   8.231   4.608   3.237  0.0869 -2.8755 -0.8522
  295ACOH    H411253   3.879   9.809   2.778 -0.3150 -0.2277  0.2583
  295ACOH    O211254   3.826   9.851   2.847 -0.6804  0.3114 -0.3404
  295ACOH    C211255   3.753   9.769   2.921 -0.4339  0.4368  0.4018
  295ACOH    O111256   3.715   9.658   2.890  0.4783 -0.6410  0.4615
  295ACOH    C111257   3.695   9.848   3.037  0.0359 -0.1950 -0.6420
  295ACOH    H111258   3.591   9.866   3.008  0.3527  0.0856 -1.6356
  295ACOH    H211259   3.752   9.941   3.042 -0.9191  0.3977 -0.6385
  295ACOH    H311260   3.687   9.793   3.131  0.7126  1.8827  0.6620
  296ACOH    H411261   3.686   7.312   3.309 -1.5158  0.1427 -3.0297
  296ACOH    O211262   3.645   7.228   3.337  0.3563  0.1371 -0.1386
  296ACOH    C211263   3.594   7.179   3.226 -0.2621 -0.3061 -0.1895
  296ACOH    O111264   3.622   7.210   3.112  0.7604 -0.4452 -0.1290
  296ACOH    C111265   3.503   7.072   3.266  0.6843  0.1586 -0.2312
  296ACOH    H111266   3.409   7.079   3.211  0.5545  0.6677  0.0507
  296ACOH    H211267   3.486   7.066   3.374  2.8039 -3.2762 -0.0395
  296ACOH    H311268   3.546   6.978   3.234  2.7610  0.7122  0.8097
  297ACOH    H411269   9.398   6.511   3.592 -0.0334  0.7854  1.7460
  297ACOH    O211270   9.317   6.557   3.564  0.0730 -0.1112 -0.1378
  297ACOH    C211271   9.350   6.633   3.456 -0.6995 -0.3847  0.0063
  297ACOH    O111272   9.463   6.662   3.418 -0.5389 -0.3067  0.1207
  297ACOH    C111273   9.222   6.684   3.391 -0.1013 -0.8798  0.0242
  297ACOH    H111274   9.243   6.736   3.298 -1.9251  0.3677  0.2851
  297ACOH    H211275   9.169   6.758   3.451 -1.6423 -0.7411 -1.4885
  297ACOH    H311276   9.158   6.599   3.368  0.3345 -0.7575 -1.6427
  298ACOH    H411277   7.754   5.628   0.654  0.0575  1.6574  0.5485
  298ACOH    O211278   7.700   5.598   0.729  0.0103  0.4875  0.0522
  298ACOH    C211279   7.740   5.473   0.773  0.5620  0.9121 -0.8377
  298ACOH    O111280   7.823   5.401   0.721 -0.6752  0.2697  0.0752
  298ACOH    C111281   7.648   5.434   0.882  0.2646 -0.7464 -0.7371
  298ACOH    H111282   7.687   5.446   0.983  0.7027 -1.6195 -0.7910
  298ACOH    H211283   7.634   5.326   0.869  0.4001 -1.0771  1.7394
  298ACOH    H311284   7.552   5.484   0.873 -0.8964 -2.9019 -0.8694
  299ACOH    H411285   5.197   1.140   2.483 -0.6844  4.0277 -0.7815
  299ACOH    O211286   5.293   1.148   2.493 -0.3242 -0.3581  0.2732
  299ACOH    C211287   5.353   1.079   2.394  0.4000  0.5089 -0.1576
  299ACOH    O111288   5.304   0.999   2.320  0.1442  0.3246 -0.3550
  299ACOH    C111289   5.497   1.118   2.397  0.1235 -0.6876 -0.4174
  299ACOH    H111290   5.559   1.093   2.311  0.2585 -1.8953  0.0240
  299ACOH    H211291   5.534   1.071   2.488  3.1411  0.3219 -1.0853
  299ACOH    H311292   5.493   1.227   2.406 -0.6415 -0.5927 -1.8477
  300ACOH    H411293   6.606   8.203   3.063  0.2784  0.2598  0.2418
  300ACOH    O211294   6.592   8.274   3.128  0.0102  0.1005  0.3624
  300ACOH    C211295   6.559   8.227   3.251  0.5361  0.6943  0.9049
  300ACOH    O111296   6.548   8.290   3.352  0.0702 -0.4268 -0.1947
  300ACOH    C111297   6.557   8.075   3.255  0.2202  0.5985  0.3898
  300ACOH    H111298   6.490   8.041   3.176 -0.4116 -0.6347  1.4635
  300ACOH    H211299   6.504   8.049   3.346  0.6616  1.4857  0.9035
  300ACOH    H311300   6.655   8.027   3.250  0.0238  0.2037  0.3733
  301ACOH    H411301   7.663   6.270   2.709  2.0669  0.1871 -0.3832
  301ACOH    O211302   7.643   6.192   2.653 -0.0350  0.1940  0.3498
  301ACOH    C211303   7.698   6.210   2.531 -0.1000  0.2151  0.0914
  301ACOH    O111304   7.765   6.299   2.489 -0.8517 -0.1902  0.0622
  301ACOH    C111305   7.674   6.100   2.438  0.2186  0.3343 -0.0816
  301ACOH    H111306   7.632   6.134   2.344 -1.7786  1.8315  1.3124
  301ACOH    H211307   7.591   6.038   2.472  0.8991 -1.7891 -2.1311
  301ACOH    H311308   7.768   6.048   2.416  1.4096  2.3327  0.1609
  302ACOH    H411309   5.078   9.330   0.725 -0.9187 -1.0239  1.5502
  302ACOH    O211310   5.170   9.324   0.758 -0.2670 -0.2056 -0.0910
  302ACOH    C211311   5.203   9.190   0.775  0.0792 -0.5303 -0.6261
  302ACOH    O111312   5.134   9.090   0.777  0.0316 -0.3193  0.0784
  302ACOH    C111313   5.349   9.187   0.801  0.0101 -0.8647  0.2932
  302ACOH    H111314   5.370   9.167   0.906 -2.1640  2.3418  1.4260
  302ACOH    H211315   5.394   9.285   0.784 -1.9886  0.8630  4.3036
  302ACOH    H311316   5.397   9.120   0.730  0.1273  1.0959 -1.5113
  303ACOH    H411317   6.399   9.378   1.375 -1.3183  1.1023  3.0096
  303ACOH    O211318   6.308   9.364   1.345 -0.1481 -0.0808 -0.1913
  303ACOH    C211319   6.228   9.398   1.448 -0.6524 -0.3515  0.7810
  303ACOH    O111320   6.261   9.416   1.562 -0.2319 -0.1590 -0.3445
  303ACOH    C111321   6.090   9.371   1.405  0.5384  0.1740  0.2282
  303ACOH    H111322   6.061   9.271   1.436  0.3307  0.1084 -0.1807
  303ACOH    H211323   6.085   9.382   1.297  1.9470 -1.6116 -0.0524
  303ACOH    H311324   6.026   9.444   1.456 -1.4627 -1.4268  0.0743
  304ACOH    H411325   7.214   7.266   2.602  3.5442 -2.0977  3.2527
  304ACOH    O211326   7.164   7.182   2.608  0.0376 -0.3833  0.2770
  304ACOH    C211327   7.083   7.196   2.716 -0.7996  0.3946  0.4404
  304ACOH    O111328   7.091   7.286   2.802  0.2623 -0.1902 -0.2956
  304ACOH    C111329   7.012   7.074   2.747  0.1891 -0.2757  0.1117
  304ACOH    H111330   6.915   7.073   2.696  0.3906  2.6969 -0.4105
  304ACOH    H211331   6.998   7.068   2.855 -1.3742  1.4110  0.0375
  304ACOH    H311332   7.065   6.985   2.712  0.3059  0.8133 -2.6130
  305ACOH    H411333   6.723   9.954   1.601 -2.0999  1.6957  0.4231
  305ACOH    O211334   6.738   9.958   1.505  0.2578  0.0148  0.6717
  305ACOH    C211335   6.771   9.835   1.456 -0.4981 -0.3897  0.7093
  305ACOH    O111336   6.798   9.745   1.529 -0.2340  0.1842  0.2875
  305ACOH    C111337   6.769   9.830   1.311  0.5268  0.4401 -0.0224
  305ACOH    H111338   6.751   9.931   1.274  1.1710  0.3737 -0.5280
  305ACOH    H211339   6.688   9.768   1.272 -0.0868  1.0066  0.3439
  305ACOH    H311340   6.859   9.792   1.263 -0.6789  0.0105 -2.0136
  306ACOH    H411341   5.286   2.797   0.474  0.6981 -0.6619  1.7082
  306ACOH    O211342   5.366   2.810   0.422 -0.4066  0.1498  0.1793
  306ACOH    C211343   5.333   2.869   0.303  0.1607  0.5383  0.4144
  306ACOH    O111344   5.226   2.905   0.259  0.2290 -0.5101  0.0628
  306ACOH    C111345   5.454   2.908   0.240  0.0379 -0.1873  0.3869
  306ACOH    H111346   5.541   2.870   0.293  0.5423 -1.2950 -1.1884
  306ACOH    H211347   5.470   3.014   0.221 -1.5534  0.0560  0.3536
  306ACOH    H311348   5.452   2.865   0.139 -1.8418  0.6788  0.0315
  307ACOH    H411349   4.976   7.374   2.146 -1.5360 -0.4067  1.1112
  307ACOH    O211350   4.935   7.290   2.120 -0.9110 -0.3849 -0.0011
  307ACOH    C211351   4.892   7.308   1.998 -0.0903  0.2053 -0.1522
  307ACOH    O111352   4.911   7.399   1.924  0.0089 -0.3228  0.1560
  307ACOH    C111353   4.802   7.203   1.963  1.2005  0.5859  0.4905
  307ACOH    H111354   4.714   7.205   2.028 -1.0430 -0.7219 -2.3665
  307ACOH    H211355   4.855   7.109   1.967  2.0706  1.1360  2.2113
  307ACOH    H311356   4.762   7.220   1.863 -1.3599  3.5660  1.9173
  308ACOH    H411357   0.708   8.497   1.174  0.6393 -1.4497  3.6046
  308ACOH    O211358   0.656   8.421   1.142 -0.1521  0.3860  0.3487
  308ACOH    C211359   0.622   8.353   1.254 -0.1598 -0.0833  0.5348
  308ACOH    O111360   0.688   8.341   1.356 -0.6911 -0.0902  0.6850
  308ACOH    C111361   0.536   8.242   1.217  0.8574  0.1738 -0.4048
  308ACOH    H111362   0.524   8.240   1.108  0.7499 -0.2302 -0.3884
  308ACOH    H211363   0.438   8.252   1.265  0.2089 -1.0237 -1.4181
  308ACOH    H311364   0.581   8.147   1.247  0.7283  0.8584  2.0195
  309ACOH    H411365   5.145   1.988   0.735  1.7776  0.0623  0.4394
  309ACOH    O211366   5.177   1.939   0.657  0.6799  0.0200  0.0023
  309ACOH    C211367   5.299   1.894   0.695 -0.6114 -0.5270 -0.2468
  309ACOH    O111368   5.373   1.911   0.790  0.5083 -0.5021  0.2506
  309ACOH    C111369   5.360   1.830   0.575  0.1792  0.0044 -0.6406
  309ACOH    H111370   5.405   1.734   0.601  2.2015  0.7001 -1.4154
  309ACOH    H211371   5.440   1.890   0.531  0.1301 -0.6463 -1.6467
  309ACOH    H311372   5.284   1.817   0.498  0.4012  0.7601 -0.9894
  310ACOH    H411373   6.052   9.783   3.206  0.4777  1.1781 -0.4678
  310ACOH    O211374   6.057   9.810   3.300  0.7706 -0.4392 -0.0115
  310ACOH    C211375   6.177   9.871   3.308 -0.0252 -0.3933 -0.1019
  310ACOH    O111376   6.260   9.889   3.218 -0.0996  0.0438  0.0971
  310ACOH    C111377   6.186   9.918   3.452  0.3412  0.4127 -0.0974
  310ACOH    H111378   6.281   9.971   3.463 -0.6210  2.0019  0.6653
  310ACOH    H211379   6.165   9.836   3.520  0.2470  0.0128 -0.6035
  310ACOH    H311380   6.104   9.989   3.465  1.7258  2.4622 -2.1619
  311ACOH    H411381   4.762   1.552   1.157 -1.8870  1.7203 -2.9649
  311ACOH    O211382   4.837   1.529   1.100  0.0786  0.1092  0.1117
  311ACOH    C211383   4.851   1.394   1.085 -0.3054  0.4714  0.1450
  311ACOH    O111384   4.823   1.311   1.172  0.8073  0.0432  0.2683
  311ACOH    C111385   4.937   1.358   0.971  0.5449 -0.4047 -0.5149
  311ACOH    H111386   4.881   1.290   0.907 -0.6874  0.0812  0.0365
  311ACOH    H211387   5.027   1.302   0.999  1.8718  1.0054 -1.8409
  311ACOH    H311388   4.983   1.447   0.928 -1.7779  1.7202  1.2976
  312ACOH    H411389   4.842   7.394   0.706  1.9109  0.7018  1.0431
  312ACOH    O211390   4.847   7.320   0.769  0.0638 -0.2241  0.1437
  312ACOH    C211391   4.818   7.205   0.710 -0.3646 -0.5563 -0.7199
  312ACOH    O111392   4.810   7.195   0.587 -0.2119  0.2499  0.1420
  312ACOH    C111393   4.817   7.083   0.800  0.6506 -0.2096  0.1821
  312ACOH    H111394   4.878   7.110   0.887  3.1270 -0.2774 -1.4922
  312ACOH    H211395   4.857   6.992   0.757 -1.1460 -0.4653 -0.9870
  312ACOH    H311396   4.714   7.062   0.831  0.9602  0.9516  2.1017
  313ACOH    H411397   5.435   1.401   2.141 -0.3270 -0.3861 -0.8970
  313ACOH    O211398   5.344   1.423   2.167 -0.2803 -0.1826 -0.9045
  313ACOH    C211399   5.353   1.487   2.284 -0.4139  0.1640  0.1213
  313ACOH    O111400   5.451   1.486   2.354 -0.2253  0.0353 -0.2061
  313ACOH    C111401   5.223   1.538   2.333 -0.7481 -0.1163  0.2127
  313ACOH    H111402   5.164   1.447   2.330  0.1861 -0.7455  0.7101
  313ACOH    H211403   5.197   1.613   2.258 -0.2544  0.6830  0.8402
  313ACOH    H311404   5.231   1.585   2.431  1.1063 -0.6034  0.3081
  314ACOH    H411405   4.341   3.321   0.060 -0.6370  0.9586  2.1424
  314ACOH    O211406   4.262   3.370   0.032 -0.4793  0.0278 -0.0159
  314ACOH    C211407   4.166   3.338   0.118 -0.4393  0.5421 -0.0350
  314ACOH    O111408   4.162   3.252   0.202  0.5962  0.0684  0.4844
  314ACOH    C111409   4.064   3.442   0.112 -0.7597 -0.0783 -0.8211
  314ACOH    H111410   4.101   3.515   0.040 -0.2735 -1.9833 -2.5595
  314ACOH    H211411   4.044   3.504   0.199 -1.8379  1.4147 -2.1092
  314ACOH    H311412   3.973   3.401   0.068  0.2704 -0.2213 -2.8462
  315SOL     OW11413   1.004   7.467   3.303  0.2751 -0.2927 -0.1792
  315SOL    HW111414   0.937   7.475   3.229 -2.0712  1.4457  2.0605
  315SOL    HW211415   1.030   7.371   3.315 -1.7179 -0.9773 -1.1530
  316SOL     OW11416   2.604   9.552   0.628 -0.0881 -0.0672 -0.4498
  316SOL    HW111417   2.542   9.596   0.694 -0.4937 -0.7708 -0.3500
  316SOL    HW211418   2.672   9.619   0.596 -0.0560  0.3544  0.4746
  317SOL     OW11419   0.456   5.075   2.704 -0.6509 -0.1457 -0.5256
  317SOL    HW111420   0.546   5.049   2.739 -0.7135 -0.8740 -0.8801
  317SOL    HW211421   0.439   5.171   2.723 -0.0359 -0.1450  0.0545
  318SOL     OW11422   0.052   0.039   2.377 -0.1337 -0.4316 -0.3021
  318SOL    HW111423   0.045  -0.031   2.306  0.9254 -1.4120  0.5507
  318SOL    HW211424   0.033  -0.002   2.466 -2.9197  1.0828 -0.1136
  319SOL     OW11425   1.416   1.153   0.080 -0.6019 -0.0932  0.0602
  319SOL    HW111426   1.463   1.180   0.164  0.4625 -1.3260 -0.1234
  319SOL    HW211427   1.471   1.183   0.001 -1.6622  1.1826 -0.2004
  320SOL     OW11428   9.223   6.320   2.188 -0.1001 -0.5019  0.6829
  320SOL    HW111429   9.301   6.353   2.135 -0.4454 -0.4406  0.2088
  320SOL    HW211430   9.255   6.281   2.275  0.4535 -0.4789  0.4887
  321SOL     OW11431   8.537   9.518   0.697 -0.3919  0.5722  0.5843
  321SOL    HW111432   8.509   9.578   0.622  0.5297 -1.2405 -1.2377
  321SOL    HW211433   8.621   9.553   0.738 -0.9761  1.6456  0.8980
  322SOL     OW11434   0.711   9.328   3.143  0.8955 -0.3171  0.1436
  322SOL    HW111435   0.683   9.326   3.239  0.5174  0.3424  0.0510
  322SOL    HW211436   0.635   9.298   3.086  0.7893  0.2592 -0.0201
  323SOL     OW11437   9.766   5.612   3.037 -0.2037  0.3696  0.8038
  323SOL    HW111438   9.712   5.609   2.954 -0.6322  0.0448  1.0932
  323SOL    HW211439   9.737   5.540   3.100  1.1563 -0.3730  0.6033
  324SOL     OW11440   1.385   9.120   1.438 -0.0825 -0.4915  0.6335
  324SOL    HW111441   1.467   9.077   1.401 -0.4576 -1.0446  0.4289
  324SOL    HW211442   1.390   9.122   1.538  0.4812  0.0973  0.6014
  325SOL     OW11443   8.289   8.431   3.020 -0.0514 -0.5594  0.4069
  325SOL    HW111444   8.306   8.336   3.045  0.3472 -0.5253  0.2573
  325SOL    HW211445   8.375   8.476   2.997 -0.3271 -0.3938 -0.3299
  326SOL     OW11446   8.747   6.350   1.273  0.1254 -0.0318  0.0701
  326SOL    HW111447   8.795   6.437   1.275  1.7381 -0.9220  1.0462
  326SOL    HW211448   8.650   6.365   1.252  0.6431  1.8587 -1.0206
  327SOL     OW11449   4.746   0.141   3.755 -0.3483 -0.1977 -0.3382
  327SOL    HW111450   4.768   0.108   3.847  1.5509 -2.1007 -1.4177
  327SOL    HW211451   4.779   0.075   3.687 -1.0652  1.5215 -2.4210
  328SOL     OW11452   2.916   4.950   0.684  0.3899  0.0902  0.3255
  328SOL    HW111453   2.873   5.030   0.726 -0.5050 -1.1648  1.8622
  328SOL    HW211454   2.855   4.913   0.614  0.9693  0.9594 -0.6500
  329SOL     OW11455   1.323   4.375   3.112 -0.0600  0.1428  0.0521
  329SOL    HW111456   1.280   4.332   3.191 -0.2936  1.7824  0.8244
  329SOL    HW211457   1.354   4.466   3.136  2.4099 -0.4001 -0.9802
  330SOL     OW11458   1.299   7.893   1.245  0.3224 -0.1624  0.2618
  330SOL    HW111459   1.229   7.925   1.181  0.1680  0.3041  0.6630
  330SOL    HW211460   1.279   7.927   1.337 -0.1740 -1.9191  0.8274
  331SOL     OW11461   9.923   3.351   3.145  0.8922 -0.6664  0.1348
  331SOL    HW111462   9.945   3.405   3.064  0.7730 -3.0377 -1.5023
  331SOL    HW211463   9.884   3.411   3.215 -0.3005  1.1760 -2.0506
  332SOL     OW11464   9.318   2.318   1.085  0.2864  0.0264 -0.1066
  332SOL    HW111465   9.304   2.220   1.076  0.0865 -0.2296  2.6370
  332SOL    HW211466   9.248   2.368   1.033 -0.3897 -1.2665 -0.4379
  333SOL     OW11467   3.092   5.583   1.922 -0.4173  0.6922  0.1760
  333SOL    HW111468   3.112   5.677   1.895  0.0089  0.6483  0.3321
  333SOL    HW211469   2.998   5.577   1.956 -0.0314  1.3147  1.3620
  334SOL     OW11470   1.605   8.968   2.173  0.6820 -0.2590  0.0478
  334SOL    HW111471   1.663   8.903   2.125 -0.0974 -1.0743  0.1960
  334SOL    HW211472   1.651   9.056   2.179  1.1493 -0.3997 -1.4079
  335SOL     OW11473   1.809   4.787   3.730 -0.1249  1.1461  0.4234
  335SOL    HW111474   1.772   4.872   3.766 -0.9955  0.7865  0.3832
  335SOL    HW211475   1.765   4.764   3.643 -1.2230 -0.2562  1.3053
  336SOL     OW11476   3.342   4.748   3.926 -0.3954  0.4617  0.6500
  336SOL    HW111477   3.245   4.726   3.920 -0.6241  1.0519  2.1609
  336SOL    HW211478   3.354   4.847   3.920  0.3037  0.2694 -1.7898
  337SOL     OW11479   2.472   1.593   0.029 -0.8522 -0.2051  0.1907
  337SOL    HW111480   2.523   1.679   0.024 -2.1719  0.6225  0.5119
  337SOL    HW211481   2.389   1.608   0.084 -0.4889 -1.9887  1.2531
  338SOL     OW11482   7.755   8.291   1.542 -0.2358 -0.1246 -0.1072
  338SOL    HW111483   7.796   8.313   1.630  2.3270 -1.8328 -0.8279
  338SOL    HW211484   7.755   8.192   1.528 -3.0062 -0.0554 -0.9273
  339SOL     OW11485   5.328   7.926   3.218 -0.2081 -0.3424 -0.4518
  339SOL    HW111486   5.339   7.966   3.309  0.0807 -2.2019  0.3480
  339SOL    HW211487   5.241   7.877   3.213  1.1020 -2.7889 -0.1621
  340SOL     OW11488   1.585   0.484   0.701  0.5092  0.1525 -0.0724
  340SOL    HW111489   1.612   0.398   0.656  1.6549  1.1221 -1.2808
  340SOL    HW211490   1.580   0.469   0.800  2.1489 -0.9550 -0.1301
  341SOL     OW11491   3.750   4.425   0.642 -0.3385  0.0451 -0.0445
  341SOL    HW111492   3.708   4.344   0.684 -1.4698  0.1728 -0.9020
  341SOL    HW211493   3.715   4.507   0.687 -2.0506  0.2137 -1.6205
  342SOL     OW11494   3.851   0.113   2.773  0.3321 -0.5379  0.4194
  342SOL    HW111495   3.828   0.068   2.686 -0.2663 -0.2124  0.4048
  342SOL    HW211496   3.829   0.052   2.849 -2.5396  0.5306  0.5048
  343SOL     OW11497   4.190   7.021   1.098 -0.0101 -0.6669  0.1032
  343SOL    HW111498   4.287   7.046   1.095 -0.2625  0.4609  0.8527
  343SOL    HW211499   4.135   7.103   1.087 -0.8776 -1.1423  0.8365
  344SOL     OW11500   4.560   1.641   1.151 -0.0297 -0.3151  0.4449
  344SOL    HW111501   4.468   1.681   1.146  1.0731  2.2948 -0.1742
  344SOL    HW211502   4.612   1.669   1.070  1.4369 -1.4745  0.9757
  345SOL     OW11503   0.132   3.682   2.025 -0.4570  0.2756  0.2445
  345SOL    HW111504   0.182   3.683   2.111 -2.7832 -2.4145  1.7436
  345SOL    HW211505   0.034   3.667   2.043 -1.3253  1.8300 -2.7557
  346SOL     OW11506   3.815   4.295   3.136  0.0913 -0.0803 -0.3334
  346SOL    HW111507   3.779   4.243   3.213  1.7438 -0.7617 -0.0088
  346SOL    HW211508   3.848   4.232   3.066  2.5059  0.4876  0.2488
  347SOL     OW11509   7.855   0.517   0.058 -0.1837 -0.5111 -0.6446
  347SOL    HW111510   7.863   0.563   0.146  2.7358 -2.7880  0.3506
  347SOL    HW211511   7.758   0.511   0.032 -1.0847  0.2086  2.3487
  348SOL     OW11512   0.686   3.316   1.383  0.2768 -0.1303  0.2257
  348SOL    HW111513   0.607   3.377   1.388 -0.8741 -1.6156  0.5582
  348SOL    HW211514   0.655   3.222   1.368  1.9740 -0.7877  0.6798
  349SOL     OW11515   4.974   6.925   2.376  0.3663 -0.5477  0.5139
  349SOL    HW111516   5.008   6.899   2.466  2.2111  0.7719  0.2289
  349SOL    HW211517   4.991   7.023   2.360  2.4821 -1.3095 -2.2891
  350SOL     OW11518   8.684   7.761   0.972  0.0365 -0.2317  0.3555
  350SOL    HW111519   8.642   7.829   0.911 -0.3818 -1.5526 -0.8596
  350SOL    HW211520   8.769   7.798   1.009  0.3291  0.5782 -1.0784
  351SOL     OW11521   1.234   7.984   1.540  0.1161 -0.5033 -0.3272
  351SOL    HW111522   1.204   7.922   1.613  0.7393 -0.3219  0.0812
  351SOL    HW211523   1.161   8.050   1.521  0.4986  0.3648  1.1475
  352SOL     OW11524   4.998   2.260   1.513  0.3958  0.7049 -0.6517
  352SOL    HW111525   4.908   2.233   1.549  0.6338  0.2924 -0.3672
  352SOL    HW211526   4.986   2.307   1.426 -0.0570  0.1232 -0.9095
  353SOL     OW11527   9.057   8.682   3.953 -0.7049 -0.0578  0.4291
  353SOL    HW111528   9.105   8.753   3.901 -2.1157 -0.8595 -2.0775
  353SOL    HW211529   8.961   8.707   3.963 -0.7593 -0.6211  1.3922
  354SOL     OW11530   3.972   0.598   1.242  1.0105  0.1475 -0.0306
  354SOL    HW111531   4.043   0.559   1.184  1.3311 -0.6574  0.8968
  354SOL    HW211532   3.988   0.572   1.337 -0.6715 -0.2859  0.1572
  355SOL     OW11533   9.075   9.086   2.870  0.4547  0.2181  0.2887
  355SOL    HW111534   9.152   9.075   2.934  0.7792 -2.3998 -0.4744
  355SOL    HW211535   9.053   8.997   2.830 -1.5017  1.3568 -1.2271
  356SOL     OW11536   7.127   0.233   3.150  0.3372 -0.6367 -0.0255
  356SOL    HW111537   7.165   0.172   3.080  0.1128 -0.6296 -0.1541
  356SOL    HW211538   7.123   0.185   3.237  1.4206 -0.3701  0.1778
  357SOL     OW11539   1.680   4.951   2.432 -0.8231  0.0218 -0.0356
  357SOL    HW111540   1.592   4.905   2.438 -1.3889  0.8798 -1.5049
  357SOL    HW211541   1.718   4.940   2.340  1.4204 -1.7729  1.0356
  358SOL     OW11542   6.325   8.360   3.517  0.1784  0.0855  0.0138
  358SOL    HW111543   6.415   8.349   3.474  0.0461 -2.9250  0.4099
  358SOL    HW211544   6.321   8.449   3.563  3.1596  0.0356  0.4839
  359SOL     OW11545   9.678   9.149   2.161 -0.3422  0.1903 -0.2678
  359SOL    HW111546   9.704   9.137   2.065 -0.5053  1.9774 -0.5587
  359SOL    HW211547   9.619   9.074   2.189  2.1466 -2.0204 -0.6546
  360SOL     OW11548   3.528   3.400   2.402 -0.2474  0.4840  0.2434
  360SOL    HW111549   3.564   3.311   2.374 -0.0084  0.9896 -1.1139
  360SOL    HW211550   3.441   3.388   2.449 -1.3292 -0.3336 -1.8998
  361SOL     OW11551   9.689   6.954   3.505  0.0091 -0.1466  0.3005
  361SOL    HW111552   9.726   7.003   3.583 -0.1573  0.4317  0.0195
  361SOL    HW211553   9.762   6.935   3.439 -0.2111  1.1716 -0.3485
  362SOL     OW11554   3.951   4.337   0.971 -0.4372  0.1443  0.1309
  362SOL    HW111555   3.881   4.269   0.992 -0.1781  0.3852  1.7934
  362SOL    HW211556   3.930   4.422   1.018 -0.2780  0.9550 -1.2371
  363SOL     OW11557   4.165   0.496   3.484  0.2214 -0.0809 -0.0207
  363SOL    HW111558   4.181   0.439   3.404  0.1155  1.6022 -1.2767
  363SOL    HW211559   4.091   0.560   3.465  1.1259  1.2730  0.9080
  364SOL     OW11560   2.401   6.709   2.458 -0.0559  0.0852  0.5564
  364SOL    HW111561   2.387   6.680   2.364 -0.1378  0.2574  0.5157
  364SOL    HW211562   2.498   6.701   2.482  0.1779  1.3323  0.0363
  365SOL     OW11563   1.849   8.427   1.246 -0.9356  0.3259  1.2060
  365SOL    HW111564   1.877   8.511   1.292 -1.7538  0.9484  0.5921
  365SOL    HW211565   1.928   8.366   1.237 -0.0460  1.5404  0.5807
  366SOL     OW11566   3.149   2.975   2.912 -1.0130 -0.3655 -0.0256
  366SOL    HW111567   3.080   2.996   2.842 -0.9799 -1.3171 -0.3651
  366SOL    HW211568   3.113   2.904   2.973 -1.0518  0.4856  0.9492
  367SOL     OW11569   0.122   1.350   3.017  0.4489  0.1351  0.8921
  367SOL    HW111570   0.165   1.264   3.044  1.3326 -0.2534 -1.6793
  367SOL    HW211571   0.184   1.402   2.959 -1.3187  1.0310 -0.2302
  368SOL     OW11572   2.314   4.710   1.596  0.4470  0.0646 -0.5070
  368SOL    HW111573   2.223   4.685   1.631 -0.0782 -0.4463 -2.1521
  368SOL    HW211574   2.352   4.633   1.544  1.9890  0.1522  0.4859
  369SOL     OW11575   0.136   3.347   3.954  0.0949 -0.2493  0.3009
  369SOL    HW111576   0.089   3.270   3.910  3.2067 -1.9929 -0.1760
  369SOL    HW211577   0.159   3.322   4.049 -0.9127  0.9978  0.8774
  370SOL     OW11578   0.428   2.625   3.506  0.1513  0.6255  0.0319
  370SOL    HW111579   0.366   2.633   3.428  0.0723 -0.3189 -0.0018
  370SOL    HW211580   0.502   2.562   3.483  1.4711  2.2070 -0.1503
  371SOL     OW11581   8.802   3.164   0.608  0.0638 -0.4917 -0.4516
  371SOL    HW111582   8.753   3.212   0.536 -2.0513 -1.2106  0.4760
  371SOL    HW211583   8.746   3.163   0.691  2.6690  0.7890  1.3829
  372SOL     OW11584   9.597   2.670   1.434 -0.0457  0.2934  0.3285
  372SOL    HW111585   9.663   2.738   1.466  1.7860 -1.2766  0.0374
  372SOL    HW211586   9.505   2.696   1.462  0.4804  3.4401 -0.7314
  373SOL     OW11587   8.108   2.032   1.965 -0.5147  0.0359  0.1048
  373SOL    HW111588   8.198   2.004   1.934 -1.1850  1.1869 -2.9717
  373SOL    HW211589   8.047   1.952   1.968  0.6974 -0.8728  2.8492
  374SOL     OW11590   9.061   6.968   1.960 -0.0055  0.1359  0.2071
  374SOL    HW111591   8.974   6.918   1.966  0.7558 -1.2101  0.1851
  374SOL    HW211592   9.104   6.970   2.051 -0.5097  1.6505  0.4293
  375SOL     OW11593   2.173   7.454   0.424 -0.2876 -0.1335 -0.2342
  375SOL    HW111594   2.250   7.507   0.461  0.7411 -2.1395  0.6416
  375SOL    HW211595   2.206   7.394   0.351 -1.2339 -0.2599 -0.5665
  376SOL     OW11596   1.470   8.039   1.682  0.2796  0.4107  0.0236
  376SOL    HW111597   1.389   8.010   1.632  0.9762  1.3505 -1.7130
  376SOL    HW211598   1.450   8.122   1.734  0.0518  0.5023 -0.2084
  377SOL     OW11599   9.721   5.106   2.418  0.2671 -0.1543 -0.4474
  377SOL    HW111600   9.758   5.190   2.457 -0.6952 -0.4803  1.2438
  377SOL    HW211601   9.794   5.053   2.375  0.9368  1.3489 -1.1835
  378SOL     OW11602   0.508   1.415   0.179  0.8320 -0.0897 -0.1050
  378SOL    HW111603   0.520   1.502   0.132  0.0794  0.9341  1.5364
  378SOL    HW211604   0.544   1.422   0.272  0.4586 -1.4242  0.1520
  379SOL     OW11605   8.630   2.095   0.705 -0.4317  0.4927  0.4138
  379SOL    HW111606   8.651   2.005   0.743  0.3385 -0.2985 -1.8046
  379SOL    HW211607   8.705   2.158   0.724 -0.1723  0.1797  0.4282
  380SOL     OW11608   3.380   0.190   3.021 -0.1793  0.0843 -0.3160
  380SOL    HW111609   3.452   0.249   2.985 -0.0532  0.9800  1.3210
  380SOL    HW211610   3.291   0.223   2.991  0.0342 -0.6029 -1.7560
  381SOL     OW11611   8.545   8.793   1.884  0.0871 -0.0468  0.0815
  381SOL    HW111612   8.613   8.719   1.882 -0.8310 -0.8808 -0.4264
  381SOL    HW211613   8.522   8.819   1.790 -0.6548 -0.1044  0.2446
  382SOL     OW11614   9.152   3.687   1.012 -0.5984  0.2428  0.2556
  382SOL    HW111615   9.182   3.649   0.924 -2.0954  1.1990 -0.6903
  382SOL    HW211616   9.226   3.742   1.051  0.4225 -0.9957  0.0687
  383SOL     OW11617   1.469   6.622   0.478 -0.6693 -0.1783 -0.4877
  383SOL    HW111618   1.555   6.578   0.450 -1.3666 -0.1866 -2.6782
  383SOL    HW211619   1.423   6.565   0.546  0.7567 -0.4801  0.2410
  384SOL     OW11620   3.248   3.225   0.656 -0.3297  0.2664 -0.0722
  384SOL    HW111621   3.230   3.316   0.618 -1.5304 -0.1183 -0.4526
  384SOL    HW211622   3.278   3.164   0.583  1.2019  0.5516  0.3193
  385SOL     OW11623   2.528   8.684   0.324  0.1932  0.7221 -0.4554
  385SOL    HW111624   2.438   8.661   0.287  0.1588  0.0938  0.0023
  385SOL    HW211625   2.582   8.731   0.255  0.9622 -2.4720 -2.1333
  386SOL     OW11626   2.944   0.797   2.859  0.2618 -0.0410 -0.0954
  386SOL    HW111627   3.000   0.753   2.789  1.7271  2.1120 -0.3155
  386SOL    HW211628   2.911   0.885   2.825  0.3744  0.6847  1.6345
  387SOL     OW11629   0.946   7.975   3.361 -0.1784  0.3839 -0.2747
  387SOL    HW111630   0.987   8.062   3.333  0.9775 -0.6881 -2.0562
  387SOL    HW211631   1.014   7.921   3.410 -0.5544  0.0239 -0.1529
  388SOL     OW11632   3.352   7.709   2.650 -0.0871  0.0363 -0.2816
  388SOL    HW111633   3.369   7.799   2.609 -0.9274 -0.1222 -0.9853
  388SOL    HW211634   3.439   7.667   2.675  0.4801 -0.0538 -2.3179
  389SOL     OW11635   4.090   9.212   0.668  0.0775 -0.8649 -0.4344
  389SOL    HW111636   4.118   9.277   0.738  0.5927  0.2942 -1.7002
  389SOL    HW211637   4.037   9.138   0.710 -0.6264  0.4294  1.0078
  390SOL     OW11638   4.294   9.704   2.930 -0.7037  0.4609 -0.4983
  390SOL    HW111639   4.380   9.755   2.921 -0.7744  0.6462 -0.1374
  390SOL    HW211640   4.279   9.649   2.848  0.3502 -0.4742 -0.0789
  391SOL     OW11641   8.915   2.120   0.335  1.0129 -0.3017 -0.6106
  391SOL    HW111642   8.932   2.195   0.399  1.7837 -1.9632  1.2078
  391SOL    HW211643   8.823   2.129   0.296  1.4187  2.0204 -1.0634
  392SOL     OW11644   4.646   3.632   3.934  0.2864 -0.6784 -0.0807
  392SOL    HW111645   4.563   3.677   3.967  1.4281  0.9164  0.6532
  392SOL    HW211646   4.647   3.635   3.834  0.5132  1.3131 -0.0532
  393SOL     OW11647   1.583   9.997   1.750 -0.8747  0.1371 -0.1329
  393SOL    HW111648   1.678  10.004   1.782 -0.6323  0.1990 -0.8765
  393SOL    HW211649   1.533   9.934   1.810 -0.4455  0.3462  0.4474
  394SOL     OW11650   2.203   2.254   3.736 -0.4582  0.5723  0.0606
  394SOL    HW111651   2.133   2.321   3.713 -1.7350  0.0304  2.2565
  394SOL    HW211652   2.274   2.297   3.791 -0.1304  0.6462 -0.4223
  395SOL     OW11653   0.816   6.982   3.868  0.2118 -0.0188  0.3405
  395SOL    HW111654   0.794   7.011   3.775 -0.3291  0.0561  0.4882
  395SOL    HW211655   0.827   7.062   3.926  2.0486 -0.0142  0.0190
  396SOL     OW11656   2.634   8.376   0.654 -0.1649 -0.0842  0.0220
  396SOL    HW111657   2.625   8.349   0.558  0.7467 -0.3022 -0.0007
  396SOL    HW211658   2.693   8.456   0.661 -0.1398 -0.1375  0.4100
  397SOL     OW11659   0.565   1.355   1.282 -0.3406  0.0575  0.0230
  397SOL    HW111660   0.601   1.291   1.215  2.9015 -0.0588  1.7607
  397SOL    HW211661   0.569   1.448   1.245 -2.5500 -0.4050 -1.4815
  398SOL     OW11662   3.741   9.819   2.034  0.2744  0.4886 -0.2716
  398SOL    HW111663   3.763   9.804   1.938  0.6762 -2.0425  0.1885
  398SOL    HW211664   3.660   9.766   2.059 -0.8055  2.3870  0.4224
  399SOL     OW11665   9.522   3.146   2.417 -0.1705 -0.1554 -0.0353
  399SOL    HW111666   9.518   3.151   2.317  0.8775  1.1317 -0.0370
  399SOL    HW211667   9.616   3.164   2.447 -0.3876 -0.9654  1.1691
  400SOL     OW11668   3.710   9.871   3.382  0.4438  0.3099 -0.4155
  400SOL    HW111669   3.766   9.796   3.416  0.6063  0.9451  0.7630
  400SOL    HW211670   3.768   9.942   3.344  0.4142  0.7576  0.3715
  401SOL     OW11671   3.271   9.282   1.692 -0.2019  0.3957  0.1600
  401SOL    HW111672   3.312   9.210   1.748 -0.1773  0.6273  0.4435
  401SOL    HW211673   3.176   9.258   1.672  0.1084 -0.2139 -0.6160
  402SOL     OW11674   8.145   3.846   1.146 -0.4108  0.0573 -0.3724
  402SOL    HW111675   8.177   3.771   1.204 -0.3100  1.3116  1.1998
  402SOL    HW211676   8.097   3.913   1.202  0.8599  1.9540 -1.5273
  403SOL     OW11677   9.495   7.645   0.762  0.3872  0.2523  0.4140
  403SOL    HW111678   9.496   7.547   0.783  0.8741  0.2483  0.3766
  403SOL    HW211679   9.546   7.662   0.678 -1.1249  0.3329 -0.4996
  404SOL     OW11680   0.934   8.438   0.550 -0.0136  0.4415  0.0248
  404SOL    HW111681   0.958   8.346   0.582  1.0658  0.6160 -0.2799
  404SOL    HW211682   0.859   8.474   0.607 -0.2071 -0.4777  0.3707
  405SOL     OW11683   8.940   4.411   2.296 -0.0282 -0.2783  0.2084
  405SOL    HW111684   9.025   4.390   2.345  0.7556 -0.6202 -1.2496
  405SOL    HW211685   8.947   4.377   2.202 -1.0124  1.4417 -0.5020
  406SOL     OW11686   4.537   5.205   2.225 -0.1000 -0.4182  1.4596
  406SOL    HW111687   4.486   5.123   2.199  1.5250 -0.8505 -0.5522
  406SOL    HW211688   4.479   5.264   2.281 -2.1816 -1.7042  0.7339
  407SOL     OW11689   9.357   2.482   2.638 -0.0160  0.6131 -0.2576
  407SOL    HW111690   9.327   2.445   2.726 -1.9086 -0.3698 -1.3015
  407SOL    HW211691   9.454   2.461   2.625 -0.3198 -1.3976  0.4922
  408SOL     OW11692   1.950   1.963   3.801 -0.5894  0.3245  0.0485
  408SOL    HW111693   1.956   2.008   3.890  2.4363  0.3545 -0.1259
  408SOL    HW211694   1.967   1.865   3.812 -0.1104  0.3451 -0.5238
  409SOL     OW11695   7.083   8.990   2.316 -0.5295 -0.3646  0.2959
  409SOL    HW111696   7.112   8.948   2.403  2.9625  2.4177  0.5413
  409SOL    HW211697   7.036   9.076   2.335 -0.5656 -0.1950 -0.5609
  410SOL     OW11698   9.154   4.944   2.544 -0.2491  0.0827 -0.3197
  410SOL    HW111699   9.232   4.967   2.486 -1.6148  0.5634 -2.0026
  410SOL    HW211700   9.103   5.027   2.567  0.0095 -0.1621  1.1885
  411SOL     OW11701   8.220   1.997   3.734 -0.4135 -0.1916  0.3946
  411SOL    HW111702   8.264   1.916   3.694  0.2817 -0.5188  1.7856
  411SOL    HW211703   8.163   1.969   3.811  0.7681  0.7483  1.6394
  412SOL     OW11704   2.180   4.460   3.669 -0.4197  0.4667 -0.2304
  412SOL    HW111705   2.135   4.549   3.683  0.3617  0.6054  1.4818
  412SOL    HW211706   2.279   4.473   3.669 -0.1963 -0.8229  3.3287
  413SOL     OW11707   1.032   4.951   1.069 -0.3487 -0.4478  0.4265
  413SOL    HW111708   0.952   5.010   1.062 -1.2130 -1.7831 -1.1929
  413SOL    HW211709   1.076   4.966   1.158 -2.8123 -0.2171  1.6616
  414SOL     OW11710   2.997   6.383   3.158  0.1267  0.2870 -0.0179
  414SOL    HW111711   3.059   6.396   3.236  0.7032  0.0434 -0.4385
  414SOL    HW211712   3.008   6.291   3.121 -0.0868  0.4326 -0.4456
  415SOL     OW11713   8.256   0.269   1.801  0.4205  0.3198 -0.0390
  415SOL    HW111714   8.282   0.175   1.823  0.2566  0.3914  0.4612
  415SOL    HW211715   8.165   0.288   1.838 -1.0265 -0.4033 -3.0330
  416SOL     OW11716   0.405   5.707   2.503 -0.2620  0.6574  0.3614
  416SOL    HW111717   0.326   5.743   2.552  0.0699  2.3540 -0.3003
  416SOL    HW211718   0.429   5.770   2.429  0.9640 -0.4508 -0.1958
  417SOL     OW11719   1.703   1.339   3.682  0.2205  0.1358 -0.1498
  417SOL    HW111720   1.791   1.311   3.644  0.0850 -1.3517  0.6184
  417SOL    HW211721   1.682   1.432   3.652  2.0844  0.5228 -0.2881
  418SOL     OW11722   2.705   9.013   1.415  0.5149  0.1955 -0.4186
  418SOL    HW111723   2.620   9.064   1.430 -0.6546 -1.4347 -1.2234
  418SOL    HW211724   2.699   8.925   1.461  1.1236 -0.5571 -1.7378
  419SOL     OW11725   0.592   9.330   3.456  0.0264 -0.0347 -0.0046
  419SOL    HW111726   0.516   9.314   3.393  0.0211 -0.8599  0.2117
  419SOL    HW211727   0.563   9.392   3.528  0.0069  0.8593 -0.7630
  420SOL     OW11728   7.445   9.822   2.296  0.0041 -0.2853  0.0212
  420SOL    HW111729   7.447   9.866   2.386  0.0745  0.3075 -0.2671
  420SOL    HW211730   7.529   9.769   2.282 -0.1011 -0.5509  0.3884
  421SOL     OW11731   9.194   9.382   2.825  0.3823  0.0295  0.3274
  421SOL    HW111732   9.208   9.284   2.810 -0.5321 -0.0630  0.0331
  421SOL    HW211733   9.282   9.427   2.837  0.9166 -0.5093 -1.5112
  422SOL     OW11734   3.837   1.696   3.917  0.6647 -0.3839 -0.2008
  422SOL    HW111735   3.753   1.733   3.956  0.5105 -0.6409 -0.2819
  422SOL    HW211736   3.913   1.711   3.980  0.3007 -1.3475  0.4867
  423SOL     OW11737   8.783   0.737   3.775  0.1723 -0.6205 -0.2399
  423SOL    HW111738   8.748   0.644   3.790 -0.6067 -0.8351 -3.1422
  423SOL    HW211739   8.739   0.799   3.840 -1.3211 -1.8389 -0.0538
  424SOL     OW11740   9.043   6.710   1.009  0.5123  0.1015 -0.6370
  424SOL    HW111741   9.050   6.611   0.991  2.4792  0.6614 -3.3574
  424SOL    HW211742   9.079   6.730   1.100 -1.5469 -1.8857  0.6553
  425SOL     OW11743   3.051   9.621   3.988  1.1400 -0.1468 -0.5353
  425SOL    HW111744   3.095   9.532   3.981  1.3472 -0.0198 -0.9078
  425SOL    HW211745   3.089   9.682   3.918  0.7498  0.1244 -0.5143
  426SOL     OW11746   0.096   6.575   3.288  0.1318  0.7796  0.2984
  426SOL    HW111747   0.028   6.527   3.234  0.2084  1.4365 -0.3942
  426SOL    HW211748   0.176   6.517   3.301  0.0636  0.5772 -0.1972
  427SOL     OW11749   3.901   4.220   2.586  0.2477 -0.1020 -0.1869
  427SOL    HW111750   3.901   4.300   2.646 -0.7447 -0.3649  0.1617
  427SOL    HW211751   3.993   4.181   2.583  0.4847  0.3996  0.5023
  428SOL     OW11752   0.476   6.803   0.444  0.3624 -0.0285 -0.1491
  428SOL    HW111753   0.387   6.785   0.403  1.2630 -0.4865 -1.9679
  428SOL    HW211754   0.493   6.738   0.518 -0.7341 -0.0386  0.1010
  429SOL     OW11755   5.039   2.029   0.904  0.4696  0.3927 -0.1975
  429SOL    HW111756   5.006   2.094   0.973 -0.3175 -0.0660 -0.1365
  429SOL    HW211757   5.016   1.936   0.931 -1.1841  0.3041 -1.7848
  430SOL     OW11758   0.752   8.585   0.689 -0.2931  0.2434  0.5071
  430SOL    HW111759   0.838   8.619   0.727  0.6925  0.4514 -1.8284
  430SOL    HW211760   0.692   8.662   0.667 -0.0927  0.2353 -0.0876
  431SOL     OW11761   7.984   0.950   0.020 -0.2136 -0.2195 -0.3576
  431SOL    HW111762   7.889   0.973   0.000  0.6693  3.8250 -0.3536
  431SOL    HW211763   7.991   0.916   0.114 -1.6712 -0.4772 -0.3298
  432SOL     OW11764   8.947   5.481   2.170 -0.3814 -0.2032 -0.0800
  432SOL    HW111765   8.898   5.561   2.136 -0.3179  0.1599  0.6656
  432SOL    HW211766   9.022   5.459   2.108 -0.0945  0.6198 -0.0283
  433SOL     OW11767   8.030   6.460   2.008  0.1104  0.4167 -0.3935
  433SOL    HW111768   7.982   6.388   1.958 -0.7289 -0.1994  1.2811
  433SOL    HW211769   8.120   6.426   2.036 -0.8155 -0.4806  1.5742
  434SOL     OW11770   0.806   5.882   1.137 -0.3135 -0.6897  0.3812
  434SOL    HW111771   0.819   5.946   1.212  1.5045 -0.6602  0.0550
  434SOL    HW211772   0.729   5.913   1.080  1.5657  2.1311 -0.7142
  435SOL     OW11773   3.902   9.266   0.464  0.4390 -0.3227  0.0799
  435SOL    HW111774   3.972   9.284   0.533  0.2013 -0.6514  0.4081
  435SOL    HW211775   3.863   9.175   0.479 -1.5036  0.6639  1.1630
  436SOL     OW11776   3.751   4.127   1.018  0.3972  0.2378  0.2992
  436SOL    HW111777   3.690   4.110   0.941  1.0497  0.6201 -0.2992
  436SOL    HW211778   3.697   4.157   1.097 -0.2954 -0.3899  0.0734
  437SOL     OW11779   3.746   8.948   1.038  0.1260 -0.0773 -0.0452
  437SOL    HW111780   3.697   8.861   1.039 -2.9000  1.4987 -2.1827
  437SOL    HW211781   3.800   8.957   1.122  0.7053 -4.0855  0.0722
  438SOL     OW11782   8.898   1.284   0.059  0.2043  0.5302 -0.4399
  438SOL    HW111783   8.971   1.225   0.091  0.0170  0.6294  0.1829
  438SOL    HW211784   8.926   1.380   0.066 -0.0731  0.5785  0.0243
  439SOL     OW11785   8.234   5.152   1.950  0.4987 -0.3720 -0.0150
  439SOL    HW111786   8.276   5.072   1.992  0.5731  0.2943  1.1828
  439SOL    HW211787   8.273   5.235   1.990  0.0987  0.2599 -0.9331
  440SOL     OW11788   3.467   9.438   3.191  0.0161 -0.2241 -0.3500
  440SOL    HW111789   3.411   9.518   3.170  0.0224  0.3951  1.8543
  440SOL    HW211790   3.528   9.459   3.267 -0.3966 -2.4881  0.6494
  441SOL     OW11791   6.056   8.703   1.872 -0.0193 -0.3459 -0.5316
  441SOL    HW111792   6.096   8.622   1.828  1.0633 -0.2815  0.3214
  441SOL    HW211793   5.971   8.678   1.917  1.3855 -1.4823  1.5346
  442SOL     OW11794   4.570   7.679   3.944  0.0232  0.1273 -0.5888
  442SOL    HW111795   4.661   7.722   3.945  0.1718 -0.2157  0.3846
  442SOL    HW211796   4.580   7.580   3.935 -0.2556  0.0747 -0.2939
  443SOL     OW11797   1.810   1.804   0.484  0.1100  0.0659  0.3239
  443SOL    HW111798   1.906   1.801   0.456  0.0515  3.0916 -0.3990
  443SOL    HW211799   1.800   1.864   0.563 -0.9262 -1.8221  1.6593
  444SOL     OW11800   2.570   4.190   1.335 -0.1478  0.1598  0.7676
  444SOL    HW111801   2.498   4.217   1.271  0.8459 -1.2540 -0.9738
  444SOL    HW211802   2.528   4.155   1.419 -1.6509 -3.6230 -1.4314
  445SOL     OW11803   9.394   3.832   1.091  0.6280 -0.7410  0.0683
  445SOL    HW111804   9.346   3.867   1.172 -1.6327 -0.3479 -1.3836
  445SOL    HW211805   9.438   3.908   1.044  1.7791 -0.9402  0.8190
  446SOL     OW11806   1.416   4.781   2.961 -0.0238 -0.3956 -0.3986
  446SOL    HW111807   1.445   4.755   2.868  0.5734  1.2909 -0.7149
  446SOL    HW211808   1.325   4.822   2.957  0.6630  1.1862 -0.5144
  447SOL     OW11809   9.586   4.862   2.045  0.4656 -0.7342  0.0775
  447SOL    HW111810   9.558   4.893   1.954  0.6990 -0.8626 -0.0372
  447SOL    HW211811   9.514   4.805   2.084  0.5110 -0.9509 -0.1602
  448SOL     OW11812   2.151   7.233   3.765  0.5793  0.6922 -0.3680
  448SOL    HW111813   2.196   7.170   3.701  1.4431 -0.8000  1.6702
  448SOL    HW211814   2.078   7.185   3.813  1.8099  0.9831  1.8275
  449SOL     OW11815   8.345   1.445   1.570  0.0568 -0.0973  0.1602
  449SOL    HW111816   8.277   1.514   1.593 -1.1456 -1.1048 -0.2724
  449SOL    HW211817   8.324   1.360   1.618  1.0283 -0.4161  0.0319
  450SOL     OW11818   7.795   8.083   0.194  0.1896 -0.4239  0.4295
  450SOL    HW111819   7.782   8.008   0.130  1.8953 -0.6893  0.3611
  450SOL    HW211820   7.883   8.127   0.176 -0.3870  1.0136  1.0546
  451SOL     OW11821   3.066   4.055   3.320  0.3970 -0.2014  0.0511
  451SOL    HW111822   3.074   3.965   3.276  2.0163 -0.1861  0.2889
  451SOL    HW211823   2.987   4.055   3.381  0.5739 -1.5876  0.3035
  452SOL     OW11824   3.061   9.405   0.220 -0.4777 -0.4406  0.4752
  452SOL    HW111825   2.965   9.387   0.239 -1.3094 -0.4865 -3.4159
  452SOL    HW211826   3.102   9.325   0.177  0.2806  0.9348 -1.3908
  453SOL     OW11827   0.888   2.723   3.880 -0.5814  0.0500  0.2501
  453SOL    HW111828   0.839   2.663   3.944  0.0516  1.8508  2.4702
  453SOL    HW211829   0.952   2.668   3.827  0.3059 -1.2395  2.5642
  454SOL     OW11830   8.741   5.422   0.493 -0.3789  0.1652 -0.3817
  454SOL    HW111831   8.716   5.407   0.589 -0.2918 -1.2060 -0.5705
  454SOL    HW211832   8.815   5.359   0.468 -0.3959  0.5327 -1.3539
  455SOL     OW11833   1.389   5.867   2.232  0.7427 -0.3012 -0.3211
  455SOL    HW111834   1.413   5.827   2.144  1.9534  1.7453 -0.9559
  455SOL    HW211835   1.467   5.917   2.269 -0.2170  0.1143  1.1963
  456SOL     OW11836   5.663   7.568   2.597  0.2689  0.4903  0.0056
  456SOL    HW111837   5.750   7.612   2.617  0.5690 -0.7980  1.5501
  456SOL    HW211838   5.605   7.631   2.545  1.6056  1.8275  0.1255
  457SOL     OW11839   3.961   9.740   1.474  0.1238 -0.0797  0.2764
  457SOL    HW111840   3.996   9.765   1.564  0.1371 -1.7028  0.7423
  457SOL    HW211841   4.000   9.801   1.405  1.1283  0.3549  1.2162
  458SOL     OW11842   2.375   4.604   0.432  0.4480 -0.3409  0.5279
  458SOL    HW111843   2.414   4.693   0.456 -1.4275  1.0661 -1.4255
  458SOL    HW211844   2.294   4.587   0.489 -1.5035  1.0559 -1.7310
  459SOL     OW11845   3.124   7.872   1.231 -0.0384 -0.0005  0.3749
  459SOL    HW111846   3.049   7.828   1.183  0.9220 -0.5157 -0.6900
  459SOL    HW211847   3.188   7.910   1.165  1.7732 -1.5012  1.2117
  460SOL     OW11848   2.725   3.216   1.389  0.0105  0.4044  0.5423
  460SOL    HW111849   2.731   3.121   1.419 -1.5724 -0.0315 -0.4187
  460SOL    HW211850   2.655   3.224   1.318  2.4675  1.7036 -1.7992
  461SOL     OW11851   8.424   4.493   1.002  0.2959  0.5556  0.7190
  461SOL    HW111852   8.505   4.541   1.036  1.8014 -0.5494 -1.2300
  461SOL    HW211853   8.368   4.556   0.948  0.5734  0.9501  0.8875
  462SOL     OW11854   4.058   8.298   3.895  0.1720 -0.2952 -0.6253
  462SOL    HW111855   4.107   8.217   3.863  0.0627 -0.3906 -0.5528
  462SOL    HW211856   3.982   8.269   3.953 -0.0024 -0.1509 -0.7838
  463SOL     OW11857   4.081   3.568   3.600 -0.3520 -0.0805  0.2066
  463SOL    HW111858   4.083   3.650   3.542 -1.3856 -0.6968 -0.7346
  463SOL    HW211859   4.150   3.503   3.568  0.0948  0.2051  0.6037
  464SOL     OW11860   0.687   5.006   2.857  0.0613 -0.5227 -0.3619
  464SOL    HW111861   0.662   5.051   2.942 -1.6405  1.1053 -1.6715
  464SOL    HW211862   0.769   4.950   2.871 -0.0472 -0.0679  2.2442
  465SOL     OW11863   4.178   1.083   0.921  0.1644  0.1191 -0.2631
  465SOL    HW111864   4.140   1.122   0.837  1.2299 -0.7037 -1.1238
  465SOL    HW211865   4.241   1.149   0.963 -1.2091  0.9849  0.5141
  466SOL     OW11866   3.233   3.311   0.065  0.1143 -0.5411 -0.5733
  466SOL    HW111867   3.250   3.217   0.035 -2.5346 -1.1650 -0.2308
  466SOL    HW211868   3.232   3.371  -0.014 -2.2248 -1.4571 -1.2657
  467SOL     OW11869   9.108   1.790   4.011  0.3808 -0.1307  0.1071
  467SOL    HW111870   9.043   1.859   4.043 -0.3783  0.0507 -1.7860
  467SOL    HW211871   9.178   1.833   3.955 -0.6269 -0.9827 -1.8635
  468SOL     OW11872   4.767   9.730   0.874  0.0636  0.4362 -0.0354
  468SOL    HW111873   4.700   9.708   0.945  1.9064  0.9609  1.9297
  468SOL    HW211874   4.856   9.693   0.900  0.9187  1.1824 -1.8009
  469SOL     OW11875   3.113   1.907   1.287  0.2301 -0.2999 -0.1867
  469SOL    HW111876   3.024   1.869   1.264 -0.2728  1.3650 -1.0865
  469SOL    HW211877   3.162   1.931   1.203  1.6047 -1.3306  0.2888
  470SOL     OW11878   3.361   8.193   1.485  0.0307  0.3729 -0.2238
  470SOL    HW111879   3.405   8.222   1.400 -0.2355  0.4031 -0.3534
  470SOL    HW211880   3.264   8.218   1.482 -0.5841 -1.9726 -1.0189
  471SOL     OW11881   3.475   5.241   3.641  0.3167  0.1031  0.3414
  471SOL    HW111882   3.425   5.219   3.724 -0.5761  0.4193 -0.1031
  471SOL    HW211883   3.520   5.159   3.606  0.4243 -0.0999  0.9556
  472SOL     OW11884   0.386   6.386   2.828 -0.1505 -0.0934 -0.0246
  472SOL    HW111885   0.290   6.376   2.855 -0.1332  1.4968  0.6740
  472SOL    HW211886   0.439   6.417   2.907  1.1589 -2.0834 -0.0961
  473SOL     OW11887   0.221   5.024   2.250 -0.5734  0.3124 -0.5005
  473SOL    HW111888   0.267   4.999   2.336 -1.2612  0.0980 -0.1950
  473SOL    HW211889   0.242   4.956   2.180 -0.1645  0.3864 -0.4548
  474SOL     OW11890   1.326   2.128   3.975 -0.0089  0.1444 -0.1899
  474SOL    HW111891   1.321   2.176   4.063 -0.0870  0.1044 -0.1729
  474SOL    HW211892   1.419   2.095   3.961 -0.5632 -2.0724  1.0503
  475SOL     OW11893   1.718   8.031   2.899 -0.1400  0.2433 -0.0629
  475SOL    HW111894   1.706   8.121   2.857  0.7779  0.9553  1.1650
  475SOL    HW211895   1.712   8.040   2.998 -2.2861 -1.4254 -0.0201
  476SOL     OW11896   9.670   2.024   0.937 -0.2022  0.2049 -0.2487
  476SOL    HW111897   9.687   1.931   0.969 -0.6817  0.2476  0.1239
  476SOL    HW211898   9.585   2.027   0.885 -0.2488  0.4647 -0.1571
  477SOL     OW11899   3.261   1.457   2.532  1.0430  0.0477 -0.4875
  477SOL    HW111900   3.221   1.404   2.458  0.4619  1.1042 -0.9513
  477SOL    HW211901   3.359   1.438   2.539  0.9417 -0.6511 -1.0068
  478SOL     OW11902   2.703   0.802   3.265 -0.3691 -0.2152 -0.2842
  478SOL    HW111903   2.608   0.773   3.259 -0.3769  0.1005 -1.9596
  478SOL    HW211904   2.708   0.902   3.262 -0.1752 -0.0575  3.0238
  479SOL     OW11905   0.322   9.724   0.084  0.0301  0.1014  0.4157
  479SOL    HW111906   0.382   9.717   0.164  0.2210 -1.0690  0.1843
  479SOL    HW211907   0.252   9.792   0.101  1.2118  1.2421  0.8306
  480SOL     OW11908   1.885   9.502   3.480 -0.0941 -0.1603  0.1866
  480SOL    HW111909   1.915   9.482   3.573  0.1712 -1.8411 -0.2450
  480SOL    HW211910   1.785   9.505   3.477 -0.1026 -0.0181  0.5345
  481SOL     OW11911   0.093   7.986   0.164  0.4524 -0.3928  0.2192
  481SOL    HW111912   0.074   7.996   0.066 -1.3558  0.4709  0.6497
  481SOL    HW211913   0.149   8.063   0.194  1.6949 -1.0783 -0.2871
  482SOL     OW11914   8.862   4.354   2.860 -0.1349 -0.5027 -0.2196
  482SOL    HW111915   8.884   4.317   2.769 -0.2063 -1.0463 -0.0221
  482SOL    HW211916   8.817   4.283   2.914 -1.9047  0.4273 -0.4365
  483SOL     OW11917   3.307   7.449   0.196 -0.2692  0.4536  0.3216
  483SOL    HW111918   3.245   7.402   0.133 -0.9594  0.0570  1.2874
  483SOL    HW211919   3.297   7.547   0.186  1.2360  0.4369 -1.7736
  484SOL     OW11920   8.707   2.201   3.783 -0.1857  0.1225 -0.0726
  484SOL    HW111921   8.704   2.289   3.735  0.8434  0.0056 -0.3714
  484SOL    HW211922   8.615   2.177   3.814 -0.8546  0.2184 -1.9495
  485SOL     OW11923   2.091   4.408   1.485  0.1619 -0.4684 -0.2839
  485SOL    HW111924   2.048   4.368   1.404  0.1681 -1.1028  0.0221
  485SOL    HW211925   2.188   4.420   1.468  0.4077 -1.8200  0.0858
  486SOL     OW11926   0.889   8.726   2.239 -0.0811  0.3440 -0.0019
  486SOL    HW111927   0.842   8.783   2.306 -0.8487  1.0923 -1.1504
  486SOL    HW211928   0.867   8.630   2.256 -0.6896  0.5648  0.4959
  487SOL     OW11929   2.287   6.396   2.376 -0.1212 -0.1573 -0.3394
  487SOL    HW111930   2.236   6.374   2.460  1.8394  1.0864  1.2008
  487SOL    HW211931   2.245   6.475   2.332  1.7392  2.2940  2.1374
  488SOL     OW11932   1.410   5.949   1.879 -0.4493 -0.5071 -0.3920
  488SOL    HW111933   1.502   5.962   1.842 -0.0696 -1.0855  0.3392
  488SOL    HW211934   1.343   5.958   1.805  0.1160  0.9179 -0.7449
  489SOL     OW11935   2.312   0.875   0.011 -0.0979 -0.9956 -0.0887
  489SOL    HW111936   2.366   0.955   0.038 -0.9089 -0.0629 -1.1601
  489SOL    HW211937   2.216   0.901   0.001 -0.2888 -1.9890 -0.9352
  490SOL     OW11938   8.859   2.099   3.188 -0.2638  0.0270  0.7533
  490SOL    HW111939   8.768   2.077   3.154  0.9354 -0.8039 -2.0350
  490SOL    HW211940   8.885   2.033   3.260 -1.6664  0.0031  1.2438
  491SOL     OW11941   9.497   1.335   1.121 -0.2501 -0.4224 -0.1596
  491SOL    HW111942   9.417   1.282   1.090 -0.4121 -0.8420  0.9556
  491SOL    HW211943   9.466   1.409   1.181  0.3060 -1.3840  1.3330
  492SOL     OW11944   9.420   2.419   0.306 -0.2804 -0.9250  0.4562
  492SOL    HW111945   9.482   2.458   0.374 -0.6110 -0.9544  0.7759
  492SOL    HW211946   9.391   2.490   0.242  1.4272 -1.2672 -0.7261
  493SOL     OW11947   9.737   3.903   3.599 -0.0727  0.0678 -0.3507
  493SOL    HW111948   9.745   3.935   3.694 -0.6294  1.2569 -0.6955
  493SOL    HW211949   9.667   3.832   3.594 -0.8878  0.8242 -0.0445
  494SOL     OW11950   5.537   7.837   2.559  0.7803  0.1019  0.2479
  494SOL    HW111951   5.582   7.926   2.567  1.9381 -0.3447 -1.0748
  494SOL    HW211952   5.482   7.820   2.641  1.0100  1.7688  0.7719
  495SOL     OW11953   3.534   3.483   3.876 -0.5992 -0.0909  0.1409
  495SOL    HW111954   3.435   3.470   3.882 -0.9122  2.1070  0.1588
  495SOL    HW211955   3.556   3.540   3.797  0.8494 -2.3495 -1.1062
  496SOL     OW11956   0.018   7.930   3.934 -0.6223 -0.6843  0.1890
  496SOL    HW111957  -0.007   7.993   3.861 -0.2166 -0.3638  0.3288
  496SOL    HW211958   0.110   7.894   3.918 -0.0806  0.2552  1.1320
  497SOL     OW11959   4.116   9.446   1.820 -0.0331 -0.1664 -0.0520
  497SOL    HW111960   4.045   9.404   1.764  1.2178 -2.8632  0.3475
  497SOL    HW211961   4.090   9.441   1.916  0.5279 -0.8409  0.0667
  498SOL     OW11962   8.121   5.084   1.713 -0.2587  0.1710  0.1848
  498SOL    HW111963   8.184   5.079   1.635  0.3794  1.4791  0.5915
  498SOL    HW211964   8.163   5.137   1.786 -0.8670 -1.0395  1.4296
  499SOL     OW11965   8.264   8.741   2.045  0.0429 -0.1698  0.6965
  499SOL    HW111966   8.331   8.763   1.974  1.1849 -0.1989  1.7335
  499SOL    HW211967   8.230   8.648   2.032 -0.1894  0.0265 -0.1372
  500SOL     OW11968   8.536   2.899   1.480 -0.3514 -0.0504  0.5567
  500SOL    HW111969   8.551   2.826   1.547  0.6665 -0.0305  0.3562
  500SOL    HW211970   8.492   2.977   1.525  1.5835  0.5048  1.5201
  501SOL     OW11971   3.557   7.938   2.788  0.3486 -0.3789 -0.2682
  501SOL    HW111972   3.550   7.983   2.699 -0.9161 -2.6647 -1.3767
  501SOL    HW211973   3.492   7.978   2.852  2.7118  2.7193  0.3437
  502SOL     OW11974   1.310   4.379   2.683  0.1287 -0.2901  0.2558
  502SOL    HW111975   1.226   4.419   2.719  0.2326 -0.6551  0.9056
  502SOL    HW211976   1.367   4.348   2.758  0.3792 -0.9832 -0.2175
  503SOL     OW11977   4.941   8.206   0.898  0.3650  0.4050  0.4943
  503SOL    HW111978   4.976   8.170   0.984 -3.0712 -0.1360  1.7576
  503SOL    HW211979   4.913   8.130   0.839 -2.4931  0.8059  1.2414
  504SOL     OW11980   1.122   1.096   3.086 -0.0740 -0.0823  0.4823
  504SOL    HW111981   1.150   1.031   3.157 -0.0724  0.2318  0.7683
  504SOL    HW211982   1.179   1.083   3.005 -1.2786 -1.7043 -0.1486
  505SOL     OW11983   3.827   1.861   3.082 -0.7642 -0.0659 -0.3596
  505SOL    HW111984   3.746   1.856   3.023 -0.2481  1.3233 -1.2225
  505SOL    HW211985   3.799   1.874   3.177 -1.5871 -1.5654 -0.3804
  506SOL     OW11986   9.373   2.167   3.888 -0.5497  1.0272  0.0324
  506SOL    HW111987   9.411   2.184   3.978  1.2991 -0.4392 -0.4418
  506SOL    HW211988   9.275   2.149   3.896 -0.1028 -0.7116  1.9530
  507SOL     OW11989   9.437   3.497   3.638 -0.2557  0.1068 -0.1800
  507SOL    HW111990   9.343   3.478   3.663 -0.6398  1.0811 -0.8268
  507SOL    HW211991   9.476   3.419   3.590 -0.8262 -0.1956 -0.1498
  508SOL     OW11992   7.317   8.690   1.953  0.5199  0.0226 -0.1069
  508SOL    HW111993   7.225   8.670   1.920  0.2781  1.4836 -0.3481
  508SOL    HW211994   7.312   8.752   2.031  1.2970  0.0281 -0.0552
  509SOL     OW11995   2.414   9.919   0.424  0.1390  0.3730 -0.4153
  509SOL    HW111996   2.352   9.986   0.382 -0.3623  0.0577 -0.1841
  509SOL    HW211997   2.390   9.828   0.392  1.0913  0.3394 -1.0568
  510SOL     OW11998   1.182   9.001   3.876 -0.1178 -0.1579  1.0295
  510SOL    HW111999   1.210   8.927   3.937 -1.6712 -1.9056 -0.2876
  510SOL    HW212000   1.146   8.962   3.791  0.5279  2.1734 -0.3542
  511SOL     OW12001   2.597   9.645   0.200 -0.0415 -0.1878  0.6115
  511SOL    HW112002   2.682   9.619   0.153 -0.2441 -0.2111  0.2506
  511SOL    HW212003   2.567   9.571   0.260 -0.8985 -1.0273 -0.8094
  512SOL     OW12004   8.737   6.653   2.391  0.3291 -0.1108 -0.6225
  512SOL    HW112005   8.642   6.630   2.415  0.3336  0.1412 -0.3649
  512SOL    HW212006   8.738   6.701   2.304  0.1671  0.3915 -0.3483
  513SOL     OW12007   2.199   1.656   1.381 -0.0971 -0.0827  0.2200
  513SOL    HW112008   2.291   1.618   1.384  0.2823  0.8173  0.2494
  513SOL    HW212009   2.148   1.615   1.305  0.1484 -0.9782  0.5360
  514SOL     OW12010   8.873   9.767   3.340  0.1981  0.4007  0.2362
  514SOL    HW112011   8.785   9.814   3.334  0.0331 -0.1898 -2.8982
  514SOL    HW212012   8.862   9.672   3.311  1.6117 -0.0250  1.0797
  515SOL     OW12013   2.564   0.145   3.155  0.0529 -0.2429  0.1160
  515SOL    HW112014   2.651   0.196   3.159 -0.3746  0.5196 -0.1450
  515SOL    HW212015   2.560   0.092   3.071  0.8769 -1.4025  0.7948
  516SOL     OW12016   8.573   9.105   1.208 -0.8730 -0.3127  0.0517
  516SOL    HW112017   8.537   9.109   1.115 -0.3079  0.1228 -0.1500
  516SOL    HW212018   8.632   9.025   1.219 -1.8489 -0.9974  0.3663
  517SOL     OW12019   2.836   4.742   0.164 -0.2679  0.0591  0.1332
  517SOL    HW112020   2.903   4.779   0.228  0.7668 -1.5575 -0.0118
  517SOL    HW212021   2.865   4.652   0.132 -0.6864  0.8951 -2.7416
  518SOL     OW12022   8.633   5.197   3.707  0.1050  0.0050  0.6099
  518SOL    HW112023   8.667   5.217   3.615  0.0173 -0.3245  0.5064
  518SOL    HW212024   8.575   5.273   3.738  0.3965  0.2641  0.5236
  519SOL     OW12025   3.597   9.147   1.925  0.0624  0.1975  0.0863
  519SOL    HW112026   3.522   9.104   1.875 -0.0003  0.1044  0.2602
  519SOL    HW212027   3.563   9.227   1.974  0.2914  0.7863 -0.6957
  520SOL     OW12028   4.838   3.308   0.919  0.1748 -0.2079  0.3201
  520SOL    HW112029   4.833   3.390   0.863 -0.1107  0.6550  1.5729
  520SOL    HW212030   4.801   3.230   0.869  1.3109  0.2345 -1.2277
  521SOL     OW12031   0.528   2.117   1.309  0.3172  0.3523  0.2442
  521SOL    HW112032   0.467   2.123   1.231 -1.2917 -0.0244  1.4443
  521SOL    HW212033   0.615   2.163   1.288  0.1016 -0.1968 -1.9120
  522SOL     OW12034   4.048   9.734   0.490  0.3047 -0.0355 -0.1097
  522SOL    HW112035   4.146   9.743   0.509  0.1209  1.5804  0.1354
  522SOL    HW212036   4.004   9.684   0.564  0.6170  0.9529  0.7445
  523SOL     OW12037   1.545   1.111   0.346  0.2310 -0.2394  0.2950
  523SOL    HW112038   1.558   1.028   0.292 -0.9320  0.4076 -1.0189
  523SOL    HW212039   1.511   1.087   0.437  3.7632 -1.4551  1.3708
  524SOL     OW12040   5.375   8.211   3.796  0.0062 -0.1201  1.0189
  524SOL    HW112041   5.433   8.282   3.756 -0.6805 -1.2807 -2.2310
  524SOL    HW212042   5.287   8.209   3.747  0.2485 -3.5801  0.6148
  525SOL     OW12043   0.231   9.292   0.321  0.4902 -0.1436  0.3004
  525SOL    HW112044   0.303   9.223   0.308 -0.8360 -1.3195 -0.9065
  525SOL    HW212045   0.269   9.371   0.370  2.0310 -1.7381  1.7658
  526SOL     OW12046   3.211   1.942   1.634  0.0591  0.2547 -0.2735
  526SOL    HW112047   3.214   2.021   1.695 -0.1826  0.6223 -0.7367
  526SOL    HW212048   3.299   1.934   1.586 -0.0128  0.3983 -0.4276
  527SOL     OW12049   4.426   6.317   2.838  0.0649  0.0188 -0.0795
  527SOL    HW112050   4.410   6.383   2.912  0.2315  0.6798 -0.6341
  527SOL    HW212051   4.459   6.365   2.757 -0.2515 -0.6915 -0.6319
  528SOL     OW12052   4.020   9.291   1.139  0.2426 -0.3659 -0.0399
  528SOL    HW112053   3.958   9.230   1.188  2.0548 -0.9136  1.6093
  528SOL    HW212054   4.094   9.238   1.097  2.5335  0.7350  2.4531
  529SOL     OW12055   0.984   2.845   2.200  0.6244 -0.1034  0.4696
  529SOL    HW112056   0.917   2.774   2.221  0.8951 -0.9375 -1.3377
  529SOL    HW212057   1.000   2.847   2.101 -1.2191  4.1520  0.1386
  530SOL     OW12058   9.471   1.528   2.851 -0.1559  0.2294 -0.1507
  530SOL    HW112059   9.489   1.609   2.795 -0.5410  1.8644  2.0250
  530SOL    HW212060   9.458   1.449   2.791  1.0401  1.5896 -2.2923
  531SOL     OW12061   2.042   4.976   0.835  0.1623 -0.2876  0.2094
  531SOL    HW112062   2.119   4.957   0.774 -0.4385 -3.3040  0.3160
  531SOL    HW212063   2.068   4.956   0.929 -0.9111 -2.0305  0.1704
  532SOL     OW12064   9.111   4.033   1.114  0.1753  0.3895 -0.0886
  532SOL    HW112065   9.193   4.025   1.056 -0.3034 -2.0983 -0.4601
  532SOL    HW212066   9.106   3.955   1.176 -0.8353  1.6013  1.3925
  533SOL     OW12067   0.851   1.977   3.839  0.5474 -0.0409  0.1981
  533SOL    HW112068   0.938   2.024   3.857  2.2481 -2.1594 -2.2502
  533SOL    HW212069   0.799   2.028   3.771 -0.5955  1.7055  2.3089
  534SOL     OW12070   8.430   2.201   0.261  0.4972  0.5101 -0.0096
  534SOL    HW112071   8.358   2.258   0.221  1.0128  0.7930 -0.5588
  534SOL    HW212072   8.468   2.247   0.341  0.4398  0.6229 -0.0467
  535SOL     OW12073   4.984   0.357   1.650  0.5367 -0.4266 -0.0457
  535SOL    HW112074   4.969   0.272   1.600  0.6149 -0.4602 -0.0125
  535SOL    HW212075   4.907   0.418   1.636  0.7020 -0.3131 -0.4567
  536SOL     OW12076   2.620   8.774   1.560  0.2040  0.2295  0.4232
  536SOL    HW112077   2.542   8.803   1.615  0.4931 -0.7269  1.3477
  536SOL    HW212078   2.587   8.716   1.484 -0.0797  0.6170  0.2504
  537SOL     OW12079   8.076   8.947   1.104 -0.0577 -0.1345  0.1132
  537SOL    HW112080   8.075   8.931   1.006 -0.5900 -1.6727  0.3520
  537SOL    HW212081   7.992   8.993   1.131 -0.7374 -1.3452  0.0941
  538SOL     OW12082   8.357   7.062   3.252  0.0297 -0.2964 -0.1318
  538SOL    HW112083   8.323   7.121   3.326 -1.6506 -0.8548 -0.4244
  538SOL    HW212084   8.373   6.970   3.287  1.2671 -0.0314  0.0038
  539SOL     OW12085   0.774   5.247   1.800  0.0869  0.3980 -0.0563
  539SOL    HW112086   0.830   5.272   1.879  0.5946  1.3507 -0.7075
  539SOL    HW212087   0.833   5.214   1.726 -0.3226  0.2003 -0.2978
  540SOL     OW12088   3.482   8.188   3.995 -0.5992 -0.3094  0.2815
  540SOL    HW112089   3.397   8.138   3.976 -1.6660  1.1797  0.9955
  540SOL    HW212090   3.497   8.255   3.922  0.7532 -1.5672 -0.6078
  541SOL     OW12091   0.029   7.837   2.592  0.1648 -0.5259 -0.0386
  541SOL    HW112092   0.004   7.755   2.541 -0.4153  0.1850 -0.9021
  541SOL    HW212093  -0.052   7.894   2.606  0.4842 -0.2866  0.9206
  542SOL     OW12094   1.552   0.691   3.235 -0.5134 -0.3148 -0.5077
  542SOL    HW112095   1.626   0.633   3.269  0.3221 -0.1306 -1.9772
  542SOL    HW212096   1.466   0.666   3.281  0.1275 -1.7002 -0.0394
  543SOL     OW12097   7.207   9.994   2.553  0.1030  0.0404  0.6969
  543SOL    HW112098   7.152   9.959   2.628  1.5370 -1.9679  0.8459
  543SOL    HW212099   7.294   9.946   2.550  0.6156  1.0301 -1.4351
  544SOL     OW12100   4.811   9.625   3.641 -0.0002  0.6302  0.0321
  544SOL    HW112101   4.760   9.539   3.639  2.0205 -0.5823 -0.8771
  544SOL    HW212102   4.767   9.691   3.579 -0.8196 -0.1806 -0.2628
  545SOL     OW12103   8.995   5.688   0.999 -0.1746  0.5479  0.2409
  545SOL    HW112104   8.982   5.657   0.904  0.4871  2.3329 -0.4601
  545SOL    HW212105   8.906   5.689   1.046 -0.5058 -0.3708 -0.3617
  546SOL     OW12106   0.677   9.912   2.594 -0.2782  0.9824 -0.0655
  546SOL    HW112107   0.721   9.840   2.540  1.9962  2.0413  0.3249
  546SOL    HW212108   0.695   9.897   2.691 -2.0758  0.5948  0.2206
  547SOL     OW12109   9.797   3.816   1.083  0.0283 -0.1730  0.2900
  547SOL    HW112110   9.829   3.721   1.078  1.9072  0.4458  0.2159
  547SOL    HW212111   9.730   3.825   1.157 -0.0151 -1.5049  0.4267
  548SOL     OW12112   2.841   7.732   1.089 -0.0938  0.3549  0.2580
  548SOL    HW112113   2.763   7.782   1.051 -1.0579 -0.9753  0.4241
  548SOL    HW212114   2.809   7.672   1.163  0.8912 -1.0133 -0.4012
  549SOL     OW12115   4.548   2.507   1.582 -0.0826  0.3626  0.2568
  549SOL    HW112116   4.465   2.452   1.590  0.9111 -1.0031  1.2404
  549SOL    HW212117   4.528   2.601   1.611 -1.0527 -0.1791  1.3732
  550SOL     OW12118   7.381   9.574   2.127 -0.5346  0.1258  0.3260
  550SOL    HW112119   7.305   9.620   2.082  0.0377  0.3917 -0.3780
  550SOL    HW212120   7.455   9.639   2.144 -0.5607 -0.0697  1.2384
  551SOL     OW12121   1.922   3.563   3.313 -0.2634  0.4740 -0.9121
  551SOL    HW112122   1.849   3.604   3.258  0.6767 -1.1042 -3.4428
  551SOL    HW212123   1.954   3.480   3.269  3.1485  1.1763  0.0619
  552SOL     OW12124   2.430   3.617   1.810  0.4437 -0.1919 -0.1262
  552SOL    HW112125   2.370   3.550   1.768  1.2571 -1.7156  1.0844
  552SOL    HW212126   2.520   3.614   1.767  0.6230 -0.2134  0.2438
  553SOL     OW12127   2.492   9.815   3.679 -0.0731  0.5895 -0.3770
  553SOL    HW112128   2.569   9.806   3.741 -1.3343  0.5228  1.2269
  553SOL    HW212129   2.514   9.772   3.592  0.8514 -1.4557  0.8370
  554SOL     OW12130   8.855   0.165   1.469  0.2463 -0.1842  0.6530
  554SOL    HW112131   8.857   0.140   1.566 -3.5836 -1.7983  0.4114
  554SOL    HW212132   8.872   0.084   1.414 -1.2867 -0.0576 -0.0316
  555SOL     OW12133   0.885   1.905   3.276  0.3800  0.3240  0.8087
  555SOL    HW112134   0.878   1.931   3.180 -2.1606  0.5263  1.0157
  555SOL    HW212135   0.868   1.807   3.286 -0.0113  0.4236  1.1297
  556SOL     OW12136   4.220   3.164   2.323  0.0380  0.2615  0.1845
  556SOL    HW112137   4.201   3.259   2.301  1.5230  0.6913  0.7247
  556SOL    HW212138   4.309   3.138   2.285  0.2629 -0.5107  1.2160
  557SOL     OW12139   0.263   3.410   2.931 -1.0769  0.6154 -0.3530
  557SOL    HW112140   0.361   3.401   2.952 -1.0336  1.0592 -0.3592
  557SOL    HW212141   0.210   3.404   3.015 -1.0331  0.5167 -0.3326
  558SOL     OW12142   2.694   3.942   2.949  0.6368 -0.6923  0.7206
  558SOL    HW112143   2.788   3.911   2.940  0.9368  0.0488  1.3301
  558SOL    HW212144   2.674   3.965   3.044  1.1206  3.1554 -0.0288
  559SOL     OW12145   3.636   4.451   0.360  0.0248  0.1415  0.0935
  559SOL    HW112146   3.657   4.456   0.458 -0.1665  0.1111  0.1359
  559SOL    HW212147   3.574   4.374   0.343  0.3556 -0.0864 -0.1036
  560SOL     OW12148   4.158   3.735   0.440 -0.1995  0.3726 -0.2457
  560SOL    HW112149   4.144   3.794   0.519 -0.5760  0.1632 -0.1570
  560SOL    HW212150   4.108   3.773   0.362 -1.9579 -0.8343  0.2877
  561SOL     OW12151   9.177   4.422   2.466 -0.0419  0.4502  0.3835
  561SOL    HW112152   9.208   4.517   2.458 -0.0525  0.3153 -1.4766
  561SOL    HW212153   9.135   4.408   2.555 -1.9350  2.7421 -0.1123
  562SOL     OW12154   2.700   5.898   1.563 -0.0895  0.1705  0.1704
  562SOL    HW112155   2.752   5.823   1.523 -0.5647 -0.3450  0.5147
  562SOL    HW212156   2.682   5.967   1.493 -0.7754 -0.6457 -0.4657
  563SOL     OW12157   8.286   8.863   3.953  0.5161 -0.3374  0.0587
  563SOL    HW112158   8.235   8.947   3.936 -1.1922 -1.5784 -1.0813
  563SOL    HW212159   8.383   8.877   3.930 -0.0575  0.8220 -1.7501
  564SOL     OW12160   2.025   2.462   3.666 -0.3890  0.6596  0.2717
  564SOL    HW112161   2.012   2.471   3.567 -1.1013  3.2772  0.5496
  564SOL    HW212162   1.942   2.493   3.713 -0.5741 -1.8683  1.6835
  565SOL     OW12163   2.307   6.138   1.112  0.1474  0.0753  0.6402
  565SOL    HW112164   2.372   6.177   1.177  0.0970  1.0901  0.0861
  565SOL    HW212165   2.322   6.178   1.022 -1.1637  0.2187  0.4815
  566SOL     OW12166   3.880   4.615   2.138  0.5656 -0.8165  0.3179
  566SOL    HW112167   3.947   4.660   2.079 -0.0047 -0.1745  0.1500
  566SOL    HW212168   3.814   4.565   2.083  0.4813 -0.8516  0.4497
  567SOL     OW12169   1.088   2.549   0.790 -0.0281  0.6047  0.0355
  567SOL    HW112170   1.144   2.493   0.728 -0.9389 -1.1492  0.7608
  567SOL    HW212171   1.148   2.598   0.853  0.8071  0.6024 -0.7455
  568SOL     OW12172   4.228   2.744   2.685  0.3727 -0.3488  0.1424
  568SOL    HW112173   4.237   2.812   2.612  3.0966  1.2198  1.8662
  568SOL    HW212174   4.132   2.734   2.709 -0.1127  2.9451 -0.1365
  569SOL     OW12175   1.488   8.349   1.437 -0.5612 -0.3179 -0.2990
  569SOL    HW112176   1.389   8.353   1.424 -0.6105  0.9510  0.4160
  569SOL    HW212177   1.508   8.353   1.535  0.2002 -0.3951 -0.4551
  570SOL     OW12178   1.247   3.104   2.091 -0.5497 -0.0889  0.6374
  570SOL    HW112179   1.193   3.116   2.174 -0.7950  0.6776  0.3752
  570SOL    HW212180   1.195   3.048   2.026 -1.2504  1.0646  0.1916
  571SOL     OW12181   2.060   3.376   3.134  0.3979 -0.1818  0.4952
  571SOL    HW112182   2.132   3.422   3.082 -1.1920  1.4418 -0.3277
  571SOL    HW212183   2.070   3.277   3.124  1.2707  0.0607 -1.3537
  572SOL     OW12184   1.794   1.284   3.311  0.3138 -0.2615 -0.5512
  572SOL    HW112185   1.878   1.244   3.275  2.1564  2.6654  0.3627
  572SOL    HW212186   1.794   1.278   3.410 -0.5859 -0.2884 -0.5474
  573SOL     OW12187   3.747   2.355   2.200  0.3082 -0.3554 -0.4028
  573SOL    HW112188   3.804   2.281   2.165 -0.3631 -0.2880 -1.6464
  573SOL    HW212189   3.654   2.346   2.165  0.4805  1.7040 -1.4676
  574SOL     OW12190   1.173   5.583   0.042  0.1565 -0.2259 -0.1498
  574SOL    HW112191   1.114   5.581  -0.039 -0.2997  0.3507  0.1572
  574SOL    HW212192   1.212   5.675   0.052  0.6442 -0.4457 -0.0171
  575SOL     OW12193   1.887   6.002   2.324 -0.9792  0.3002  0.0676
  575SOL    HW112194   1.977   6.037   2.298 -0.7459 -1.4955 -1.6230
  575SOL    HW212195   1.898   5.926   2.387 -1.2439 -0.5723 -0.9175
  576SOL     OW12196   2.718   3.329   1.949 -0.2389 -0.3587  0.6784
  576SOL    HW112197   2.742   3.333   1.852  1.2825  1.2942  1.0923
  576SOL    HW212198   2.653   3.255   1.964  1.1224 -2.0047 -1.2602
  577SOL     OW12199   8.472   6.691   2.168 -0.0979 -0.3730 -0.2294
  577SOL    HW112200   8.424   6.625   2.225  1.9821 -2.9030 -1.2997
  577SOL    HW212201   8.427   6.695   2.078  0.0316 -0.6595 -0.3082
  578SOL     OW12202   6.063   9.251   2.530  0.3306 -0.1392  0.1397
  578SOL    HW112203   6.052   9.298   2.443 -0.3859  1.1579  0.8981
  578SOL    HW212204   6.039   9.154   2.520  0.9759 -0.1535 -1.2566
  579SOL     OW12205   3.913   7.722   3.350  0.0555 -0.1321  0.1555
  579SOL    HW112206   3.926   7.795   3.283  0.5197  0.9235  1.3730
  579SOL    HW212207   3.856   7.756   3.425 -1.5738 -1.7068 -0.3397
  580SOL     OW12208   8.502   0.081   1.589 -0.3998 -0.2675  0.0292
  580SOL    HW112209   8.426   0.082   1.525  0.3044  1.2716 -0.8142
  580SOL    HW212210   8.560   0.160   1.573  1.2580 -1.2927  0.8198
  581SOL     OW12211   4.528   8.720   1.143 -0.1349  0.4376  0.9186
  581SOL    HW112212   4.445   8.683   1.100  0.1357  0.3989  0.4228
  581SOL    HW212213   4.598   8.649   1.147  1.3024  1.5663 -2.4355
  582SOL     OW12214   5.182   2.419   1.824 -0.1600 -0.3836 -0.1927
  582SOL    HW112215   5.118   2.474   1.770 -0.8030 -0.3447  0.6127
  582SOL    HW212216   5.226   2.352   1.764 -0.7014 -0.1897 -0.8141
  583SOL     OW12217   9.225   3.378   3.427 -0.0643  0.0635  0.2167
  583SOL    HW112218   9.194   3.471   3.450 -0.3913  0.2016 -0.7438
  583SOL    HW212219   9.218   3.320   3.508 -0.1502  0.8002  0.7487
  584SOL     OW12220   8.872   0.021   2.611  0.5442  0.2346  0.1371
  584SOL    HW112221   8.883   0.089   2.538  0.0448  0.5425  0.3472
  584SOL    HW212222   8.962  -0.009   2.642  0.8351  2.2393  1.3792
  585SOL     OW12223   4.992   6.834   2.643 -0.0296  0.5248 -0.4119
  585SOL    HW112224   5.007   6.819   2.741 -0.9190  0.8867 -0.2108
  585SOL    HW212225   5.011   6.750   2.593  0.0648  0.2292  0.1136
  586SOL     OW12226   4.044   6.086   2.636  0.2894 -0.4902 -0.6874
  586SOL    HW112227   3.969   6.148   2.660  0.2121 -0.5454 -0.7887
  586SOL    HW212228   4.131   6.135   2.643  0.1222  0.0718 -2.2664
  587SOL     OW12229   2.010   4.625   1.902 -0.2330  0.2683 -0.3993
  587SOL    HW112230   1.980   4.718   1.880  0.5674  0.2797 -1.5049
  587SOL    HW212231   1.962   4.592   1.983  0.0304  1.9221  0.4313
  588SOL     OW12232   1.692   1.732   3.867  0.0707 -0.2226 -0.3256
  588SOL    HW112233   1.656   1.826   3.869 -0.4959 -0.4473  0.5998
  588SOL    HW212234   1.651   1.680   3.942 -1.0354 -1.7410 -1.9353
  589SOL     OW12235   9.405   3.664   0.399  0.8109  0.2427  0.2535
  589SOL    HW112236   9.353   3.735   0.447  0.3246 -0.3417  0.6032
  589SOL    HW212237   9.400   3.680   0.301 -0.4607 -0.0855  0.2553
  590SOL     OW12238   9.949   1.108   1.321  0.1399  0.3623  0.5584
  590SOL    HW112239   9.874   1.109   1.387 -1.5655 -3.2200 -1.1789
  590SOL    HW212240  10.036   1.114   1.369 -1.1007 -0.6763  3.0302
  591SOL     OW12241   3.769   1.308   3.756 -0.1905  0.3182 -0.3808
  591SOL    HW112242   3.826   1.339   3.832  1.1621 -1.7686 -0.5213
  591SOL    HW212243   3.672   1.318   3.782  0.2530 -0.3780  1.6265
  592SOL     OW12244   3.376   6.948   2.994  1.1079 -0.0386  0.8007
  592SOL    HW112245   3.340   6.983   2.908  1.0803  2.5400  1.8029
  592SOL    HW212246   3.465   6.907   2.979  1.1839  0.5610 -0.4270
  593SOL     OW12247   3.563   9.540   3.431  0.0280 -0.0722  0.5312
  593SOL    HW112248   3.561   9.639   3.413 -0.0347 -0.2175 -0.2661
  593SOL    HW212249   3.609   9.524   3.518  0.9645  0.5930  0.1678
  594SOL     OW12250   9.029   3.424   0.129 -0.4206  0.5451  0.0372
  594SOL    HW112251   9.106   3.361   0.132 -0.3922  0.5222 -1.1273
  594SOL    HW212252   8.976   3.408   0.046 -1.5110  0.7616  0.6820
  595SOL     OW12253   1.675   6.939   1.836  0.5448  0.0268  0.2280
  595SOL    HW112254   1.767   6.901   1.847  0.2980 -0.8432 -0.6499
  595SOL    HW212255   1.674   7.000   1.756  0.0191 -1.0760 -0.6166
  596SOL     OW12256   0.422   8.256   0.439  0.2280 -0.3363  0.9493
  596SOL    HW112257   0.484   8.335   0.444 -0.3433  0.0755  1.5185
  596SOL    HW212258   0.328   8.287   0.427 -0.2860 -0.8286  3.3675
  597SOL     OW12259   9.613   7.798   2.678  0.2861  0.3120 -0.2716
  597SOL    HW112260   9.688   7.843   2.629 -0.7768 -0.2474 -2.4780
  597SOL    HW212261   9.526   7.835   2.646 -0.4246 -0.0378  1.2523
  598SOL     OW12262   2.802   3.164   0.297  0.3013  0.1086 -0.1757
  598SOL    HW112263   2.861   3.243   0.317 -0.6393  0.6622  0.4615
  598SOL    HW212264   2.845   3.080   0.329 -0.3412  0.7809  2.5389
  599SOL     OW12265   3.978   7.173   3.066  0.2151 -0.0356  0.3609
  599SOL    HW112266   3.935   7.191   3.155 -0.2881 -1.5143  0.4217
  599SOL    HW212267   3.916   7.202   2.993  0.4777  0.8405  0.4743
  600SOL     OW12268   0.245   9.505   3.855  0.0745  0.5170 -0.6458
  600SOL    HW112269   0.171   9.558   3.896  1.0947  1.7206 -0.3094
  600SOL    HW212270   0.291   9.452   3.926  0.9334  1.4991 -0.4458
  601SOL     OW12271   3.137   3.981   1.883 -0.5471  0.4566 -0.3018
  601SOL    HW112272   3.126   3.895   1.932 -2.4163 -0.3297 -2.0413
  601SOL    HW212273   3.172   3.963   1.791 -0.5573  1.5946 -0.5395
  602SOL     OW12274   7.064   8.593   1.891 -0.1072 -0.1823 -0.0919
  602SOL    HW112275   6.971   8.610   1.925 -0.2696 -1.1771 -0.0225
  602SOL    HW212276   7.076   8.636   1.802 -1.0687 -1.1490 -0.7032
  603SOL     OW12277   1.036   0.114   0.070  0.5155  0.3558  0.0075
  603SOL    HW112278   1.030   0.022   0.107  2.6567  0.0835 -0.2892
  603SOL    HW212279   1.085   0.173   0.133  2.2077  0.4314 -1.3398
  604SOL     OW12280   1.197   5.171   0.982  0.3758 -0.3126 -0.5078
  604SOL    HW112281   1.155   5.097   1.034 -0.2309 -0.9244 -1.8712
  604SOL    HW212282   1.137   5.198   0.907  0.7243  1.3602 -0.2126
  605SOL     OW12283   9.818   0.388   2.303 -0.2907 -0.7512 -0.1901
  605SOL    HW112284   9.808   0.295   2.340 -2.2046 -0.2118  0.7131
  605SOL    HW212285   9.826   0.384   2.204  0.6666 -1.9428 -0.0783
  606SOL     OW12286   8.073   6.062   3.480 -0.1553 -0.4871 -0.8588
  606SOL    HW112287   8.079   5.972   3.524 -2.7960 -0.8724 -1.2094
  606SOL    HW212288   8.104   6.054   3.385  0.2390 -0.8839 -0.6995
  607SOL     OW12289   1.148   7.711   0.779 -0.2785 -0.3571  0.3249
  607SOL    HW112290   1.202   7.790   0.747  0.2443 -0.2915  1.3560
  607SOL    HW212291   1.165   7.634   0.718  1.1210 -0.3864  0.7252
  608SOL     OW12292   1.920   9.038   1.029 -0.5638  0.5671 -0.4165
  608SOL    HW112293   1.969   9.051   1.116 -1.5041 -0.9881  0.3712
  608SOL    HW212294   1.982   8.997   0.962  0.0083  1.2532 -0.3163
  609SOL     OW12295   5.023   0.165   3.053 -0.6743 -0.7364 -0.1037
  609SOL    HW112296   5.048   0.199   3.143 -1.5079  1.2893 -0.6027
  609SOL    HW212297   5.098   0.110   3.016  0.3390 -0.2101  1.1288
  610SOL     OW12298   0.023   5.330   0.425  0.2209  0.2538  0.4741
  610SOL    HW112299  -0.014   5.237   0.417 -0.0450  0.2970  1.1824
  610SOL    HW212300   0.078   5.351   0.344  0.3900 -0.5711  0.3707
  611SOL     OW12301   8.689   3.401   2.048  0.5212  0.3345 -0.0101
  611SOL    HW112302   8.784   3.395   2.018  0.7245 -1.3911  0.9606
  611SOL    HW212303   8.632   3.430   1.970  1.5000 -0.9437 -1.2346
  612SOL     OW12304   3.612   1.066   3.403  0.0816 -0.4372 -0.3027
  612SOL    HW112305   3.705   1.049   3.435 -0.4986 -2.8397  0.1913
  612SOL    HW212306   3.601   1.028   3.311  0.2724  2.0377 -1.4064
  613SOL     OW12307   4.134   2.826   3.358 -0.6182 -0.4839 -0.5051
  613SOL    HW112308   4.051   2.819   3.303 -3.5529 -0.8703  3.6646
  613SOL    HW212309   4.178   2.914   3.341 -3.5020  0.9660 -0.7768
  614SOL     OW12310   8.131   1.711   3.390  0.2627  0.1949  0.1389
  614SOL    HW112311   8.081   1.782   3.439 -1.5050 -0.1856 -1.0709
  614SOL    HW212312   8.169   1.750   3.305 -0.0299 -0.1205 -0.1347
  615SOL     OW12313   7.545   7.395   2.619 -0.2513  0.9195 -0.4858
  615SOL    HW112314   7.612   7.417   2.690  0.2723  0.4812 -0.8458
  615SOL    HW212315   7.573   7.312   2.571 -1.2016  0.5708 -0.4464
  616SOL     OW12316   8.702   4.125   2.898  0.4191 -0.5338  0.1809
  616SOL    HW112317   8.702   4.045   2.957  0.1478 -0.5961  0.0982
  616SOL    HW212318   8.633   4.113   2.826 -2.6313  1.5606  2.5906
  617SOL     OW12319   6.963   9.467   2.689  0.5784  0.2381 -0.5801
  617SOL    HW112320   6.875   9.473   2.737  0.5524  4.0329 -1.0108
  617SOL    HW212321   7.037   9.474   2.754  0.5609 -0.2439 -0.5073
  618SOL     OW12322   8.722   0.043   3.798 -0.1931 -0.1466  0.3670
  618SOL    HW112323   8.697   0.052   3.702  0.8118 -0.4952  0.0549
  618SOL    HW212324   8.651  -0.007   3.847 -1.8804  2.1944  0.3580
  619SOL     OW12325   4.762   1.333   3.316  0.4968 -0.0826  0.9932
  619SOL    HW112326   4.808   1.416   3.283 -1.4071  0.3451 -0.6369
  619SOL    HW212327   4.759   1.335   3.416 -0.0779  2.1218  0.9473
  620SOL     OW12328   2.546   1.261   3.373  0.3219 -0.1653 -0.3840
  620SOL    HW112329   2.467   1.304   3.329 -1.2581 -3.9400 -1.4948
  620SOL    HW212330   2.515   1.184   3.429  3.2626 -2.2689 -1.5133
  621SOL     OW12331   2.327   8.592   2.931 -0.3513  0.1707  0.3456
  621SOL    HW112332   2.393   8.638   2.991  0.0615  1.0920 -0.7957
  621SOL    HW212333   2.291   8.657   2.865 -2.2646 -0.3819  0.8173
  622SOL     OW12334   3.311   9.478   2.260 -0.4734 -0.1800 -0.2244
  622SOL    HW112335   3.380   9.462   2.331 -0.6376  0.8220  0.1631
  622SOL    HW212336   3.234   9.416   2.275 -0.5383  0.0713  0.5116
  623SOL     OW12337   3.017   3.581   2.256  0.0090  0.0589 -0.0694
  623SOL    HW112338   2.957   3.567   2.334  0.2155 -1.1533 -0.1118
  623SOL    HW212339   3.044   3.492   2.218  1.6786  0.5810 -0.1485
  624SOL     OW12340   9.117   1.494   0.598  0.3754 -0.3029 -0.4359
  624SOL    HW112341   9.091   1.420   0.659  0.9450  0.1472  0.3676
  624SOL    HW212342   9.217   1.503   0.597  0.2603  1.3046  0.5133
  625SOL     OW12343   3.593   6.043   3.692  0.1126  0.6943 -0.0953
  625SOL    HW112344   3.539   6.076   3.615 -1.4935 -0.4786  0.5045
  625SOL    HW212345   3.669   6.106   3.708  0.1589  1.2522 -2.2746
  626SOL     OW12346   0.319   1.841   3.226 -0.3781 -0.3456 -0.1814
  626SOL    HW112347   0.239   1.807   3.176  0.9375  0.3065 -2.8628
  626SOL    HW212348   0.364   1.766   3.274 -0.5919 -1.3727 -1.5775
  627SOL     OW12349   4.696   0.274   3.401  0.2330  0.0749  0.4651
  627SOL    HW112350   4.634   0.353   3.404 -1.0806 -0.9597  1.7245
  627SOL    HW212351   4.657   0.200   3.456  0.6268 -2.0483 -2.0150
  628SOL     OW12352   2.967   9.939   0.071 -0.7321  0.6150 -0.1582
  628SOL    HW112353   3.037   9.948   0.001  0.2677 -1.5444  0.5160
  628SOL    HW212354   2.965   9.845   0.104 -2.5100  1.1452  1.3392
  629SOL     OW12355   2.043   6.615   1.510 -0.4615 -0.1802  0.0962
  629SOL    HW112356   2.009   6.604   1.604  0.5774  1.0450  0.6356
  629SOL    HW212357   1.967   6.609   1.446 -1.2085 -0.8533  1.0321
  630SOL     OW12358   1.364   5.990   1.007 -0.6162  0.0307  0.2059
  630SOL    HW112359   1.453   5.945   0.999 -0.8432 -0.4062  0.1290
  630SOL    HW212360   1.292   5.929   0.973 -0.9051  0.5276 -0.0760
  631SOL     OW12361   9.747   2.195   1.134 -0.2571  0.4103 -0.1898
  631SOL    HW112362   9.667   2.255   1.148  1.1969  2.4250 -0.2879
  631SOL    HW212363   9.734   2.144   1.049 -1.8451  0.0276  0.2500
  632SOL     OW12364   6.249   9.165   2.989 -0.3091 -0.3646  0.3910
  632SOL    HW112365   6.192   9.084   2.980 -1.8165  0.8296 -0.9841
  632SOL    HW212366   6.300   9.180   2.904  0.3215 -0.1374  0.8058
  633SOL     OW12367   4.825   0.108   1.249 -0.2269  0.0780  0.0884
  633SOL    HW112368   4.806   0.200   1.215 -1.9642  1.3159  4.0341
  633SOL    HW212369   4.738   0.057   1.257  0.4656 -1.1427 -0.0082
  634SOL     OW12370   2.766   0.476   0.398 -0.1343  0.5399  0.0023
  634SOL    HW112371   2.778   0.401   0.463  0.2860  1.2633  0.7712
  634SOL    HW212372   2.828   0.463   0.321  0.5287  0.5275  0.5337
  635SOL     OW12373   9.267   0.247   0.804  0.1615  0.3336  0.3239
  635SOL    HW112374   9.221   0.334   0.820 -1.8710 -0.4670 -1.0121
  635SOL    HW212375   9.203   0.182   0.764  2.2539 -1.0517 -0.8757
  636SOL     OW12376   4.096   1.494   3.233 -0.3109  0.0052 -0.0864
  636SOL    HW112377   4.189   1.456   3.233  0.2986  1.4757 -1.1057
  636SOL    HW212378   4.067   1.509   3.328  0.0626 -1.4517  0.2774
  637SOL     OW12379   5.019   9.402   3.079  0.5581 -0.0642  0.2484
  637SOL    HW112380   5.093   9.370   3.138  0.4152  0.2178  0.5847
  637SOL    HW212381   5.056   9.435   2.993  0.6862 -1.3756 -0.2074
  638SOL     OW12382   4.926   9.790   1.994  0.4469  0.2205  0.5345
  638SOL    HW112383   5.015   9.790   2.040  0.8220 -1.3940 -0.1588
  638SOL    HW212384   4.881   9.702   2.008 -0.2406  0.3692 -0.6572
  639SOL     OW12385   2.996   4.773   2.351  0.0707  0.4418 -0.3910
  639SOL    HW112386   2.912   4.728   2.321  1.2213 -1.6598 -0.5377
  639SOL    HW212387   3.035   4.724   2.429  0.5449  2.1057  0.4503
  640SOL     OW12388   1.199   5.090   3.545 -0.1907 -0.3880  0.2145
  640SOL    HW112389   1.273   5.129   3.600 -0.3322 -0.2637  0.3185
  640SOL    HW212390   1.179   5.151   3.468  0.5542 -0.9561 -0.4420
  641SOL     OW12391   0.997   7.669   1.981 -0.0214 -0.1059 -0.4354
  641SOL    HW112392   1.013   7.629   2.071 -0.4184 -1.5348 -0.9720
  641SOL    HW212393   1.053   7.751   1.970 -0.0507  0.1361  1.1379
  642SOL     OW12394   8.772   9.802   2.176 -0.4892  0.0616  0.3274
  642SOL    HW112395   8.727   9.885   2.208  1.5192  2.1331 -1.9939
  642SOL    HW212396   8.722   9.765   2.098  0.3830  0.9559 -0.6768
  643SOL     OW12397   1.969   1.322   2.199 -0.1639 -0.3655  0.3021
  643SOL    HW112398   1.925   1.375   2.271 -0.3557 -1.0255  0.6834
  643SOL    HW212399   1.998   1.233   2.237  0.5001 -0.3735 -0.2211
  644SOL     OW12400   3.010   6.916   3.921 -1.1484 -0.3723  0.1160
  644SOL    HW112401   2.989   6.994   3.980  1.9070 -0.1366  0.9616
  644SOL    HW212402   2.948   6.841   3.942 -0.8862  0.1326  2.8062
  645SOL     OW12403   0.314   3.694   2.237  0.3345  0.3574  0.2533
  645SOL    HW112404   0.333   3.776   2.292 -0.1879  0.3349  0.4735
  645SOL    HW212405   0.267   3.627   2.294 -2.5276  1.3364 -0.9148
  646SOL     OW12406   1.699   7.794   0.140 -0.3848 -0.8308 -0.2529
  646SOL    HW112407   1.723   7.744   0.223  0.8129  0.1115 -0.0315
  646SOL    HW212408   1.780   7.839   0.102 -0.8244 -1.5533 -2.1488
  647SOL     OW12409   7.854   5.847   3.231  0.5899  0.0520 -0.3813
  647SOL    HW112410   7.762   5.860   3.268  1.1627  0.5572  0.9085
  647SOL    HW212411   7.899   5.772   3.280  0.9041 -0.1156 -0.9264
  648SOL     OW12412   2.069   9.231   3.480  0.5205  0.5371 -0.2935
  648SOL    HW112413   2.097   9.326   3.471 -1.9755  1.2494 -1.1612
  648SOL    HW212414   1.975   9.221   3.445  1.3759 -2.5788 -1.8734
  649SOL     OW12415   5.040   7.189   2.358 -0.0948 -0.0555 -0.4255
  649SOL    HW112416   4.968   7.252   2.387 -0.4021 -1.2808  1.5470
  649SOL    HW212417   5.063   7.206   2.262 -2.5794  0.7354 -0.9024
  650SOL     OW12418   2.925   2.334   2.380 -0.2268 -0.6386 -0.3364
  650SOL    HW112419   2.900   2.417   2.431  1.3139  0.3628 -1.1848
  650SOL    HW212420   2.969   2.360   2.294  1.2107 -2.3357 -0.1319
  651SOL     OW12421   0.293   6.526   0.489  0.1556  0.3350 -0.2084
  651SOL    HW112422   0.241   6.604   0.454  0.3722  0.4656 -0.2403
  651SOL    HW212423   0.300   6.532   0.588  1.6381  1.2751 -0.3597
  652SOL     OW12424   0.627   1.481   2.015 -0.0207 -0.2624 -0.2526
  652SOL    HW112425   0.652   1.528   2.099 -0.4221  0.7456 -0.6963
  652SOL    HW212426   0.581   1.395   2.038 -1.3037  0.6261  0.5669
  653SOL     OW12427   4.685   0.208   2.630 -0.0471 -0.2490  0.6274
  653SOL    HW112428   4.777   0.214   2.671  0.2129  0.0774 -0.0006
  653SOL    HW212429   4.693   0.212   2.530 -0.7916  0.3882  0.5909
  654SOL     OW12430   6.113   8.898   2.070  0.8483  0.0238 -0.2372
  654SOL    HW112431   6.061   8.857   2.145  0.5037 -0.0434 -0.5115
  654SOL    HW212432   6.114   8.835   1.992  1.2318  0.0811 -0.2791
  655SOL     OW12433   1.157   9.794   1.925  0.1287  0.3499 -0.7372
  655SOL    HW112434   1.212   9.719   1.889 -0.3808 -1.7165  2.6699
  655SOL    HW212435   1.067   9.761   1.950 -0.6098  2.4214 -0.5599
  656SOL     OW12436   8.353   2.348   3.474 -0.5297 -0.3321  0.2844
  656SOL    HW112437   8.452   2.352   3.459 -0.6528  1.9718 -0.1072
  656SOL    HW212438   8.334   2.337   3.571  0.1160  2.7998  0.8200
  657SOL     OW12439   9.500   9.713   1.328  0.1019 -0.3166 -0.5186
  657SOL    HW112440   9.441   9.658   1.386  0.4496 -0.6933 -0.5191
  657SOL    HW212441   9.451   9.794   1.298 -0.0383 -0.0483  0.4160
  658SOL     OW12442   7.155   9.863   3.770  0.6022  0.2442  0.2949
  658SOL    HW112443   7.196   9.955   3.764 -0.7567  0.8560  0.1662
  658SOL    HW212444   7.132   9.831   3.678  0.3726  0.0923  0.4067
  659SOL     OW12445   8.813   9.086   0.328 -0.1387 -0.1101 -0.0214
  659SOL    HW112446   8.810   9.108   0.231  1.3870 -2.2616 -0.5895
  659SOL    HW212447   8.743   9.018   0.349  0.7838 -1.0530  0.0022
  660SOL     OW12448   1.939   9.344   1.064  0.5403 -0.6044  0.3355
  660SOL    HW112449   1.895   9.432   1.044  1.7128  0.7202  3.4127
  660SOL    HW212450   1.969   9.302   0.978 -1.1954  1.3471 -1.2845
  661SOL     OW12451   6.926   9.668   2.226  0.1637 -0.1700 -0.1931
  661SOL    HW112452   6.950   9.635   2.318  2.1836 -0.7101 -0.8703
  661SOL    HW212453   6.957   9.601   2.158  1.4051  1.5925 -1.4274
  662SOL     OW12454   9.223   0.657   3.004  0.0150  0.2118 -0.3159
  662SOL    HW112455   9.271   0.618   3.082  0.2221  1.2787  0.1011
  662SOL    HW212456   9.148   0.715   3.037  0.4594  1.1248 -0.8832
  663SOL     OW12457   3.845   3.843   2.057  0.3292  0.1841  0.1793
  663SOL    HW112458   3.916   3.884   1.999  1.1378 -0.1534  0.9211
  663SOL    HW212459   3.756   3.855   2.013  0.9345 -0.1268 -1.1596
  664SOL     OW12460   9.376   6.077   3.518  0.4305  0.0794 -0.1712
  664SOL    HW112461   9.405   6.033   3.433  0.4488 -0.7011  0.2372
  664SOL    HW212462   9.309   6.149   3.497  0.8676  0.2848 -0.8957
  665SOL     OW12463   4.976   8.288   0.096  0.3032 -0.2009 -0.2729
  665SOL    HW112464   4.930   8.377   0.096 -1.0678 -0.9093  0.5838
  665SOL    HW212465   4.957   8.241   0.010  1.2327  0.4203 -0.8338
  666SOL     OW12466   2.904   5.858   3.121  0.0090 -0.1105 -0.2105
  666SOL    HW112467   2.843   5.884   3.195  0.2866  1.0299 -0.3605
  666SOL    HW212468   2.922   5.760   3.124 -0.0713 -0.0842  1.1550
  667SOL     OW12469   9.566   9.557   3.371 -0.2342 -0.2012  0.4778
  667SOL    HW112470   9.659   9.566   3.334 -0.0899  0.6961  1.0265
  667SOL    HW212471   9.564   9.596   3.463 -0.8713 -1.3053  0.9398
  668SOL     OW12472   7.785   2.769   0.238  0.1633 -0.0615  0.0796
  668SOL    HW112473   7.755   2.847   0.293 -1.1066  0.1511 -0.8751
  668SOL    HW212474   7.802   2.799   0.144 -0.7972 -1.0027 -0.4091
  669SOL     OW12475   3.592   2.332   2.488  0.3761  0.3189 -0.1131
  669SOL    HW112476   3.549   2.397   2.551 -2.3160  1.1973 -2.7078
  669SOL    HW212477   3.664   2.378   2.437 -0.4213  0.8353 -0.7840
  670SOL     OW12478   2.472   2.983   1.755  0.2449 -0.5499  0.2774
  670SOL    HW112479   2.494   3.024   1.844  0.5321 -0.3498  0.1143
  670SOL    HW212480   2.457   2.885   1.767 -0.5086 -0.3923  0.6817
  671SOL     OW12481   3.573   3.889   0.359 -0.2082  0.5192 -0.4211
  671SOL    HW112482   3.635   3.912   0.433  0.9783  1.8863 -1.7903
  671SOL    HW212483   3.534   3.798   0.374 -0.9781  1.2882  2.4960
  672SOL     OW12484   9.283   5.272   2.599  0.1886 -0.0546  0.2371
  672SOL    HW112485   9.186   5.246   2.596  0.1849 -0.2515  1.8423
  672SOL    HW212486   9.339   5.191   2.611  0.4453  0.2301  0.9968
  673SOL     OW12487   9.249   7.661   0.629  0.4236  0.3225 -0.0841
  673SOL    HW112488   9.243   7.628   0.535 -2.2676 -0.7376  0.4189
  673SOL    HW212489   9.338   7.637   0.667  1.3195  0.2388 -2.1413
  674SOL     OW12490   9.780   5.075   2.054 -0.3898 -0.5642  0.3083
  674SOL    HW112491   9.872   5.040   2.039 -0.8236 -1.2280 -0.9283
  674SOL    HW212492   9.719   5.000   2.078 -1.2029 -0.6031 -1.7754
  675SOL     OW12493   3.357   3.903   0.934  0.0129 -0.2555 -0.7691
  675SOL    HW112494   3.457   3.907   0.933 -0.0523  2.3419 -0.1636
  675SOL    HW212495   3.323   3.934   1.023 -1.3499 -0.6767 -1.1329
  676SOL     OW12496   3.313   0.906   2.015 -0.7691  0.0101  0.1314
  676SOL    HW112497   3.398   0.948   2.047 -1.4770  2.0178 -0.5636
  676SOL    HW212498   3.235   0.955   2.054 -1.6148  0.1035 -1.6364
  677SOL     OW12499   3.980   7.776   1.257 -0.0739  0.1539  0.2653
  677SOL    HW112500   4.067   7.730   1.276  0.2554  0.7014  0.0845
  677SOL    HW212501   3.918   7.763   1.334 -0.7304 -2.3388 -0.6334
  678SOL     OW12502   8.857   1.641   2.594 -0.3742  0.7541  0.1225
  678SOL    HW112503   8.774   1.585   2.594  1.3238 -1.8903  0.3286
  678SOL    HW212504   8.918   1.609   2.666  1.5816  1.4210 -1.1948
  679SOL     OW12505   9.801   2.460   1.908  0.4369 -0.6451 -0.3534
  679SOL    HW112506   9.777   2.385   1.847 -1.2704 -0.4561  0.0602
  679SOL    HW212507   9.796   2.546   1.857  2.2657 -0.7931 -0.7944
  680SOL     OW12508   0.847   8.514   0.301  0.7347 -0.0892  0.2910
  680SOL    HW112509   0.913   8.569   0.249  0.5397 -1.7228 -1.7757
  680SOL    HW212510   0.889   8.486   0.388  0.3733  4.2975  1.9899
  681SOL     OW12511   1.721   8.225   1.771 -0.8861  0.1030 -0.0741
  681SOL    HW112512   1.751   8.283   1.846  0.8193 -1.1418  0.2218
  681SOL    HW212513   1.746   8.268   1.684  0.5259 -0.2690  0.1452
  682SOL     OW12514   2.256   4.609   3.931 -0.2902  0.1916 -0.1247
  682SOL    HW112515   2.165   4.574   3.906 -0.7472  0.6637  0.8731
  682SOL    HW212516   2.251   4.708   3.943  0.4535  0.2731 -0.4792
  683SOL     OW12517   0.815   2.523   1.322 -0.6710  0.5602 -0.9275
  683SOL    HW112518   0.869   2.540   1.239  1.8617  0.9208  0.7371
  683SOL    HW212519   0.803   2.424   1.333 -1.3757  0.5315 -1.9551
  684SOL     OW12520   3.291   6.315   3.094 -0.2432  0.3251  0.4750
  684SOL    HW112521   3.292   6.239   3.029  1.1987 -0.6779  1.6441
  684SOL    HW212522   3.296   6.401   3.044  1.1723 -0.4386 -0.7603
  685SOL     OW12523   1.373   1.533   3.818  0.3890 -0.8302  0.0175
  685SOL    HW112524   1.341   1.624   3.790  0.4928 -0.9982 -0.6588
  685SOL    HW212525   1.460   1.513   3.773  0.8596 -0.8692  0.9223
  686SOL     OW12526   0.104   8.517   0.600 -0.3055  0.8111 -0.6362
  686SOL    HW112527   0.048   8.562   0.670 -0.7198 -0.4153 -0.1601
  686SOL    HW212528   0.196   8.555   0.602 -0.1442  0.3554  1.0068
  687SOL     OW12529   2.437   6.239   3.153  0.0151  0.0933 -0.5318
  687SOL    HW112530   2.455   6.162   3.215 -0.0750 -0.2562 -0.9387
  687SOL    HW212531   2.339   6.257   3.150  0.0379  0.2405 -0.4211
  688SOL     OW12532   1.837   8.805   2.035 -0.0248 -0.0455  0.1264
  688SOL    HW112533   1.816   8.737   1.964  1.3804  0.2035 -0.5361
  688SOL    HW212534   1.904   8.870   2.000 -0.9718  1.3823  0.9465
  689SOL     OW12535   4.219   1.173   2.493  0.4144 -0.6753  0.1221
  689SOL    HW112536   4.142   1.236   2.494  0.9674 -0.0166  1.8188
  689SOL    HW212537   4.201   1.101   2.426 -1.9000 -0.8213  0.8390
  690SOL     OW12538   1.249   3.115   2.520  0.2938  0.1506 -0.1369
  690SOL    HW112539   1.197   3.083   2.441  0.7749 -0.7369 -0.0988
  690SOL    HW212540   1.187   3.130   2.597  0.0751 -0.7786 -0.1273
  691SOL     OW12541   9.868   5.122   0.319  0.3885  0.1821  0.7831
  691SOL    HW112542   9.771   5.141   0.333  0.8310  1.5453  2.2018
  691SOL    HW212543   9.884   5.097   0.223 -1.0674  1.9358  0.0454
  692SOL     OW12544   1.653   6.443   2.411  0.7393 -0.2262 -0.3219
  692SOL    HW112545   1.735   6.388   2.396  1.4670  1.0858 -1.3069
  692SOL    HW212546   1.576   6.400   2.364  1.6980  0.5515 -2.7007
  693SOL     OW12547   2.477   5.548   3.237  0.0641 -0.0051  0.3274
  693SOL    HW112548   2.466   5.584   3.144  0.9416 -1.1197 -0.2296
  693SOL    HW212549   2.574   5.552   3.263 -0.3355  1.4132  1.6699
  694SOL     OW12550   3.029   6.130   2.943 -0.3362 -0.2396 -0.3192
  694SOL    HW112551   3.061   6.040   2.916 -0.7347 -0.4682 -0.0316
  694SOL    HW212552   3.087   6.200   2.900 -0.5118 -0.6102 -1.1759
  695SOL     OW12553   8.942   0.457   2.519  0.1413  0.0901  0.8467
  695SOL    HW112554   8.929   0.370   2.470 -0.1004 -0.5642  2.0469
  695SOL    HW212555   9.023   0.503   2.484 -1.5296  0.9390 -2.0101
  696SOL     OW12556   5.389   8.561   2.704 -0.2160  0.1202 -0.0435
  696SOL    HW112557   5.473   8.515   2.735  0.1283  0.2383 -0.7895
  696SOL    HW212558   5.413   8.635   2.641 -0.7811  1.2401  1.0390
  697SOL     OW12559   7.928   7.474   3.550  0.3757 -0.3588  0.7712
  697SOL    HW112560   7.997   7.538   3.516 -0.4871  0.3984  0.4280
  697SOL    HW212561   7.937   7.387   3.502 -0.3674  0.4684 -0.9002
  698SOL     OW12562   8.461   2.727   4.018 -0.1577 -0.4697  0.0063
  698SOL    HW112563   8.552   2.702   4.050 -0.6556 -1.6572  0.5133
  698SOL    HW212564   8.439   2.820   4.049  0.2886 -0.7270  1.1089
  699SOL     OW12565   7.714   0.719   0.201  0.1731  0.2588  0.2998
  699SOL    HW112566   7.693   0.787   0.130 -0.8314  0.7679  1.0679
  699SOL    HW212567   7.646   0.646   0.199  1.0132 -0.5119 -0.2484
  700SOL     OW12568   1.833   5.208   2.000  0.0324  0.5133  0.2269
  700SOL    HW112569   1.782   5.208   2.086  0.7022  0.0871  0.6235
  700SOL    HW212570   1.791   5.273   1.937 -2.4908 -1.5978 -0.3402
  701SOL     OW12571   8.665   3.714   1.874 -0.0699 -0.4307 -0.0380
  701SOL    HW112572   8.601   3.638   1.862 -0.6089 -0.0649  0.4819
  701SOL    HW212573   8.704   3.739   1.786  0.6716 -1.7887 -0.1161
  702SOL     OW12574   2.494   8.436   1.690  0.1604 -0.0145  0.3601
  702SOL    HW112575   2.580   8.452   1.739  0.4661  1.3465 -0.5720
  702SOL    HW212576   2.423   8.497   1.726  0.4260  1.1018 -0.9432
  703SOL     OW12577   3.553   7.435   2.036  0.4597  0.2112 -0.1010
  703SOL    HW112578   3.647   7.403   2.024 -0.0497 -1.4847  0.2458
  703SOL    HW212579   3.541   7.469   2.129  0.7401  0.5030 -0.1693
  704SOL     OW12580   2.384   5.926   2.859 -0.0768  0.5125 -0.0053
  704SOL    HW112581   2.321   6.001   2.836  0.0799  1.0149  1.1753
  704SOL    HW212582   2.351   5.842   2.818 -2.2594  0.4996  1.6497
  705SOL     OW12583   4.525   7.285   2.926  0.6835 -0.5778  0.7789
  705SOL    HW112584   4.476   7.199   2.920 -0.2540  0.0319 -0.4104
  705SOL    HW212585   4.621   7.271   2.904  0.2345 -1.0512 -0.8954
  706SOL     OW12586   2.059   6.104   3.005 -0.0008  0.2808  0.2590
  706SOL    HW112587   2.092   6.176   3.066  0.9475 -0.1773  0.2967
  706SOL    HW212588   2.109   6.110   2.918  0.1131 -0.3588  0.2801
  707SOL     OW12589   1.219   7.117   2.023 -0.0935 -0.0395  0.0640
  707SOL    HW112590   1.268   7.047   2.076 -0.9388  0.2161  1.2153
  707SOL    HW212591   1.284   7.167   1.967  0.5945 -1.4168 -0.4045
  708SOL     OW12592   8.343   2.269   1.756  0.4328 -0.1487 -0.0642
  708SOL    HW112593   8.266   2.222   1.799 -0.0517 -0.8199 -1.6069
  708SOL    HW212594   8.340   2.253   1.657  1.2949  1.6367 -0.4024
  709SOL     OW12595   4.054   4.983   1.765 -0.0919 -0.3723 -0.3482
  709SOL    HW112596   4.140   5.016   1.726 -0.4678  2.3348  1.0181
  709SOL    HW212597   4.011   5.056   1.817 -2.8832 -1.9297 -0.4026
  710SOL     OW12598   3.422   8.855   2.437 -0.0483  0.1322  0.0223
  710SOL    HW112599   3.462   8.880   2.525  1.3228 -1.0338 -0.2485
  710SOL    HW212600   3.425   8.934   2.375 -0.7639  0.8712  0.9064
  711SOL     OW12601   0.841   9.207   1.917 -0.2181 -0.1537 -0.4983
  711SOL    HW112602   0.895   9.157   1.985 -0.7332 -0.3287 -0.2134
  711SOL    HW212603   0.760   9.153   1.893 -0.3931  0.2180 -0.7415
  712SOL     OW12604   8.587   6.507   1.954 -0.1098 -0.3903 -0.0028
  712SOL    HW112605   8.528   6.443   1.904 -0.5704 -0.1044  0.1764
  712SOL    HW212606   8.531   6.569   2.008  0.3873 -0.6908  0.8726
  713SOL     OW12607   8.777   0.453   1.134  0.0383  0.1071  0.5908
  713SOL    HW112608   8.845   0.396   1.180  0.7330 -0.0460 -0.6040
  713SOL    HW212609   8.690   0.404   1.127  0.6988 -0.9042 -0.6301
  714SOL     OW12610   1.246   0.061   2.291 -0.3234  0.1701  0.5933
  714SOL    HW112611   1.148   0.042   2.281 -0.2532  0.4871 -0.7683
  714SOL    HW212612   1.297   0.007   2.225  0.3046  1.1821  0.2450
  715SOL     OW12613   2.145   4.067   3.786 -0.1277  0.3169 -0.4099
  715SOL    HW112614   2.139   4.061   3.686 -1.2461 -0.7793 -0.2913
  715SOL    HW212615   2.209   3.997   3.820  0.9526  1.2882 -0.4192
  716SOL     OW12616   9.561   5.551   3.533  0.2274 -0.1481  0.3776
  716SOL    HW112617   9.657   5.546   3.507 -0.2376 -0.9431 -1.2328
  716SOL    HW212618   9.525   5.642   3.513  1.0595  0.6971  2.5481
  717SOL     OW12619   1.127   4.998   0.593  0.2329 -0.4014  0.3041
  717SOL    HW112620   1.138   5.000   0.493  1.0118 -1.0411  0.3778
  717SOL    HW212621   1.098   4.907   0.621 -1.1363  0.0940  0.5513
  718SOL     OW12622   2.890   1.094   0.207 -0.1338 -0.4760  0.0437
  718SOL    HW112623   2.839   1.111   0.291 -0.1435  1.3389 -0.3042
  718SOL    HW212624   2.877   1.000   0.178 -1.2985 -0.7046  1.2945
  719SOL     OW12625   1.457   6.263   2.281  0.0774  0.1222  0.0342
  719SOL    HW112626   1.384   6.238   2.217  0.5455  0.6941 -0.7417
  719SOL    HW212627   1.418   6.302   2.364 -0.5060  0.4013 -0.3686
  720SOL     OW12628   9.768   6.300   2.379 -0.1548 -0.4315  0.3406
  720SOL    HW112629   9.713   6.361   2.437  1.1692 -0.2029  1.3702
  720SOL    HW212630   9.840   6.258   2.434  1.1163 -0.2406 -1.1469
  721SOL     OW12631   7.261   8.554   2.958  0.1536  0.1089 -0.2264
  721SOL    HW112632   7.314   8.558   2.873  0.0089  0.6282 -0.2975
  721SOL    HW212633   7.293   8.625   3.021 -1.0197  0.9898 -0.6079
  722SOL     OW12634   8.523   4.653   1.208  0.3728 -0.0740  0.4730
  722SOL    HW112635   8.463   4.709   1.266  1.0452  0.4412  0.6780
  722SOL    HW212636   8.560   4.577   1.261  1.7251  0.9306  0.9816
  723SOL     OW12637   0.935   1.949   0.751  0.3870 -0.1905 -0.3042
  723SOL    HW112638   1.013   2.009   0.734  1.6091 -1.3123  1.2295
  723SOL    HW212639   0.965   1.868   0.800 -2.0377  0.1597  1.8609
  724SOL     OW12640   9.955   2.465   0.989  0.1489  0.4432 -0.7290
  724SOL    HW112641   9.952   2.560   1.019 -1.3631  0.0492  0.4484
  724SOL    HW212642   9.884   2.413   1.036  0.2108 -1.0317 -2.2021
  725SOL     OW12643   2.654   0.001   0.792 -0.2303 -0.0019 -0.6228
  725SOL    HW112644   2.750  -0.002   0.765 -0.1408 -0.7818 -0.2366
  725SOL    HW212645   2.646  -0.012   0.891 -0.6758  0.9966 -0.5264
  726SOL     OW12646   8.480   0.671   1.740 -0.1860  0.6062  0.0451
  726SOL    HW112647   8.524   0.644   1.655  1.1712  0.3983  0.7962
  726SOL    HW212648   8.547   0.715   1.800 -0.8229 -0.3843  1.5067
  727SOL     OW12649   0.537   7.437   0.894 -0.4040 -0.3363 -0.1940
  727SOL    HW112650   0.442   7.411   0.913 -0.1790  1.0387  3.0892
  727SOL    HW212651   0.598   7.367   0.931 -0.0738  0.0595  0.0111
  728SOL     OW12652   0.893   9.742   1.414  0.0087  0.3155 -0.2811
  728SOL    HW112653   0.916   9.719   1.509  0.6879  1.0864 -0.2543
  728SOL    HW212654   0.919   9.836   1.395  1.8410 -0.4574 -1.8418
  729SOL     OW12655   9.456   6.989   3.379  0.3533 -0.0279 -0.1142
  729SOL    HW112656   9.541   6.962   3.424 -0.2543  1.1549  1.7774
  729SOL    HW212657   9.390   7.020   3.447 -1.4385 -0.4601 -1.6053
  730SOL     OW12658   8.644   4.428   3.154  0.3695  0.0884 -0.2428
  730SOL    HW112659   8.674   4.480   3.235  1.4003  0.4193 -0.8341
  730SOL    HW212660   8.670   4.332   3.165 -2.2684 -0.5016  1.2270
  731SOL     OW12661   1.788   5.956   2.061 -0.1998 -0.6669 -0.4056
  731SOL    HW112662   1.813   5.998   2.149  1.9862 -2.3750 -0.1893
  731SOL    HW212663   1.721   6.014   2.016 -0.3766  0.9309  1.7893
  732SOL     OW12664   2.748   0.518   3.640 -0.2427  0.6442  0.3210
  732SOL    HW112665   2.666   0.464   3.658 -0.6742  0.9617 -0.6309
  732SOL    HW212666   2.820   0.492   3.704 -0.8451 -0.1772  0.6758
  733SOL     OW12667   0.496   9.079   1.292  0.3341 -0.1731  0.2413
  733SOL    HW112668   0.502   9.177   1.313  0.6468 -0.6905  2.5998
  733SOL    HW212669   0.409   9.043   1.325 -0.1619 -0.5457 -1.3911
  734SOL     OW12670   0.638   5.436   3.242  0.1253 -0.1590  0.0559
  734SOL    HW112671   0.691   5.512   3.204 -0.7797 -0.2373 -1.3993
  734SOL    HW212672   0.690   5.351   3.232  0.2489 -0.0486 -0.2426
  735SOL     OW12673   2.841   1.492   2.712 -0.0879 -0.4676 -0.0527
  735SOL    HW112674   2.851   1.523   2.618  1.7164  0.0899  0.3125
  735SOL    HW212675   2.812   1.570   2.769  1.1536 -0.2226  0.2627
  736SOL     OW12676   0.125   6.531   2.010  0.0823  0.0783  0.7648
  736SOL    HW112677   0.093   6.510   1.917 -0.7793  2.9164  0.3819
  736SOL    HW212678   0.218   6.496   2.021  0.0917 -0.5603 -1.0746
  737SOL     OW12679   4.676   7.651   2.275  0.2051  0.0123  0.4709
  737SOL    HW112680   4.754   7.700   2.235  0.0056 -1.1990 -1.5052
  737SOL    HW212681   4.709   7.582   2.338  0.7373 -0.3563 -0.2017
  738SOL     OW12682   6.370   9.706   1.703  0.1346  0.0179 -0.1198
  738SOL    HW112683   6.345   9.632   1.640  0.5674  0.6033 -1.0032
  738SOL    HW212684   6.469   9.723   1.696  0.3491 -0.5162  1.3943
  739SOL     OW12685   0.181   6.006   3.386  0.4981  0.1745  0.3953
  739SOL    HW112686   0.254   6.071   3.367  1.8715 -2.1766 -2.9097
  739SOL    HW212687   0.218   5.929   3.439 -0.1687  0.1768  0.8686
  740SOL     OW12688   1.951   1.353   2.996 -0.1788  0.4888  0.0723
  740SOL    HW112689   1.872   1.407   3.026 -0.8782  0.8886 -2.4268
  740SOL    HW212690   1.923   1.258   2.982  0.4107  0.0507  1.7072
  741SOL     OW12691   2.271   5.473   1.426  0.3064 -0.0695  0.7965
  741SOL    HW112692   2.237   5.382   1.401  1.0118 -0.0183 -0.3763
  741SOL    HW212693   2.259   5.487   1.524 -0.7947 -1.0099  0.8088
  742SOL     OW12694   8.472   8.591   3.274  0.4203 -0.2131 -0.7103
  742SOL    HW112695   8.407   8.640   3.216  1.1557 -0.8453 -2.0805
  742SOL    HW212696   8.540   8.545   3.217  2.0189  0.3549  0.6982
  743SOL     OW12697   7.494   8.772   0.327  0.1076  0.6225 -0.2087
  743SOL    HW112698   7.589   8.803   0.338 -0.3586  2.2085 -0.6033
  743SOL    HW212699   7.471   8.771   0.230 -0.0407 -0.5332 -0.1715
  744SOL     OW12700   7.965   6.288   3.177 -0.3992 -0.2076 -0.0243
  744SOL    HW112701   7.874   6.261   3.144 -0.7457 -0.2059  0.8890
  744SOL    HW212702   8.027   6.210   3.172 -0.3730 -0.1297 -0.9224
  745SOL     OW12703   8.444   6.576   3.526 -0.1718 -0.1193 -0.8283
  745SOL    HW112704   8.465   6.506   3.458  0.7544 -1.1969  0.5404
  745SOL    HW212705   8.417   6.533   3.612  0.3851  1.1853  0.0264
  746SOL     OW12706   3.164   5.315   3.486  0.4419 -0.2901 -0.4510
  746SOL    HW112707   3.261   5.331   3.469  0.3622 -1.0552 -1.6810
  746SOL    HW212708   3.116   5.403   3.493  1.4415  0.1410  1.6589
  747SOL     OW12709   8.411   3.578   2.159  0.6665 -0.0569 -0.2165
  747SOL    HW112710   8.422   3.486   2.197  2.2275 -0.0622 -0.6755
  747SOL    HW212711   8.427   3.645   2.231  0.4762 -0.1164 -0.1156
  748SOL     OW12712   4.935   7.280   3.438 -0.0670 -0.0241 -0.2799
  748SOL    HW112713   4.888   7.355   3.485  0.2859 -0.1906  0.3439
  748SOL    HW212714   4.938   7.299   3.340  0.2980  0.9290 -0.0913
  749SOL     OW12715   4.533   0.955   2.674  0.5453  0.4863  0.1404
  749SOL    HW112716   4.463   0.988   2.611 -1.8092 -3.2424  0.6277
  749SOL    HW212717   4.609   0.916   2.622  0.1814  0.4701 -0.3811
  750SOL     OW12718   2.601   8.614   2.844 -0.0274  0.2628 -0.4229
  750SOL    HW112719   2.606   8.601   2.943  1.4233 -1.2530 -0.6696
  750SOL    HW212720   2.534   8.550   2.806 -0.1803  0.4606 -0.4842
  751SOL     OW12721   1.836   5.094   1.208 -0.1739  0.1048 -0.2651
  751SOL    HW112722   1.921   5.049   1.235 -0.7139  0.2891  1.8580
  751SOL    HW212723   1.811   5.066   1.116  1.6634 -0.7284 -0.5310
  752SOL     OW12724   4.013   2.464   2.193  0.2707  0.4514 -0.0945
  752SOL    HW112725   4.025   2.563   2.188  0.4737  0.4044 -0.6126
  752SOL    HW212726   3.921   2.443   2.225  0.6002  0.8089  1.1034
  753SOL     OW12727   1.005   0.501   0.559 -0.2932  0.2331 -1.0116
  753SOL    HW112728   0.999   0.552   0.473 -0.0961  2.5556  0.3168
  753SOL    HW212729   1.102   0.483   0.580 -0.2144  1.5575 -0.2061
  754SOL     OW12730   9.192   1.717   2.049 -0.7257 -0.0337  0.1209
  754SOL    HW112731   9.228   1.753   1.963  0.6763 -1.4778  0.0853
  754SOL    HW212732   9.129   1.641   2.029 -0.3641 -0.3995  0.3611
  755SOL     OW12733   0.630   4.484   1.043  0.2964 -0.0714  0.4828
  755SOL    HW112734   0.578   4.538   0.977  1.6888  2.0189  1.0665
  755SOL    HW212735   0.607   4.514   1.136  1.5673 -0.0192  0.7883
  756SOL     OW12736   2.457   2.431   0.725 -0.2746 -0.6680  0.5013
  756SOL    HW112737   2.519   2.488   0.778  1.8954 -2.5270  0.0623
  756SOL    HW212738   2.368   2.476   0.717  0.8918  1.8899  1.4690
  757SOL     OW12739   7.789   2.104   0.588 -0.0702  0.0143  0.0219
  757SOL    HW112740   7.880   2.081   0.623  0.4899  1.7515 -0.1984
  757SOL    HW212741   7.724   2.033   0.613  1.2494 -0.9975  0.6328
  758SOL     OW12742   0.451   2.639   0.898  0.0503  0.0842 -0.6210
  758SOL    HW112743   0.447   2.705   0.823 -1.4955 -1.3287 -1.7959
  758SOL    HW212744   0.358   2.612   0.924  0.6581 -1.8027 -0.3146
  759SOL     OW12745   0.144   3.068   2.646 -0.2647  0.5005  0.3299
  759SOL    HW112746   0.047   3.092   2.652 -0.0480  1.1208  1.5039
  759SOL    HW212747   0.184   3.069   2.738  0.5358 -1.0809  0.0125
  760SOL     OW12748   9.277   2.422   0.612 -0.0722  0.1159  0.5416
  760SOL    HW112749   9.254   2.439   0.517 -1.2313 -0.0520  0.7873
  760SOL    HW212750   9.317   2.504   0.653  1.0360 -0.0095 -0.2586
  761SOL     OW12751   0.990   0.427   3.448 -0.1726  0.2612  0.1729
  761SOL    HW112752   0.942   0.341   3.465 -0.2567  0.1471 -0.6232
  761SOL    HW212753   1.057   0.443   3.520 -0.3610 -0.3304  0.4799
  762SOL     OW12754   7.654   9.919   0.907  0.0577  0.8865 -0.7103
  762SOL    HW112755   7.621   9.826   0.924  1.6327  0.5601  0.7265
  762SOL    HW212756   7.578   9.976   0.877 -1.7975  0.1089  2.3310
  763SOL     OW12757   1.063   3.656   3.183  0.2906  0.2476  0.4463
  763SOL    HW112758   0.979   3.655   3.238 -0.7173  1.0574 -1.0496
  763SOL    HW212759   1.047   3.707   3.099  2.0473 -0.3166 -0.2481
  764SOL     OW12760   0.577   9.280   0.892  0.0907 -0.0854  0.0812
  764SOL    HW112761   0.663   9.237   0.920  0.9209  0.1803 -1.9691
  764SOL    HW212762   0.587   9.379   0.892  0.1621 -0.0734 -1.1995
  765SOL     OW12763   8.922   0.888   3.594 -0.2006 -0.0764  0.2504
  765SOL    HW112764   8.903   0.984   3.574 -2.5600 -0.8686 -1.4658
  765SOL    HW212765   8.876   0.863   3.679  2.1973  0.8312  1.8788
  766SOL     OW12766   3.463   3.575   1.935 -0.5188 -0.1445  0.1342
  766SOL    HW112767   3.465   3.611   1.841  0.2737  0.6128  0.4448
  766SOL    HW212768   3.526   3.498   1.943 -0.0398  0.2561  0.2347
  767SOL     OW12769   4.552   8.006   0.759 -0.6000 -0.1057  0.4227
  767SOL    HW112770   4.595   8.075   0.701  0.7721 -0.8493  0.5317
  767SOL    HW212771   4.590   7.916   0.737 -0.0972 -0.4085  2.4084
  768SOL     OW12772   4.171   7.189   1.443 -0.1285  0.5066  0.7107
  768SOL    HW112773   4.162   7.113   1.379 -0.2537 -1.5113  3.0574
  768SOL    HW212774   4.083   7.209   1.485 -0.1418  2.1206 -0.0362
  769SOL     OW12775   7.544   1.612   3.148  0.4310 -0.3487  0.2039
  769SOL    HW112776   7.639   1.582   3.142  0.0092 -1.5517 -0.8103
  769SOL    HW212777   7.501   1.603   3.058 -1.1712 -1.7068  1.0790
  770SOL     OW12778   8.494   7.605   3.119 -0.4024  0.2149 -0.2726
  770SOL    HW112779   8.562   7.663   3.075 -0.3555  1.7164  1.7122
  770SOL    HW212780   8.406   7.653   3.122 -0.4238  0.1048  1.1534
  771SOL     OW12781   8.317   5.754   2.555 -0.7589  0.0403 -0.0149
  771SOL    HW112782   8.237   5.787   2.603 -0.6771 -0.1925  0.2832
  771SOL    HW212783   8.303   5.659   2.527 -0.4230 -0.1371  0.4105
  772SOL     OW12784   4.031   0.499   1.476 -0.3509  0.0604  0.1044
  772SOL    HW112785   4.013   0.486   1.574 -1.0399 -0.3381 -0.0686
  772SOL    HW212786   4.071   0.416   1.438  0.0742  0.2753  0.0829
  773SOL     OW12787   3.863   9.539   1.247  0.3822  0.8229 -0.2085
  773SOL    HW112788   3.801   9.485   1.304  0.2788 -1.1305 -2.1111
  773SOL    HW212789   3.921   9.596   1.305 -0.6811 -0.0687  1.7635
  774SOL     OW12790   5.681   8.142   3.070 -0.2522 -0.3896 -0.1600
  774SOL    HW112791   5.632   8.195   3.139  1.0743 -0.5633  0.9121
  774SOL    HW212792   5.666   8.044   3.086  2.2936 -0.5220  1.5530
  775SOL     OW12793   2.551   7.744   3.854  0.4910 -0.2156 -0.2074
  775SOL    HW112794   2.509   7.752   3.764 -0.0144 -0.8505 -0.0309
  775SOL    HW212795   2.611   7.823   3.870 -1.6932  1.4211  0.0978
  776SOL     OW12796   0.368   8.058   2.826  0.2820 -0.4559 -0.1318
  776SOL    HW112797   0.392   7.962   2.812 -0.9335 -0.5181 -1.8832
  776SOL    HW212798   0.449   8.115   2.812  0.2835 -0.9717 -2.3594
  777SOL     OW12799   2.332   9.003   0.979 -0.1316 -0.3831 -0.0111
  777SOL    HW112800   2.420   8.971   0.947  0.4285  0.9579  0.1330
  777SOL    HW212801   2.344   9.089   1.029 -1.2476 -1.2969  1.8788
  778SOL     OW12802   9.383   0.856   0.838 -0.1743 -0.1063  0.2040
  778SOL    HW112803   9.469   0.868   0.789  0.6456 -0.8738  1.4519
  778SOL    HW212804   9.311   0.831   0.773  0.8519 -0.8791 -0.6473
  779SOL     OW12805   0.243   9.563   1.763  0.3536 -0.1234 -0.0714
  779SOL    HW112806   0.155   9.574   1.717  0.6001 -1.5486 -0.9069
  779SOL    HW212807   0.233   9.582   1.861 -1.0542 -1.0682 -0.0319
  780SOL     OW12808   0.374   1.842   2.164  0.3041  0.3757  0.1069
  780SOL    HW112809   0.284   1.883   2.182 -0.4149 -1.7314  1.4728
  780SOL    HW212810   0.365   1.772   2.094  0.6181 -0.8145  1.2516
  781SOL     OW12811   9.478   3.419   0.494 -0.3280 -0.3588  0.5031
  781SOL    HW112812   9.570   3.407   0.455  0.0911 -0.2692  1.4656
  781SOL    HW212813   9.442   3.508   0.465 -0.7568 -1.0590 -1.1651
  782SOL     OW12814   7.756   2.343   0.705  0.8626  0.2688  0.2082
  782SOL    HW112815   7.744   2.391   0.618 -0.7452 -2.9627 -1.4375
  782SOL    HW212816   7.777   2.247   0.688 -1.6317 -0.9389  3.3789
  783SOL     OW12817   0.217   2.294   2.371  0.5395 -0.2645 -0.6495
  783SOL    HW112818   0.153   2.242   2.314  1.7391 -0.7777 -1.5550
  783SOL    HW212819   0.309   2.290   2.330  1.6277 -1.4401  1.8068
  784SOL     OW12820   0.278   2.611   0.646  0.7723  0.4115 -0.5837
  784SOL    HW112821   0.300   2.515   0.629  1.4270  0.2312  1.1481
  784SOL    HW212822   0.193   2.616   0.699  0.4570  0.8086 -1.1288
  785SOL     OW12823   9.707   2.692   1.782 -0.6274 -0.1572 -0.3838
  785SOL    HW112824   9.686   2.758   1.854 -0.8025  0.6290 -1.1476
  785SOL    HW212825   9.713   2.740   1.694 -0.0040 -1.0466 -0.8247
  786SOL     OW12826   2.466   4.008   1.848 -0.8316  0.0857  0.2816
  786SOL    HW112827   2.426   4.091   1.811 -0.9619  0.2722  0.8349
  786SOL    HW212828   2.534   3.972   1.784 -0.7775  0.6116  0.0406
  787SOL     OW12829   8.652   4.822   2.297  0.8807  0.2306 -0.3011
  787SOL    HW112830   8.652   4.895   2.228  0.3843 -0.1526 -0.7120
  787SOL    HW212831   8.638   4.863   2.388  1.0253  0.6880 -0.4820
  788SOL     OW12832   1.619   5.634   4.014  0.0806 -0.0245 -0.2077
  788SOL    HW112833   1.719   5.623   4.015  0.1723  0.7393  1.0835
  788SOL    HW212834   1.593   5.705   4.079 -1.3111 -0.1616 -0.5939
  789SOL     OW12835   7.636   2.012   3.926 -0.6369  0.1123 -0.8034
  789SOL    HW112836   7.557   1.951   3.933  0.2987 -1.0973 -0.6569
  789SOL    HW212837   7.691   1.987   3.847 -0.6751  1.2983 -1.2195
  790SOL     OW12838   1.740   5.444   2.275  0.2178 -0.0945  0.1304
  790SOL    HW112839   1.725   5.489   2.186  0.3951 -0.0372  0.1294
  790SOL    HW212840   1.700   5.353   2.273  2.0979 -0.9240 -0.7511
  791SOL     OW12841   3.255   7.255   3.020  0.2197 -0.0473 -0.1782
  791SOL    HW112842   3.329   7.189   3.036  1.8662  1.9258  0.6453
  791SOL    HW212843   3.201   7.266   3.103 -0.7757 -1.1911 -0.6605
  792SOL     OW12844   0.586   3.043   0.734 -0.4929  0.5479  0.0302
  792SOL    HW112845   0.578   3.087   0.823 -0.5303  1.1631 -0.2738
  792SOL    HW212846   0.519   2.969   0.727 -0.2822  0.3015  0.6253
  793SOL     OW12847   4.132   2.437   1.550  0.2536  0.4248  0.0138
  793SOL    HW112848   4.061   2.371   1.573 -0.1517  1.1834  0.9682
  793SOL    HW212849   4.221   2.398   1.570  0.1018 -0.4209 -0.9060
  794SOL     OW12850   8.948   1.522   0.180  0.4579 -0.5100  0.3251
  794SOL    HW112851   8.910   1.584   0.112 -1.1237 -1.3941  0.3736
  794SOL    HW212852   9.033   1.560   0.216  1.1291  0.1165 -1.8837
  795SOL     OW12853   7.893   9.047   1.731 -0.2598 -0.3792  0.2650
  795SOL    HW112854   7.951   9.122   1.700 -1.6230 -0.0905 -1.6396
  795SOL    HW212855   7.798   9.077   1.734 -1.0807 -2.5481 -2.2973
  796SOL     OW12856   2.276   9.016   2.070 -0.9362 -0.1064 -0.0633
  796SOL    HW112857   2.188   9.036   2.028 -1.2535  0.0137  0.6536
  796SOL    HW212858   2.292   8.917   2.068 -1.3039 -0.1721  0.2262
  797SOL     OW12859   4.603   2.838   1.403 -0.3357 -0.0223 -0.4175
  797SOL    HW112860   4.700   2.821   1.389 -0.5854 -0.8297 -1.1967
  797SOL    HW212861   4.582   2.833   1.501  0.4356  0.3685 -0.2270
  798SOL     OW12862   2.667   6.077   1.380  0.6541  0.0311 -0.0615
  798SOL    HW112863   2.647   6.040   1.289 -2.5166  0.6091  0.3378
  798SOL    HW212864   2.660   6.177   1.377  0.1670  0.0269  0.9011
  799SOL     OW12865   2.141   9.377   2.118  0.1462 -0.6225  0.5559
  799SOL    HW112866   2.143   9.344   2.023 -1.4508 -1.0537  0.6661
  799SOL    HW212867   2.092   9.464   2.122  2.1361  0.5198  0.6681
  800SOL     OW12868   8.552   6.320   1.043  0.0168  0.8053  0.6799
  800SOL    HW112869   8.548   6.317   0.943  2.1552  1.9101  0.5318
  800SOL    HW212870   8.558   6.227   1.079 -2.3663  0.3194 -0.1200
  801SOL     OW12871   2.549   7.538   3.147  0.4784  0.2194 -0.3509
  801SOL    HW112872   2.505   7.466   3.201  1.6547  0.5450  1.0885
  801SOL    HW212873   2.520   7.627   3.181  0.1607  0.4274 -1.1644
  802SOL     OW12874   0.367   9.375   0.035 -0.0118  0.4688 -0.3692
  802SOL    HW112875   0.333   9.456   0.083 -2.0645 -1.1091  0.9472
  802SOL    HW212876   0.465   9.365   0.050  0.3213  2.8759 -0.8246
  803SOL     OW12877   3.350   5.807   3.514 -0.6010 -0.4722 -0.2309
  803SOL    HW112878   3.274   5.785   3.453 -0.9727 -1.7644  0.6561
  803SOL    HW212879   3.429   5.750   3.491  0.3428  1.3111 -1.5580
  804SOL     OW12880   2.279   2.033   2.842  0.9886 -0.0853  0.2231
  804SOL    HW112881   2.214   1.997   2.775  1.4227  0.2361 -0.3759
  804SOL    HW212882   2.229   2.074   2.918  0.3880  3.2943 -1.8634
  805SOL     OW12883   8.541   3.442   0.184  1.1025 -0.0237 -0.2694
  805SOL    HW112884   8.491   3.469   0.266  2.2654 -0.7204  0.6906
  805SOL    HW212885   8.493   3.366   0.140  0.1081  0.7968 -0.6309
  806SOL     OW12886   1.079   5.828   1.292 -0.0311  0.5151  0.0252
  806SOL    HW112887   1.039   5.817   1.201  0.4440  2.5371 -0.4546
  806SOL    HW212888   1.036   5.907   1.337  0.1733 -0.1062  1.3045
  807SOL     OW12889   6.575   8.393   2.781 -0.4503 -0.0846  0.0299
  807SOL    HW112890   6.567   8.314   2.720 -0.7800  1.0347 -1.3896
  807SOL    HW212891   6.537   8.474   2.737 -1.2341  0.6380  1.9494
  808SOL     OW12892   0.432   0.766   0.816 -0.4306 -0.1432 -0.0167
  808SOL    HW112893   0.431   0.717   0.903 -2.6567  0.6281  0.4021
  808SOL    HW212894   0.365   0.726   0.754 -0.8100  1.0545 -0.3951
  809SOL     OW12895   3.264   2.865   0.264 -0.0025 -0.3424 -0.1645
  809SOL    HW112896   3.194   2.803   0.299 -0.3242  0.2409  0.2234
  809SOL    HW212897   3.277   2.941   0.328  0.0113  0.2844 -0.9063
  810SOL     OW12898   2.688   8.952   2.073  0.6475  0.5793 -0.1014
  810SOL    HW112899   2.682   8.856   2.099 -0.9589  0.5627 -0.4561
  810SOL    HW212900   2.762   8.996   2.123  1.0735 -0.7227  0.4326
  811SOL     OW12901   0.714   7.841   0.764  0.5756  0.4822  0.0401
  811SOL    HW112902   0.682   7.821   0.857 -1.0011  0.8879 -0.3942
  811SOL    HW212903   0.674   7.928   0.733 -0.2942 -0.4844 -1.6351
  812SOL     OW12904   3.884   2.322   2.609 -0.1630  0.4707  0.2174
  812SOL    HW112905   3.896   2.251   2.540  1.2482  0.2999  0.6187
  812SOL    HW212906   3.876   2.411   2.564 -0.4860  0.2185 -0.2235
  813SOL     OW12907   0.996   0.106   3.852  0.1335 -0.1852  0.4306
  813SOL    HW112908   0.990   0.016   3.808 -0.6025 -0.0362  0.2073
  813SOL    HW212909   1.026   0.095   3.946  1.8553 -0.5042 -0.1367
  814SOL     OW12910   0.269   0.233   0.474  0.5410 -0.2622  0.2257
  814SOL    HW112911   0.174   0.236   0.507  0.4590 -0.7174  0.0340
  814SOL    HW212912   0.273   0.180   0.390  0.9291 -0.0191  0.0906
  815SOL     OW12913   0.745   9.695   0.633  0.3871  0.3766 -0.2445
  815SOL    HW112914   0.680   9.731   0.700 -1.7754 -1.7146 -1.1168
  815SOL    HW212915   0.763   9.599   0.652  1.0787  0.2149 -1.6343
  816SOL     OW12916   3.108   8.676   1.774  0.0024  0.3861  0.8811
  816SOL    HW112917   3.033   8.736   1.749  1.6632  2.5484  0.9081
  816SOL    HW212918   3.173   8.726   1.831  1.7058 -1.2921  0.4682
  817SOL     OW12919   9.000   9.860   2.009 -0.4267  0.6012 -0.4381
  817SOL    HW112920   9.086   9.900   2.040 -0.3233 -0.3940  0.5585
  817SOL    HW212921   8.936   9.852   2.085 -0.4478 -1.1232 -0.6220
  818SOL     OW12922   3.110   0.270   2.309 -0.3297 -0.1554 -0.0899
  818SOL    HW112923   3.129   0.283   2.212  1.0943 -3.0043 -0.2396
  818SOL    HW212924   3.195   0.272   2.361 -0.7916 -1.3642  0.7386
  819SOL     OW12925   0.076   5.680   1.732  0.2649 -0.4351  0.1601
  819SOL    HW112926   0.053   5.650   1.640  1.6800 -1.2169  0.0407
  819SOL    HW212927  -0.008   5.699   1.783 -0.5092  0.5782 -1.4597
  820SOL     OW12928   6.145   8.302   3.264  0.6047  0.2877  0.2379
  820SOL    HW112929   6.052   8.270   3.280  1.3329 -1.9562  0.1623
  820SOL    HW212930   6.180   8.345   3.348 -0.1854  0.3683  0.5327
  821SOL     OW12931   1.298   3.698   3.281  0.0709 -0.3769  0.4695
  821SOL    HW112932   1.326   3.615   3.329  0.0686 -0.5875  0.1114
  821SOL    HW212933   1.208   3.684   3.239 -0.5285  0.2547  1.5128
  822SOL     OW12934   8.429   9.156   0.294 -0.2233 -0.3844  0.1062
  822SOL    HW112935   8.339   9.133   0.330 -0.2883  0.5614  0.5731
  822SOL    HW212936   8.445   9.254   0.305  1.5511 -0.8050  1.5344
  823SOL     OW12937   2.274   3.583   3.010  0.1784  0.1804 -0.2910
  823SOL    HW112938   2.291   3.525   2.930 -1.4969  0.7253 -1.0620
  823SOL    HW212939   2.212   3.657   2.984  2.3853  2.4178  0.6339
  824SOL     OW12940   9.976   4.595   2.676 -0.1245 -0.0104  0.1028
  824SOL    HW112941  10.010   4.643   2.757  1.9166 -0.9606 -0.1684
  824SOL    HW212942   9.877   4.583   2.683 -0.4322  2.7638  0.9417
  825SOL     OW12943   1.106   9.667   3.740  0.2374 -0.3643 -0.3272
  825SOL    HW112944   1.087   9.623   3.652 -0.8035  2.4496 -1.5817
  825SOL    HW212945   1.203   9.658   3.761 -0.2165 -4.7123  0.3513
  826SOL     OW12946   5.034   9.825   2.997 -0.0537  0.3034  0.0163
  826SOL    HW112947   4.993   9.915   3.013 -1.0648 -0.1418 -0.0691
  826SOL    HW212948   4.969   9.753   3.023  0.9350 -0.4105  0.5696
  827SOL     OW12949   2.497   9.002   3.121  0.1779  0.2491  0.3655
  827SOL    HW112950   2.451   9.033   3.038  0.2503  0.8275  0.5385
  827SOL    HW212951   2.435   8.942   3.173  0.3991 -0.7215 -0.4675
  828SOL     OW12952   7.210   9.029   3.444 -0.3713  0.2987 -0.1461
  828SOL    HW112953   7.199   8.945   3.390  0.6712 -1.2446  1.9443
  828SOL    HW212954   7.298   9.071   3.422 -0.8119  0.7509 -1.0609
  829SOL     OW12955   1.562   6.458   3.678 -0.7240  0.3027  0.1555
  829SOL    HW112956   1.516   6.545   3.692 -0.7157  0.4874 -0.9816
  829SOL    HW212957   1.510   6.385   3.724 -1.0709  0.7971  0.5579
  830SOL     OW12958   2.459   5.959   3.353  0.2295 -0.5553  0.2958
  830SOL    HW112959   2.520   5.911   3.416  1.8446  0.4487 -0.4605
  830SOL    HW212960   2.510   5.985   3.271 -1.1479  0.5505 -0.2342
  831SOL     OW12961   6.906   8.901   1.754  0.0327  0.8057  0.3393
  831SOL    HW112962   6.988   8.862   1.712 -0.1779  0.2605  0.4273
  831SOL    HW212963   6.858   8.830   1.805 -0.6581  1.0522  0.0416
  832SOL     OW12964   3.708   3.659   0.673  0.1086 -0.9773 -0.1776
  832SOL    HW112965   3.785   3.595   0.675  0.6256 -0.3391  0.3374
  832SOL    HW212966   3.625   3.609   0.647  0.9064 -1.4304 -1.9379
  833SOL     OW12967   0.127   7.400   0.176  0.0073  0.3824  0.2375
  833SOL    HW112968   0.055   7.426   0.241  0.1605  0.5370  0.3449
  833SOL    HW212969   0.189   7.335   0.219 -0.6859 -0.5898 -0.2069
  834SOL     OW12970   2.409   1.409   2.373 -0.1507 -0.9360 -0.2272
  834SOL    HW112971   2.337   1.358   2.420  0.2562  0.9413  2.5081
  834SOL    HW212972   2.378   1.503   2.357  0.6296 -0.9065 -1.6198
  835SOL     OW12973   1.526   0.361   1.279  0.1673 -0.1332  0.0063
  835SOL    HW112974   1.445   0.418   1.294 -0.0540 -0.9044  1.9156
  835SOL    HW212975   1.498   0.265   1.273  0.9150 -0.3841  0.5017
  836SOL     OW12976   0.445   6.149   4.031 -0.5347  0.0067 -0.0010
  836SOL    HW112977   0.386   6.121   3.955  1.7104 -1.0127 -1.4254
  836SOL    HW212978   0.395   6.211   4.091 -3.6137 -2.2195 -0.1723
  837SOL     OW12979   4.717   7.693   2.593  0.1235  0.2041 -0.0005
  837SOL    HW112980   4.759   7.646   2.516  1.1191 -0.5222  0.9541
  837SOL    HW212981   4.724   7.792   2.581  1.2273  0.0845 -0.3331
  838SOL     OW12982   4.673   8.672   0.640 -0.2977 -0.6594 -0.4581
  838SOL    HW112983   4.574   8.690   0.632 -0.0572  1.0746  0.1426
  838SOL    HW212984   4.699   8.677   0.737  0.3931 -1.0113 -0.6292
  839SOL     OW12985   8.619   9.361   1.663  0.5419 -0.2477 -0.3197
  839SOL    HW112986   8.658   9.363   1.570 -0.2081  1.3115 -0.6100
  839SOL    HW212987   8.686   9.397   1.728  1.0311 -1.2506 -0.2417
  840SOL     OW12988   4.094   0.106   1.853  0.2505  0.0380 -0.5171
  840SOL    HW112989   4.161   0.054   1.905  0.1866 -0.0793 -0.5521
  840SOL    HW212990   4.072   0.191   1.902 -0.2757 -0.3662 -0.0479
  841SOL     OW12991   9.815   7.878   3.318  0.9744  0.1669 -0.1042
  841SOL    HW112992   9.738   7.932   3.352  1.4406  0.1570  0.9949
  841SOL    HW212993   9.788   7.827   3.237  0.1318  0.9882 -0.3437
  842SOL     OW12994   4.926   1.811   1.067  0.0485 -0.1775  0.5274
  842SOL    HW112995   4.843   1.852   1.030  0.0403 -1.6697 -1.2073
  842SOL    HW212996   4.911   1.714   1.084  2.3113 -1.2141 -2.8617
  843SOL     OW12997   0.777   3.627   0.336 -0.2455 -0.0258 -0.0599
  843SOL    HW112998   0.799   3.704   0.396  0.8587  0.5854 -1.2323
  843SOL    HW212999   0.847   3.556   0.346 -0.6879 -0.4294  0.2206
  844SOL     OW13000   4.802   0.795   3.453 -0.0876  0.2323 -0.3582
  844SOL    HW113001   4.832   0.726   3.387 -2.1875 -0.3528 -0.7356
  844SOL    HW213002   4.810   0.886   3.413 -1.3217 -0.1202 -1.4430
  845SOL     OW13003   0.283   0.376   1.096 -0.7727  0.8203  0.2470
  845SOL    HW113004   0.258   0.433   1.174 -0.5510 -1.0254  1.6834
  845SOL    HW213005   0.225   0.295   1.094  0.5290 -0.1037 -0.3770
  846SOL     OW13006   7.935   3.068   0.501  0.2710  0.1223  0.6512
  846SOL    HW113007   7.853   3.119   0.474 -0.8196 -0.6031  2.4837
  846SOL    HW213008   7.990   3.048   0.420 -0.2776  2.4812 -0.3493
  847SOL     OW13009   3.152   7.042   1.839  0.4619  0.1951 -0.2073
  847SOL    HW113010   3.230   6.989   1.808  1.7450  0.6425  2.1567
  847SOL    HW213011   3.182   7.135   1.862 -0.6820  0.2483  1.1231
  848SOL     OW13012   1.508   2.922   1.684  0.0605 -0.2132  0.4047
  848SOL    HW113013   1.462   2.976   1.755 -1.1757 -1.1541  0.3338
  848SOL    HW213014   1.585   2.873   1.724 -1.4378 -1.7963  1.4158
  849SOL     OW13015   6.421   7.514   2.575  0.2156 -0.6701 -0.7945
  849SOL    HW113016   6.472   7.543   2.494  1.0339 -0.3300 -0.1703
  849SOL    HW213017   6.382   7.423   2.560 -1.0520  0.0782 -2.1926
  850SOL     OW13018   1.567   9.667   2.722 -0.3448  0.2050  0.0316
  850SOL    HW113019   1.531   9.705   2.807 -0.7484  2.0329 -0.9266
  850SOL    HW213020   1.524   9.579   2.704 -0.5418 -0.0064  1.5207
  851SOL     OW13021   2.964   0.712   1.569 -0.2794  0.6857  0.0909
  851SOL    HW113022   2.972   0.801   1.523 -0.6087  0.7514  0.1632
  851SOL    HW213023   2.910   0.650   1.513  1.2724  0.0202 -0.7169
  852SOL     OW13024   2.374   1.719   3.016  0.2468  0.0134 -0.0533
  852SOL    HW113025   2.438   1.754   2.948 -0.4322  2.5158  0.5320
  852SOL    HW213026   2.397   1.757   3.106 -0.4496 -1.1661  0.6403
  853SOL     OW13027   9.656   7.839   1.977 -0.2605  0.2025  0.7962
  853SOL    HW113028   9.720   7.855   2.052  1.6845 -0.4887 -0.6682
  853SOL    HW213029   9.579   7.785   2.010  0.6171 -0.1815  2.2746
  854SOL     OW13030   1.452   3.127   0.271  0.4366  0.3898  0.0936
  854SOL    HW113031   1.398   3.211   0.269  1.0272  0.8267  1.6081
  854SOL    HW213032   1.394   3.049   0.248 -0.1570  1.1844 -1.1393
  855SOL     OW13033   0.793   7.640   0.438  0.1753  0.1116  0.1877
  855SOL    HW113034   0.827   7.622   0.531  0.3168  1.8174  0.4812
  855SOL    HW213035   0.706   7.689   0.444 -0.0109 -0.1234 -0.5974
  856SOL     OW13036   1.560   7.153   0.769  0.2116 -0.9060  0.3368
  856SOL    HW113037   1.626   7.089   0.731 -1.0604 -2.2347  0.3325
  856SOL    HW213038   1.552   7.232   0.708 -0.4157 -2.1440 -1.2285
  857SOL     OW13039   3.756   1.880   2.204  0.1608  0.6385 -0.7480
  857SOL    HW113040   3.770   1.822   2.125 -0.1578 -1.1978  0.5209
  857SOL    HW213041   3.826   1.861   2.273 -0.9667  0.5150  0.3783
  858SOL     OW13042   9.841   8.538   2.147 -0.1192 -0.8009 -0.0893
  858SOL    HW113043   9.832   8.552   2.246 -0.6609  0.2409 -0.2856
  858SOL    HW213044   9.932   8.569   2.117 -1.2655  2.3162 -0.5042
  859SOL     OW13045   4.122   0.291   1.274 -0.0454 -0.3582 -0.1467
  859SOL    HW113046   4.098   0.278   1.178 -0.1584  0.3849 -0.2185
  859SOL    HW213047   4.203   0.349   1.281 -0.3156 -0.0209  0.2226
  860SOL     OW13048   0.369   6.405   1.978 -0.3772 -0.3013  0.7159
  860SOL    HW113049   0.339   6.366   2.065 -0.3479 -0.6370  0.5736
  860SOL    HW213050   0.368   6.335   1.907 -2.2227  0.4140  0.0147
  861SOL     OW13051   3.331   0.145   1.772 -0.0305  0.0678  0.2419
  861SOL    HW113052   3.425   0.177   1.780 -0.0696  0.2278  0.0797
  861SOL    HW213053   3.269   0.221   1.792 -0.1275  0.3416 -1.0160
  862SOL     OW13054   3.374   0.365   0.874 -0.2503  0.3068  0.1797
  862SOL    HW113055   3.393   0.462   0.855 -0.4065  0.6099  1.5144
  862SOL    HW213056   3.297   0.358   0.938  0.2296 -0.6764  0.6568
  863SOL     OW13057   2.858   8.963   3.973  0.0071  0.4904  0.4617
  863SOL    HW113058   2.790   8.895   3.946  1.3899  0.1843 -2.4572
  863SOL    HW213059   2.830   9.053   3.940  1.3241  0.2439 -1.4428
  864SOL     OW13060   8.414   3.023   0.549 -0.2246  0.4561 -0.3565
  864SOL    HW113061   8.490   2.984   0.602 -1.2309 -0.5365  0.3861
  864SOL    HW213062   8.398   3.117   0.579 -1.0693 -0.2373  1.4455
  865SOL     OW13063   8.951   0.840   1.342  0.0652  0.0121 -0.4664
  865SOL    HW113064   8.904   0.928   1.333  1.4375  0.5722 -2.3691
  865SOL    HW213065   8.984   0.811   1.253  1.2497 -1.5361  0.4639
  866SOL     OW13066   4.115   8.494   2.158  0.1422 -0.1594  0.0267
  866SOL    HW113067   4.084   8.585   2.183 -1.3972 -1.3355  2.5543
  866SOL    HW213068   4.071   8.466   2.072 -0.4680  0.8960 -0.0111
  867SOL     OW13069   1.333   6.202   3.503 -0.0312  0.2244 -0.1743
  867SOL    HW113070   1.382   6.268   3.446  2.5105 -1.2302  0.2525
  867SOL    HW213071   1.390   6.177   3.581 -1.7157 -1.0793  0.6743
  868SOL     OW13072   9.063   3.573   2.159 -0.4301 -0.7049 -0.8189
  868SOL    HW113073   9.073   3.670   2.136 -1.1061 -0.8186 -1.5853
  868SOL    HW213074   9.149   3.540   2.199  0.8979 -0.6208 -3.5129
  869SOL     OW13075   8.635   5.415   1.263  0.0354  0.3550  0.8545
  869SOL    HW113076   8.611   5.459   1.350 -1.1439 -1.9681  1.7484
  869SOL    HW213077   8.584   5.459   1.189  1.5388  2.7786  1.2043
  870SOL     OW13078   1.811   7.590   3.422 -0.4767  0.0954  0.6291
  870SOL    HW113079   1.765   7.673   3.392  1.2460  1.7752  2.4781
  870SOL    HW213080   1.855   7.606   3.510  1.9965 -2.0107 -0.1428
  871SOL     OW13081   4.726   8.636   0.900  0.0026  0.1232 -0.8434
  871SOL    HW113082   4.766   8.584   0.975 -0.9062  1.2185  0.4061
  871SOL    HW213083   4.719   8.732   0.925  0.4917  0.6696 -2.6633
  872SOL     OW13084   4.487   3.246   0.073  0.0373 -0.0731  0.4327
  872SOL    HW113085   4.504   3.175   0.142 -0.2764  0.6285  1.2436
  872SOL    HW213086   4.570   3.300   0.059  0.0478 -0.0968  0.4056
  873SOL     OW13087   3.106   7.767   1.873 -0.1343 -0.5233  0.5472
  873SOL    HW113088   3.053   7.766   1.958  0.6613 -2.3455  1.0529
  873SOL    HW213089   3.198   7.731   1.891  0.2232 -0.3834 -0.9710
  874SOL     OW13090   8.317   9.591   3.839  0.5056 -0.3603 -0.0610
  874SOL    HW113091   8.270   9.656   3.899 -0.0951 -0.6321 -0.2266
  874SOL    HW213092   8.352   9.640   3.759  2.0732  0.1491  0.9256
  875SOL     OW13093   3.532   4.099   1.201 -0.0872  0.2931  0.3556
  875SOL    HW113094   3.582   4.101   1.288  1.2709  1.3924 -0.4053
  875SOL    HW213095   3.450   4.043   1.210  0.5632 -0.4244  2.0542
  876SOL     OW13096   8.367   3.304   0.618 -0.2436  0.0380 -0.0256
  876SOL    HW113097   8.404   3.324   0.709 -0.1314 -0.3712  0.0206
  876SOL    HW213098   8.267   3.311   0.620 -0.2603 -0.2395  0.1968
  877SOL     OW13099   0.479   1.229   2.077 -0.0628 -0.5599 -0.0079
  877SOL    HW113100   0.381   1.218   2.094  0.1156  0.9489  2.3205
  877SOL    HW213101   0.527   1.232   2.165  1.7835  1.0636 -1.0421
  878SOL     OW13102   8.483   2.263   0.528  0.3198  0.1374 -0.6150
  878SOL    HW113103   8.426   2.330   0.576 -1.4120 -0.5415 -1.6857
  878SOL    HW213104   8.525   2.201   0.595 -0.6212  0.3167  0.1474
  879SOL     OW13105   4.814   0.502   2.303 -0.2046  0.0653  0.6272
  879SOL    HW113106   4.907   0.466   2.306 -0.7547 -1.2416  3.1759
  879SOL    HW213107   4.766   0.466   2.223  0.9911 -0.4731  0.1510
  880SOL     OW13108   0.444   3.450   1.417 -0.8136  0.0734  0.3893
  880SOL    HW113109   0.407   3.412   1.332 -0.0389  1.1750 -0.4301
  880SOL    HW213110   0.383   3.522   1.450 -1.4564 -0.7814  1.1344
  881SOL     OW13111   6.830   8.839   2.234  0.7316 -0.1660 -0.9170
  881SOL    HW113112   6.921   8.878   2.248 -0.1296  1.0356  1.6969
  881SOL    HW213113   6.767   8.911   2.205 -0.1785 -0.2381  0.8548
  882SOL     OW13114   2.304   4.801   3.231 -0.2670 -0.2779  0.1884
  882SOL    HW113115   2.253   4.859   3.293  0.9068 -0.6890  1.5674
  882SOL    HW213116   2.315   4.710   3.271  1.3979 -0.2405 -0.1414
  883SOL     OW13117   0.245   0.814   0.289  0.2387 -0.1758 -0.2313
  883SOL    HW113118   0.254   0.742   0.221 -1.8515 -1.0604  0.3659
  883SOL    HW213119   0.259   0.776   0.381 -0.8103  0.1774  0.0837
  884SOL     OW13120   1.045   9.687   3.220  0.0781 -0.4739 -0.3230
  884SOL    HW113121   1.095   9.749   3.161  0.3877 -1.7637 -1.4273
  884SOL    HW213122   0.955   9.726   3.241  0.5103  0.6185 -0.4951
  885SOL     OW13123   2.902   1.950   3.065  0.4677 -0.3044 -0.2028
  885SOL    HW113124   2.916   1.861   3.020 -3.1852 -0.8637 -0.3956
  885SOL    HW213125   2.974   1.964   3.133  1.0887 -3.4367 -0.1279
  886SOL     OW13126   0.184   3.059   0.823  0.4763 -0.2209  0.2287
  886SOL    HW113127   0.167   2.995   0.897 -1.6593  1.8886  1.6648
  886SOL    HW213128   0.183   3.153   0.859  0.9656  0.7632 -2.2089
  887SOL     OW13129   9.724   5.564   0.730 -0.5015  0.0371  0.0760
  887SOL    HW113130   9.644   5.557   0.789  0.5549 -0.0754  1.5198
  887SOL    HW213131   9.748   5.660   0.718 -1.6758  0.1557 -1.5210
  888SOL     OW13132   3.605   9.038   2.902  0.7094  0.1367 -0.1796
  888SOL    HW113133   3.659   9.098   2.843  3.1473 -0.1591  1.6719
  888SOL    HW213134   3.662   9.005   2.977 -2.1481 -0.0000  1.9988
  889SOL     OW13135   2.567   7.873   3.119  0.0043 -0.4011 -0.2888
  889SOL    HW113136   2.510   7.893   3.199 -0.7054 -0.9288 -0.6478
  889SOL    HW213137   2.508   7.841   3.044  0.6918 -0.1928 -0.9234
  890SOL     OW13138   8.489   0.532   3.335 -0.1120 -0.3370  0.0376
  890SOL    HW113139   8.513   0.558   3.242 -0.5495  3.0248  0.8105
  890SOL    HW213140   8.546   0.584   3.400  0.2155 -2.6421  1.6575
  891SOL     OW13141   3.190   4.195   3.119 -0.2527  0.0015  0.1945
  891SOL    HW113142   3.149   4.179   3.209 -0.4824 -0.5631 -0.0074
  891SOL    HW213143   3.133   4.258   3.067 -0.0607  0.4164  0.4866
  892SOL     OW13144   3.377   3.075   0.452  0.4046  0.1777  0.0256
  892SOL    HW113145   3.433   3.135   0.394  0.6284  2.5218  2.5782
  892SOL    HW213146   3.427   2.991   0.471  1.6448  0.7652 -0.5592
  893SOL     OW13147   9.950   9.523   1.240 -0.6981  0.0019  0.3068
  893SOL    HW113148   9.999   9.447   1.283  0.5022  0.7821  0.3422
  893SOL    HW213149   9.948   9.511   1.141  0.6783  0.6094  0.2020
  894SOL     OW13150   2.519   0.789   2.950  0.1743  0.6327 -0.2563
  894SOL    HW113151   2.457   0.866   2.933 -0.6700  0.0993  0.3634
  894SOL    HW213152   2.590   0.818   3.013  1.4253  1.6703 -2.0916
  895SOL     OW13153   0.003   0.668   2.662 -0.0449  0.3873 -0.6367
  895SOL    HW113154   0.026   0.598   2.729  0.1158 -0.5165 -1.6163
  895SOL    HW213155  -0.031   0.750   2.708 -0.3124 -0.3691  0.5088
  896SOL     OW13156   8.325   5.688   2.177 -0.2068 -0.0942 -0.3442
  896SOL    HW113157   8.254   5.648   2.235 -0.0529 -0.0264 -0.1084
  896SOL    HW213158   8.361   5.618   2.115  0.3089 -0.4062  0.3067
  897SOL     OW13159   0.028   3.772   4.039 -0.1829 -0.3656 -0.1798
  897SOL    HW113160  -0.052   3.713   4.048  0.0141 -0.7464 -0.8664
  897SOL    HW213161   0.039   3.826   4.122 -0.3684 -1.2968  0.4609
  898SOL     OW13162   8.499   1.568   3.948  0.3292  0.2469  0.1583
  898SOL    HW113163   8.474   1.628   4.024 -1.0953  0.5055 -0.4982
  898SOL    HW213164   8.571   1.612   3.894  0.0871  0.8564  0.3246
  899SOL     OW13165   9.010   1.570   2.794 -0.5749 -0.1111  0.2097
  899SOL    HW113166   9.054   1.640   2.850 -2.4158  1.1660  0.1077
  899SOL    HW213167   9.012   1.482   2.841 -0.4380  0.5410  1.4210
  900SOL     OW13168   0.815   0.549   1.676 -0.2512 -0.2415 -0.2207
  900SOL    HW113169   0.888   0.565   1.741  0.1605 -0.4680 -0.6262
  900SOL    HW213170   0.827   0.608   1.596 -1.5848  1.1193  0.5598
  901SOL     OW13171   0.612   2.429   3.083  0.5326  0.6031  0.1485
  901SOL    HW113172   0.706   2.443   3.052  0.7282 -0.1270  0.4067
  901SOL    HW213173   0.574   2.516   3.114  0.7715  1.0916 -0.9295
  902SOL     OW13174   1.987   7.739   2.619 -0.3699  0.7495  0.3998
  902SOL    HW113175   1.957   7.726   2.714 -0.5883  1.0718  0.3721
  902SOL    HW213176   1.928   7.805   2.574 -0.5060  0.3037 -0.0795
  903SOL     OW13177   4.169   4.268   3.498  0.6683 -0.0108  0.5393
  903SOL    HW113178   4.255   4.319   3.488  1.1528 -1.1928 -1.6816
  903SOL    HW213179   4.159   4.236   3.592  2.3542  0.6701  0.9641
  904SOL     OW13180   1.576   1.824   0.317  0.0110  0.4070 -0.1579
  904SOL    HW113181   1.524   1.880   0.382 -1.1555 -0.3597 -0.4306
  904SOL    HW213182   1.667   1.806   0.355 -0.7789 -0.3360  1.4517
  905SOL     OW13183   2.780   5.771   3.384  0.2145  0.0065 -0.2476
  905SOL    HW113184   2.876   5.799   3.386 -0.3283  1.9469 -0.5959
  905SOL    HW213185   2.775   5.671   3.383  2.2244 -0.1177 -0.4571
  906SOL     OW13186   9.515   0.239   2.298 -0.3453 -0.2261  0.1510
  906SOL    HW113187   9.580   0.194   2.359 -1.7310 -0.9648  1.1233
  906SOL    HW213188   9.453   0.296   2.352  0.9709  2.3761 -1.0040
  907SOL     OW13189   2.614   4.307   0.789  0.0035  0.3487 -0.3833
  907SOL    HW113190   2.608   4.324   0.691  1.2460 -0.4211 -0.6014
  907SOL    HW213191   2.597   4.210   0.807  0.1427  0.4167  0.1313
  908SOL     OW13192   2.599   9.278   0.708 -0.1262 -0.0823 -0.0529
  908SOL    HW113193   2.554   9.208   0.654  0.4837  0.0722 -0.7723
  908SOL    HW213194   2.580   9.368   0.670  4.3958 -0.2724 -3.1393
  909SOL     OW13195   1.146   1.414   3.918 -0.4107  0.1287 -0.2940
  909SOL    HW113196   1.237   1.430   3.880 -0.3440  1.6694  0.4347
  909SOL    HW213197   1.111   1.326   3.887  1.2716 -0.4168 -0.6880
  910SOL     OW13198   8.096   5.925   0.055 -0.5723  0.1749  0.2016
  910SOL    HW113199   8.125   5.992   0.123  2.7269 -0.4937 -0.4776
  910SOL    HW213200   8.077   5.838   0.101 -0.2931  0.2684  0.4922
  911SOL     OW13201   3.121   3.659   3.286  0.0628  0.3354 -0.1202
  911SOL    HW113202   3.076   3.574   3.258  1.3524 -0.0547 -1.0256
  911SOL    HW213203   3.071   3.737   3.248  0.9601 -0.1424 -2.3402
  912SOL     OW13204   3.169   3.482   3.590  0.4021 -0.5921 -0.0001
  912SOL    HW113205   3.189   3.391   3.553  0.7934 -0.2147 -0.7134
  912SOL    HW213206   3.070   3.498   3.585  0.3556 -0.8865 -0.0747
  913SOL     OW13207   4.855   3.133   2.704  0.1382  0.9180 -0.2663
  913SOL    HW113208   4.789   3.207   2.686  0.2773  1.2607  0.5929
  913SOL    HW213209   4.811   3.062   2.759 -0.3428 -0.2141 -2.0600
  914SOL     OW13210   9.143   7.306   0.504 -0.3434  0.4850 -0.7422
  914SOL    HW113211   9.162   7.399   0.471  0.3626  0.6487  0.1278
  914SOL    HW213212   9.129   7.307   0.603  1.0152 -0.5325 -0.5235
  915SOL     OW13213   7.510   3.428   0.817 -0.4537  0.9131 -0.4497
  915SOL    HW113214   7.439   3.478   0.868 -1.3724  0.1063 -0.9094
  915SOL    HW213215   7.467   3.352   0.768  0.7024  0.5984 -0.9738
  916SOL     OW13216   7.577   1.014   0.555 -0.1518  0.4532 -0.8593
  916SOL    HW113217   7.657   1.035   0.612  0.6659 -2.5654 -0.8245
  916SOL    HW213218   7.496   1.055   0.596  0.6268 -0.5784  1.8251
  917SOL     OW13219   8.718   0.639   2.864  0.0075 -0.1805 -0.2772
  917SOL    HW113220   8.623   0.648   2.892 -0.3284 -2.5947 -0.5799
  917SOL    HW213221   8.770   0.589   2.934  0.6999 -0.2242 -0.8114
  918SOL     OW13222   6.790   8.358   1.983 -0.8258 -0.1626  0.1906
  918SOL    HW113223   6.847   8.283   1.951 -0.7714  0.2433 -0.6878
  918SOL    HW213224   6.846   8.423   2.034 -0.0664  1.2121 -2.2825
  919SOL     OW13225   9.508   6.303   2.153 -0.2456 -0.2195  0.0140
  919SOL    HW113226   9.562   6.228   2.190 -0.0397 -0.7229 -1.2603
  919SOL    HW213227   9.560   6.349   2.081 -0.6294  0.7305  0.3375
  920SOL     OW13228   2.537   5.644   2.969  0.5338 -0.0070 -0.7336
  920SOL    HW113229   2.622   5.695   2.983 -0.8426  2.7501 -2.0142
  920SOL    HW213230   2.551   5.574   2.899  2.0158 -0.2892 -0.1686
  921SOL     OW13231   7.949   0.100   0.906  0.2246  0.4248  0.5597
  921SOL    HW113232   7.915   0.042   0.832 -0.3791  1.8099 -0.2780
  921SOL    HW213233   7.998   0.045   0.972 -0.9005 -1.1417  0.1181
  922SOL     OW13234   1.620   6.078   1.774  0.4845 -0.5218  0.5081
  922SOL    HW113235   1.680   6.149   1.812  1.5234 -0.9349 -0.3583
  922SOL    HW213236   1.654   6.049   1.685 -2.1336  0.6710 -0.9343
  923SOL     OW13237   4.714   4.948   2.137 -0.1328 -0.1265  0.0507
  923SOL    HW113238   4.664   4.903   2.211 -1.0235 -0.0449 -0.4888
  923SOL    HW213239   4.649   4.980   2.068  0.4236  2.5447  0.7161
  924SOL     OW13240   4.386   1.723   2.405  0.1142 -0.2791  0.6170
  924SOL    HW113241   4.354   1.762   2.491 -0.8518  0.0167  0.1392
  924SOL    HW213242   4.335   1.639   2.385  0.2250 -0.2628  0.2548
  925SOL     OW13243   0.591   6.582   0.623  0.2627 -0.2180  0.3879
  925SOL    HW113244   0.674   6.583   0.679 -0.1121  0.5532  0.9437
  925SOL    HW213245   0.614   6.553   0.530  1.2742  0.6580  0.3544
  926SOL     OW13246   8.004   2.312   3.600 -0.1174 -0.1934 -0.4852
  926SOL    HW113247   8.055   2.240   3.552  0.0184  0.8483 -1.9226
  926SOL    HW213248   8.069   2.371   3.649 -0.2241 -0.9978  0.6417
  927SOL     OW13249   6.570   0.074   2.434 -0.1304 -0.4221 -0.5239
  927SOL    HW113250   6.496   0.013   2.407 -0.1797 -0.9687  0.7974
  927SOL    HW213251   6.579   0.148   2.367 -1.4252 -0.7258 -1.0433
  928SOL     OW13252   9.971   4.197   1.860  0.1238  0.8059  0.3090
  928SOL    HW113253  10.026   4.266   1.813 -0.2534  0.6290 -0.4042
  928SOL    HW213254  10.030   4.141   1.918  0.6595  0.7656 -0.2756
  929SOL     OW13255   1.299   9.288   1.227  0.2169 -0.0789  0.2651
  929SOL    HW113256   1.306   9.227   1.306  1.0230 -1.6877 -1.0273
  929SOL    HW213257   1.260   9.238   1.150 -0.6220  1.4949 -0.3583
  930SOL     OW13258   1.267   2.123   2.509 -0.4014 -0.5948  0.8187
  930SOL    HW113259   1.303   2.140   2.601  0.6400  1.4248  0.0690
  930SOL    HW213260   1.173   2.157   2.504  0.2926  1.3173  0.5147
  931SOL     OW13261   7.291   8.958   1.421  0.0081  0.5012  0.3183
  931SOL    HW113262   7.206   8.963   1.370  0.3801  1.1621 -0.2431
  931SOL    HW213263   7.338   9.046   1.416  0.6896  0.1596  0.6792
  932SOL     OW13264   0.572   7.587   2.823 -0.1244  0.2569 -0.2088
  932SOL    HW113265   0.541   7.507   2.772  1.2759  1.8084 -3.6241
  932SOL    HW213266   0.671   7.583   2.835 -0.2333  0.7458  0.9235
  933SOL     OW13267   1.549   2.407   1.638 -1.0614  1.3014  0.5021
  933SOL    HW113268   1.556   2.364   1.728 -0.4886  0.1906 -0.0684
  933SOL    HW213269   1.471   2.469   1.637 -2.3048 -0.2253  1.1326
  934SOL     OW13270   0.060   4.976   3.225  0.2206 -0.3598  0.5391
  934SOL    HW113271   0.132   5.044   3.216 -0.3221 -0.0480 -1.6622
  934SOL    HW213272   0.003   4.976   3.143 -0.6927 -2.4214  1.1345
  935SOL     OW13273   8.794   2.577   2.002  0.1104  0.5001  0.2244
  935SOL    HW113274   8.774   2.537   2.092 -0.5103  0.3519  0.0187
  935SOL    HW213275   8.827   2.671   2.015 -0.9708  0.8408  0.5503
  936SOL     OW13276   1.727   0.191   2.687  0.3830  0.5932  0.0240
  936SOL    HW113277   1.775   0.200   2.775  0.3703  0.1835  0.0750
  936SOL    HW213278   1.748   0.102   2.647 -2.5545 -0.8333  1.4230
  937SOL     OW13279   8.763   9.057   3.517  0.2695  0.3029 -0.3937
  937SOL    HW113280   8.666   9.038   3.527  0.1187  0.3511 -1.7525
  937SOL    HW213281   8.816   8.980   3.552 -0.1724  1.5867  3.3401
  938SOL     OW13282   9.456   9.332   0.018  0.5626 -0.4257  0.1321
  938SOL    HW113283   9.532   9.274  -0.013 -0.2208 -2.1616  1.3855
  938SOL    HW213284   9.485   9.384   0.098  1.4419  1.3648 -1.3172
  939SOL     OW13285   1.782   4.849   0.265  0.5715  0.4567 -0.2260
  939SOL    HW113286   1.737   4.892   0.343  1.4332 -2.5838  2.0292
  939SOL    HW213287   1.713   4.807   0.205  0.0339  1.1009 -0.0653
  940SOL     OW13288   3.999   0.721   3.565  0.2846  0.3006 -0.2597
  940SOL    HW113289   4.080   0.780   3.568  1.2600 -1.0158 -0.1476
  940SOL    HW213290   3.999   0.660   3.644 -1.7219  1.4173  0.6453
  941SOL     OW13291   8.987   9.700   2.334  0.1557  0.2119  0.0498
  941SOL    HW113292   8.905   9.747   2.302  1.7909  1.1931 -3.0117
  941SOL    HW213293   8.980   9.603   2.313  0.0040  0.3878 -0.7324
  942SOL     OW13294   0.021   8.045   3.264  0.0421  0.1012  0.0678
  942SOL    HW113295   0.076   8.045   3.181  0.2392  0.2371  0.1984
  942SOL    HW213296  -0.035   7.963   3.267  0.0434  0.0907 -0.1931
  943SOL     OW13297   3.429   4.487   3.132 -0.4237  0.2250 -0.1990
  943SOL    HW113298   3.443   4.474   3.034  0.2048  2.2338 -0.3973
  943SOL    HW213299   3.372   4.568   3.147  1.5779  1.4137  1.1724
  944SOL     OW13300   3.363   2.378   3.931 -0.6808 -0.0130 -0.2894
  944SOL    HW113301   3.339   2.443   4.003 -1.7351  0.7052 -1.2892
  944SOL    HW213302   3.443   2.412   3.882 -0.8255  0.1977 -0.3800
  945SOL     OW13303   3.191   2.711   1.781  0.2927  0.1454  0.1069
  945SOL    HW113304   3.127   2.639   1.755  1.0312  0.1667 -1.8690
  945SOL    HW213305   3.154   2.800   1.754  1.0415  0.1744 -0.8607
  946SOL     OW13306   3.279   7.355   1.501 -0.1249 -0.6091 -0.7510
  946SOL    HW113307   3.315   7.365   1.594 -1.5401  1.3937 -0.3960
  946SOL    HW213308   3.287   7.442   1.453 -0.5152 -1.3115 -2.1028
  947SOL     OW13309   9.464   7.426   4.020  0.1534  0.2086  0.2114
  947SOL    HW113310   9.410   7.426   3.936  0.1545 -1.0208  0.2126
  947SOL    HW213311   9.544   7.368   4.009  0.9344  1.1896  0.5758
  948SOL     OW13312   0.403   3.598   0.339  0.3164  0.2666 -0.0437
  948SOL    HW113313   0.431   3.549   0.256  0.8399  1.2447 -0.4474
  948SOL    HW213314   0.304   3.589   0.350  0.5410 -1.7822  0.4766
  949SOL     OW13315   6.425   9.242   2.767 -0.2077  0.6552  0.1112
  949SOL    HW113316   6.359   9.302   2.722 -0.5351 -0.4726 -0.9428
  949SOL    HW213317   6.448   9.166   2.706 -0.5368 -0.8267  1.7884
  950SOL     OW13318   6.378   8.726   2.235 -0.4621 -0.0528  0.1619
  950SOL    HW113319   6.356   8.818   2.265  0.4584  0.0646  0.5045
  950SOL    HW213320   6.399   8.668   2.315 -1.7277 -0.7459 -0.0004
  951SOL     OW13321   2.287   4.315   4.005  0.0798  0.2448  0.0119
  951SOL    HW113322   2.203   4.284   4.050  0.0961 -1.3773 -1.0352
  951SOL    HW213323   2.275   4.408   3.971 -0.0484  1.3541  3.0345
  952SOL     OW13324   2.651   5.971   0.805 -0.6634 -0.1543  0.6119
  952SOL    HW113325   2.697   5.910   0.869 -1.1566  0.0134  1.1250
  952SOL    HW213326   2.638   5.924   0.718 -2.0020 -1.1414  1.3350
  953SOL     OW13327   7.701   7.461   2.816 -0.3920 -0.2103  0.0458
  953SOL    HW113328   7.640   7.496   2.888 -1.1365  1.2105 -1.2474
  953SOL    HW213329   7.758   7.388   2.854 -0.4731  0.7946  2.1857
  954SOL     OW13330   2.098   4.821   0.451 -0.5027  0.1277  0.2022
  954SOL    HW113331   2.125   4.828   0.355  1.8818 -1.1543  0.7414
  954SOL    HW213332   2.026   4.752   0.460 -1.2075  0.7313 -0.7396
  955SOL     OW13333   2.346   6.108   2.474  0.2118 -0.7169 -0.0432
  955SOL    HW113334   2.317   6.173   2.404 -1.3425 -0.2741  0.9743
  955SOL    HW213335   2.444   6.116   2.488  0.6425 -1.2166 -2.5502
  956SOL     OW13336   1.404   3.073   1.128 -0.1439 -0.1089  0.8895
  956SOL    HW113337   1.359   3.052   1.041  0.5951 -2.1894  0.9765
  956SOL    HW213338   1.350   3.035   1.203  0.0503  0.2801  1.2249
  957SOL     OW13339   1.432   6.684   3.679 -0.3739  0.3775  0.6014
  957SOL    HW113340   1.408   6.723   3.768 -0.0177  0.8954  0.4696
  957SOL    HW213341   1.418   6.753   3.607 -2.4736 -0.6022  0.0127
  958SOL     OW13342   8.734   6.828   2.177 -0.3209  0.2947 -0.7719
  958SOL    HW113343   8.635   6.839   2.188 -0.3928  0.2566 -1.3798
  958SOL    HW213344   8.753   6.779   2.092  0.0419 -3.2893  1.2718
  959SOL     OW13345   1.337   5.322   2.356 -0.1600 -0.1255  0.4504
  959SOL    HW113346   1.397   5.291   2.430 -0.5249 -0.4803  0.6002
  959SOL    HW213347   1.257   5.368   2.394  0.7154  1.6450  0.2088
  960SOL     OW13348   8.634   8.302   1.738  0.4072 -0.6100  0.2110
  960SOL    HW113349   8.550   8.356   1.748 -0.3874 -1.9710  1.0215
  960SOL    HW213350   8.713   8.360   1.757 -0.4556  0.1687  1.5331
  961SOL     OW13351   9.048   2.704   3.476 -0.2642 -0.5000  0.1848
  961SOL    HW113352   9.012   2.613   3.496 -1.8913  0.6019  2.5755
  961SOL    HW213353   9.029   2.727   3.380  0.1554 -2.6429 -0.4420
  962SOL     OW13354   8.143   1.184   0.904  0.3419 -0.1434  0.0178
  962SOL    HW113355   8.043   1.178   0.899  0.1694  1.5505  0.8986
  962SOL    HW213356   8.178   1.228   0.822  0.2858 -0.1282  0.0013
  963SOL     OW13357   0.997   8.444   2.716 -0.1060 -0.2469 -0.9242
  963SOL    HW113358   0.925   8.459   2.648  0.7442  0.4721 -1.6951
  963SOL    HW213359   1.015   8.346   2.725 -2.4050 -0.5570  0.5941
  964SOL     OW13360   8.797   5.226   3.457 -0.1278  0.1225  0.2403
  964SOL    HW113361   8.840   5.156   3.400 -1.3244  0.3756 -1.0037
  964SOL    HW213362   8.849   5.312   3.449 -0.5715  0.3000 -0.8875
  965SOL     OW13363   2.553   5.020   3.307 -0.3211  0.4649 -0.5549
  965SOL    HW113364   2.538   4.977   3.218 -0.4197 -0.0558 -0.2869
  965SOL    HW213365   2.585   4.952   3.373 -0.0353  0.8900 -0.2452
  966SOL     OW13366   4.372   8.202   0.879  0.2723  0.4331 -0.0878
  966SOL    HW113367   4.435   8.148   0.823 -1.2037 -1.2715 -0.1203
  966SOL    HW213368   4.419   8.230   0.963  1.0916 -0.8044 -0.1179
  967SOL     OW13369   9.365   7.067   3.640  0.1933  0.4989  0.0769
  967SOL    HW113370   9.274   7.095   3.608 -0.5052  0.2932  1.8345
  967SOL    HW213371   9.407   7.143   3.689  1.0187  0.6202 -0.8052
  968SOL     OW13372   2.764   4.247   1.855 -0.2007  0.1994  0.2862
  968SOL    HW113373   2.828   4.314   1.817  0.4601 -0.1496  0.7710
  968SOL    HW213374   2.674   4.289   1.864 -0.2138  0.4945 -1.0235
  969SOL     OW13375   0.500   7.829   2.865  0.3968  0.3885  0.1154
  969SOL    HW113376   0.585   7.869   2.899  0.8348 -1.3823  1.2046
  969SOL    HW213377   0.513   7.731   2.851 -1.9644 -0.2570  2.0339
  970SOL     OW13378   9.707   2.783   3.097 -0.0345  0.2976 -0.0438
  970SOL    HW113379   9.612   2.751   3.104 -0.7559  2.3813  0.0404
  970SOL    HW213380   9.742   2.801   3.189 -0.1821  1.2706 -0.1738
  971SOL     OW13381   6.672   7.867   2.488  0.1956 -0.2273  0.1965
  971SOL    HW113382   6.709   7.959   2.488 -1.1819  0.3385  0.0537
  971SOL    HW213383   6.589   7.864   2.543 -1.5252 -0.6227 -2.3228
  972SOL     OW13384   9.430   4.298   2.440  0.0994 -0.8356  0.3912
  972SOL    HW113385   9.337   4.332   2.447  1.0602  2.0734 -0.5351
  972SOL    HW213386   9.436   4.234   2.363 -0.8363 -0.0543 -0.3379
  973SOL     OW13387   1.319   2.928   3.666  0.3937 -0.4224 -0.7240
  973SOL    HW113388   1.413   2.923   3.702  0.0265 -1.1543  0.1437
  973SOL    HW213389   1.284   3.021   3.680 -0.3139 -1.0969  2.3082
  974SOL     OW13390   8.856   2.407   0.103 -0.1522 -0.3132  0.1503
  974SOL    HW113391   8.936   2.378   0.156 -0.2495  0.4069  0.6961
  974SOL    HW213392   8.870   2.384   0.007  2.6151  3.5299 -0.5128
  975SOL     OW13393   8.549   0.697   2.074 -0.3295  0.0947  0.2846
  975SOL    HW113394   8.578   0.708   2.169 -0.6753 -2.2656  0.6770
  975SOL    HW213395   8.621   0.729   2.013  0.0676  1.2076  1.3183
  976SOL     OW13396   9.574   0.011   0.535 -0.3696 -0.0502 -0.1426
  976SOL    HW113397   9.635  -0.011   0.611 -0.3904 -0.3943 -0.2245
  976SOL    HW213398   9.509   0.081   0.564 -2.6694 -2.6591  1.3031
  977SOL     OW13399   8.803   9.771   2.563  0.2120  0.5929  0.1742
  977SOL    HW113400   8.889   9.726   2.587 -0.1391  0.1701  0.6377
  977SOL    HW213401   8.816   9.870   2.564  0.8523  0.5198 -0.3576
  978SOL     OW13402   3.587   8.429   3.501 -0.5403 -0.1252  0.4328
  978SOL    HW113403   3.588   8.416   3.600 -2.8648 -2.1018  0.2396
  978SOL    HW213404   3.495   8.453   3.471  0.4575  2.0137 -1.1169
  979SOL     OW13405   2.919   8.204   0.389 -0.3178  0.3638  0.0452
  979SOL    HW113406   2.934   8.257   0.306  1.0447 -1.2619 -0.7566
  979SOL    HW213407   2.850   8.134   0.372 -0.8861  0.7680  0.6344
  980SOL     OW13408   8.698   4.982   3.244 -0.1183 -0.4857 -0.0387
  980SOL    HW113409   8.701   5.034   3.158  0.0162  0.5298  0.5642
  980SOL    HW213410   8.713   4.885   3.225 -0.1089 -0.2754 -1.1639
  981SOL     OW13411   0.501   6.054   3.654  0.1850  0.0656  0.3561
  981SOL    HW113412   0.558   6.023   3.578  1.1259 -0.6158  1.3064
  981SOL    HW213413   0.543   6.133   3.697 -1.3204  1.6205 -0.9824
  982SOL     OW13414   3.305   8.029   2.290  0.3610  0.2831 -0.0334
  982SOL    HW113415   3.331   7.945   2.242 -1.6802  0.4013 -1.4292
  982SOL    HW213416   3.219   8.063   2.252 -0.2396  1.5196  2.3768
  983SOL     OW13417   9.373   7.004   2.104  0.0390  0.2712  0.5658
  983SOL    HW113418   9.424   6.941   2.045 -0.7644 -0.1974  0.3725
  983SOL    HW213419   9.301   6.955   2.151 -0.1489  0.9118  0.9508
  984SOL     OW13420   8.433   6.257   2.948  0.0987 -0.4595 -0.3588
  984SOL    HW113421   8.420   6.233   2.852  0.8193 -0.3905 -0.4810
  984SOL    HW213422   8.529   6.281   2.963  0.0462 -0.7346  0.4379
  985SOL     OW13423   0.389   5.833   2.974  0.1355  0.0684  0.3777
  985SOL    HW113424   0.374   5.746   3.020 -1.7189 -0.5064 -1.2685
  985SOL    HW213425   0.328   5.902   3.012  0.6149  0.3062  0.7208
  986SOL     OW13426   9.398   4.242   3.545 -0.5442  0.2549  1.2810
  986SOL    HW113427   9.429   4.246   3.640 -0.2205 -1.4676  1.2661
  986SOL    HW213428   9.477   4.224   3.485 -0.7209  1.4840  0.6628
  987SOL     OW13429   2.593   4.803   0.047 -0.1593 -0.6705 -0.0157
  987SOL    HW113430   2.519   4.747   0.085 -1.0842  0.9914  0.6756
  987SOL    HW213431   2.679   4.780   0.092 -1.0310  0.4664  2.3120
  988SOL     OW13432   1.496   5.177   2.587  0.1980  0.3749 -0.2689
  988SOL    HW113433   1.426   5.190   2.657  0.9030  1.1960  0.3012
  988SOL    HW213434   1.513   5.079   2.574 -2.7725  0.0806 -2.1573
  989SOL     OW13435   3.755   0.454   0.631 -0.2404 -0.4406 -0.2279
  989SOL    HW113436   3.758   0.478   0.534 -1.6157  1.5444  0.1700
  989SOL    HW213437   3.716   0.531   0.683  1.4026 -1.0577  2.0310
  990SOL     OW13438   3.467   8.345   1.259 -0.4552  0.3974  0.3309
  990SOL    HW113439   3.477   8.327   1.161  1.3480 -1.0905  0.7530
  990SOL    HW213440   3.492   8.440   1.278  0.9262  0.2080 -0.4407
  991SOL     OW13441   1.071   1.803   0.088 -0.1318 -0.0423  0.0231
  991SOL    HW113442   1.050   1.899   0.066  1.6203  0.5397  0.7584
  991SOL    HW213443   1.160   1.799   0.134 -0.3610 -2.0003  0.3120
  992SOL     OW13444   0.802   0.417   1.179  0.1094 -0.1792  0.7990
  992SOL    HW113445   0.894   0.406   1.142 -0.0967 -0.4164  0.3535
  992SOL    HW213446   0.762   0.327   1.195 -1.0338 -0.0950 -1.4827
  993SOL     OW13447   0.142   1.660   2.406  0.0732  0.6722 -0.0612
  993SOL    HW113448   0.223   1.716   2.420  1.0708 -1.2604  2.2668
  993SOL    HW213449   0.064   1.719   2.386  0.9877  2.9671  2.7506
  994SOL     OW13450   4.241   8.530   3.770  0.6809  0.3944  0.6197
  994SOL    HW113451   4.189   8.526   3.684  0.0216  0.1507  1.0224
  994SOL    HW213452   4.185   8.492   3.844  1.5317 -0.0787  1.0191
  995SOL     OW13453   3.457   4.380   1.140  0.1786 -0.2862  0.1266
  995SOL    HW113454   3.471   4.283   1.157 -1.0766 -0.7143 -1.1930
  995SOL    HW213455   3.371   4.409   1.180 -0.4950 -0.2267 -1.3317
  996SOL     OW13456   1.571   3.744   1.319 -0.3980  0.0381  0.9827
  996SOL    HW113457   1.505   3.729   1.246  1.4523 -0.5251 -0.6138
  996SOL    HW213458   1.609   3.836   1.311  0.9082 -0.5539  0.3137
  997SOL     OW13459   8.368   4.027   1.048  0.0617 -1.0532 -0.2432
  997SOL    HW113460   8.418   4.108   1.079  0.4834 -1.5054  0.2609
  997SOL    HW213461   8.287   4.013   1.106  0.1199 -1.1342 -0.1832
  998SOL     OW13462   2.826   7.917   2.010  0.0161 -0.2822 -0.1289
  998SOL    HW113463   2.830   7.971   1.926  0.7595  1.5802  1.0701
  998SOL    HW213464   2.731   7.894   2.030 -0.5635  2.3507  0.3894
  999SOL     OW13465   0.907   5.941   3.662 -0.3489 -0.0134 -0.1166
  999SOL    HW113466   0.892   5.969   3.756 -0.1359  0.1728 -0.1404
  999SOL    HW213467   0.930   6.020   3.606 -0.3592 -0.1402 -0.3027
 1000SOL     OW13468   8.899   5.538   3.293 -0.5156 -0.0623 -0.0826
 1000SOL    HW113469   8.884   5.477   3.216 -1.4786  1.1521 -0.8592
 1000SOL    HW213470   8.983   5.510   3.341 -1.3305 -2.4343  0.0342
 1001SOL     OW13471   1.131   9.011   1.381  0.1442  0.7630 -0.1055
 1001SOL    HW113472   1.224   9.043   1.396  0.8240 -0.9356 -0.5992
 1001SOL    HW213473   1.132   8.928   1.325 -1.6560  0.7063 -0.1005
 1002SOL     OW13474   0.747   8.688   2.623 -0.0106 -0.2584 -0.3846
 1002SOL    HW113475   0.779   8.722   2.711  1.8459  0.9308 -1.4644
 1002SOL    HW213476   0.758   8.760   2.554 -0.3103 -1.5509 -1.8072
 1003SOL     OW13477   3.176   9.531   1.544 -0.2235  0.2487  0.2161
 1003SOL    HW113478   3.172   9.629   1.528  1.5451  0.3506  0.2956
 1003SOL    HW213479   3.204   9.484   1.461 -1.9487 -0.2963 -0.0820
 1004SOL     OW13480   7.915   7.625   2.568  0.2197  0.5633  0.2432
 1004SOL    HW113481   7.815   7.627   2.571  0.1817  0.4559 -0.6096
 1004SOL    HW213482   7.948   7.533   2.589  0.1022  0.4353 -0.1198
 1005SOL     OW13483   5.578   0.834   1.864 -0.5373 -0.1846 -0.2127
 1005SOL    HW113484   5.528   0.854   1.780  1.1441  2.5070 -0.6431
 1005SOL    HW213485   5.517   0.840   1.942 -0.8156  3.7368 -0.6511
 1006SOL     OW13486   9.287   2.173   1.720 -0.0564  0.1516  0.0502
 1006SOL    HW113487   9.251   2.114   1.792  3.4065  0.3474  2.0339
 1006SOL    HW213488   9.274   2.129   1.631 -0.6268 -1.9857  1.1599
 1007SOL     OW13489   4.411   4.408   2.111 -0.1424 -0.0232 -0.5097
 1007SOL    HW113490   4.434   4.316   2.081 -0.2461 -0.0253 -0.5833
 1007SOL    HW213491   4.368   4.405   2.201  0.1729 -0.0171 -0.3550
 1008SOL     OW13492   0.165   2.001   0.860  0.3706  0.1565  0.6661
 1008SOL    HW113493   0.194   2.080   0.915  0.2494  1.5076 -1.1745
 1008SOL    HW213494   0.067   1.984   0.874  0.1971  0.9089  0.3675
 1009SOL     OW13495   9.279   6.169   1.572 -0.2804  0.2834  0.2157
 1009SOL    HW113496   9.374   6.191   1.594 -1.0298  2.6500  1.2395
 1009SOL    HW213497   9.273   6.141   1.476  1.0324  2.8917 -0.6694
 1010SOL     OW13498   5.869   8.262   3.297 -0.2977 -0.3292  0.0351
 1010SOL    HW113499   5.858   8.280   3.199 -0.9709 -0.8525  0.0146
 1010SOL    HW213500   5.827   8.175   3.320 -1.0649  0.2799  0.9849
 1011SOL     OW13501   9.357   8.660   2.063  0.3096 -0.1752  0.8919
 1011SOL    HW113502   9.412   8.632   1.984  1.7079  1.6914  1.1669
 1011SOL    HW213503   9.333   8.580   2.117 -0.6568 -1.5015 -1.3936
 1012SOL     OW13504   9.034   8.555   3.148 -0.0075 -0.2808  0.1197
 1012SOL    HW113505   9.006   8.647   3.121 -2.9352 -1.0017  0.5811
 1012SOL    HW213506   9.035   8.549   3.248  0.2038 -0.7494  0.0899
 1013SOL     OW13507   3.080   3.700   1.982 -0.0206  0.2500  0.7507
 1013SOL    HW113508   2.995   3.664   1.944 -0.2763 -0.6541  2.1376
 1013SOL    HW213509   3.084   3.681   2.080  1.2254  1.3684  0.9417
 1014SOL     OW13510   1.791   5.367   1.787 -0.3954  0.0375 -0.9868
 1014SOL    HW113511   1.776   5.405   1.695 -1.0831  1.7270 -0.1934
 1014SOL    HW213512   1.886   5.380   1.813 -0.6486  1.3611 -0.6784
 1015SOL     OW13513   8.177   8.284   1.716  0.0929 -0.6080 -0.4210
 1015SOL    HW113514   8.211   8.375   1.737 -0.0727 -0.5668 -0.3245
 1015SOL    HW213515   8.139   8.282   1.623 -0.4529 -0.4196 -0.2047
 1016SOL     OW13516   1.257   3.356   3.887 -0.2538 -0.3323  0.5592
 1016SOL    HW113517   1.223   3.450   3.898  0.3429 -0.1590  0.9297
 1016SOL    HW213518   1.349   3.358   3.849 -0.9485 -0.8303 -1.1998
 1017SOL     OW13519   3.339   0.725   2.500  0.4112 -0.5427 -0.0411
 1017SOL    HW113520   3.240   0.738   2.493  0.4137 -0.2019  0.4909
 1017SOL    HW213521   3.367   0.648   2.443 -0.2395 -1.0022  0.2617
 1018SOL     OW13522   9.262   3.009   0.964  0.8203 -0.3202  0.7292
 1018SOL    HW113523   9.192   3.034   0.896  0.0151 -0.8804  1.3460
 1018SOL    HW213524   9.290   2.915   0.949 -1.0685 -1.2236  2.6225
 1019SOL     OW13525   0.395   1.935   0.448  0.5244 -0.6027  0.7945
 1019SOL    HW113526   0.339   1.899   0.523  0.2355 -1.8652 -0.0046
 1019SOL    HW213527   0.433   1.859   0.395 -1.3166  0.2289 -1.8571
 1020SOL     OW13528   7.703   6.795   2.911  0.6615  0.0338 -0.0552
 1020SOL    HW113529   7.781   6.858   2.912  0.6489  0.0271  2.1362
 1020SOL    HW213530   7.661   6.792   3.001 -2.6845  1.0028 -1.4960
 1021SOL     OW13531   8.533   7.455   3.639 -0.5670  0.0384  0.8526
 1021SOL    HW113532   8.448   7.429   3.685 -0.6866  0.2219  0.7346
 1021SOL    HW213533   8.608   7.398   3.672 -0.9389 -0.8572  0.1716
 1022SOL     OW13534   2.411   2.409   2.390  0.8628  0.2694 -0.0732
 1022SOL    HW113535   2.461   2.352   2.325  0.3435 -0.5610  0.2543
 1022SOL    HW213536   2.361   2.351   2.454 -1.7719  1.0976 -1.3413
 1023SOL     OW13537   0.665   8.941   0.202  0.6399 -0.5870  0.0171
 1023SOL    HW113538   0.576   8.900   0.182  0.2616 -0.1222  0.7265
 1023SOL    HW213539   0.705   8.977   0.117  0.4575 -1.3855 -0.4139
 1024SOL     OW13540   8.179   9.128   1.314  0.0008 -0.3503 -0.4271
 1024SOL    HW113541   8.105   9.184   1.278 -0.6340 -0.4663  0.6836
 1024SOL    HW213542   8.200   9.055   1.249  0.4534  0.8139 -1.6236
 1025SOL     OW13543   3.954   1.125   2.894 -0.3469  0.1344  0.0925
 1025SOL    HW113544   4.045   1.108   2.856 -0.5292  1.3800 -0.9227
 1025SOL    HW213545   3.962   1.152   2.989  0.1929 -1.9631  0.6641
 1026SOL     OW13546   3.607   3.359   1.976  0.2496  0.7007  0.2245
 1026SOL    HW113547   3.564   3.271   1.995  0.5649  0.8840  1.8827
 1026SOL    HW213548   3.673   3.380   2.048  1.2025  1.6522 -0.8914
 1027SOL     OW13549   5.499   8.734   2.081 -0.0032  0.3820  0.2385
 1027SOL    HW113550   5.567   8.675   2.125 -0.3744  0.6053  1.1117
 1027SOL    HW213551   5.477   8.697   1.990  2.5359  1.2491 -0.7546
 1028SOL     OW13552   1.945   1.131   1.551  0.7659  0.4249 -0.0073
 1028SOL    HW113553   1.946   1.192   1.473 -1.6493  1.8260  1.0077
 1028SOL    HW213554   1.864   1.071   1.546  0.2856  0.9014  1.6633
 1029SOL     OW13555   0.507   4.620   2.185 -0.0362  0.5851  0.3804
 1029SOL    HW113556   0.569   4.680   2.133 -1.5518  1.6996 -0.1842
 1029SOL    HW213557   0.499   4.654   2.278 -2.2077  2.3118 -0.3881
 1030SOL     OW13558   1.861   2.992   3.601  0.4203 -0.0148 -0.2726
 1030SOL    HW113559   1.785   2.933   3.575  0.1635  0.0804  0.2566
 1030SOL    HW213560   1.893   3.042   3.521  0.8475 -1.1019 -0.7960
 1031SOL     OW13561   0.584   5.310   3.507  0.0676  0.1413  0.1426
 1031SOL    HW113562   0.493   5.305   3.547  0.3253  1.5914  0.9409
 1031SOL    HW213563   0.581   5.362   3.422  0.3473  1.2483  0.8002
 1032SOL     OW13564   8.467   4.681   3.172  0.4957 -0.0298 -0.2888
 1032SOL    HW113565   8.479   4.585   3.195 -3.9218 -1.3104 -2.7539
 1032SOL    HW213566   8.530   4.705   3.098  1.0477 -1.2002 -0.2202
 1033SOL     OW13567   4.072   7.683   0.879  0.4723 -0.8921 -0.6353
 1033SOL    HW113568   4.120   7.760   0.920  0.3713 -1.6213  0.8893
 1033SOL    HW213569   4.125   7.646   0.804  1.1652 -0.1875 -0.4945
 1034SOL     OW13570   1.423   0.850   1.019 -0.2961  0.6346 -0.1543
 1034SOL    HW113571   1.362   0.872   0.943  0.3000 -1.3639 -1.2550
 1034SOL    HW213572   1.403   0.757   1.051  0.5589  0.8622  1.0646
 1035SOL     OW13573   9.613   1.918   2.433  0.2928 -0.3220  0.8304
 1035SOL    HW113574   9.567   1.906   2.345 -1.3828  0.0040  1.6350
 1035SOL    HW213575   9.697   1.865   2.434  0.0904 -0.7049 -0.7985
 1036SOL     OW13576   1.875   9.929   1.856  0.5757  0.0507 -0.3167
 1036SOL    HW113577   1.901   9.900   1.764  0.5145  1.1239 -0.6715
 1036SOL    HW213578   1.946   9.987   1.894  0.7705 -0.6930  0.4639
 1037SOL     OW13579   8.647   3.912   2.520  0.2897  0.1499 -0.3869
 1037SOL    HW113580   8.663   3.979   2.447  1.4982  0.5389  0.2226
 1037SOL    HW213581   8.686   3.824   2.494 -1.1209 -0.2801 -1.1012
 1038SOL     OW13582   2.385   9.401   2.296 -0.3131 -0.1152  0.1905
 1038SOL    HW113583   2.332   9.369   2.217  1.2435  0.7618 -1.2446
 1038SOL    HW213584   2.471   9.351   2.302 -0.2774  0.0419  1.1561
 1039SOL     OW13585   1.556   1.992   3.865 -0.3777 -0.1188 -0.4754
 1039SOL    HW113586   1.594   1.990   3.773 -0.0312 -1.7731 -0.3086
 1039SOL    HW213587   1.593   2.071   3.915  1.8474 -0.9547 -0.7484
 1040SOL     OW13588   1.095   3.440   1.985 -0.1571 -0.1221  0.6026
 1040SOL    HW113589   1.085   3.419   2.083  1.2142 -0.0533  0.7700
 1040SOL    HW213590   1.044   3.373   1.931 -2.2531  0.7759  1.4063
 1041SOL     OW13591   8.330   9.742   2.178  0.2866 -0.5158 -0.3222
 1041SOL    HW113592   8.363   9.689   2.100 -1.5322 -0.5049 -1.1131
 1041SOL    HW213593   8.388   9.723   2.257  1.0935 -1.8718 -1.2123
 1042SOL     OW13594   3.219   5.504   3.734 -0.5338  0.2340  0.0520
 1042SOL    HW113595   3.148   5.499   3.664 -0.8937  0.2253  0.4153
 1042SOL    HW213596   3.206   5.430   3.800  0.9697 -0.9851 -0.9501
 1043SOL     OW13597   2.852   6.129   2.244  0.2147  0.3093 -0.3575
 1043SOL    HW113598   2.793   6.209   2.252 -0.1934  0.0897 -1.1003
 1043SOL    HW213599   2.910   6.122   2.325 -0.3670  0.8562  0.1114
 1044SOL     OW13600   0.245   5.631   3.098  0.2824  0.3326  0.6391
 1044SOL    HW113601   0.306   5.552   3.100  0.6901  0.5605 -1.7539
 1044SOL    HW213602   0.178   5.620   3.025  0.4469  2.2833  0.1632
 1045SOL     OW13603   4.821   3.306   3.421 -0.0881 -0.1176 -0.3459
 1045SOL    HW113604   4.892   3.376   3.426 -0.0243 -0.2084  0.0431
 1045SOL    HW213605   4.860   3.220   3.390  0.1536 -0.4077  0.7422
 1046SOL     OW13606   7.824   0.745   3.714 -0.3472  0.3046  0.5801
 1046SOL    HW113607   7.820   0.794   3.627 -0.4668  2.1703  1.6059
 1046SOL    HW213608   7.804   0.648   3.699  1.1561  0.3061 -1.6813
 1047SOL     OW13609   0.056   4.784   0.658  0.0554  0.0359 -0.3024
 1047SOL    HW113610   0.087   4.724   0.583 -2.0687 -0.6608 -0.6657
 1047SOL    HW213611  -0.018   4.842   0.625  1.0771  1.8281  0.4880
 1048SOL     OW13612   3.327   6.560   2.934  0.2260  0.1352  0.3570
 1048SOL    HW113613   3.263   6.564   2.858  0.3518 -1.9993  0.1108
 1048SOL    HW213614   3.287   6.604   3.014 -1.9323 -1.9358  0.4679
 1049SOL     OW13615   0.279   1.339   1.271  0.5216 -0.0522 -0.1459
 1049SOL    HW113616   0.240   1.252   1.299 -0.8319  0.2432 -1.0614
 1049SOL    HW213617   0.378   1.336   1.284  0.3627 -1.2924  0.9392
 1050SOL     OW13618   1.333   9.865   2.133 -0.2459  0.3694  0.0007
 1050SOL    HW113619   1.422   9.861   2.089 -0.1571 -2.0922  0.3656
 1050SOL    HW213620   1.263   9.831   2.070 -0.7264  0.8606  0.2604
 1051SOL     OW13621   1.044   0.020   3.086  1.0079  0.2591 -0.0753
 1051SOL    HW113622   1.075   0.102   3.134 -0.6374 -0.1250  1.6970
 1051SOL    HW213623   0.950  -0.001   3.112  0.5050 -0.7205 -2.5097
 1052SOL     OW13624   0.760   1.647   2.566 -0.3398  0.3308  0.5407
 1052SOL    HW113625   0.752   1.658   2.666  1.6835 -0.6373  0.8298
 1052SOL    HW213626   0.775   1.737   2.525  1.3711  0.4601  1.3944
 1053SOL     OW13627   2.862   6.691   3.948 -0.0224 -0.7705 -0.2027
 1053SOL    HW113628   2.815   6.730   3.869  0.2616  2.1561  0.9814
 1053SOL    HW213629   2.797   6.640   4.004 -0.8665 -0.3214 -0.7605
 1054SOL     OW13630   3.148   2.278   3.628 -0.9158  0.0338  0.0276
 1054SOL    HW113631   3.172   2.285   3.725 -0.5793 -2.3736  0.1597
 1054SOL    HW213632   3.068   2.219   3.617 -0.4723 -0.3747 -1.1961
 1055SOL     OW13633   1.398   1.868   0.770  0.5709 -0.8768 -0.3092
 1055SOL    HW113634   1.370   1.792   0.711  1.4334 -0.9323 -0.6564
 1055SOL    HW213635   1.335   1.876   0.847 -0.2428 -1.1623 -0.9382
 1056SOL     OW13636   3.027   4.423   3.003 -0.3137 -0.4864  0.0717
 1056SOL    HW113637   3.064   4.509   2.967 -1.6659 -0.2046 -0.6800
 1056SOL    HW213638   3.022   4.355   2.930 -0.7787 -0.6873  0.2878
 1057SOL     OW13639   8.187   9.034   1.632  0.0051  0.5195 -0.0817
 1057SOL    HW113640   8.150   9.121   1.663  0.6071  0.7939 -0.1172
 1057SOL    HW213641   8.160   9.017   1.537  0.7368  1.1533 -0.4038
 1058SOL     OW13642   8.570   5.217   0.156 -0.3328  0.0886 -0.1590
 1058SOL    HW113643   8.607   5.130   0.189 -0.1086 -0.7202 -2.4404
 1058SOL    HW213644   8.627   5.251   0.082 -1.0556  1.6422 -0.0206
 1059SOL     OW13645   5.348   8.282   2.174  0.6477 -0.2214 -0.3530
 1059SOL    HW113646   5.263   8.229   2.182  1.0682 -0.6299  1.7763
 1059SOL    HW213647   5.420   8.237   2.226  1.8996  0.6844 -1.2877
 1060SOL     OW13648   4.854   2.508   1.034  0.1393 -0.1948 -0.2833
 1060SOL    HW113649   4.906   2.425   1.052  1.0988  0.4584 -0.0583
 1060SOL    HW213650   4.800   2.495   0.950 -1.1701 -1.7194  0.7604
 1061SOL     OW13651   2.431   2.818   2.715 -0.4033  0.4574 -0.1779
 1061SOL    HW113652   2.343   2.809   2.669 -0.3012 -0.1870 -0.2589
 1061SOL    HW213653   2.460   2.914   2.714 -0.8435  0.5883 -0.6398
 1062SOL     OW13654   1.511   7.498   1.415  0.4326 -0.1220  0.1990
 1062SOL    HW113655   1.435   7.442   1.384  0.6332 -0.6312  0.6165
 1062SOL    HW213656   1.484   7.595   1.415 -0.4348 -0.3599  0.9996
 1063SOL     OW13657   0.028   9.828   2.200 -0.2128 -0.3613  0.5495
 1063SOL    HW113658  -0.066   9.808   2.171  0.3122 -1.0967 -0.6791
 1063SOL    HW213659   0.079   9.866   2.123  0.9149 -1.3348  0.7997
 1064SOL     OW13660   2.701   5.973   0.163 -0.7003  0.3175 -0.2641
 1064SOL    HW113661   2.646   5.955   0.245 -0.5709  0.9408 -0.0445
 1064SOL    HW213662   2.688   6.067   0.134 -0.3460  0.2437 -0.6628
 1065SOL     OW13663   4.440   0.262   2.356  0.0980 -0.0900 -0.3014
 1065SOL    HW113664   4.397   0.336   2.409 -0.3015 -1.2544  1.0464
 1065SOL    HW213665   4.372   0.221   2.295 -0.0754 -0.3046  0.0310
 1066SOL     OW13666   3.227   1.304   2.292 -0.2680 -0.2269 -0.5108
 1066SOL    HW113667   3.175   1.221   2.310  0.4318 -0.7703 -0.9690
 1066SOL    HW213668   3.325   1.282   2.293  0.0338  1.0858  2.0290
 1067SOL     OW13669   6.477   9.508   3.128 -0.2922 -0.2214 -0.9974
 1067SOL    HW113670   6.385   9.471   3.112 -0.0976 -1.0188 -0.2991
 1067SOL    HW213671   6.479   9.553   3.217 -0.2598  0.6240 -1.4245
 1068SOL     OW13672   8.508   7.810   3.761  0.1773  0.6799 -0.3338
 1068SOL    HW113673   8.431   7.851   3.811  0.3266 -0.1914  0.6267
 1068SOL    HW213674   8.479   7.722   3.723  0.5224  0.6307 -0.4808
 1069SOL     OW13675   1.284   0.263   2.125 -0.1823 -0.1969  0.9071
 1069SOL    HW113676   1.257   0.192   2.190 -2.1010 -0.2392  0.1137
 1069SOL    HW213677   1.268   0.353   2.165  1.7617 -0.1788  1.7155
 1070SOL     OW13678   1.508   6.207   0.630 -0.2706  0.4947  0.2829
 1070SOL    HW113679   1.457   6.290   0.651 -1.6973 -0.5587  1.0849
 1070SOL    HW213680   1.580   6.194   0.699  0.6240  1.5897 -0.4279
 1071SOL     OW13681   0.664   6.277   0.787 -0.4107  0.0814  0.1042
 1071SOL    HW113682   0.724   6.198   0.796 -0.1718  0.3042  0.5241
 1071SOL    HW213683   0.707   6.356   0.831 -0.2346  0.6678 -1.1138
 1072SOL     OW13684   1.953   2.110   0.465 -0.2550 -0.0516 -0.1206
 1072SOL    HW113685   2.039   2.161   0.470 -0.6606  0.8405 -1.8932
 1072SOL    HW213686   1.901   2.126   0.549  1.1791 -0.4074  0.8681
 1073SOL     OW13687   1.220   4.748   0.993  0.6465  0.2042 -0.2489
 1073SOL    HW113688   1.291   4.778   1.056  0.7399  0.5584 -0.5208
 1073SOL    HW213689   1.139   4.806   1.003  0.3181 -0.3279  0.2074
 1074SOL     OW13690   2.190   9.698   3.237  0.1415  0.0210  0.5440
 1074SOL    HW113691   2.114   9.704   3.172 -0.4876  0.7166  1.3253
 1074SOL    HW213692   2.261   9.763   3.211 -1.2945  2.2651  2.0482
 1075SOL     OW13693   3.301   3.327   2.176  0.1678 -0.3329 -0.1259
 1075SOL    HW113694   3.313   3.400   2.109 -1.3621 -1.1780 -1.3456
 1075SOL    HW213695   3.343   3.243   2.142 -0.5069 -0.7336  0.0213
 1076SOL     OW13696   0.147   0.741   3.227 -0.0785 -0.0104  0.1719
 1076SOL    HW113697   0.182   0.715   3.317 -1.6017 -1.3312  0.3989
 1076SOL    HW213698   0.224   0.763   3.167  0.9524  1.0006  1.8122
 1077SOL     OW13699   0.891   9.604   2.841 -0.0954  0.4572 -0.2978
 1077SOL    HW113700   0.980   9.640   2.810 -0.2250  0.0084 -1.2060
 1077SOL    HW213701   0.905   9.516   2.887  0.0429  0.8953  0.5147
 1078SOL     OW13702   6.797   7.335   2.939  0.4521 -0.1236 -0.0857
 1078SOL    HW113703   6.760   7.276   3.010  0.0169  0.3834  0.1096
 1078SOL    HW213704   6.892   7.309   2.920  0.2514 -0.9087 -0.0309
 1079SOL     OW13705   7.354   0.018   1.068  0.7738 -0.2055  0.0347
 1079SOL    HW113706   7.411   0.078   1.124  0.4000  0.0879  0.1050
 1079SOL    HW213707   7.336  -0.067   1.117 -0.5316  0.5330  0.8518
 1080SOL     OW13708   4.794   7.658   3.535  0.1584 -0.4429 -0.5501
 1080SOL    HW113709   4.703   7.625   3.557  0.1803 -0.2715 -0.1880
 1080SOL    HW213710   4.827   7.716   3.610 -0.1766  0.9840 -1.4919
 1081SOL     OW13711   1.668   1.871   2.827 -0.4306 -0.1643 -0.2705
 1081SOL    HW113712   1.674   1.966   2.857 -1.5602  0.3599 -1.6641
 1081SOL    HW213713   1.756   1.826   2.843  0.3244  1.2955 -0.2076
 1082SOL     OW13714   3.251   5.722   1.600 -0.0373 -0.3571  0.5166
 1082SOL    HW113715   3.297   5.656   1.659  0.6923 -0.7355 -0.4623
 1082SOL    HW213716   3.316   5.790   1.568 -0.0719 -1.0445 -1.0814
 1083SOL     OW13717   1.432   0.264   0.136 -0.3466 -0.0881  0.0100
 1083SOL    HW113718   1.390   0.230   0.052  3.2638  1.2083 -2.4593
 1083SOL    HW213719   1.396   0.355   0.157 -0.8368 -0.1657 -0.4704
 1084SOL     OW13720   3.618   8.771   3.666 -0.1408  0.4000 -0.1822
 1084SOL    HW113721   3.686   8.842   3.645  0.7556  0.0138  1.3430
 1084SOL    HW213722   3.537   8.814   3.706 -0.4642  0.7705 -1.2091
 1085SOL     OW13723   3.304   7.720   3.440 -0.0467 -0.6292  0.3390
 1085SOL    HW113724   3.285   7.693   3.346  1.8271  1.1413 -0.5817
 1085SOL    HW213725   3.380   7.665   3.476  1.1290  0.6334 -0.1778
 1086SOL     OW13726   8.151   3.851   0.854 -0.0640  0.6478 -0.3449
 1086SOL    HW113727   8.132   3.858   0.952 -0.1689 -0.0675 -0.3087
 1086SOL    HW213728   8.246   3.875   0.837  0.4603 -0.9651  0.1781
 1087SOL     OW13729   7.081   0.127   2.337  0.9841  0.1267  0.3332
 1087SOL    HW113730   7.118   0.220   2.342  2.1465 -0.2870 -0.5466
 1087SOL    HW213731   7.123   0.071   2.409  2.2295 -0.3908 -0.7817
 1088SOL     OW13732   1.624   3.619   0.521  0.3659  0.3955  0.2849
 1088SOL    HW113733   1.679   3.546   0.561  1.3997  0.5582 -0.7885
 1088SOL    HW213734   1.679   3.703   0.518 -0.4524  0.9500  0.5344
 1089SOL     OW13735   6.952   9.619   3.014  0.5933 -0.3068 -0.2720
 1089SOL    HW113736   6.879   9.604   2.947  1.6650  2.7786 -2.2200
 1089SOL    HW213737   6.914   9.611   3.106 -2.0669  0.5266 -1.2297
 1090SOL     OW13738   3.822   4.771   3.155  0.4768 -0.5957  0.1899
 1090SOL    HW113739   3.919   4.786   3.174  0.6112 -2.4693  1.0975
 1090SOL    HW213740   3.803   4.797   3.060  0.8996  3.8436  1.2116
 1091SOL     OW13741   8.382   9.927   1.802 -0.1364 -0.1165  0.6316
 1091SOL    HW113742   8.409   9.833   1.781  0.6547 -0.0838  1.4897
 1091SOL    HW213743   8.413   9.987   1.728 -1.1285 -0.5932 -0.1918
 1092SOL     OW13744   8.797   4.526   1.952  0.3683  0.2002 -0.3546
 1092SOL    HW113745   8.722   4.572   2.002 -1.3185 -1.2528 -1.4929
 1092SOL    HW213746   8.860   4.486   2.018 -1.2609 -0.7730  0.6580
 1093SOL     OW13747   0.603   7.192   0.025 -0.1740  0.6489  0.6189
 1093SOL    HW113748   0.593   7.265  -0.042  0.1347  0.2938  0.1744
 1093SOL    HW213749   0.573   7.105  -0.015  0.9141  0.2662  0.5997
 1094SOL     OW13750   2.767   7.229   0.510 -0.0627  0.0854  0.1203
 1094SOL    HW113751   2.722   7.172   0.441 -0.6547  1.1691 -0.3986
 1094SOL    HW213752   2.701   7.255   0.581  0.8259 -2.0151  1.7663
 1095SOL     OW13753   2.617   4.054   0.698 -0.2876 -0.1979  0.2472
 1095SOL    HW113754   2.563   4.013   0.625 -1.2266  1.4986 -0.0407
 1095SOL    HW213755   2.635   3.986   0.769 -0.2261 -1.5814 -1.0737
 1096SOL     OW13756   9.901   6.822   1.926  0.3471 -0.0417  0.0663
 1096SOL    HW113757   9.825   6.780   1.974  0.3611 -0.0564  0.0772
 1096SOL    HW213758   9.881   6.919   1.909  0.3271 -0.0445  0.0730
 1097SOL     OW13759   3.932   3.132   0.319 -0.5723 -0.0689  0.5249
 1097SOL    HW113760   4.018   3.169   0.283 -0.4016  0.4298  1.4225
 1097SOL    HW213761   3.947   3.040   0.354 -0.5918 -0.3014 -0.0724
 1098SOL     OW13762   1.839   8.260   2.503 -0.3775 -0.4559 -0.2179
 1098SOL    HW113763   1.863   8.353   2.473 -1.3537 -0.4098 -0.8984
 1098SOL    HW213764   1.877   8.194   2.439 -0.6807 -0.4633 -0.3905
 1099SOL     OW13765   4.487   0.013   0.322 -0.6861  0.6529 -0.0857
 1099SOL    HW113766   4.511  -0.082   0.298  0.0086  0.7580  0.1713
 1099SOL    HW213767   4.406   0.040   0.271 -0.6302  0.0643 -0.5024
 1100SOL     OW13768   3.360   7.351   1.766 -0.0214  0.3453 -0.1116
 1100SOL    HW113769   3.418   7.271   1.749 -0.3691  0.2686 -0.9895
 1100SOL    HW213770   3.293   7.329   1.837 -0.0319 -0.1035 -0.2580
 1101SOL     OW13771   1.036   8.309   1.046 -0.0675 -0.2523  1.1080
 1101SOL    HW113772   0.956   8.307   0.986  0.6163  0.1701  0.1496
 1101SOL    HW213773   1.061   8.216   1.072  1.5879 -0.7390 -1.9845
 1102SOL     OW13774   2.603   5.251   2.266 -0.1112 -0.4307 -0.7337
 1102SOL    HW113775   2.584   5.175   2.328 -1.0845  0.1424 -0.3170
 1102SOL    HW213776   2.609   5.336   2.318  0.5706 -0.1537 -1.2483
 1103SOL     OW13777   0.815   7.532   2.698 -0.7861 -0.2266 -0.4053
 1103SOL    HW113778   0.905   7.491   2.712 -0.9040 -0.6049 -0.7630
 1103SOL    HW213779   0.778   7.503   2.610 -0.9355  0.5247 -0.5937
 1104SOL     OW13780   2.201   2.906   2.103  0.0255 -0.1345 -0.2315
 1104SOL    HW113781   2.194   3.003   2.081 -0.4109  0.9269  3.9831
 1104SOL    HW213782   2.287   2.889   2.151 -1.7962 -0.8561  2.9747
 1105SOL     OW13783   0.688   1.200   1.096  0.2011 -0.1695 -0.1988
 1105SOL    HW113784   0.680   1.100   1.090  0.7872 -0.2638  0.4114
 1105SOL    HW213785   0.769   1.223   1.151 -1.2933  0.6118  1.7349
 1106SOL     OW13786   0.251   2.449   0.986 -0.0213  0.6108 -0.0625
 1106SOL    HW113787   0.151   2.445   0.997  0.0815  1.3557  1.2465
 1106SOL    HW213788   0.284   2.360   0.955 -1.1367  0.4735 -0.9106
 1107SOL     OW13789   2.244   4.916   0.659 -0.0603 -0.0256 -0.7434
 1107SOL    HW113790   2.335   4.876   0.646 -0.4130 -1.4015  0.9081
 1107SOL    HW213791   2.182   4.880   0.590  0.0509 -1.0329 -0.3312
 1108SOL     OW13792   3.249   2.432   2.178 -0.2656 -0.2496 -0.3224
 1108SOL    HW113793   3.159   2.411   2.139 -0.1604  2.4108 -2.1443
 1108SOL    HW213794   3.237   2.477   2.267 -0.6214 -2.6925  0.8952
 1109SOL     OW13795   1.111   3.243   2.723  0.0593  0.0195 -0.0716
 1109SOL    HW113796   1.156   3.309   2.784 -1.8697  0.7058  0.6293
 1109SOL    HW213797   1.029   3.285   2.684  1.4934 -0.2466 -3.5017
 1110SOL     OW13798   9.569   3.937   2.130  0.1533 -0.4786  0.5082
 1110SOL    HW113799   9.502   4.010   2.144  1.6103  1.6415 -2.9787
 1110SOL    HW213800   9.523   3.856   2.094 -0.5931  0.9681 -1.8876
 1111SOL     OW13801   6.764   8.830   2.525  0.1943 -0.0142  0.0606
 1111SOL    HW113802   6.764   8.837   2.426 -1.0519 -0.1041  0.0518
 1111SOL    HW213803   6.832   8.762   2.554  1.0985  0.5688 -0.6791
 1112SOL     OW13804   3.977   7.677   0.005  0.5909 -0.1506  0.3111
 1112SOL    HW113805   4.037   7.606  -0.032  0.1401 -0.7781  0.7610
 1112SOL    HW213806   3.998   7.765  -0.038 -0.0773 -0.9114 -1.6325
 1113SOL     OW13807   0.385   2.631   1.738  0.2451 -0.1667  0.2058
 1113SOL    HW113808   0.404   2.551   1.795  0.9424 -0.1474  0.0085
 1113SOL    HW213809   0.410   2.714   1.788 -2.5209  0.0856  1.2694
 1114SOL     OW13810   0.573   0.326   3.109  0.0412 -0.3406  0.0175
 1114SOL    HW113811   0.672   0.329   3.127  0.0416  1.5738 -0.2220
 1114SOL    HW213812   0.551   0.240   3.064  1.7574 -0.3734 -0.8226
 1115SOL     OW13813   9.647   8.133   1.644  0.2147  0.4823  0.2413
 1115SOL    HW113814   9.652   8.131   1.744  0.5403  0.4696  0.2260
 1115SOL    HW213815   9.556   8.105   1.614 -0.5431  2.4528  0.6088
 1116SOL     OW13816   9.394   3.926   1.363  0.2828  0.4668  0.3019
 1116SOL    HW113817   9.422   3.855   1.428 -1.3773 -1.9011 -1.5123
 1116SOL    HW213818   9.475   3.966   1.321  1.2425 -0.3451  1.3189
 1117SOL     OW13819   3.752   9.497   0.988  0.1565  0.3082  0.1437
 1117SOL    HW113820   3.747   9.406   0.948 -0.3503  0.1185  0.6262
 1117SOL    HW213821   3.805   9.493   1.073 -0.6466  0.2838  0.6489
 1118SOL     OW13822   3.758   2.025   3.332 -0.5904  0.2852 -0.0811
 1118SOL    HW113823   3.799   2.097   3.277 -2.3076  1.8940  0.6988
 1118SOL    HW213824   3.662   2.013   3.306 -0.2962 -1.8570 -0.3181
 1119SOL     OW13825   0.159   9.851   1.921  0.3913  0.1907 -0.0929
 1119SOL    HW113826   0.250   9.862   1.880 -0.2218  0.7361 -1.3258
 1119SOL    HW213827   0.134   9.755   1.922  0.7879  0.0863 -0.1729
 1120SOL     OW13828   3.597   4.721   2.569 -0.0391  0.2375  0.2377
 1120SOL    HW113829   3.520   4.775   2.534  0.3993  1.4845  1.1344
 1120SOL    HW213830   3.574   4.686   2.660  1.3758  2.7742  1.6357
 1121SOL     OW13831   3.994   9.743   2.684 -0.4006  0.0892 -0.0605
 1121SOL    HW113832   4.058   9.667   2.681 -0.5830 -0.0281 -1.7173
 1121SOL    HW213833   4.025   9.816   2.623 -1.3904  0.3939 -0.2193
 1122SOL     OW13834   2.415   6.359   0.694 -0.4692 -0.4683  0.0646
 1122SOL    HW113835   2.466   6.350   0.608 -1.7171  0.7935 -0.8179
 1122SOL    HW213836   2.329   6.406   0.677 -0.1541  0.9559  2.2345
 1123SOL     OW13837   0.461   4.278   1.835 -0.0735  0.1127  0.0370
 1123SOL    HW113838   0.491   4.312   1.924 -0.3869 -0.0396  0.2054
 1123SOL    HW213839   0.539   4.240   1.785  0.0536 -0.0719  0.3723
 1124SOL     OW13840   1.847   9.613   1.042 -0.6845  0.2975 -0.0089
 1124SOL    HW113841   1.831   9.692   1.101 -0.7744 -0.9242  1.6263
 1124SOL    HW213842   1.899   9.642   0.961 -3.6481  2.6976 -1.1690
 1125SOL     OW13843   6.917   0.217   2.633 -0.3812  0.3232 -0.3751
 1125SOL    HW113844   6.868   0.197   2.548 -1.1238  0.3188  0.0454
 1125SOL    HW213845   6.913   0.137   2.693  0.2511  0.2802 -0.3914
 1126SOL     OW13846   4.122   7.317   2.894  0.3032 -0.0959  0.4171
 1126SOL    HW113847   4.185   7.386   2.929  0.1720 -0.1562  0.7670
 1126SOL    HW213848   4.077   7.271   2.970  0.3387 -0.5202  0.1829
 1127SOL     OW13849   9.989   3.488   0.509  0.1898  0.3582  0.3956
 1127SOL    HW113850   9.988   3.388   0.506  0.2238  0.3211  1.5070
 1127SOL    HW213851   9.959   3.519   0.599 -2.1221  1.4119 -0.7140
 1128SOL     OW13852   0.865   3.484   1.108 -0.6354 -0.2529 -0.5636
 1128SOL    HW113853   0.931   3.504   1.036 -0.1682  0.6152  0.1084
 1128SOL    HW213854   0.905   3.503   1.198 -2.1851  1.4361 -0.1974
 1129SOL     OW13855   0.912   7.232   0.420  0.5336 -0.1881  0.5433
 1129SOL    HW113856   0.896   7.152   0.363 -0.5734  0.2663  0.2016
 1129SOL    HW213857   0.870   7.313   0.377  0.1348  0.2513  1.7281
 1130SOL     OW13858   0.754   5.339   1.227  0.0174  0.1112 -0.0952
 1130SOL    HW113859   0.848   5.372   1.215 -0.1159  0.2379 -0.8164
 1130SOL    HW213860   0.754   5.260   1.288  0.6584 -0.2155 -0.5161
 1131SOL     OW13861   3.751   0.828   3.530 -0.2975  0.2046 -0.7608
 1131SOL    HW113862   3.834   0.773   3.520 -0.5727 -0.1033 -1.3784
 1131SOL    HW213863   3.776   0.922   3.554  0.2513  0.2545 -1.5176
 1132SOL     OW13864   0.399   5.370   2.488  0.3447  0.2038  0.4093
 1132SOL    HW113865   0.396   5.353   2.586 -1.3038  1.7054  0.6596
 1132SOL    HW213866   0.489   5.404   2.462  1.3051 -1.7521  1.1070
 1133SOL     OW13867   1.086   1.546   2.660 -0.4886  0.2459  0.3789
 1133SOL    HW113868   1.070   1.460   2.611 -1.4217  0.5470  0.1359
 1133SOL    HW213869   1.117   1.616   2.595 -0.7778  0.3833  0.3897
 1134SOL     OW13870   3.547   0.693   3.400 -0.2117  0.2140 -0.0186
 1134SOL    HW113871   3.579   0.773   3.451 -1.3382  0.3086  0.5568
 1134SOL    HW213872   3.449   0.681   3.414  0.1276 -1.8926  0.7619
 1135SOL     OW13873   0.108   4.568   1.068 -0.2897  0.2922 -0.3467
 1135SOL    HW113874   0.088   4.546   0.972  2.2793 -1.2980 -0.5631
 1135SOL    HW213875   0.042   4.523   1.127  0.1466 -1.5020 -1.2105
 1136SOL     OW13876   4.486   8.670   3.149  0.0334 -0.0194  0.2081
 1136SOL    HW113877   4.541   8.751   3.127  0.6450 -0.6042 -0.4763
 1136SOL    HW213878   4.441   8.683   3.237  0.6178  0.8124  0.3934
 1137SOL     OW13879   7.743   6.587   2.455 -0.1337 -0.9586 -0.1541
 1137SOL    HW113880   7.760   6.491   2.431  1.0928 -0.8769  0.3176
 1137SOL    HW213881   7.729   6.595   2.553 -0.4698 -0.6865 -0.2245
 1138SOL     OW13882   2.067   7.319   3.234 -0.0932  0.5744 -0.4688
 1138SOL    HW113883   2.079   7.390   3.165  0.5044 -0.1272 -1.0953
 1138SOL    HW213884   1.978   7.276   3.223 -0.4168  1.1563 -0.1496
 1139SOL     OW13885   1.861   3.749   2.824 -0.1503 -0.3413 -0.0530
 1139SOL    HW113886   1.953   3.765   2.862 -0.2227 -1.7292  0.7260
 1139SOL    HW213887   1.801   3.714   2.896 -0.9671 -0.6297 -0.8666
 1140SOL     OW13888   9.001   1.047   2.921 -0.3156 -0.4000  0.3325
 1140SOL    HW113889   9.042   1.020   3.008 -0.3919  0.0528  0.5055
 1140SOL    HW213890   8.915   0.998   2.908 -1.4861  1.2768  1.5986
 1141SOL     OW13891   7.581   0.462   0.188 -0.1565 -0.2321 -0.6181
 1141SOL    HW113892   7.518   0.425   0.120 -0.7865 -0.7701  0.2581
 1141SOL    HW213893   7.601   0.393   0.257 -1.0453  0.9095  0.8206
 1142SOL     OW13894   0.500   2.516   1.250  0.3384 -0.3066  0.3943
 1142SOL    HW113895   0.489   2.487   1.345 -2.3388 -0.2797  0.1176
 1142SOL    HW213896   0.535   2.609   1.248  2.0582 -0.8973  1.3135
 1143SOL     OW13897   9.345   4.793   0.164 -0.0003  0.0540 -0.5077
 1143SOL    HW113898   9.394   4.872   0.127 -0.3071  0.2940 -0.4074
 1143SOL    HW213899   9.407   4.740   0.222  0.7884 -0.9375 -2.2272
 1144SOL     OW13900   9.190   8.302   2.494 -0.2453 -0.3261  0.1181
 1144SOL    HW113901   9.214   8.311   2.591  0.4517 -0.0739 -0.0748
 1144SOL    HW213902   9.162   8.391   2.458  0.1847 -0.2697 -0.0880
 1145SOL     OW13903   3.196   3.850   3.089 -0.1494 -0.0637  0.6306
 1145SOL    HW113904   3.280   3.804   3.115  1.0058  0.7653 -1.5346
 1145SOL    HW213905   3.216   3.945   3.065 -1.8990  0.4882  1.2492
 1146SOL     OW13906   3.251   3.212   3.020 -0.2325  0.1933  0.0083
 1146SOL    HW113907   3.306   3.175   3.094  3.1685  0.7179 -2.1188
 1146SOL    HW213908   3.212   3.138   2.965  1.5647 -0.2466 -0.7013
 1147SOL     OW13909   9.461   4.703   2.476  0.3900 -0.1102 -0.0098
 1147SOL    HW113910   9.445   4.802   2.482 -0.6170 -0.3817  2.9288
 1147SOL    HW213911   9.449   4.673   2.382  0.3064  2.5064 -0.8893
 1148SOL     OW13912   0.880   4.413   0.819  0.1946  0.3830 -0.5178
 1148SOL    HW113913   0.851   4.361   0.900 -0.7855  0.4792 -0.7949
 1148SOL    HW213914   0.877   4.511   0.839 -1.1574  0.4516 -1.0178
 1149SOL     OW13915   2.297   7.150   2.799 -0.4238  0.3736  0.4280
 1149SOL    HW113916   2.260   7.062   2.769 -1.6354 -0.0259  3.0270
 1149SOL    HW213917   2.241   7.224   2.763 -1.2878 -0.0545  0.8875
 1150SOL     OW13918   9.692   6.974   1.416  0.3880 -0.0655 -0.1926
 1150SOL    HW113919   9.687   7.039   1.492 -1.5565 -0.6923  0.2307
 1150SOL    HW213920   9.787   6.966   1.386  0.9819  1.2135  1.2698
 1151SOL     OW13921   3.627   3.240   3.148 -0.4577 -0.0547 -0.7038
 1151SOL    HW113922   3.613   3.141   3.138 -1.3799  0.0684 -0.6292
 1151SOL    HW213923   3.697   3.257   3.218 -2.1479 -0.5750  1.1488
 1152SOL     OW13924   2.275   4.501   3.256  0.0968  0.0800 -0.2038
 1152SOL    HW113925   2.200   4.484   3.321  1.3541 -0.0768  1.2126
 1152SOL    HW213926   2.236   4.517   3.165 -1.6294 -0.8032  0.3454
 1153SOL     OW13927   7.469   8.263   3.156 -0.2001  0.0629  0.4197
 1153SOL    HW113928   7.485   8.277   3.058  0.9174 -1.5776  0.3521
 1153SOL    HW213929   7.385   8.209   3.168 -0.0874 -0.1357  0.3344
 1154SOL     OW13930   8.649   2.022   3.045  0.2041 -0.9323 -0.2947
 1154SOL    HW113931   8.671   1.926   3.032  1.7595 -0.6660  0.2515
 1154SOL    HW213932   8.717   2.079   2.998 -0.2200 -0.0838  0.0995
 1155SOL     OW13933   9.080   9.735   1.300  0.4700 -0.2796  0.0451
 1155SOL    HW113934   9.160   9.737   1.360  1.0451 -0.1363 -0.7238
 1155SOL    HW213935   9.102   9.779   1.213 -0.1535 -1.0833 -0.5261
 1156SOL     OW13936   0.185   3.295   3.206  0.0427  0.5211  0.1087
 1156SOL    HW113937   0.087   3.298   3.186  0.0580  1.3673  0.1359
 1156SOL    HW213938   0.202   3.334   3.296  0.3104 -0.4647  0.4902
 1157SOL     OW13939   5.157   9.356   2.016 -0.3222  0.2197  0.3743
 1157SOL    HW113940   5.178   9.415   2.094  3.4676 -1.0915  0.4507
 1157SOL    HW213941   5.209   9.271   2.024  0.2990  0.1301 -3.6079
 1158SOL     OW13942   1.101   6.132   1.398  0.6015  0.1490  0.7533
 1158SOL    HW113943   1.177   6.173   1.347 -0.0203 -0.0630 -0.3494
 1158SOL    HW213944   1.064   6.200   1.462  2.1727  0.0307  1.8195
 1159SOL     OW13945   7.854   1.565   3.181  0.2733 -0.2566  0.4127
 1159SOL    HW113946   7.826   1.578   3.276  0.3827  0.4095  0.3612
 1159SOL    HW213947   7.953   1.565   3.175  0.2794 -1.6199  0.4668
 1160SOL     OW13948   8.909   1.863   1.982 -0.1359  0.3326 -0.5918
 1160SOL    HW113949   8.893   1.936   1.915 -0.2369  0.8758  0.0249
 1160SOL    HW213950   9.004   1.865   2.011 -0.4124  0.9638  0.2930
 1161SOL     OW13951   4.393   9.426   1.096  0.3173 -0.4734  0.4512
 1161SOL    HW113952   4.451   9.490   1.146 -1.0590 -0.2582  1.7968
 1161SOL    HW213953   4.438   9.399   1.011  0.7653  2.5998 -0.3354
 1162SOL     OW13954   4.097   9.964   2.918  0.2170  0.0274  0.0006
 1162SOL    HW113955   4.130   9.969   2.824  0.5560  0.4286  0.1389
 1162SOL    HW213956   4.060   9.873   2.936 -1.0861  0.3578 -0.9344
 1163SOL     OW13957   3.108   0.602   3.174  0.3246 -0.0799 -0.7487
 1163SOL    HW113958   3.188   0.640   3.128  1.9575 -0.8282  1.3669
 1163SOL    HW213959   3.058   0.675   3.221  1.6386 -0.0322  0.6257
 1164SOL     OW13960   9.511   0.326   0.108 -0.0395 -0.0519  0.4056
 1164SOL    HW113961   9.523   0.296   0.203  0.2853  0.0640  0.4004
 1164SOL    HW213962   9.431   0.280   0.069 -0.2270 -0.0304  0.7631
 1165SOL     OW13963   3.223   9.814   2.421  0.4430 -0.0950 -0.5337
 1165SOL    HW113964   3.310   9.818   2.372  1.1192 -1.4956  0.5094
 1165SOL    HW213965   3.155   9.766   2.364  0.7456 -0.2418 -0.7721
 1166SOL     OW13966   8.506   2.411   0.883 -0.6795  0.7694  0.2066
 1166SOL    HW113967   8.496   2.357   0.967 -0.9401 -0.8133 -0.8286
 1166SOL    HW213968   8.416   2.423   0.841 -0.0737 -1.9019 -1.9606
 1167SOL     OW13969   1.310   8.895   2.401  0.2640 -0.1166 -0.0441
 1167SOL    HW113970   1.252   8.883   2.321  0.0418  1.7093 -0.1805
 1167SOL    HW213971   1.399   8.854   2.384 -0.7314 -2.2880 -0.1142
 1168SOL     OW13972   8.360   5.507   1.153  0.4672 -0.2850  0.0359
 1168SOL    HW113973   8.298   5.475   1.081  2.7656  0.8967 -2.6008
 1168SOL    HW213974   8.368   5.607   1.148  1.7947 -0.3361  0.9427
 1169SOL     OW13975   9.040   1.664   3.376 -0.0058  0.5031 -0.0516
 1169SOL    HW113976   9.040   1.638   3.473 -0.1403  1.0219  0.0908
 1169SOL    HW213977   9.134   1.678   3.345  0.1138 -0.8086 -0.3133
 1170SOL     OW13978   3.753   2.470   3.211  0.3856  0.7416 -0.4684
 1170SOL    HW113979   3.681   2.405   3.234 -2.5247  4.0908  0.2856
 1170SOL    HW213980   3.753   2.486   3.112 -0.8814  1.7632 -0.3191
 1171SOL     OW13981   0.974   4.838   1.387  0.3634  0.4332  0.3729
 1171SOL    HW113982   0.976   4.738   1.385  1.5882  0.4594 -2.2995
 1171SOL    HW213983   0.882   4.870   1.413 -0.2159 -1.3664  0.5762
 1172SOL     OW13984   3.285   6.185   2.254 -0.0446 -0.1554  0.2260
 1172SOL    HW113985   3.315   6.231   2.170  0.9948 -0.7697  0.2427
 1172SOL    HW213986   3.265   6.089   2.234 -2.6052  0.3803  0.1060
 1173SOL     OW13987   1.996   3.798   2.028  0.0769 -0.5971 -0.6145
 1173SOL    HW113988   2.073   3.815   1.966  0.5629  1.1708  0.4310
 1173SOL    HW213989   2.022   3.821   2.122 -1.3823 -1.0371 -0.0768
 1174SOL     OW13990   8.700   1.147   1.648 -0.3516  0.5300  0.1001
 1174SOL    HW113991   8.681   1.186   1.738 -0.5123  1.5654 -0.3653
 1174SOL    HW213992   8.614   1.126   1.602 -0.2748  0.3450  0.0407
 1175SOL     OW13993   0.875   1.164   3.857 -0.2536 -0.2924  0.2445
 1175SOL    HW113994   0.923   1.151   3.771  0.4443 -2.6929  0.9734
 1175SOL    HW213995   0.806   1.236   3.846  1.7677  1.4671 -1.4926
 1176SOL     OW13996   0.494   3.144   3.622 -0.3340 -0.2342  0.3264
 1176SOL    HW113997   0.544   3.058   3.622  0.1690  0.0530 -1.1668
 1176SOL    HW213998   0.396   3.125   3.607 -0.4931 -0.6728  1.8129
 1177SOL     OW13999   3.867   0.990   2.166  0.2711  0.1090  0.5099
 1177SOL    HW114000   3.769   0.981   2.184 -0.1701 -0.1691 -1.8725
 1177SOL    HW214001   3.892   1.087   2.167 -0.5197  0.3455 -1.2577
 1178SOL     OW14002   8.636   9.946   3.262  0.0549 -0.0588  0.1037
 1178SOL    HW114003   8.667   9.976   3.172  1.6099 -0.2808  0.5425
 1178SOL    HW214004   8.580   9.864   3.252  2.4490 -1.6873 -0.4839
 1179SOL     OW14005   1.615   4.964   1.929  0.1297  0.1892 -0.6175
 1179SOL    HW114006   1.565   4.918   1.855  1.0719 -2.6439  0.4211
 1179SOL    HW214007   1.599   5.062   1.925 -0.2647  0.0391 -4.2628
 1180SOL     OW14008   3.130   5.455   2.557  0.3318 -0.5556 -0.5750
 1180SOL    HW114009   3.205   5.479   2.496  0.1827 -0.8780 -0.8901
 1180SOL    HW214010   3.080   5.376   2.519 -1.1614  0.6560 -1.1963
 1181SOL     OW14011   1.683   4.240   1.356 -0.0002  1.0496 -0.1011
 1181SOL    HW114012   1.675   4.301   1.436 -1.9708 -0.1849  0.6939
 1181SOL    HW214013   1.637   4.282   1.278  1.0018  1.7863 -0.2985
 1182SOL     OW14014   3.563   5.670   1.868  0.4130  0.1573 -0.3260
 1182SOL    HW114015   3.642   5.722   1.836  0.5957  0.6453  0.9012
 1182SOL    HW214016   3.572   5.652   1.965  0.2824 -2.0810 -0.7059
 1183SOL     OW14017   1.512   5.232   1.904 -0.2720  0.0010 -0.1921
 1183SOL    HW114018   1.428   5.178   1.914 -0.2894 -0.1346 -1.0603
 1183SOL    HW214019   1.496   5.325   1.935 -1.3546  0.5574 -2.3652
 1184SOL     OW14020   0.275   5.369   1.072 -0.0537 -0.3153 -0.2134
 1184SOL    HW114021   0.345   5.399   1.137 -0.5457  1.0829 -0.3133
 1184SOL    HW214022   0.314   5.301   1.009  0.4933 -1.4746  1.3553
 1185SOL     OW14023   9.346   5.769   0.124  0.8986  0.1791 -0.0761
 1185SOL    HW114024   9.316   5.698   0.060  0.9677 -0.6736  0.8320
 1185SOL    HW214025   9.366   5.853   0.073 -0.4848 -0.0359 -0.9900
 1186SOL     OW14026   1.524   0.692   2.967 -0.0208 -0.3318  0.3312
 1186SOL    HW114027   1.522   0.677   3.066 -0.2009 -0.3118  0.3291
 1186SOL    HW214028   1.542   0.788   2.948  0.3989 -0.4053  0.3437
 1187SOL     OW14029   9.829   9.318   3.510  0.1487  0.2052 -0.4546
 1187SOL    HW114030   9.761   9.359   3.571 -1.1141 -1.5505 -0.6351
 1187SOL    HW214031   9.839   9.376   3.429 -0.5730  0.8875 -0.0696
 1188SOL     OW14032   0.953   9.187   2.719  0.6802  0.2758 -0.3135
 1188SOL    HW114033   0.866   9.178   2.670 -0.0678 -2.5228  1.4196
 1188SOL    HW214034   0.946   9.261   2.786 -0.7170 -0.5572  0.4825
 1189SOL     OW14035   9.275   3.742   3.145  0.2529  0.3624  0.3745
 1189SOL    HW114036   9.288   3.650   3.107 -1.2881  0.0165  0.6489
 1189SOL    HW214037   9.355   3.798   3.124  0.5031 -0.5587 -1.2173
 1190SOL     OW14038   2.274   7.632   1.371  0.1339  0.1645  0.0518
 1190SOL    HW114039   2.254   7.536   1.354 -0.7186  0.4818 -0.7832
 1190SOL    HW214040   2.229   7.661   1.456 -0.1244 -0.0106 -0.0242
 1191SOL     OW14041   8.749   0.568   2.249  0.0878 -0.4854 -0.3984
 1191SOL    HW114042   8.670   0.563   2.310  1.0139  1.6757  1.0844
 1191SOL    HW214043   8.731   0.516   2.166 -2.8750 -0.0433 -0.0932
 1192SOL     OW14044   0.259   8.849   1.658 -0.0848 -0.0317  0.0515
 1192SOL    HW114045   0.174   8.865   1.708 -0.9151  0.0467 -1.3599
 1192SOL    HW214046   0.271   8.750   1.644  1.0047 -0.1765  1.8383
 1193SOL     OW14047   8.439   2.971   0.927 -0.5489  0.3016 -0.2030
 1193SOL    HW114048   8.415   2.887   0.878  0.7833 -0.9671  1.2375
 1193SOL    HW214049   8.357   3.024   0.946 -1.2627 -0.0039 -2.3144
 1194SOL     OW14050   7.956   5.505   1.500  0.0948  0.0181  0.5536
 1194SOL    HW114051   7.953   5.406   1.512  1.5620 -0.0398  0.5584
 1194SOL    HW214052   8.049   5.533   1.476 -0.1404  1.4674  1.2688
 1195SOL     OW14053   8.278   2.417   3.021  0.0884  0.1283 -0.3201
 1195SOL    HW114054   8.220   2.498   3.016 -1.9141 -1.2634 -0.0785
 1195SOL    HW214055   8.240   2.344   2.963  0.8233 -1.2776  0.9167
 1196SOL     OW14056   7.706   9.945   3.759 -0.0246 -0.5306  0.0077
 1196SOL    HW114057   7.738   9.949   3.854 -0.0677 -0.4915  0.0208
 1196SOL    HW214058   7.781   9.967   3.697 -0.0036 -0.5269  0.0344
 1197SOL     OW14059   0.403   2.716   1.458  0.3027 -0.1262  0.3188
 1197SOL    HW114060   0.428   2.683   1.549  0.0441 -0.6292  0.2087
 1197SOL    HW214061   0.343   2.649   1.413  2.0437 -0.8577 -1.0113
 1198SOL     OW14062   3.336   7.399   0.572  0.0724  0.2691 -0.2661
 1198SOL    HW114063   3.296   7.471   0.629  1.3476  2.0900 -1.5871
 1198SOL    HW214064   3.399   7.441   0.506  1.3515 -2.1532 -0.6242
 1199SOL     OW14065   3.531   4.439   0.100 -0.2484 -0.0624 -0.4859
 1199SOL    HW114066   3.569   4.360   0.052 -3.9206 -1.6741 -0.9235
 1199SOL    HW214067   3.579   4.451   0.187  0.6274 -2.5676 -0.5779
 1200SOL     OW14068   8.706   3.840   0.716 -0.0469  0.8846 -0.1629
 1200SOL    HW114069   8.717   3.741   0.713 -1.2728  0.7536 -0.5821
 1200SOL    HW214070   8.764   3.878   0.788 -0.5689 -0.2858  0.8986
 1201SOL     OW14071   0.227   2.275   3.128 -0.0366  0.1634 -0.3077
 1201SOL    HW114072   0.264   2.364   3.154  0.1652 -0.3566  1.2720
 1201SOL    HW214073   0.131   2.269   3.156 -0.0230 -0.1464 -0.3172
 1202SOL     OW14074   2.598   2.297   2.578 -0.5430  0.5112  0.0652
 1202SOL    HW114075   2.672   2.339   2.629 -0.8506  1.1936 -0.0479
 1202SOL    HW214076   2.538   2.368   2.541 -0.1603  0.0463 -1.4911
 1203SOL     OW14077   9.845   5.616   3.495 -0.0934  0.0112 -0.4758
 1203SOL    HW114078   9.915   5.594   3.426 -1.6426 -1.7957 -1.5236
 1203SOL    HW214079   9.824   5.713   3.491  1.6972  0.4100 -0.7721
 1204SOL     OW14080   9.019   2.904   0.378 -0.0966  0.2043 -0.2029
 1204SOL    HW114081   9.101   2.893   0.435  1.4195 -0.3722 -2.4633
 1204SOL    HW214082   8.958   2.826   0.393  0.3921 -0.0615  0.4551
 1205SOL     OW14083   9.685   6.916   0.309  0.0690  0.0953  0.3399
 1205SOL    HW114084   9.613   6.948   0.247 -1.2262 -1.3570  1.0367
 1205SOL    HW214085   9.753   6.864   0.257 -1.0644 -1.2026  0.1231
 1206SOL     OW14086   2.534   2.222   3.001 -0.3251  0.0478 -0.7342
 1206SOL    HW114087   2.524   2.143   3.062 -0.7484 -0.9052 -2.0143
 1206SOL    HW214088   2.627   2.223   2.964  0.6844  1.9929  1.7591
 1207SOL     OW14089   8.506   7.097   3.548 -0.8008 -0.4371 -0.1134
 1207SOL    HW114090   8.538   7.166   3.483 -1.0390  0.6057  0.8570
 1207SOL    HW214091   8.569   7.019   3.548  0.6254  0.6916  0.2796
 1208SOL     OW14092   8.706   9.129   2.266 -0.3138  0.1090 -0.3191
 1208SOL    HW114093   8.741   9.112   2.174 -1.4294 -1.0762 -0.5530
 1208SOL    HW214094   8.782   9.142   2.329  0.4619  1.2738 -1.4639
 1209SOL     OW14095   2.804   9.387   3.338  0.2210 -0.1887  0.0572
 1209SOL    HW114096   2.881   9.333   3.371  0.6028  1.1660  1.4591
 1209SOL    HW214097   2.788   9.368   3.241  0.3148 -2.8128  0.5409
 1210SOL     OW14098   9.792   9.251   0.058  0.3545 -0.0794  0.3773
 1210SOL    HW114099   9.775   9.246  -0.041  2.1511 -1.2036  0.0955
 1210SOL    HW214100   9.811   9.159   0.092  1.8833  0.5830  1.3559
 1211SOL     OW14101   7.156   9.421   1.304  0.2323 -0.0097 -0.0337
 1211SOL    HW114102   7.160   9.466   1.215  1.4260  0.6952  0.3714
 1211SOL    HW214103   7.221   9.464   1.366  0.6899 -1.6654  0.6577
 1212SOL     OW14104   8.556   8.220   3.354  0.5155 -0.1309 -0.4235
 1212SOL    HW114105   8.588   8.295   3.411  0.0205  1.0735 -1.6838
 1212SOL    HW214106   8.623   8.202   3.282  0.1648 -0.2078 -0.7341
 1213SOL     OW14107   1.249   2.488   3.454 -0.1432 -0.0952 -0.7297
 1213SOL    HW114108   1.149   2.484   3.457 -0.1121 -0.1496  1.5044
 1213SOL    HW214109   1.284   2.481   3.547  2.0344 -2.0706 -1.6687
 1214SOL     OW14110   3.687   7.746   3.919 -0.0386  0.0751  0.0649
 1214SOL    HW114111   3.646   7.716   4.005 -0.3733 -1.1242 -0.5101
 1214SOL    HW214112   3.785   7.759   3.932 -0.2040  0.6148  0.8171
 1215SOL     OW14113   3.225   5.185   2.306  0.1395 -0.0479  0.3789
 1215SOL    HW114114   3.187   5.216   2.393  0.2629 -0.4186  0.5656
 1215SOL    HW214115   3.166   5.116   2.266 -0.5152  0.9487 -0.3954
 1216SOL     OW14116   3.574   8.757   0.760 -0.0927  0.3401 -0.0942
 1216SOL    HW114117   3.512   8.806   0.821 -0.3415  0.6856 -0.6212
 1216SOL    HW214118   3.595   8.814   0.680 -0.8934 -0.6284 -1.0278
 1217SOL     OW14119   2.371   7.695   0.010 -0.7321 -0.6628  0.6523
 1217SOL    HW114120   2.340   7.773   0.064 -1.0301 -1.0149  0.9992
 1217SOL    HW214121   2.444   7.723  -0.052 -0.2140 -0.3027  1.4212
 1218SOL     OW14122   0.253   9.557   0.814 -0.0801  0.9117  0.0212
 1218SOL    HW114123   0.326   9.502   0.775  0.3109  0.4270  1.4259
 1218SOL    HW214124   0.263   9.652   0.783  1.7474  1.0642  1.0236
 1219SOL     OW14125   1.539   7.225   2.993 -0.2031 -0.2775 -0.0072
 1219SOL    HW114126   1.467   7.292   3.009 -0.4343  0.0793 -2.3877
 1219SOL    HW214127   1.502   7.133   3.006 -0.9849 -0.0846 -0.8331
 1220SOL     OW14128   0.784   8.636   1.238  0.2852  0.2451  0.4668
 1220SOL    HW114129   0.796   8.634   1.337 -0.6292  1.0296  0.5946
 1220SOL    HW214130   0.741   8.722   1.211  0.6087  0.0758 -0.6237
 1221SOL     OW14131   2.130   0.357   3.238  0.1043 -0.0321 -0.1093
 1221SOL    HW114132   2.221   0.338   3.203  1.2593  0.6276  2.4556
 1221SOL    HW214133   2.095   0.275   3.286 -0.4668 -0.1387 -0.7040
 1222SOL     OW14134   1.678   7.448   2.276 -0.2697 -0.0856  0.5420
 1222SOL    HW114135   1.740   7.375   2.304  0.2380  0.9579  2.1821
 1222SOL    HW214136   1.729   7.531   2.257 -0.9577  0.1689 -0.2612
 1223SOL     OW14137   2.434   3.467   0.370 -0.3049 -0.2176  0.1517
 1223SOL    HW114138   2.481   3.404   0.433 -0.0983  0.0505  0.2671
 1223SOL    HW214139   2.476   3.461   0.279  0.5408  0.6723  0.4738
 1224SOL     OW14140   9.654   8.039   0.246  0.7100  0.1734  0.5973
 1224SOL    HW114141   9.705   8.055   0.161  0.7874 -1.7323  0.2708
 1224SOL    HW214142   9.615   7.947   0.245  1.3397 -0.1576  2.9516
 1225SOL     OW14143   7.305   3.582   0.897  0.6917  0.2249  0.1207
 1225SOL    HW114144   7.223   3.542   0.939 -0.3211  0.2136 -1.8248
 1225SOL    HW214145   7.328   3.667   0.944 -0.0034 -0.1452  1.1486
 1226SOL     OW14146   0.407   8.334   3.723 -0.7899 -0.1466  0.0244
 1226SOL    HW114147   0.355   8.419   3.735 -0.8018  0.3476 -3.2399
 1226SOL    HW214148   0.497   8.345   3.764 -0.8493  1.4025 -0.2106
 1227SOL     OW14149   9.631   2.862   0.018 -0.2360  0.4422 -0.0015
 1227SOL    HW114150   9.624   2.762   0.015 -1.6847  0.5447 -0.3145
 1227SOL    HW214151   9.565   2.898   0.083  1.2510  1.1255  1.1647
 1228SOL     OW14152   0.214   5.422   1.549  0.2422  0.2116 -0.7456
 1228SOL    HW114153   0.135   5.394   1.495 -1.1523  0.7514  0.9568
 1228SOL    HW214154   0.269   5.487   1.497 -0.3225 -0.3409 -2.0281
 1229SOL     OW14155   0.311   7.440   3.092  0.4946 -0.3398  0.3858
 1229SOL    HW114156   0.327   7.514   3.158  0.6985  0.7580 -0.8689
 1229SOL    HW214157   0.397   7.415   3.049  0.1094  0.1386 -0.6889
 1230SOL     OW14158   7.869   0.836   1.485 -0.2700  0.0817  0.2804
 1230SOL    HW114159   7.828   0.920   1.449  0.9373  1.6927  2.5367
 1230SOL    HW214160   7.957   0.819   1.440 -1.2162 -0.8589 -1.2720
 1231SOL     OW14161   1.435   1.536   3.004 -0.8798  0.1195 -0.1413
 1231SOL    HW114162   1.513   1.509   2.948  0.4041  0.8260  1.2523
 1231SOL    HW214163   1.377   1.456   3.023 -0.3318 -0.4634 -0.9369
 1232SOL     OW14164   9.330   9.075   4.002  0.4114  0.0467 -0.4000
 1232SOL    HW114165   9.372   9.160   4.031  1.1556  0.0483 -1.4366
 1232SOL    HW214166   9.374   8.998   4.047  0.4289  0.1450 -0.2497
 1233SOL     OW14167   4.283   8.917   1.381  0.0593  0.1250 -0.0591
 1233SOL    HW114168   4.209   8.898   1.316  0.8790 -2.1911 -0.3737
 1233SOL    HW214169   4.367   8.939   1.330  1.2396 -3.7189  0.0795
 1234SOL     OW14170   2.690   6.909   1.550 -0.2839 -0.1854  0.5441
 1234SOL    HW114171   2.603   6.952   1.526 -0.8151 -1.7483 -0.4351
 1234SOL    HW214172   2.736   6.879   1.467  1.2206  0.6718  1.0609
 1235SOL     OW14173   2.541   0.411   2.142  0.3369 -0.3914 -0.6549
 1235SOL    HW114174   2.587   0.498   2.131 -0.1023  0.1920  1.8288
 1235SOL    HW214175   2.607   0.342   2.173  0.2130 -0.3645 -0.3300
 1236SOL     OW14176   8.624   8.448   0.546  0.7904  0.6130 -0.7468
 1236SOL    HW114177   8.660   8.423   0.636 -2.5032  1.3483  0.8511
 1236SOL    HW214178   8.613   8.365   0.491  1.5512 -0.0010  0.0004
 1237SOL     OW14179   8.060   7.228   2.139 -0.8977 -0.0129  0.3591
 1237SOL    HW114180   8.037   7.143   2.093 -2.0740 -0.0028  0.8964
 1237SOL    HW214181   8.104   7.208   2.226 -0.9181 -0.0794  0.3548
 1238SOL     OW14182   2.078   8.871   1.183  0.0998  0.2393 -0.1101
 1238SOL    HW114183   1.984   8.840   1.177 -0.0797  0.5381  1.0117
 1238SOL    HW214184   2.129   8.839   1.103 -0.9518  0.1050 -0.7395
 1239SOL     OW14185   4.485   9.046   2.856 -0.2304 -0.0434 -0.1369
 1239SOL    HW114186   4.508   9.143   2.857  1.6041 -0.3852 -3.1833
 1239SOL    HW214187   4.453   9.020   2.765 -0.4190 -2.3693  0.5535
 1240SOL     OW14188   1.861   3.311   0.302  0.1021  0.0783  0.2010
 1240SOL    HW114189   1.761   3.318   0.305  0.1255  0.1891  0.7543
 1240SOL    HW214190   1.900   3.401   0.285  0.0773 -0.1063 -0.8716
 1241SOL     OW14191   0.986   8.728   0.169 -0.0545  0.3483 -0.6474
 1241SOL    HW114192   1.064   8.791   0.168 -0.4931  0.8889 -2.2180
 1241SOL    HW214193   0.932   8.741   0.085 -1.9359  0.1268  0.5062
 1242SOL     OW14194   1.386   5.059   2.285  0.0835 -0.0759 -0.2401
 1242SOL    HW114195   1.382   5.009   2.372  3.2680  1.6862  1.0266
 1242SOL    HW214196   1.364   5.156   2.302  1.5409  0.4462 -1.1952
 1243SOL     OW14197   1.922   4.378   0.998 -0.2655  0.4856 -0.3376
 1243SOL    HW114198   1.883   4.394   0.907 -0.9834 -0.5352 -0.2089
 1243SOL    HW214199   1.991   4.306   0.991 -1.4439 -0.6961  0.2172
 1244SOL     OW14200   7.677   8.940   3.695  0.1510 -0.5284 -0.6180
 1244SOL    HW114201   7.675   9.008   3.621 -0.7174  1.0824  0.8350
 1244SOL    HW214202   7.770   8.932   3.731  0.4027 -0.6695 -1.2964
 1245SOL     OW14203   0.629   8.351   3.955  0.1596  0.0797  0.3761
 1245SOL    HW114204   0.687   8.331   4.033  0.9914  0.2829 -0.1868
 1245SOL    HW214205   0.557   8.415   3.982  0.0737 -0.3318  1.1188
 1246SOL     OW14206   9.803   6.593   3.687  0.0503 -0.1646 -0.0258
 1246SOL    HW114207   9.777   6.682   3.725  2.0347 -0.2512  1.6085
 1246SOL    HW214208   9.802   6.599   3.587 -2.1799  0.9759  0.0261
 1247SOL     OW14209   3.119   1.950   2.641  0.7149 -0.0341 -0.8909
 1247SOL    HW114210   3.215   1.959   2.615  0.6182 -0.3276 -1.3518
 1247SOL    HW214211   3.066   1.914   2.563  0.4353 -0.9777 -0.2794
 1248SOL     OW14212   7.314   9.784   0.180  0.2026  0.3920  0.1399
 1248SOL    HW114213   7.282   9.735   0.261 -0.1348  1.2573  0.5280
 1248SOL    HW214214   7.264   9.750   0.099  2.2147 -2.1669 -0.0955
 1249SOL     OW14215   2.318   4.649   2.476  0.4421 -0.2514  0.2841
 1249SOL    HW114216   2.331   4.668   2.378 -0.2855  2.6742  0.7256
 1249SOL    HW214217   2.406   4.652   2.523  1.1948 -4.2351 -0.6153
 1250SOL     OW14218   7.970   8.677   2.835  0.5135 -0.2088  0.0647
 1250SOL    HW114219   8.019   8.591   2.825  1.5722  0.6640 -2.7219
 1250SOL    HW214220   7.992   8.719   2.923  1.8116 -1.6359  0.4245
 1251SOL     OW14221   9.209   1.081   0.235 -0.3083  0.1563  0.6662
 1251SOL    HW114222   9.226   1.172   0.198 -1.8045  0.5743  0.9983
 1251SOL    HW214223   9.150   1.030   0.172 -1.0794  0.1116  1.4105
 1252SOL     OW14224   1.377   0.827   0.593 -0.1472  0.5206  0.1363
 1252SOL    HW114225   1.310   0.823   0.667  0.2504  0.7493  0.5091
 1252SOL    HW214226   1.333   0.799   0.507 -0.5010 -0.1330  0.5273
 1253SOL     OW14227   8.911   8.884   2.472  0.4679 -0.1591 -0.5758
 1253SOL    HW114228   8.925   8.935   2.388 -1.0004 -0.2637 -0.9002
 1253SOL    HW214229   8.815   8.856   2.479  0.7906 -1.0394  0.6284
 1254SOL     OW14230   2.472   3.827   3.574 -0.0753 -0.4746  0.0762
 1254SOL    HW114231   2.452   3.922   3.548  1.4300  0.1011  0.9332
 1254SOL    HW214232   2.387   3.778   3.590 -0.8778  0.6406 -0.7485
 1255SOL     OW14233   2.650   0.056   2.323 -0.0045 -0.4991 -0.0502
 1255SOL    HW114234   2.677   0.152   2.325  1.3194 -0.8187 -1.8575
 1255SOL    HW214235   2.729  -0.002   2.340 -0.5154 -1.3219 -0.4280
 1256SOL     OW14236   3.131   0.264   2.938 -0.2749 -0.6458  0.2868
 1256SOL    HW114237   3.086   0.212   2.866 -0.2698 -0.3001  0.0355
 1256SOL    HW214238   3.063   0.307   2.997 -0.2802 -1.0607  0.5871
 1257SOL     OW14239   3.180   1.155   2.645 -0.4519  0.1919  0.1632
 1257SOL    HW114240   3.110   1.125   2.580 -2.1543  1.1538  1.4858
 1257SOL    HW214241   3.214   1.245   2.619 -0.5452  0.2231  0.1481
 1258SOL     OW14242   2.617   3.996   3.216 -0.4709 -0.0488 -0.0502
 1258SOL    HW114243   2.672   4.055   3.276  0.2050  0.9980 -1.6776
 1258SOL    HW214244   2.524   3.989   3.253 -0.4042  1.5856  0.4731
 1259SOL     OW14245   1.741   1.512   0.830  0.0341 -0.3009  0.3091
 1259SOL    HW114246   1.701   1.526   0.740  1.4545 -1.3600 -0.4918
 1259SOL    HW214247   1.734   1.596   0.883 -0.9090  0.2904 -0.7312
 1260SOL     OW14248   2.738   4.994   2.188  0.7845 -0.1623 -0.2186
 1260SOL    HW114249   2.746   5.061   2.114  0.7904  2.0409  1.7312
 1260SOL    HW214250   2.827   4.982   2.232  0.9064 -1.9016 -0.9164
 1261SOL     OW14251   9.475   1.253   1.531  0.4840  0.5277 -0.3587
 1261SOL    HW114252   9.402   1.274   1.596  0.9719  1.3722 -0.0765
 1261SOL    HW214253   9.464   1.159   1.498 -0.2819  0.3926  0.2639
 1262SOL     OW14254   9.335   1.752   1.555 -0.0133  0.2387 -0.6356
 1262SOL    HW114255   9.255   1.706   1.519  0.5203 -0.4135 -0.9926
 1262SOL    HW214256   9.398   1.774   1.481  0.3019  0.4361 -0.3150
 1263SOL     OW14257   0.861   4.671   1.754 -0.6125 -0.3216  0.1667
 1263SOL    HW114258   0.762   4.667   1.742 -0.6698  3.2132 -1.0650
 1263SOL    HW214259   0.906   4.640   1.669 -0.5919 -2.7986  1.0350
 1264SOL     OW14260   1.974   7.521   0.126 -0.2452 -0.0841  0.5486
 1264SOL    HW114261   1.991   7.429   0.091  0.3207 -0.0439  0.7211
 1264SOL    HW214262   1.916   7.516   0.208  2.3183 -0.5060  2.3763
 1265SOL     OW14263   1.024   1.518   1.025 -0.1731 -0.4879 -0.0567
 1265SOL    HW114264   1.072   1.439   1.061 -1.2511 -0.8106  0.7001
 1265SOL    HW214265   1.039   1.597   1.084  1.1814 -0.0280 -0.9968
 1266SOL     OW14266   0.003   1.583   2.852  0.4146 -0.0357  0.1411
 1266SOL    HW114267  -0.059   1.569   2.775  0.4753  1.1527 -0.1402
 1266SOL    HW214268  -0.049   1.615   2.931  0.6365  0.8462 -0.0600
 1267SOL     OW14269   1.349   9.838   1.465  0.0998 -0.3562 -0.3231
 1267SOL    HW114270   1.376   9.791   1.549  1.2638 -0.0158 -0.5107
 1267SOL    HW214271   1.342   9.937   1.482 -1.0872 -0.4364 -0.2629
 1268SOL     OW14272   9.395   5.510   3.234  0.6043 -0.2546  0.3293
 1268SOL    HW114273   9.356   5.426   3.271  1.0939  0.1695  1.8614
 1268SOL    HW214274   9.392   5.581   3.304  0.9993  0.7553 -0.6649
 1269SOL     OW14275   3.340   0.940   1.426 -0.1678 -0.1643  0.3206
 1269SOL    HW114276   3.355   0.848   1.390 -0.1591  0.0995 -0.3501
 1269SOL    HW214277   3.390   0.951   1.512 -0.1861 -0.7920  0.4151
 1270SOL     OW14278   3.576   4.316   3.748  0.5378  0.4933 -0.6053
 1270SOL    HW114279   3.507   4.388   3.738  1.2993  1.5384  1.4181
 1270SOL    HW214280   3.665   4.351   3.718  0.7675  0.1569 -0.3153
 1271SOL     OW14281   9.393   2.780   1.811  0.2214 -0.1155 -0.0227
 1271SOL    HW114282   9.338   2.699   1.793  0.6708 -0.1110 -1.4453
 1271SOL    HW214283   9.448   2.765   1.893 -0.1589 -0.9962  0.0799
 1272SOL     OW14284   7.513   0.263   3.094 -0.3823 -0.1551 -0.1691
 1272SOL    HW114285   7.443   0.320   3.136  0.0418 -0.0380  0.3871
 1272SOL    HW214286   7.571   0.320   3.035 -0.7652 -0.2568 -0.6508
 1273SOL     OW14287   1.173   4.422   0.479  0.1467  0.2570 -0.0731
 1273SOL    HW114288   1.200   4.499   0.537 -0.4758 -0.2712  0.9326
 1273SOL    HW214289   1.170   4.451   0.384 -1.6505  1.9122  0.4745
 1274SOL     OW14290   8.029   8.251   1.430  0.3142  0.3226 -0.1851
 1274SOL    HW114291   7.941   8.287   1.459  1.3565  2.2920  0.5909
 1274SOL    HW214292   8.072   8.314   1.366  0.5499 -1.3063 -1.6799
 1275SOL     OW14293   7.095   8.786   3.361  0.1310  0.0464 -0.2874
 1275SOL    HW114294   7.004   8.823   3.380  0.1127 -0.3448  0.4155
 1275SOL    HW214295   7.087   8.714   3.292  0.2976  1.9954 -2.4041
 1276SOL     OW14296   9.274   8.871   3.381 -0.1717  0.6601 -0.5694
 1276SOL    HW114297   9.294   8.968   3.368 -2.4332  1.6627  2.8129
 1276SOL    HW214298   9.345   8.830   3.439 -1.9796  1.6292  2.4252
 1277SOL     OW14299   5.046   8.143   1.814 -0.0656  0.2813 -0.4815
 1277SOL    HW114300   5.105   8.087   1.872 -1.8783 -0.9254  0.2353
 1277SOL    HW214301   4.996   8.085   1.750 -1.3649  1.1538 -0.2763
 1278SOL     OW14302   4.153   7.181   1.749  0.2184 -0.2559 -0.0807
 1278SOL    HW114303   4.155   7.146   1.655  1.2313  0.1222 -0.2065
 1278SOL    HW214304   4.239   7.228   1.769 -0.7375  1.3362  0.3968
 1279SOL     OW14305   0.966   3.240   0.739  0.1592 -0.6864 -0.5829
 1279SOL    HW114306   0.941   3.143   0.729  1.1943 -1.2279  1.8219
 1279SOL    HW214307   0.882   3.295   0.743 -0.4740 -1.6430 -0.4385
 1280SOL     OW14308   9.187   4.680   0.843  0.2556 -0.3723  0.1358
 1280SOL    HW114309   9.132   4.597   0.838 -0.9689  0.5212 -1.8765
 1280SOL    HW214310   9.172   4.735   0.761 -1.5834  3.4405  2.8485
 1281SOL     OW14311   0.094   4.174   2.822  0.2513 -0.2042  0.1381
 1281SOL    HW114312   0.102   4.078   2.847  1.5282  0.3969  2.1419
 1281SOL    HW214313   0.150   4.193   2.742  4.2181 -0.1029  2.7679
 1282SOL     OW14314   1.424   5.211   0.564 -0.0030 -0.3761 -0.4893
 1282SOL    HW114315   1.453   5.241   0.655  0.4020 -0.3365 -0.6298
 1282SOL    HW214316   1.431   5.111   0.559  1.1468 -0.2821 -0.8750
 1283SOL     OW14317   8.138   8.918   0.561  0.3770  0.5435 -0.2764
 1283SOL    HW114318   8.042   8.910   0.535 -0.4520 -0.7040  2.9922
 1283SOL    HW214319   8.195   8.875   0.491 -1.7294 -2.2690 -0.3438
 1284SOL     OW14320   9.443   0.538   2.463 -0.0182  0.4493 -0.1520
 1284SOL    HW114321   9.516   0.565   2.401 -0.0378 -0.9141 -0.7868
 1284SOL    HW214322   9.478   0.532   2.556  0.6684 -0.1531 -0.4492
 1285SOL     OW14323   0.984   9.646   1.702  0.6519 -0.4250 -0.2642
 1285SOL    HW114324   0.989   9.604   1.793  0.7754  1.0839  0.4488
 1285SOL    HW214325   1.001   9.745   1.710 -0.9127 -0.0150 -1.7265
 1286SOL     OW14326   1.546   1.806   3.433 -0.2803 -0.0867  0.1598
 1286SOL    HW114327   1.453   1.830   3.461 -0.3226 -0.4105  0.2942
 1286SOL    HW214328   1.547   1.787   3.335 -0.5287 -0.9625  0.3269
 1287SOL     OW14329   2.599   5.613   1.886 -0.4065 -0.0902 -0.5590
 1287SOL    HW114330   2.576   5.517   1.902 -1.1322 -0.1853 -2.1073
 1287SOL    HW214331   2.515   5.665   1.870 -0.1133  1.0162  1.2565
 1288SOL     OW14332   4.959   3.583   1.228  0.0774  0.5244  0.2901
 1288SOL    HW114333   5.039   3.533   1.195  0.1909 -0.7895  2.4961
 1288SOL    HW214334   4.936   3.655   1.162  2.0014 -0.1936 -1.2250
 1289SOL     OW14335   2.627   5.974   1.118  0.1322  0.0086 -0.7588
 1289SOL    HW114336   2.538   5.929   1.116  0.0826  0.0176  0.8533
 1289SOL    HW214337   2.696   5.915   1.077 -0.8173  0.5040 -3.1747
 1290SOL     OW14338   2.617   0.977   2.459 -0.6853 -0.5230 -0.0545
 1290SOL    HW114339   2.534   1.001   2.508 -0.0314  1.3841  0.1425
 1290SOL    HW214340   2.637   1.047   2.391  2.0220  0.2486  1.4662
 1291SOL     OW14341   8.138   0.483   2.083 -1.2339 -0.2267 -0.3218
 1291SOL    HW114342   8.226   0.492   2.036 -0.7776 -0.5342  0.4691
 1291SOL    HW214343   8.088   0.570   2.077 -0.1163  0.4989  0.7557
 1292SOL     OW14344   4.643   1.684   2.342  0.1737 -0.3575 -0.3507
 1292SOL    HW114345   4.687   1.761   2.388 -0.0889  0.0234 -0.7322
 1292SOL    HW214346   4.545   1.684   2.364  0.3281 -1.1032  0.3624
 1293SOL     OW14347   1.517   1.345   3.425 -0.3727  0.2535 -0.3621
 1293SOL    HW114348   1.608   1.340   3.385  0.1265 -0.6247  0.8570
 1293SOL    HW214349   1.466   1.420   3.382  1.2606  1.3911 -0.3668
 1294SOL     OW14350   0.166   0.891   2.101  0.1554 -0.7132 -0.2449
 1294SOL    HW114351   0.246   0.850   2.145 -1.2939 -1.2565  1.9398
 1294SOL    HW214352   0.162   0.861   2.005  2.1912 -1.1841 -0.2011
 1295SOL     OW14353   8.982   2.401   2.795  0.3431  0.1752 -0.0590
 1295SOL    HW114354   8.917   2.384   2.721  1.2679 -0.9151 -0.6314
 1295SOL    HW214355   9.002   2.315   2.842  0.1447  0.7796  1.1417
 1296SOL     OW14356   1.930   3.399   1.289 -0.1292 -0.0531  0.5590
 1296SOL    HW114357   1.880   3.385   1.203  2.0704 -1.3121 -0.5726
 1296SOL    HW214358   1.913   3.321   1.350 -0.5509  0.1316  0.6746
 1297SOL     OW14359   9.123   5.827   1.767 -0.8868 -0.7297  0.0651
 1297SOL    HW114360   9.214   5.854   1.797 -0.3619 -1.8105 -0.5310
 1297SOL    HW214361   9.094   5.885   1.691 -0.6668 -0.4218  0.2169
 1298SOL     OW14362   3.346   0.312   3.451 -0.1678 -0.2716  0.3452
 1298SOL    HW114363   3.327   0.296   3.548 -0.6414 -1.5729  0.0550
 1298SOL    HW214364   3.430   0.365   3.442  0.7977 -1.5697  1.4477
 1299SOL     OW14365   5.211   7.936   3.807  0.2955 -0.0795  0.2087
 1299SOL    HW114366   5.287   7.989   3.769 -1.0025  2.2790  0.7760
 1299SOL    HW214367   5.246   7.860   3.861  2.1973 -1.3757 -2.7233
 1300SOL     OW14368   8.565   2.033   1.556 -0.5828 -0.0735 -0.2591
 1300SOL    HW114369   8.553   1.936   1.534  0.6764 -0.5782  1.2237
 1300SOL    HW214370   8.658   2.061   1.534 -1.2743  1.1150 -1.7623
 1301SOL     OW14371   8.403   1.760   0.094 -1.3857 -0.3335 -0.3139
 1301SOL    HW114372   8.324   1.755   0.155 -1.0003 -0.1215  0.2046
 1301SOL    HW214373   8.487   1.753   0.147 -0.9990  1.8110 -0.6262
 1302SOL     OW14374   1.782   2.717   3.295  0.2426 -0.4872 -0.4529
 1302SOL    HW114375   1.741   2.759   3.376 -0.5946  0.4827 -1.3789
 1302SOL    HW214376   1.744   2.625   3.284 -0.0098 -0.4393 -0.0298
 1303SOL     OW14377   3.138   6.061   1.280  0.0449  0.2629 -0.6249
 1303SOL    HW114378   3.232   6.027   1.281 -0.0816 -0.1454 -1.8444
 1303SOL    HW214379   3.099   6.054   1.372  2.5593  4.2487  0.9352
 1304SOL     OW14380   3.092   0.911   3.421 -0.3127 -0.2534  0.3264
 1304SOL    HW114381   3.037   0.835   3.387 -1.8803  0.1319  1.8985
 1304SOL    HW214382   3.034   0.992   3.430  1.4085  1.2384 -1.6383
 1305SOL     OW14383   1.090   2.257   3.615  0.2457 -0.5282 -0.0547
 1305SOL    HW114384   1.062   2.168   3.580  0.7858 -0.3292 -1.0125
 1305SOL    HW214385   1.189   2.258   3.627  0.0546 -0.6497  1.6564
 1306SOL     OW14386   4.606   7.925   1.486 -0.1029 -0.2370 -0.3888
 1306SOL    HW114387   4.680   7.863   1.511 -0.1743 -0.4800 -0.7796
 1306SOL    HW214388   4.612   7.946   1.388  0.2980  0.8651 -0.1463
 1307SOL     OW14389   9.921   0.913   2.761 -0.3763  0.0388  0.1149
 1307SOL    HW114390   9.912   1.008   2.728  0.0609  0.3985  1.0189
 1307SOL    HW214391   9.929   0.913   2.860  1.4126 -0.8184 -0.0059
 1308SOL     OW14392   4.294   3.547   0.908  0.1336  0.2120 -0.2191
 1308SOL    HW114393   4.372   3.547   0.971  0.1373 -0.9989 -0.2118
 1308SOL    HW214394   4.214   3.584   0.955  0.5097  0.7289  0.0207
 1309SOL     OW14395   8.082   8.786   3.035 -0.3365  0.6483  0.2354
 1309SOL    HW114396   8.171   8.808   2.994  0.0603  0.0177  0.7506
 1309SOL    HW214397   8.030   8.871   3.048 -0.7470  0.8078 -2.1682
 1310SOL     OW14398   1.950   7.919   1.655  0.4565 -0.2581  0.4253
 1310SOL    HW114399   1.934   7.944   1.559  1.7208  0.2324  0.3214
 1310SOL    HW214400   1.955   8.003   1.710  3.0169 -0.3017  0.3572
 1311SOL     OW14401   2.457   2.138   1.932  0.1840  0.1044 -0.4320
 1311SOL    HW114402   2.426   2.043   1.933  0.7251 -0.0816  2.7518
 1311SOL    HW214403   2.378   2.199   1.939  0.0497 -0.1734  0.4242
 1312SOL     OW14404   1.071   7.498   2.454  0.7678 -0.0668  0.9168
 1312SOL    HW114405   1.036   7.425   2.512  1.1626 -2.0604 -1.2953
 1312SOL    HW214406   1.166   7.479   2.429 -0.3184 -0.9002 -2.9044
 1313SOL     OW14407   3.002   3.134   1.959 -0.0661 -0.4957  0.1101
 1313SOL    HW114408   3.003   3.221   2.007 -1.4616 -0.5597  0.2807
 1313SOL    HW214409   2.910   3.095   1.962  0.4915 -1.8801 -0.1349
 1314SOL     OW14410   3.395   0.728   0.017 -0.1855  0.5268  0.1539
 1314SOL    HW114411   3.304   0.753   0.051 -0.3502  1.3923 -0.8972
 1314SOL    HW214412   3.404   0.629   0.018 -0.5732  0.4812  1.6995
 1315SOL     OW14413   0.402   3.959   2.982  0.0669  0.1117 -0.1596
 1315SOL    HW114414   0.309   3.961   2.946  0.1022 -0.0969 -0.2616
 1315SOL    HW214415   0.408   4.020   3.061 -0.8113 -1.8509  1.4650
 1316SOL     OW14416   0.018   0.240   0.588  0.3615 -0.1204 -0.0867
 1316SOL    HW114417  -0.075   0.243   0.551  0.9529 -1.4128 -1.7501
 1316SOL    HW214418   0.034   0.150   0.629  1.1889 -0.2549 -0.6956
 1317SOL     OW14419   3.387   5.009   3.321 -0.2204 -0.1367 -0.0983
 1317SOL    HW114420   3.401   5.094   3.373  0.5968 -0.8349  0.8531
 1317SOL    HW214421   3.454   5.005   3.247  0.1974 -0.2656  0.2798
 1318SOL     OW14422   9.665   6.494   0.946 -0.6798 -0.1064 -0.3851
 1318SOL    HW114423   9.633   6.555   1.019 -0.2203  1.3983 -1.4250
 1318SOL    HW214424   9.619   6.516   0.861 -1.1147 -1.7874 -0.5917
 1319SOL     OW14425   6.044   0.149   2.903 -0.2382 -0.1999  0.4832
 1319SOL    HW114426   5.960   0.175   2.856 -1.0651  0.8813  2.5009
 1319SOL    HW214427   6.061   0.212   2.979  1.0938 -1.8664  1.6052
 1320SOL     OW14428   2.748   2.839   3.841  0.0924  0.2231  0.0877
 1320SOL    HW114429   2.704   2.925   3.815 -0.7383 -0.0017  0.7306
 1320SOL    HW214430   2.758   2.781   3.760 -1.3173  0.0466  0.0269
 1321SOL     OW14431   2.652   5.116   1.520 -0.3974 -0.0725 -0.5867
 1321SOL    HW114432   2.664   5.108   1.619 -1.8299  1.7643 -0.2423
 1321SOL    HW214433   2.558   5.090   1.496 -0.0360 -0.5669 -1.4924
 1322SOL     OW14434   9.991   6.478   0.896 -0.0332  0.4205 -0.0836
 1322SOL    HW114435   9.993   6.384   0.864 -0.6878  0.3002  0.2149
 1322SOL    HW214436   9.897   6.504   0.916  0.2989  0.6877  1.1683
 1323SOL     OW14437   8.691   3.353   0.439  0.2442  0.3225 -0.4771
 1323SOL    HW114438   8.719   3.413   0.513 -2.2253 -0.9667  1.5667
 1323SOL    HW214439   8.603   3.384   0.401 -0.1110 -0.8854 -0.6762
 1324SOL     OW14440   4.234   2.592   3.085 -0.0526 -0.3822  0.2050
 1324SOL    HW114441   4.288   2.564   3.006  0.5938 -0.4539  0.6693
 1324SOL    HW214442   4.142   2.619   3.055 -0.3632 -2.0349 -0.3660
 1325SOL     OW14443   2.662   8.011   2.829  0.0985 -0.6979  0.1334
 1325SOL    HW114444   2.634   7.965   2.744 -0.8691  0.1319 -0.0097
 1325SOL    HW214445   2.622   7.964   2.907  0.0145 -0.7551  0.0567
 1326SOL     OW14446   0.314   0.607   3.005  0.1804 -0.0709 -0.2549
 1326SOL    HW114447   0.215   0.611   2.996  0.0680 -1.5228  0.0850
 1326SOL    HW214448   0.350   0.536   2.944  0.8815 -0.2816  0.3933
 1327SOL     OW14449   9.726   2.943   2.860 -0.6829 -0.0593  0.0135
 1327SOL    HW114450   9.631   2.955   2.833 -1.0531 -0.2928  1.2045
 1327SOL    HW214451   9.731   2.891   2.945  0.5593 -1.0244 -0.6262
 1328SOL     OW14452   4.516   8.234   1.111 -0.3942 -0.2288 -0.0972
 1328SOL    HW114453   4.498   8.213   1.208  3.2730  0.6233  0.8334
 1328SOL    HW214454   4.581   8.168   1.074 -0.9138  0.1281 -1.6857
 1329SOL     OW14455   9.925   2.446   2.152 -0.0789 -0.1224 -0.0496
 1329SOL    HW114456   9.866   2.467   2.074 -0.0795 -1.2838 -0.3694
 1329SOL    HW214457   9.916   2.518   2.221  0.7656  1.5113 -1.5983
 1330SOL     OW14458   9.995   7.829   1.284  0.1543  0.0020  0.5185
 1330SOL    HW114459   9.901   7.833   1.319  0.0576 -3.4860  0.7613
 1330SOL    HW214460   9.996   7.860   1.189 -0.9986  1.2823  0.8907
 1331SOL     OW14461   8.266   8.263   2.619  0.5150 -0.5990  0.6203
 1331SOL    HW114462   8.279   8.182   2.675 -2.9811  0.1554  2.6431
 1331SOL    HW214463   8.197   8.245   2.549 -0.6470  0.7661  1.4015
 1332SOL     OW14464   5.350   1.686   1.531 -0.1430 -0.2054 -0.0674
 1332SOL    HW114465   5.319   1.608   1.477  0.8710 -1.1163  0.6598
 1332SOL    HW214466   5.324   1.672   1.627  0.8056 -0.0541  0.2110
 1333SOL     OW14467   8.376   2.036   0.043  0.6424  0.1386  0.3126
 1333SOL    HW114468   8.396   2.087   0.127  0.3791  0.3530  0.2443
 1333SOL    HW214469   8.393   1.938   0.059 -1.5034 -0.1036  1.2830
 1334SOL     OW14470   3.575   7.575   1.446 -0.2301  1.0092  0.2454
 1334SOL    HW114471   3.480   7.579   1.416 -0.2266 -1.1710 -0.1250
 1334SOL    HW214472   3.579   7.576   1.546 -0.5558  2.2111  0.2613
 1335SOL     OW14473   9.556   4.009   0.615 -0.3122  0.4186 -0.1619
 1335SOL    HW114474   9.606   3.934   0.658 -1.5942 -1.1051 -1.2864
 1335SOL    HW214475   9.619   4.064   0.560  0.4214 -0.5688 -0.3256
 1336SOL     OW14476   2.371   6.465   0.994 -0.6238  0.5684  0.1102
 1336SOL    HW114477   2.274   6.443   1.002 -0.4041 -0.4949 -0.1021
 1336SOL    HW214478   2.423   6.382   0.978  0.3518  1.1092  0.4046
 1337SOL     OW14479   8.501   3.385   0.827 -0.2525  0.0273 -0.2373
 1337SOL    HW114480   8.552   3.299   0.828 -0.3597 -0.0260  1.2681
 1337SOL    HW214481   8.558   3.457   0.867 -0.1806  0.6530 -1.4528
 1338SOL     OW14482   3.403   9.369   1.995  0.2120  0.3865  0.3674
 1338SOL    HW114483   3.427   9.410   2.083  0.2110  0.3730  0.3740
 1338SOL    HW214484   3.385   9.441   1.929 -0.1908  0.3994  0.4872
 1339SOL     OW14485   9.606   7.266   1.922  0.7446 -0.1956 -0.1193
 1339SOL    HW114486   9.555   7.180   1.922 -0.3617  0.4489 -0.6771
 1339SOL    HW214487   9.682   7.260   1.987  2.0205 -2.3896 -1.7144
 1340SOL     OW14488   3.717   1.702   0.535  0.0774  0.2964 -0.2619
 1340SOL    HW114489   3.797   1.641   0.535  0.8464  1.2447 -3.1059
 1340SOL    HW214490   3.738   1.784   0.483 -2.6600  0.7376 -0.7260
 1341SOL     OW14491   4.663   0.742   1.516 -0.2556 -0.0991 -0.6649
 1341SOL    HW114492   4.649   0.814   1.585  0.3708 -0.8449  0.2527
 1341SOL    HW214493   4.728   0.774   1.447 -0.1294  0.2803 -0.3732
 1342SOL     OW14494   0.604   1.889   3.315 -0.4787  0.1371  0.5151
 1342SOL    HW114495   0.560   1.801   3.333  0.9408 -0.7305 -0.1646
 1342SOL    HW214496   0.702   1.875   3.297 -0.2645  1.8309  0.2441
 1343SOL     OW14497   3.479   3.490   0.640 -0.2426  0.1822 -0.4610
 1343SOL    HW114498   3.401   3.505   0.700 -0.6237 -2.2998 -0.2767
 1343SOL    HW214499   3.447   3.456   0.552  0.5988 -0.7096 -0.4325
 1344SOL     OW14500   9.252   9.488   0.464  0.3836  0.2796 -0.5018
 1344SOL    HW114501   9.190   9.550   0.511 -1.5554 -1.3817 -0.7709
 1344SOL    HW214502   9.294   9.426   0.530 -0.4481 -0.4530 -0.6543
 1345SOL     OW14503   4.834   7.054   2.675 -0.0814 -0.2863 -0.3877
 1345SOL    HW114504   4.898   6.985   2.640 -1.1097 -1.0748 -0.7504
 1345SOL    HW214505   4.747   7.010   2.699  0.6358  0.1721  3.3889
 1346SOL     OW14506   3.787   6.873   3.365 -0.4236  0.4181 -0.2825
 1346SOL    HW114507   3.693   6.844   3.383 -0.0953 -0.8625 -0.6085
 1346SOL    HW214508   3.827   6.912   3.448 -1.2943  1.1463 -0.1911
 1347SOL     OW14509   1.138   1.178   0.583 -0.2195  0.2605  0.0804
 1347SOL    HW114510   1.144   1.247   0.656  1.0674 -0.4708  0.6878
 1347SOL    HW214511   1.063   1.114   0.604 -0.2668  0.4315  0.4411
 1348SOL     OW14512   1.732   5.763   2.969 -0.3874  0.2776  0.1058
 1348SOL    HW114513   1.635   5.773   2.945 -0.1370  1.0473 -0.6003
 1348SOL    HW214514   1.783   5.843   2.937  1.2725 -2.1128 -3.5067
 1349SOL     OW14515   9.744   5.377   3.914  0.5044 -0.0123 -0.1463
 1349SOL    HW114516   9.700   5.443   3.853 -1.8921 -0.8357  0.6474
 1349SOL    HW214517   9.842   5.394   3.916  0.0572  2.8541 -0.7704
 1350SOL     OW14518   5.985   9.748   2.433 -0.7748 -0.2909 -0.3521
 1350SOL    HW114519   5.971   9.784   2.340 -2.1719 -0.3483 -0.1643
 1350SOL    HW214520   5.981   9.824   2.498 -0.0220 -0.2867 -0.2973
 1351SOL     OW14521   2.421   3.778   2.050  0.2852 -0.1153  0.3443
 1351SOL    HW114522   2.377   3.863   2.021  0.5318  0.6372  2.1535
 1351SOL    HW214523   2.407   3.708   1.979 -0.0455  1.3661 -1.0848
 1352SOL     OW14524   0.136   1.040   3.289 -0.5910  0.5448  0.0010
 1352SOL    HW114525   0.127   0.949   3.249  0.0187  0.5773 -0.2109
 1352SOL    HW214526   0.196   1.096   3.232 -0.2613  0.8030  0.6020
 1353SOL     OW14527   3.564   7.863   2.371  0.1875 -0.2313  0.4246
 1353SOL    HW114528   3.504   7.821   2.303  0.7645  2.1894 -1.6529
 1353SOL    HW214529   3.510   7.896   2.449 -1.0805  1.0747 -0.9791
 1354SOL     OW14530   2.597   4.899   1.239  0.1122 -0.4110  0.2938
 1354SOL    HW114531   2.568   4.910   1.334 -1.3658 -0.1511 -0.1847
 1354SOL    HW214532   2.599   4.989   1.194  1.8632 -0.3884  0.3646
 1355SOL     OW14533   8.414   9.642   3.581  0.3173  0.3438  0.0894
 1355SOL    HW114534   8.475   9.616   3.506 -0.6051  2.5677 -1.4834
 1355SOL    HW214535   8.322   9.607   3.562  0.2706  0.1901  0.6029
 1356SOL     OW14536   4.279   2.865   1.756  0.0224 -0.3259  0.1833
 1356SOL    HW114537   4.236   2.774   1.752 -2.1666  0.7720 -3.4410
 1356SOL    HW214538   4.244   2.914   1.836 -2.4711 -0.9544 -0.4815
 1357SOL     OW14539   7.874   3.707   0.542  0.1543 -0.2888 -0.2595
 1357SOL    HW114540   7.825   3.637   0.594  1.0597 -0.2135  0.7070
 1357SOL    HW214541   7.809   3.773   0.504 -0.5172 -0.3479  0.7781
 1358SOL     OW14542   2.387   2.368   3.911  0.6009  0.3613 -0.1413
 1358SOL    HW114543   2.345   2.447   3.956  2.8540  1.9104 -0.6810
 1358SOL    HW214544   2.479   2.353   3.949  0.1366 -2.1272  0.0765
 1359SOL     OW14545   1.016   9.350   1.589 -0.4355  0.2935 -0.1817
 1359SOL    HW114546   0.955   9.421   1.623 -0.3155 -0.1201  0.8989
 1359SOL    HW214547   1.104   9.390   1.563 -0.5550  0.6196 -0.0723
 1360SOL     OW14548   2.531   3.264   2.967  0.2498  0.0922  0.4783
 1360SOL    HW114549   2.549   3.357   2.935 -2.2322  0.2319 -0.6242
 1360SOL    HW214550   2.485   3.268   3.056  2.7002 -0.1766  1.7844
 1361SOL     OW14551   4.326   8.398   1.345 -0.0444  0.3103 -0.4421
 1361SOL    HW114552   4.358   8.303   1.350 -1.2495 -0.0879 -0.1176
 1361SOL    HW214553   4.284   8.414   1.256  1.9208  1.1232 -1.2506
 1362SOL     OW14554   7.508   8.351   3.423 -0.2812  0.1598  0.0066
 1362SOL    HW114555   7.569   8.284   3.465 -0.1745 -0.0557 -0.4910
 1362SOL    HW214556   7.501   8.333   3.325 -0.9512  0.3343  0.0216
 1363SOL     OW14557   2.569   7.680   0.804  0.1879  0.6864  0.1387
 1363SOL    HW114558   2.579   7.602   0.865 -3.0927 -0.5653 -0.8316
 1363SOL    HW214559   2.617   7.663   0.718  2.2321  1.1751  1.1473
 1364SOL     OW14560   4.085   6.167   2.939  0.5886 -0.0705  0.1059
 1364SOL    HW114561   4.088   6.257   2.895  0.2485  0.8875  1.9833
 1364SOL    HW214562   3.993   6.129   2.930  0.3537  0.3924  0.4847
 1365SOL     OW14563   2.236   2.325   1.897 -0.2079 -0.3606 -0.1041
 1365SOL    HW114564   2.180   2.299   1.818 -0.3792 -1.4017  0.3492
 1365SOL    HW214565   2.176   2.356   1.971 -0.0655  0.3470 -0.2863
 1366SOL     OW14566   1.541   9.386   2.725 -0.6530 -0.4628  0.1023
 1366SOL    HW114567   1.627   9.412   2.770 -0.4605  0.7672 -0.9210
 1366SOL    HW214568   1.557   9.376   2.627 -1.1366 -2.7891  0.2457
 1367SOL     OW14569   2.226   1.346   2.997 -0.4403 -0.4019 -0.3627
 1367SOL    HW114570   2.128   1.356   3.011 -0.6234  0.6016 -2.2350
 1367SOL    HW214571   2.247   1.351   2.899  1.4015 -1.2903 -0.0448
 1368SOL     OW14572   2.202   9.015   0.235  0.1047  0.3151  0.5187
 1368SOL    HW114573   2.282   8.955   0.229  0.4809  0.4693  3.3014
 1368SOL    HW214574   2.121   8.960   0.254 -0.1671  0.3235 -0.6279
 1369SOL     OW14575   8.041   1.743   2.706 -0.4734  0.0304  0.3557
 1369SOL    HW114576   7.970   1.760   2.775  0.4501  1.3402  1.0031
 1369SOL    HW214577   8.022   1.799   2.626  0.8704  1.8594  1.2844
 1370SOL     OW14578   3.847   7.560   2.219 -0.8355 -0.1556  0.3177
 1370SOL    HW114579   3.882   7.632   2.279  1.1038  0.2937 -1.2671
 1370SOL    HW214580   3.784   7.501   2.269  1.3614 -0.3031  3.0047
 1371SOL     OW14581   0.534   3.996   3.570  0.4675  0.5316  0.3517
 1371SOL    HW114582   0.502   3.904   3.548  1.5726  0.3642 -0.5625
 1371SOL    HW214583   0.462   4.062   3.549  0.2159  0.0283 -0.3726
 1372SOL     OW14584   2.382   9.764   2.795  0.1455 -0.7054 -0.1276
 1372SOL    HW114585   2.325   9.699   2.845  0.0387  0.3930  1.2177
 1372SOL    HW214586   2.378   9.744   2.698 -0.4117 -2.2978  0.2145
 1373SOL     OW14587   3.059   4.003   0.881 -0.3333  0.0315  0.0432
 1373SOL    HW114588   3.072   4.090   0.834 -1.7763 -0.0149 -0.4415
 1373SOL    HW214589   3.149   3.960   0.895  0.3984  1.5922  0.3212
 1374SOL     OW14590   2.544   7.466   0.512  0.2361 -0.5112 -0.5127
 1374SOL    HW114591   2.513   7.417   0.430 -0.0808  0.4593 -0.9743
 1374SOL    HW214592   2.525   7.410   0.593 -0.5450 -0.9550 -0.9946
 1375SOL     OW14593   1.876   0.561   3.436 -0.0823  0.0234 -0.6447
 1375SOL    HW114594   1.778   0.554   3.457  0.0646 -2.1670 -0.5768
 1375SOL    HW214595   1.925   0.590   3.518 -0.6201  0.8545 -0.6009
 1376SOL     OW14596   0.184   8.073   2.435 -0.4304  0.1674  0.5350
 1376SOL    HW114597   0.229   7.986   2.454  0.7983  0.1816 -2.1002
 1376SOL    HW214598   0.252   8.141   2.409 -1.5664  1.3729  0.6622
 1377SOL     OW14599   8.862   0.144   4.037 -0.4716  0.3538 -0.5683
 1377SOL    HW114600   8.793   0.114   3.971 -1.6648 -0.3812  0.9722
 1377SOL    HW214601   8.884   0.240   4.020 -1.7907  0.5680 -1.1701
 1378SOL     OW14602   4.544   7.209   3.317 -0.1796  0.0967 -0.3994
 1378SOL    HW114603   4.528   7.139   3.247  2.0340  1.5345 -2.4211
 1378SOL    HW214604   4.456   7.246   3.346 -1.2483 -1.7980 -1.0671
 1379SOL     OW14605   9.184   7.687   1.163  0.4013 -0.1556  0.3206
 1379SOL    HW114606   9.124   7.661   1.087  1.3183  0.5091 -0.6563
 1379SOL    HW214607   9.197   7.609   1.224 -0.9663 -0.4718  0.2234
 1380SOL     OW14608   0.400   1.895   3.899  0.2308  0.2376  0.2263
 1380SOL    HW114609   0.474   1.961   3.911 -0.2755  1.3193 -2.2078
 1380SOL    HW214610   0.336   1.929   3.830 -0.7652 -2.1941 -0.1040
 1381SOL     OW14611   4.939   2.218   1.085  0.3609  0.1011  0.3000
 1381SOL    HW114612   4.866   2.153   1.102  2.1364 -1.7826  0.9353
 1381SOL    HW214613   4.956   2.271   1.168  0.6270 -0.4109  0.5759
 1382SOL     OW14614   1.121   8.492   2.967 -0.0732 -0.1147 -0.4306
 1382SOL    HW114615   1.078   8.487   2.877 -0.5694 -0.4636 -0.1802
 1382SOL    HW214616   1.190   8.564   2.967  0.7196 -0.8660 -1.4150
 1383SOL     OW14617   1.627   8.097   3.155 -0.2114 -0.1058  0.3000
 1383SOL    HW114618   1.664   8.145   3.234 -0.4060  1.2558 -0.4064
 1383SOL    HW214619   1.527   8.101   3.158 -0.2082  0.6378 -0.4142
 1384SOL     OW14620   2.874   0.832   2.062  0.1983 -0.0496  0.2789
 1384SOL    HW114621   2.854   0.825   1.964 -0.4316 -1.8913  0.5305
 1384SOL    HW214622   2.971   0.815   2.078  0.5197  1.2940 -0.1110
 1385SOL     OW14623   3.158   9.118   2.881  0.0824  0.4604 -0.0851
 1385SOL    HW114624   3.140   9.085   2.973  0.1407  0.6861  0.0071
 1385SOL    HW214625   3.236   9.181   2.882  2.0753 -1.9479 -0.7790
 1386SOL     OW14626   0.983   8.245   3.793  0.2712 -0.4481  0.3996
 1386SOL    HW114627   0.957   8.212   3.884 -0.2937  1.6038  1.0069
 1386SOL    HW214628   1.074   8.287   3.797 -0.6345  1.5859  0.5290
 1387SOL     OW14629   9.392   5.752   3.374  0.2519 -0.0547 -0.0797
 1387SOL    HW114630   9.331   5.799   3.310  1.6045  1.4438 -0.2869
 1387SOL    HW214631   9.349   5.751   3.464  0.5872  2.4506  0.1553
 1388SOL     OW14632   3.218   6.786   2.522  0.2841  0.4907 -0.3060
 1388SOL    HW114633   3.313   6.806   2.548  0.2751  0.8294 -0.5286
 1388SOL    HW214634   3.166   6.762   2.603  0.2784  1.4609 -0.0201
 1389SOL     OW14635   0.028   5.223   1.184  0.1956 -0.1331  0.1034
 1389SOL    HW114636   0.002   5.144   1.129  0.1944 -0.1339  0.1046
 1389SOL    HW214637   0.123   5.214   1.214  0.0939 -0.2921  0.3782
 1390SOL     OW14638   1.591   2.095   2.480  0.4851  0.5724  0.4782
 1390SOL    HW114639   1.595   1.997   2.503  0.6893  0.8826  1.8009
 1390SOL    HW214640   1.496   2.121   2.462  0.5992 -0.1904 -1.4103
 1391SOL     OW14641   2.093   7.941   3.497  1.1955 -0.1803 -0.5287
 1391SOL    HW114642   2.172   7.940   3.559  0.3372 -0.3235  0.5702
 1391SOL    HW214643   2.022   8.000   3.534 -0.6138 -2.7792  0.2657
 1392SOL     OW14644   4.012   8.653   2.413  1.0107 -0.2488  0.0732
 1392SOL    HW114645   4.003   8.561   2.453  2.5605 -1.1952 -1.6866
 1392SOL    HW214646   3.933   8.708   2.440  1.4809 -1.1558  3.5582
 1393SOL     OW14647   8.719   2.445   2.217  0.0357 -0.5401  0.5091
 1393SOL    HW114648   8.688   2.474   2.307 -1.6608  2.6992 -1.0523
 1393SOL    HW214649   8.812   2.409   2.224 -0.4062 -1.2181  3.6547
 1394SOL     OW14650   0.672   2.218   1.664 -0.4196  0.4369 -0.8087
 1394SOL    HW114651   0.714   2.270   1.739 -1.2609  0.3072 -0.2351
 1394SOL    HW214652   0.646   2.127   1.698 -0.5684  0.2868 -1.3295
 1395SOL     OW14653   7.690   8.750   1.443  0.2562 -0.2460  0.6041
 1395SOL    HW114654   7.772   8.759   1.499 -0.8610  0.2899  2.1913
 1395SOL    HW214655   7.670   8.653   1.429 -0.0674 -0.3983  2.0748
 1396SOL     OW14656   8.493   0.565   0.574 -0.0351  0.1311  0.4612
 1396SOL    HW114657   8.449   0.622   0.504  1.4488 -0.6978 -1.1819
 1396SOL    HW214658   8.487   0.469   0.548 -0.3744 -0.2867  2.0152
 1397SOL     OW14659   3.000   6.994   1.070  0.3580 -0.6752 -0.0192
 1397SOL    HW114660   3.056   7.062   1.024 -0.2023  0.3083  0.7261
 1397SOL    HW214661   3.053   6.950   1.143  0.2321  0.0805  0.5270
 1398SOL     OW14662   2.949   2.642   2.175 -0.0842  0.5230  0.2617
 1398SOL    HW114663   2.927   2.547   2.151 -1.0454  0.0576  2.8263
 1398SOL    HW214664   3.016   2.678   2.110 -0.3617 -1.6166 -1.2689
 1399SOL     OW14665   9.138   9.239   0.254 -0.1833  0.3307  0.0525
 1399SOL    HW114666   9.163   9.334   0.271  1.4591 -0.2266  0.8583
 1399SOL    HW214667   9.156   9.216   0.158 -0.4163  0.7831 -0.0982
 1400SOL     OW14668   8.920   9.257   0.500  0.3631  0.3818 -0.2059
 1400SOL    HW114669   8.881   9.189   0.438  1.2707 -0.9765  0.6869
 1400SOL    HW214670   9.002   9.297   0.460 -0.0536  0.8098 -0.6412
 1401SOL     OW14671   2.797   7.197   3.962  0.1361  0.3719  0.2940
 1401SOL    HW114672   2.795   7.151   3.873 -2.5780  2.1507 -0.6221
 1401SOL    HW214673   2.879   7.169   4.012  1.1950 -1.4278 -2.3417
 1402SOL     OW14674   2.034   8.957   2.908  0.4857  0.5781 -0.3907
 1402SOL    HW114675   2.040   9.051   2.942  0.8819  0.1543  0.7379
 1402SOL    HW214676   1.988   8.957   2.819  1.7307  1.9897 -1.0617
 1403SOL     OW14677   3.410   5.722   2.229  0.3596 -0.2398 -0.0431
 1403SOL    HW114678   3.399   5.725   2.328 -1.7762 -0.1834 -0.2567
 1403SOL    HW214679   3.500   5.757   2.204  1.2169 -0.9901  1.9144
 1404SOL     OW14680   9.798   8.583   3.657  0.4927 -0.3355  0.1962
 1404SOL    HW114681   9.892   8.551   3.646  0.6585 -0.1835  1.1532
 1404SOL    HW214682   9.741   8.541   3.587  0.7507 -2.5531  1.2504
 1405SOL     OW14683   8.784   9.973   2.981 -0.5851 -0.4523  0.0784
 1405SOL    HW114684   8.741  10.036   2.916  1.0060  0.1027 -0.4492
 1405SOL    HW214685   8.742   9.882   2.972 -3.1991  0.5860  1.1371
 1406SOL     OW14686   0.111   2.704   3.432 -0.1914  0.5202 -0.5631
 1406SOL    HW114687   0.073   2.796   3.423 -1.0112  0.2253 -0.1114
 1406SOL    HW214688   0.118   2.680   3.529  0.6276  0.3541 -0.6566
 1407SOL     OW14689   8.841   0.142   0.916 -0.2253  0.0596  0.0884
 1407SOL    HW114690   8.785   0.090   0.981  1.8384 -2.9755 -0.4924
 1407SOL    HW214691   8.923   0.174   0.963 -0.2464  0.5937 -0.2395
 1408SOL     OW14692   3.135   9.964   3.898  0.3344  0.1564 -0.0577
 1408SOL    HW114693   3.160   9.888   3.838 -0.2797 -1.0365  1.1678
 1408SOL    HW214694   3.217  10.017   3.920  0.7565 -0.0909 -0.9954
 1409SOL     OW14695   5.924   9.150   3.071  0.0274 -0.3095 -0.4462
 1409SOL    HW114696   5.848   9.095   3.037  1.3860 -1.3949 -1.7913
 1409SOL    HW214697   5.973   9.098   3.141 -0.0080  0.0814 -0.1298
 1410SOL     OW14698   1.987   8.025   1.920 -0.6806  0.6194  0.1621
 1410SOL    HW114699   1.891   8.014   1.946 -0.5619 -1.2463 -0.1218
 1410SOL    HW214700   2.023   7.938   1.885  1.4361  0.9604  1.3473
 1411SOL     OW14701   3.302   2.470   1.696  0.1244 -0.4126 -0.3280
 1411SOL    HW114702   3.367   2.398   1.721  0.9149 -0.1513 -1.5968
 1411SOL    HW214703   3.334   2.557   1.733 -0.6339 -0.6453  0.8832
 1412SOL     OW14704   8.380   5.136   2.465 -0.4948 -0.1787  0.5569
 1412SOL    HW114705   8.458   5.130   2.403 -1.4984  0.9835 -0.8553
 1412SOL    HW214706   8.311   5.069   2.438 -0.9938  0.4254  0.3282
 1413SOL     OW14707   0.020   2.946   3.323 -0.2360 -0.2158 -0.1190
 1413SOL    HW114708   0.050   3.032   3.365  1.6165 -0.9523  0.1016
 1413SOL    HW214709   0.047   2.946   3.226  1.0177 -1.1320  0.2241
 1414SOL     OW14710   0.389   3.182   1.523 -0.2379 -0.4815  0.0607
 1414SOL    HW114711   0.354   3.270   1.490  0.2061 -0.1846  0.3846
 1414SOL    HW214712   0.451   3.143   1.455  0.7346  0.1653  0.5785
 1415SOL     OW14713   8.372   8.898   3.432 -0.6084 -0.3369  0.0814
 1415SOL    HW114714   8.370   8.808   3.389 -3.5690 -0.3157  0.0844
 1415SOL    HW214715   8.311   8.960   3.382  0.4424  1.3399  0.8244
 1416SOL     OW14716   9.003   6.123   3.417 -0.1155  0.1890  0.6597
 1416SOL    HW114717   8.980   6.026   3.417  0.4498  0.0511  1.2265
 1416SOL    HW214718   8.960   6.167   3.496 -1.0541  0.5718 -0.0496
 1417SOL     OW14719   1.819   5.388   0.263  0.0404 -0.0411  0.1757
 1417SOL    HW114720   1.728   5.360   0.292  0.2739 -0.3349  0.6332
 1417SOL    HW214721   1.880   5.390   0.342  0.6440 -0.6987 -0.2668
 1418SOL     OW14722   4.041   7.844   3.623  0.2592 -0.1774  0.4329
 1418SOL    HW114723   4.061   7.936   3.590  2.1705 -0.6712  0.1471
 1418SOL    HW214724   4.043   7.780   3.547 -0.6243 -0.5186  0.6959
 1419SOL     OW14725   9.392   0.088   2.516  0.1148  0.9525 -0.3169
 1419SOL    HW114726   9.391   0.133   2.605  1.8869 -1.3192  0.9190
 1419SOL    HW214727   9.465   0.020   2.514 -0.9359 -0.1693 -2.9462
 1420SOL     OW14728   1.917   2.702   1.557 -0.2328  0.6133  0.0471
 1420SOL    HW114729   1.930   2.774   1.625  2.3168 -0.8640  1.2081
 1420SOL    HW214730   1.872   2.624   1.600 -2.1352  1.1376 -0.9681
 1421SOL     OW14731   4.836   6.996   3.057  0.2834 -0.4960 -0.1999
 1421SOL    HW114732   4.889   6.996   3.141  2.7522 -0.6595 -1.6939
 1421SOL    HW214733   4.897   7.012   2.979 -2.1659  1.1936 -1.8370
 1422SOL     OW14734   1.054   0.617   0.313 -0.5991  0.0951  0.4832
 1422SOL    HW114735   0.980   0.584   0.254 -0.8787  2.1231 -0.3363
 1422SOL    HW214736   1.064   0.716   0.302  2.2810 -0.1439  0.5332
 1423SOL     OW14737   4.990   0.841   2.138 -0.6275 -0.2884  0.1901
 1423SOL    HW114738   5.055   0.912   2.109 -1.5391  0.4806 -0.0108
 1423SOL    HW214739   4.945   0.869   2.223 -1.4461 -0.3238 -0.2204
 1424SOL     OW14740   8.012   1.144   3.220  0.9279  0.3649  0.6020
 1424SOL    HW114741   8.049   1.237   3.229  0.1913  0.3821  4.2768
 1424SOL    HW214742   7.915   1.144   3.244  0.4358 -1.0495 -1.2853
 1425SOL     OW14743   9.056   5.725   3.995  0.3701 -0.3027  0.5687
 1425SOL    HW114744   8.983   5.688   3.936  1.2310 -1.0988 -0.0107
 1425SOL    HW214745   9.136   5.747   3.939  1.8412 -2.7465  1.6524
 1426SOL     OW14746   9.919   4.098   0.689  0.1464 -0.4386  0.4866
 1426SOL    HW114747   9.961   4.026   0.745 -0.9165 -1.0328  0.5369
 1426SOL    HW214748   9.831   4.065   0.654 -0.2829  0.7908  0.3917
 1427SOL     OW14749   1.280   9.541   2.608  0.1154 -0.0673  0.4875
 1427SOL    HW114750   1.227   9.458   2.588  0.3063 -0.2138  0.5880
 1427SOL    HW214751   1.343   9.558   2.533  1.3542 -1.0371  1.2956
 1428SOL     OW14752   7.924   6.517   2.887 -0.2292  0.2406 -0.8379
 1428SOL    HW114753   7.952   6.599   2.837 -1.7620  1.9027  0.9692
 1428SOL    HW214754   8.005   6.465   2.914  0.7917  1.5694 -1.2964
 1429SOL     OW14755   4.881   7.513   2.752 -0.4782 -0.0454  0.2290
 1429SOL    HW114756   4.801   7.560   2.714  0.5263 -0.1579 -2.0933
 1429SOL    HW214757   4.852   7.429   2.797 -1.9388  1.2024  1.6812
 1430SOL     OW14758   1.013   8.884   0.952  0.1669  0.4057  0.1068
 1430SOL    HW114759   1.108   8.897   0.924  0.4992  2.2449  1.9938
 1430SOL    HW214760   1.010   8.850   1.046 -1.0211 -1.0887 -0.4555
 1431SOL     OW14761   8.146   5.668   0.588 -0.3638 -0.1012  0.1637
 1431SOL    HW114762   8.182   5.655   0.680 -1.0844 -1.8730  0.2179
 1431SOL    HW214763   8.219   5.653   0.521 -0.6019 -2.0914  0.3312
 1432SOL     OW14764   7.200   9.508   2.955 -0.2444 -0.4362 -0.6685
 1432SOL    HW114765   7.236   9.597   2.927 -1.0027 -0.5831 -2.1457
 1432SOL    HW214766   7.109   9.521   2.996  0.7613 -0.2478  1.5912
 1433SOL     OW14767   3.924   0.849   2.980  0.8394  0.6317  0.4274
 1433SOL    HW114768   3.904   0.943   2.952  1.2116  0.2873 -1.0468
 1433SOL    HW214769   3.889   0.834   3.072 -0.6823  1.7309  0.0574
 1434SOL     OW14770   3.096   7.741   2.324  0.2196  0.0081 -0.0182
 1434SOL    HW114771   3.139   7.652   2.337  0.5893  0.1085 -0.5671
 1434SOL    HW214772   3.032   7.737   2.248  0.1385  0.1773  0.0401
 1435SOL     OW14773   7.784   7.814   3.468  0.2397  0.5773  0.1697
 1435SOL    HW114774   7.797   7.716   3.482 -1.7210  0.5794  2.0358
 1435SOL    HW214775   7.761   7.831   3.372  0.2537 -0.7952 -0.0819
 1436SOL     OW14776   5.955   7.375   2.886 -0.3537 -0.2928 -0.7161
 1436SOL    HW114777   6.033   7.344   2.941 -0.0989 -0.4279 -1.1503
 1436SOL    HW214778   5.988   7.426   2.807 -0.7221 -0.0594 -0.7178
 1437SOL     OW14779   2.760   2.570   0.494 -0.1439  0.4195  0.3800
 1437SOL    HW114780   2.815   2.649   0.520 -1.8143  0.9364  2.5021
 1437SOL    HW214781   2.663   2.593   0.501 -0.6513 -1.7253  0.8257
 1438SOL     OW14782   9.483   1.344   3.335 -0.1318  0.1716 -0.1547
 1438SOL    HW114783   9.531   1.388   3.259 -0.2785  0.8034  0.1125
 1438SOL    HW214784   9.426   1.270   3.300  0.7100 -0.3080 -0.5227
 1439SOL     OW14785   9.171   3.817   2.183 -0.3866  0.7333  0.5256
 1439SOL    HW114786   9.100   3.878   2.220 -0.2710  1.4945 -0.4959
 1439SOL    HW214787   9.199   3.849   2.093  0.3131 -0.3362  0.3552
 1440SOL     OW14788   9.644   0.158   3.188  0.3140  0.1930  0.1876
 1440SOL    HW114789   9.669   0.227   3.256  0.9597 -0.5002  0.6533
 1440SOL    HW214790   9.566   0.191   3.135 -0.2091  0.7364  1.2750
 1441SOL     OW14791   7.892   1.462   0.170 -0.1448  0.3344 -0.1466
 1441SOL    HW114792   7.958   1.403   0.215 -0.0524  1.7594  1.6377
 1441SOL    HW214793   7.924   1.557   0.174 -2.4907  1.1196  1.1611
 1442SOL     OW14794   1.589   2.737   0.196 -0.9694  0.2931 -0.1374
 1442SOL    HW114795   1.623   2.816   0.145 -1.0462  0.7842  0.5585
 1442SOL    HW214796   1.641   2.727   0.281 -1.1218 -0.2602 -0.1049
 1443SOL     OW14797   2.657   8.835   3.836 -0.1817 -0.4538  0.3178
 1443SOL    HW114798   2.644   8.848   3.738  0.2560 -1.1563  0.1594
 1443SOL    HW214799   2.573   8.860   3.884 -0.4283 -0.1910 -0.2420
 1444SOL     OW14800   4.679   1.129   2.232 -0.1864  0.2511  0.1714
 1444SOL    HW114801   4.596   1.124   2.177  0.5033  0.7434 -0.9190
 1444SOL    HW214802   4.685   1.220   2.274 -0.1411  0.2501  0.1672
 1445SOL     OW14803   8.360   7.918   1.705  0.3048  0.0534 -0.3721
 1445SOL    HW114804   8.272   7.950   1.741 -0.6928  0.0919 -2.7743
 1445SOL    HW214805   8.415   7.997   1.679 -1.1417  0.0028 -3.9043
 1446SOL     OW14806   1.654   9.914   2.988 -0.1596  0.1227 -0.2874
 1446SOL    HW114807   1.585   9.844   3.003 -1.7480  1.5735 -0.6642
 1446SOL    HW214808   1.610  10.003   2.976  1.5882  0.7049 -2.9997
 1447SOL     OW14809   3.155   2.058   0.272  0.1165 -0.7778 -0.2779
 1447SOL    HW114810   3.090   2.002   0.220 -0.8935 -1.4732  1.6680
 1447SOL    HW214811   3.235   2.002   0.295 -0.1512 -0.9494  0.2516
 1448SOL     OW14812   1.021   8.186   0.611 -0.2501  0.0105  0.0505
 1448SOL    HW114813   1.107   8.145   0.641 -0.1077  1.5882  1.8618
 1448SOL    HW214814   0.960   8.115   0.576  1.3983 -1.2410 -0.3328
 1449SOL     OW14815   2.789   1.069   1.411 -0.3422  0.4731 -0.4245
 1449SOL    HW114816   2.859   0.998   1.402  0.3248  1.1052 -0.3086
 1449SOL    HW214817   2.732   1.050   1.490 -0.4664 -0.1898 -0.6732
 1450SOL     OW14818   2.206   0.155   0.355 -0.3815 -0.3965 -0.5630
 1450SOL    HW114819   2.265   0.231   0.330  2.4020 -2.5576 -0.7338
 1450SOL    HW214820   2.167   0.171   0.446 -0.1849  1.3848 -0.7669
 1451SOL     OW14821   0.143   1.719   1.816  0.2162 -0.0826 -0.1327
 1451SOL    HW114822   0.212   1.673   1.871  0.1339  0.5357  0.4979
 1451SOL    HW214823   0.148   1.687   1.722  1.0455 -0.3896  0.0165
 1452SOL     OW14824   9.714   9.888   2.882  0.4195  0.5098  0.0713
 1452SOL    HW114825   9.746   9.869   2.975 -0.1436 -0.4314  0.0837
 1452SOL    HW214826   9.614   9.898   2.882  0.6349  3.0927 -0.0193
 1453SOL     OW14827   2.738   8.292   2.787  0.3599 -0.1027  0.7088
 1453SOL    HW114828   2.669   8.348   2.835 -0.3848  0.5155 -1.0382
 1453SOL    HW214829   2.720   8.195   2.805 -1.5961  0.0027 -0.5287
 1454SOL     OW14830   2.453   9.338   0.031  0.0969  0.0111  0.2621
 1454SOL    HW114831   2.418   9.353   0.124  0.1681 -1.8799  0.6066
 1454SOL    HW214832   2.454   9.425  -0.018 -0.7050  0.8947  1.7669
 1455SOL     OW14833   0.679   7.988   3.254  0.7411  0.6933  0.1008
 1455SOL    HW114834   0.619   7.995   3.334  1.4090  1.9420  0.5044
 1455SOL    HW214835   0.773   7.972   3.285  0.9100  0.5984 -0.4634
 1456SOL     OW14836   4.181   1.292   1.429  0.2796  0.2786 -0.1515
 1456SOL    HW114837   4.150   1.331   1.343  0.5037 -0.5627 -0.6174
 1456SOL    HW214838   4.251   1.223   1.412 -1.0282 -1.2601  0.5555
 1457SOL     OW14839   9.192   5.253   0.473 -0.3250  0.0924  0.4498
 1457SOL    HW114840   9.282   5.296   0.480 -0.2681  0.1557 -0.6080
 1457SOL    HW214841   9.203   5.154   0.463 -0.4381 -0.1159  2.2037
 1458SOL     OW14842   8.582   8.943   0.315  0.8217  0.8438  0.1041
 1458SOL    HW114843   8.517   9.013   0.287 -1.3870 -1.4308 -0.6822
 1458SOL    HW214844   8.556   8.855   0.275  2.7456 -0.7069  2.0878
 1459SOL     OW14845   0.323   3.374   1.189 -0.5891 -0.4403  0.1402
 1459SOL    HW114846   0.311   3.463   1.146 -0.9748  0.4703  2.0969
 1459SOL    HW214847   0.233   3.335   1.210 -0.4388 -1.6294 -1.3803
 1460SOL     OW14848   2.520   6.378   3.433 -0.0274 -0.6489 -0.6410
 1460SOL    HW114849   2.498   6.472   3.457 -2.3015 -1.3063 -0.0631
 1460SOL    HW214850   2.571   6.376   3.347 -0.3300  1.0793 -0.8683
 1461SOL     OW14851   8.660   5.923   3.206 -0.3457 -0.0478  0.5622
 1461SOL    HW114852   8.743   5.867   3.200 -1.0825 -1.2558  1.5080
 1461SOL    HW214853   8.685   6.020   3.199  1.0783 -0.4293  0.2318
 1462SOL     OW14854   9.226   6.068   1.328  0.2007 -0.1298 -0.0671
 1462SOL    HW114855   9.260   5.976   1.306  0.1504 -0.2201  0.2434
 1462SOL    HW214856   9.259   6.132   1.258  1.8813 -0.0320  0.7732
 1463SOL     OW14857   9.683   9.177   2.494  0.2711  0.3882  0.0059
 1463SOL    HW114858   9.590   9.192   2.527  0.2147  0.2881 -0.1097
 1463SOL    HW214859   9.713   9.256   2.441  0.9970  1.3321  1.7552
 1464SOL     OW14860   0.917   9.108   1.511  0.2193  0.0925 -0.2475
 1464SOL    HW114861   0.996   9.062   1.471 -0.2180  0.3670 -1.4637
 1464SOL    HW214862   0.947   9.193   1.555  0.7744 -0.4563  0.4517
 1465SOL     OW14863   9.249   1.613   2.426 -0.5149  0.6523 -0.1442
 1465SOL    HW114864   9.195   1.563   2.358 -2.0695  0.5262  1.1449
 1465SOL    HW214865   9.193   1.687   2.464  0.5282  1.0655  0.6008
 1466SOL     OW14866   9.212   6.177   2.433  0.7580  0.3119 -0.1280
 1466SOL    HW114867   9.175   6.206   2.521  2.0442  2.5460 -0.2855
 1466SOL    HW214868   9.137   6.157   2.370 -0.1628 -0.2153  1.1171
 1467SOL     OW14869   9.887   3.856   0.269  0.8114 -0.7759  0.3314
 1467SOL    HW114870   9.987   3.860   0.268  0.8642 -1.5076  1.5581
 1467SOL    HW214871   9.856   3.788   0.202  0.9829  1.6298 -2.2573
 1468SOL     OW14872   0.586   6.101   1.009 -0.0094 -0.2548 -0.6665
 1468SOL    HW114873   0.491   6.072   1.001 -0.7002  1.4059  1.3051
 1468SOL    HW214874   0.604   6.177   0.946  0.0590 -0.6028 -1.0759
 1469SOL     OW14875   6.247   8.001   2.745  0.7933 -0.1373 -0.5233
 1469SOL    HW114876   6.198   8.077   2.704  2.7405  1.0717 -0.6522
 1469SOL    HW214877   6.273   8.025   2.839 -0.4030 -1.4687  0.1766
 1470SOL     OW14878   8.505   7.938   2.621  0.1207  0.2429 -0.0991
 1470SOL    HW114879   8.455   7.945   2.534 -1.7041 -0.2425  0.8794
 1470SOL    HW214880   8.576   8.008   2.624 -0.0887  0.5504 -1.8036
 1471SOL     OW14881   9.922   2.171   0.463 -0.1010 -0.4859 -1.0110
 1471SOL    HW114882   9.968   2.088   0.494  0.6360 -0.3702 -1.7886
 1471SOL    HW214883   9.844   2.190   0.523  0.0459 -1.4390 -0.5101
 1472SOL     OW14884   8.201   9.216   2.990 -0.3362 -0.0832  0.1757
 1472SOL    HW114885   8.230   9.254   2.902  0.6850 -0.4801  0.3281
 1472SOL    HW214886   8.103   9.197   2.988  0.0379 -2.0756 -1.6301
 1473SOL     OW14887   4.544   3.744   0.939  0.2895 -0.4056  0.4794
 1473SOL    HW114888   4.499   3.819   0.989 -0.4702  0.0302 -0.8442
 1473SOL    HW214889   4.513   3.744   0.844  1.3210 -1.5705  0.1359
 1474SOL     OW14890   0.110   7.195   2.371  0.4143  0.7556  0.0284
 1474SOL    HW114891   0.142   7.229   2.282  2.0630  0.5168  0.5274
 1474SOL    HW214892   0.128   7.097   2.378  1.9365  1.1202  1.3436
 1475SOL     OW14893   9.218   4.818   3.080 -0.2937 -0.4499 -0.5782
 1475SOL    HW114894   9.154   4.752   3.120 -1.2033  1.0567  0.5263
 1475SOL    HW214895   9.290   4.769   3.031 -1.3287 -2.2327 -0.3802
 1476SOL     OW14896   9.080   6.858   1.515  0.4739 -0.2927  0.4157
 1476SOL    HW114897   9.026   6.929   1.469 -1.9827 -1.9430  0.6372
 1476SOL    HW214898   9.170   6.853   1.474 -0.6733  0.2619 -2.2657
 1477SOL     OW14899   1.410   4.307   0.510 -0.1805  0.6141 -0.6674
 1477SOL    HW114900   1.315   4.337   0.501 -0.0756  1.0595 -0.2697
 1477SOL    HW214901   1.446   4.337   0.598  0.8599  1.8803 -1.5219
 1478SOL     OW14902   0.266   7.363   1.935  0.2304 -0.0025  0.2650
 1478SOL    HW114903   0.259   7.382   1.837  2.3075  1.4174  0.3506
 1478SOL    HW214904   0.361   7.372   1.964 -0.4008 -0.1269  2.4762
 1479SOL     OW14905   8.021   7.785   3.227  0.6574 -0.4708  0.5113
 1479SOL    HW114906   8.042   7.827   3.316  0.4711  1.8091 -0.4896
 1479SOL    HW214907   7.927   7.806   3.202  1.5979  1.4293 -1.5760
 1480SOL     OW14908   4.916   1.044   3.145  0.1288 -0.5391 -0.0366
 1480SOL    HW114909   5.002   1.093   3.129  0.8237 -1.5178  0.6571
 1480SOL    HW214910   4.861   1.045   3.061  0.6672  0.3776 -0.3851
 1481SOL     OW14911   1.038   6.591   3.659  0.3169  0.3299  0.3102
 1481SOL    HW114912   0.944   6.599   3.692  0.0517 -1.0622 -0.0499
 1481SOL    HW214913   1.071   6.680   3.628 -1.4249  0.5471 -0.9676
 1482SOL     OW14914   1.322   8.874   1.786 -0.4644  0.4057 -0.6847
 1482SOL    HW114915   1.241   8.910   1.832  0.0487  1.3139 -0.4541
 1482SOL    HW214916   1.367   8.948   1.736  1.1129  0.3207  0.5381
 1483SOL     OW14917   3.370   9.814   1.839 -0.3928  0.1797 -0.2880
 1483SOL    HW114918   3.326   9.883   1.896  0.2466  0.8163 -0.5555
 1483SOL    HW214919   3.423   9.859   1.767 -0.4182 -0.5993 -0.7958
 1484SOL     OW14920   2.930   9.017   2.203  0.0457  0.8966  0.1164
 1484SOL    HW114921   2.923   9.025   2.302 -0.7955 -1.2252  0.2618
 1484SOL    HW214922   3.023   8.992   2.178 -0.0122  0.3095  0.4763
 1485SOL     OW14923   1.599   6.106   2.880 -0.5579  0.1470  0.3355
 1485SOL    HW114924   1.650   6.095   2.965 -1.0638  0.2124  0.6480
 1485SOL    HW214925   1.519   6.045   2.881  0.7410 -1.6351 -1.1005
 1486SOL     OW14926   9.964   9.770   3.532  0.1499  0.2493 -0.1481
 1486SOL    HW114927   9.931   9.734   3.445  1.9576  0.2234 -0.8386
 1486SOL    HW214928   9.892   9.826   3.574 -1.3323 -1.0817 -0.8390
 1487SOL     OW14929   9.715   8.945   1.927 -0.0329 -0.4182  0.1269
 1487SOL    HW114930   9.620   8.914   1.918 -0.5093  0.9361  0.2952
 1487SOL    HW214931   9.741   8.996   1.845  0.6608 -1.0719 -0.0601
 1488SOL     OW14932   1.452   4.013   2.709 -0.2976  0.2208 -0.2009
 1488SOL    HW114933   1.535   3.987   2.660 -0.7906 -0.7647 -0.5393
 1488SOL    HW214934   1.451   4.112   2.725  0.9324  0.2298 -0.1963
 1489SOL     OW14935   5.253   3.673   1.046  0.3584  0.3582 -0.6379
 1489SOL    HW114936   5.260   3.608   1.122  2.0648 -0.5063 -1.5022
 1489SOL    HW214937   5.333   3.662   0.986  0.0472  2.4240 -1.4550
 1490SOL     OW14938   8.567   9.747   2.692  0.3523  0.2733  0.1904
 1490SOL    HW114939   8.499   9.715   2.626 -0.6997  0.2670  1.2765
 1490SOL    HW214940   8.657   9.748   2.648 -0.5227  1.4785 -1.6427
 1491SOL     OW14941   3.537   4.630   2.860 -0.1622 -0.0251 -0.1406
 1491SOL    HW114942   3.502   4.556   2.803  0.1923  0.4561 -1.0057
 1491SOL    HW214943   3.625   4.603   2.899  1.1412  0.7793 -2.3617
 1492SOL     OW14944   3.809   8.400   0.023  0.3833 -0.1044 -0.3747
 1492SOL    HW114945   3.763   8.437   0.103  0.6919  0.2360 -0.3495
 1492SOL    HW214946   3.806   8.468  -0.051  0.1434 -0.3963 -0.6296
 1493SOL     OW14947   7.267   9.557   0.337  0.0557 -0.8221 -0.5783
 1493SOL    HW114948   7.196   9.587   0.401 -0.3887 -0.7394 -1.1019
 1493SOL    HW214949   7.325   9.489   0.381  0.3951 -0.0029  0.2578
 1494SOL     OW14950   0.859   6.853   2.543 -0.2581 -0.0400  0.1832
 1494SOL    HW114951   0.952   6.842   2.578 -0.2407 -0.4779  0.0073
 1494SOL    HW214952   0.833   6.772   2.490 -0.9953 -0.2232  0.8181
 1495SOL     OW14953   5.441   7.768   2.328 -0.1814  0.1441  0.2266
 1495SOL    HW114954   5.481   7.677   2.316  0.4396  0.4355  0.0487
 1495SOL    HW214955   5.463   7.802   2.419  1.6736  1.1199 -0.5556
 1496SOL     OW14956   2.957   2.233   1.002 -0.6946 -0.2823  0.3187
 1496SOL    HW114957   2.909   2.205   0.919  4.0795 -1.6002 -2.1550
 1496SOL    HW214958   2.965   2.154   1.063 -0.0008 -0.5602 -0.1282
 1497SOL     OW14959   2.603   2.281   0.011 -0.2878  0.1145  0.0159
 1497SOL    HW114960   2.559   2.287   0.101  1.6411 -1.2689  1.0860
 1497SOL    HW214961   2.691   2.234   0.020  0.3701  0.8110 -2.4506
 1498SOL     OW14962   0.801   1.221   0.614 -0.0111 -0.4580 -0.3574
 1498SOL    HW114963   0.762   1.172   0.536  0.1862 -0.2745 -0.5706
 1498SOL    HW214964   0.864   1.160   0.663 -1.1441 -1.0040  0.4340
 1499SOL     OW14965   2.537   5.127   1.148 -0.4554 -0.2117  0.2629
 1499SOL    HW114966   2.544   5.222   1.180 -0.3933  0.2693 -1.1467
 1499SOL    HW214967   2.467   5.121   1.077  0.8306 -0.8443 -0.9780
 1500SOL     OW14968   7.866   0.919   2.314  0.1819  0.4623  0.6574
 1500SOL    HW114969   7.915   0.925   2.401 -0.1926 -1.4708  1.0205
 1500SOL    HW214970   7.817   0.832   2.309 -2.0244  1.7298 -0.3274
 1501SOL     OW14971   7.739   1.787   2.779  0.2560 -0.0317  0.2250
 1501SOL    HW114972   7.771   1.873   2.739 -2.0155 -0.8737 -3.5738
 1501SOL    HW214973   7.677   1.806   2.855  2.0824  1.6024  1.3663
 1502SOL     OW14974   4.574   4.556   1.620 -0.2808 -0.1681 -0.0858
 1502SOL    HW114975   4.641   4.513   1.559  1.0058  1.0810  0.4113
 1502SOL    HW214976   4.612   4.563   1.712 -0.6467  1.5527 -0.0477
 1503SOL     OW14977   2.202   3.616   0.299 -0.7515  0.0556  0.4105
 1503SOL    HW114978   2.289   3.568   0.302 -0.0212  1.1439 -2.2966
 1503SOL    HW214979   2.218   3.713   0.281 -2.5885 -0.0336 -1.9384
 1504SOL     OW14980   9.885   8.247   1.527 -0.6349 -0.1934 -0.5211
 1504SOL    HW114981   9.949   8.301   1.583  0.4714 -0.0103 -1.9500
 1504SOL    HW214982   9.817   8.205   1.587 -0.8282  1.8447  0.7570
 1505SOL     OW14983   8.394   7.015   1.983 -0.2880  0.3816 -0.0073
 1505SOL    HW114984   8.423   7.031   1.888 -2.9156  2.6477 -0.5038
 1505SOL    HW214985   8.395   6.917   2.003  0.9881 -0.0645 -2.1470
 1506SOL     OW14986   3.151   8.154   3.726 -0.2914  0.3930  0.5508
 1506SOL    HW114987   3.060   8.188   3.752 -0.9052 -1.5138  0.9896
 1506SOL    HW214988   3.190   8.104   3.803  0.1979 -0.6695 -0.3814
 1507SOL     OW14989   1.392   1.775   1.506 -0.2167 -0.0788  0.2283
 1507SOL    HW114990   1.366   1.703   1.442 -0.3999  1.0327 -0.9631
 1507SOL    HW214991   1.310   1.822   1.539  0.0418  1.3538 -1.1016
 1508SOL     OW14992   2.170   1.231   0.478  0.1523 -0.3063 -0.3961
 1508SOL    HW114993   2.096   1.285   0.519  0.6743  0.2668 -0.1978
 1508SOL    HW214994   2.190   1.152   0.536 -1.4569 -1.4289 -1.3095
 1509SOL     OW14995   3.411   1.341   0.419  0.1863  0.1012  0.3066
 1509SOL    HW114996   3.329   1.391   0.447  0.3977  0.4120  0.3778
 1509SOL    HW214997   3.473   1.333   0.496  1.3285  2.0697 -0.3494
 1510SOL     OW14998   2.148   4.422   1.786  0.3241  0.2334  0.0961
 1510SOL    HW114999   2.118   4.492   1.851 -0.4911 -0.0856  0.0620
 1510SOL    HW215000   2.127   4.452   1.693  2.6083  1.2523 -0.1209
 1511SOL     OW15001   4.860   7.977   0.169 -0.1155 -0.4806 -0.5046
 1511SOL    HW115002   4.791   8.047   0.188 -0.7844 -1.0371 -0.8594
 1511SOL    HW215003   4.934   8.017   0.116 -1.0221 -0.2785 -1.6602
 1512SOL     OW15004   8.671   6.002   2.507 -0.7968  0.4837  0.4802
 1512SOL    HW115005   8.620   5.939   2.449 -2.5607  1.5850  0.7911
 1512SOL    HW215006   8.704   6.079   2.452 -0.1145  0.1525  0.4232
 1513SOL     OW15007   8.443   2.499   3.217 -0.3599 -0.4806 -0.1321
 1513SOL    HW115008   8.375   2.475   3.147 -0.1008  0.6612 -0.7796
 1513SOL    HW215009   8.535   2.488   3.179 -0.1455 -2.4712  0.8888
 1514SOL     OW15010   8.315   6.497   2.256  0.0680  0.3134 -0.1916
 1514SOL    HW115011   8.311   6.421   2.190 -0.5925  0.2203 -0.0506
 1514SOL    HW215012   8.226   6.544   2.258 -0.0622  0.0341  0.9638
 1515SOL     OW15013   0.793   7.429   0.284 -0.2211  0.3682 -0.5032
 1515SOL    HW115014   0.828   7.450   0.192 -0.6311 -2.0447 -1.2576
 1515SOL    HW215015   0.792   7.512   0.339 -0.3650  1.9502 -2.8112
 1516SOL     OW15016   7.367   2.291   0.834  0.2148 -0.2032  0.2645
 1516SOL    HW115017   7.388   2.228   0.759 -0.2240 -0.5934  0.4695
 1516SOL    HW215018   7.275   2.327   0.822  0.6705  0.8283 -0.1517
 1517SOL     OW15019   2.841   5.658   2.018 -0.2790 -0.0616  0.4056
 1517SOL    HW115020   2.820   5.745   2.064 -0.1768 -0.2234  0.7584
 1517SOL    HW215021   2.757   5.620   1.980 -0.0987  0.9080 -1.0025
 1518SOL     OW15022   9.632   3.664   0.701 -0.0051 -0.4389  0.1609
 1518SOL    HW115023   9.625   3.565   0.718  0.7886 -0.4532  0.4394
 1518SOL    HW215024   9.644   3.679   0.603 -2.0593 -0.4998 -0.1233
 1519SOL     OW15025   8.931   6.226   0.047 -0.4574 -0.0213 -0.7878
 1519SOL    HW115026   8.947   6.129   0.064  0.1460 -0.3663 -3.1478
 1519SOL    HW215027   8.965   6.250  -0.044  0.6394  2.7150  0.3043
 1520SOL     OW15028   2.505   6.273   2.277 -0.7081 -0.0264 -0.5082
 1520SOL    HW115029   2.595   6.304   2.306 -1.0696 -0.3125  1.0120
 1520SOL    HW215030   2.435   6.335   2.313 -1.2390 -0.9504  0.1001
 1521SOL     OW15031   7.561   8.806   1.834  0.4310 -0.1413  0.1742
 1521SOL    HW115032   7.484   8.768   1.885 -1.3668  0.8075 -1.7375
 1521SOL    HW215033   7.623   8.852   1.897 -0.6310 -0.8046  1.7489
 1522SOL     OW15034   9.319   9.033   0.680 -0.3572 -0.2610  0.0798
 1522SOL    HW115035   9.283   8.944   0.710 -0.4965 -0.3218 -0.2601
 1522SOL    HW215036   9.305   9.042   0.581  1.8475 -0.9050 -0.3228
 1523SOL     OW15037   7.447   9.553   1.022  0.2944 -0.2390  0.6319
 1523SOL    HW115038   7.401   9.469   0.993  0.9972 -0.4695  0.1840
 1523SOL    HW215039   7.457   9.615   0.944 -0.5546  0.4209  1.0381
 1524SOL     OW15040   2.023   2.516   3.405  0.5901 -0.3980 -0.6140
 1524SOL    HW115041   2.078   2.440   3.370  1.9892  0.2964  0.0023
 1524SOL    HW215042   1.955   2.542   3.337  1.1205 -1.1991 -1.4696
 1525SOL     OW15043   2.620   6.582   1.412 -0.0109 -0.1576 -0.1806
 1525SOL    HW115044   2.537   6.632   1.385 -0.5426 -1.4035 -0.8917
 1525SOL    HW215045   2.610   6.550   1.506  0.2185  0.8298  0.1847
 1526SOL     OW15046   1.437   1.085   0.589 -0.6119  0.1935 -0.1298
 1526SOL    HW115047   1.410   0.988   0.595  1.3753 -0.3317  0.6585
 1526SOL    HW215048   1.367   1.141   0.632 -0.1946 -1.1845  2.4219
 1527SOL     OW15049   0.360   7.425   1.243  0.2641  0.1192  0.1306
 1527SOL    HW115050   0.329   7.506   1.194 -1.5740 -0.1492  0.8135
 1527SOL    HW215051   0.449   7.397   1.208 -0.2970  0.8498 -1.9530
 1528SOL     OW15052   3.402   1.996   2.629 -0.1650  0.0388  0.1661
 1528SOL    HW115053   3.442   2.005   2.538  0.5298  0.2671  0.4909
 1528SOL    HW215054   3.473   1.967   2.693 -0.7793 -0.6831  0.5226
 1529SOL     OW15055   2.326   2.938   3.895  0.2393  0.3997  0.0148
 1529SOL    HW115056   2.412   2.945   3.844 -0.7624  2.1380 -1.5135
 1529SOL    HW215057   2.298   2.842   3.900  1.7664 -0.0741 -0.3350
 1530SOL     OW15058   8.217   6.755   0.091 -0.1261 -0.1156  0.1588
 1530SOL    HW115059   8.209   6.853   0.106 -2.0120 -0.5808  2.6850
 1530SOL    HW215060   8.128   6.712   0.108  1.6975 -2.7699  3.7079
 1531SOL     OW15061   1.096   7.253   3.834 -0.0874 -0.0099 -0.3325
 1531SOL    HW115062   1.167   7.280   3.769  1.6493 -1.8103  0.7600
 1531SOL    HW215063   1.101   7.311   3.915 -0.1626  0.1808 -0.4655
 1532SOL     OW15064   0.656   9.638   3.413  0.1667 -0.0057  0.2324
 1532SOL    HW115065   0.574   9.678   3.454 -1.1669 -1.5741 -0.8202
 1532SOL    HW215066   0.641   9.624   3.315  2.0148  0.4732 -0.1364
 1533SOL     OW15067   1.453   1.238   1.562 -0.6021  0.1196 -0.2442
 1533SOL    HW115068   1.541   1.267   1.523  0.4082  1.1157  2.6125
 1533SOL    HW215069   1.378   1.277   1.508  0.6919 -0.5490 -2.5875
 1534SOL     OW15070   7.014   8.766   2.940  0.3209  0.0519 -0.1773
 1534SOL    HW115071   7.049   8.675   2.918 -0.4258  0.0694 -1.5499
 1534SOL    HW215072   6.914   8.763   2.941  0.2919  0.8838 -0.3427
 1535SOL     OW15073   8.539   2.044   1.143 -0.5444 -0.6500 -0.2169
 1535SOL    HW115074   8.533   1.951   1.106 -0.5257  0.0944 -2.1610
 1535SOL    HW215075   8.634   2.065   1.166 -0.6708 -1.3996  1.0333
 1536SOL     OW15076   3.981   2.276   0.756  0.1335 -0.0627 -0.3521
 1536SOL    HW115077   3.894   2.269   0.804  0.9826  0.2029  1.2563
 1536SOL    HW215078   4.010   2.372   0.753  0.9720 -0.2996  0.2011
 1537SOL     OW15079   9.254   2.085   1.475 -0.2432  0.1403 -0.3116
 1537SOL    HW115080   9.209   2.001   1.444  0.3812 -0.4159  0.2468
 1537SOL    HW215081   9.328   2.108   1.413  1.4947 -1.3927  1.0910
 1538SOL     OW15082   3.065   6.430   0.496  0.3823 -0.2566 -0.4395
 1538SOL    HW115083   3.000   6.354   0.504 -0.0929  0.2536  0.6610
 1538SOL    HW215084   3.095   6.438   0.401 -1.3279 -0.3767 -1.0217
 1539SOL     OW15085   8.213   8.694   3.244 -0.3277  0.5071  0.3868
 1539SOL    HW115086   8.156   8.715   3.164 -1.5078  4.0578  2.0578
 1539SOL    HW215087   8.194   8.600   3.274 -0.7242 -0.4777 -2.7292
 1540SOL     OW15088   3.261   2.312   0.418 -0.3242 -0.7249 -0.9198
 1540SOL    HW115089   3.233   2.377   0.489 -0.2745 -0.4481 -1.1572
 1540SOL    HW215090   3.252   2.219   0.454  0.9742 -0.5405 -0.0881
 1541SOL     OW15091   2.353   7.116   3.602  1.1592  0.2166 -0.4952
 1541SOL    HW115092   2.402   7.107   3.689 -0.2892 -1.0636  0.2231
 1541SOL    HW215093   2.419   7.133   3.529  2.7892 -2.2121  0.3174
 1542SOL     OW15094   8.430   8.939   1.643 -0.4816  0.2279  0.3191
 1542SOL    HW115095   8.503   8.994   1.683  0.0766  1.5315 -2.3890
 1542SOL    HW215096   8.343   8.986   1.652 -0.6875 -0.4238  1.7956
 1543SOL     OW15097   9.276   8.682   1.023  0.3914 -0.0713  0.4837
 1543SOL    HW115098   9.332   8.634   0.956  0.4504 -0.6984  0.9804
 1543SOL    HW215099   9.182   8.689   0.990  0.3047 -0.8328  0.5539
 1544SOL     OW15100   1.406   3.382   1.433 -0.8726 -0.4267  0.2099
 1544SOL    HW115101   1.409   3.288   1.466  0.0236  0.3372  2.3739
 1544SOL    HW215102   1.492   3.428   1.455 -1.2753  0.9008 -0.8810
 1545SOL     OW15103   8.020   5.137   0.468  0.1620 -0.4561  0.5382
 1545SOL    HW115104   8.110   5.178   0.453 -0.0924 -0.2755 -0.5352
 1545SOL    HW215105   7.949   5.206   0.453 -0.2056 -0.9159  0.1561
 1546SOL     OW15106   1.500   3.981   1.592 -0.0444 -0.6894 -0.0901
 1546SOL    HW115107   1.469   4.023   1.506  1.2774 -0.5276 -0.5070
 1546SOL    HW215108   1.433   3.914   1.623  0.2058 -1.8897 -2.0931
 1547SOL     OW15109   1.216   5.296   1.751 -0.2744  0.0995  0.4715
 1547SOL    HW115110   1.150   5.359   1.793 -0.4927  1.0851 -1.3209
 1547SOL    HW215111   1.307   5.336   1.755 -0.4241  0.5750 -0.7287
 1548SOL     OW15112   2.353   0.630   2.333  0.4350 -0.0901 -0.0528
 1548SOL    HW115113   2.312   0.556   2.387 -0.6827  1.1036  0.7641
 1548SOL    HW215114   2.441   0.656   2.372  0.4844 -0.4881  0.0970
 1549SOL     OW15115   0.105   1.191   1.763  0.0943 -0.5075  0.0454
 1549SOL    HW115116   0.116   1.258   1.689 -2.1220 -0.8589 -0.6649
 1549SOL    HW215117   0.172   1.118   1.753  1.7405  0.9792  0.1120
 1550SOL     OW15118   2.869   0.848   1.219  0.4157 -0.1644 -0.0729
 1550SOL    HW115119   2.809   0.808   1.288 -1.4071  0.9542 -0.9488
 1550SOL    HW215120   2.908   0.776   1.163 -3.6061 -0.8062 -2.2763
 1551SOL     OW15121   3.455   3.653   0.122 -0.5082 -0.0926  0.2855
 1551SOL    HW115122   3.411   3.599   0.050 -0.8492 -0.6521  0.9000
 1551SOL    HW215123   3.448   3.603   0.209 -0.9746  1.0330  0.8957
 1552SOL     OW15124   2.198   5.311   3.480  0.0671 -0.3501  0.1335
 1552SOL    HW115125   2.193   5.405   3.515 -0.0428 -0.2576 -0.1327
 1552SOL    HW215126   2.261   5.308   3.403  1.4808 -0.8358  1.2746
 1553SOL     OW15127   7.366   2.661   0.535 -0.2212 -0.6355  0.2213
 1553SOL    HW115128   7.286   2.682   0.478  0.6894 -0.8173 -1.1536
 1553SOL    HW215129   7.417   2.585   0.494  1.6995  0.7235  0.0278
 1554SOL     OW15130   6.982   9.181   1.727  0.1328 -0.2112  0.0313
 1554SOL    HW115131   6.991   9.086   1.758  0.3058 -0.3793 -0.5173
 1554SOL    HW215132   6.918   9.230   1.786 -0.9522 -1.0185 -0.4550
 1555SOL     OW15133   9.867   9.477   3.801 -0.1619  0.1253 -0.0491
 1555SOL    HW115134   9.909   9.533   3.872  0.3156  1.5297 -1.4071
 1555SOL    HW215135   9.937   9.429   3.749 -0.5189 -1.0288  0.5131
 1556SOL     OW15136   9.240   1.561   0.008 -0.3684 -0.3911  0.2287
 1556SOL    HW115137   9.187   1.641  -0.021 -1.0058 -0.0281  2.3534
 1556SOL    HW215138   9.338   1.580  -0.004 -0.5952 -0.2381 -1.5904
 1557SOL     OW15139   0.132   2.616   3.698 -0.2977 -0.0231  0.1992
 1557SOL    HW115140   0.072   2.593   3.775 -2.8472 -0.0142 -1.7041
 1557SOL    HW215141   0.177   2.533   3.665 -0.5519 -0.3137  0.5752
 1558SOL     OW15142   8.243   8.611   1.346 -0.8734  0.4601  0.0679
 1558SOL    HW115143   8.195   8.548   1.285 -2.4064  1.6422  0.0219
 1558SOL    HW215144   8.330   8.638   1.304 -0.1971 -1.5859  0.0895
 1559SOL     OW15145   3.365   3.296   1.697  0.5586 -0.0056 -0.1914
 1559SOL    HW115146   3.426   3.217   1.702 -1.9657 -2.2094 -2.3403
 1559SOL    HW215147   3.380   3.344   1.611 -0.2970 -0.2236 -0.4710
 1560SOL     OW15148   2.399   0.776   3.561  0.2164  0.2492  0.2249
 1560SOL    HW115149   2.484   0.724   3.558 -0.3340 -0.6674  0.2934
 1560SOL    HW215150   2.352   0.769   3.472  1.4885  2.9491 -0.7222
 1561SOL     OW15151   0.794   6.485   0.887  0.1953  0.2073  0.5072
 1561SOL    HW115152   0.818   6.526   0.975 -0.4380  1.3755  0.1429
 1561SOL    HW215153   0.862   6.509   0.819  0.1802  0.0942  0.4524
 1562SOL     OW15154   2.845   5.322   0.593  0.4156 -0.3000 -0.0060
 1562SOL    HW115155   2.900   5.312   0.676 -0.1081  2.7993  0.7745
 1562SOL    HW215156   2.749   5.300   0.615  0.1626  1.1677  0.3980
 1563SOL     OW15157   0.070   7.336   3.008 -0.5090  0.5181  0.0318
 1563SOL    HW115158   0.152   7.382   3.044 -1.9091  2.3633  0.9318
 1563SOL    HW215159   0.083   7.318   2.911  0.9906  0.7758  0.1724
 1564SOL     OW15160   3.267   3.316   2.478 -0.1411 -0.0126  0.3808
 1564SOL    HW115161   3.225   3.229   2.503 -0.0571 -0.3536 -0.6442
 1564SOL    HW215162   3.269   3.325   2.378  1.4168  0.3917  0.4368
 1565SOL     OW15163   1.948   3.735   1.234  0.2518  0.3393 -0.6684
 1565SOL    HW115164   1.982   3.679   1.309  0.7567  0.6678 -0.6483
 1565SOL    HW215165   1.899   3.814   1.272  1.7752  1.3067 -0.6397
 1566SOL     OW15166   9.529   7.357   3.002  0.4746 -0.6096  0.0462
 1566SOL    HW115167   9.617   7.340   3.046  1.1436  1.7420 -0.3256
 1566SOL    HW215168   9.542   7.366   2.903  0.0030  0.8533  0.1055
 1567SOL     OW15169   2.855   8.629   2.288  0.1720  0.5221 -0.0021
 1567SOL    HW115170   2.780   8.684   2.324  0.7374  0.9865  0.4578
 1567SOL    HW215171   2.892   8.571   2.360 -1.0382 -1.1844 -0.6995
 1568SOL     OW15172   3.505   9.164   0.679 -0.2151 -0.5378 -0.4012
 1568SOL    HW115173   3.559   9.218   0.614  0.1817  0.1371  0.4881
 1568SOL    HW215174   3.486   9.218   0.761 -0.3826 -1.5083  0.2153
 1569SOL     OW15175   0.150   4.014   0.524  0.0373 -0.3457 -0.1770
 1569SOL    HW115176   0.206   3.963   0.589 -0.1624  0.3181  0.5245
 1569SOL    HW215177   0.055   4.016   0.557 -0.2063 -0.6364 -0.8624
 1570SOL     OW15178   4.882   8.274   2.693 -0.3927 -0.4764  0.3918
 1570SOL    HW115179   4.959   8.243   2.636 -0.7099  1.1116 -0.9514
 1570SOL    HW215180   4.899   8.249   2.788  1.8615 -0.0749  0.1359
 1571SOL     OW15181   4.426   5.463   2.337 -0.1215  0.1966 -0.7883
 1571SOL    HW115182   4.411   5.486   2.241 -0.7401  1.8816 -0.3107
 1571SOL    HW215183   4.344   5.485   2.389  0.7290  0.7143  0.3641
 1572SOL     OW15184   8.315   7.893   3.924 -0.4826 -0.2716  0.1041
 1572SOL    HW115185   8.316   7.971   3.986  0.2196  0.0433 -0.2954
 1572SOL    HW215186   8.230   7.892   3.872 -1.3480 -0.8958  1.5201
 1573SOL     OW15187   2.456   7.590   2.748 -0.3051  0.3767  0.1723
 1573SOL    HW115188   2.495   7.522   2.809  0.1476 -0.3090 -0.8594
 1573SOL    HW215189   2.465   7.558   2.653 -1.7765  1.0078 -0.1958
 1574SOL     OW15190   1.801   9.418   2.820 -0.1976 -0.4065 -0.3644
 1574SOL    HW115191   1.822   9.507   2.861 -1.1484 -0.3072 -0.0914
 1574SOL    HW215192   1.881   9.358   2.829  0.0345  0.0273  0.5204
 1575SOL     OW15193   2.737   3.141   0.851 -0.1920 -0.2951 -0.1890
 1575SOL    HW115194   2.738   3.234   0.816 -1.4780  0.7054  2.3166
 1575SOL    HW215195   2.645   3.102   0.840 -0.0541 -0.7219  0.1474
 1576SOL     OW15196   0.266   6.575   0.782 -0.3941 -0.3876 -0.5694
 1576SOL    HW115197   0.178   6.608   0.748 -0.5898 -0.4926 -0.1644
 1576SOL    HW215198   0.324   6.653   0.806 -1.4095 -0.3404  1.8107
 1577SOL     OW15199   9.182   9.059   1.002  0.4714 -0.1807  0.0375
 1577SOL    HW115200   9.181   9.109   0.916 -1.7515  0.3847  0.3641
 1577SOL    HW215201   9.249   9.100   1.064  0.2374  1.0256 -0.4894
 1578SOL     OW15202   0.646   5.550   2.553  0.8363  0.0916  0.0682
 1578SOL    HW115203   0.665   5.567   2.650  0.9000  0.4715 -0.0102
 1578SOL    HW215204   0.583   5.619   2.519  0.0708 -0.5983  0.0742
 1579SOL     OW15205   3.633   8.586   0.198  0.0676 -0.0256 -0.1888
 1579SOL    HW115206   3.576   8.580   0.280 -0.2317 -2.9566 -0.5505
 1579SOL    HW215207   3.672   8.678   0.190 -2.8847  1.3991  1.2158
 1580SOL     OW15208   8.470   0.517   1.449 -0.0102  0.0734  0.0466
 1580SOL    HW115209   8.552   0.569   1.473 -1.0427  1.1081  1.4109
 1580SOL    HW215210   8.397   0.581   1.423 -0.3564 -0.8451 -1.3109
 1581SOL     OW15211   8.945   3.702   0.095  0.0335  0.2369 -0.3113
 1581SOL    HW115212   8.978   3.607   0.091  0.3826  0.3672 -0.5480
 1581SOL    HW215213   8.859   3.705   0.146  0.0067 -0.2125 -0.3251
 1582SOL     OW15214   3.740   4.258   1.736 -0.0298  0.3387  0.4847
 1582SOL    HW115215   3.706   4.342   1.779 -1.4614  0.2074 -0.3455
 1582SOL    HW215216   3.755   4.275   1.639  1.9509  0.2730  0.7649
 1583SOL     OW15217   9.929   7.063   2.623 -0.0715 -0.4034 -0.3664
 1583SOL    HW115218   9.836   7.053   2.658  0.5401 -2.1704  0.8348
 1583SOL    HW215219   9.934   7.023   2.531 -0.5595 -0.0474 -0.5515
 1584SOL     OW15220   5.915   9.184   2.061 -0.3699 -0.1985 -0.6004
 1584SOL    HW115221   5.932   9.091   2.029  0.1430  0.1608 -1.3751
 1584SOL    HW215222   5.979   9.205   2.136 -1.8586 -1.1895  0.9961
 1585SOL     OW15223   1.333   3.808   0.739 -0.3896 -0.3681  0.0993
 1585SOL    HW115224   1.258   3.867   0.710 -1.4091 -0.8522  1.6891
 1585SOL    HW215225   1.409   3.864   0.772 -0.3882  0.0979 -0.6742
 1586SOL     OW15226   6.187   8.503   2.124  0.3080 -0.5514  0.6319
 1586SOL    HW115227   6.236   8.529   2.207 -0.8915 -0.7086  1.4055
 1586SOL    HW215228   6.149   8.585   2.081  0.0500 -0.5827  0.8013
 1587SOL     OW15229   1.535   4.926   3.343 -0.0647 -0.1580 -0.3084
 1587SOL    HW115230   1.551   4.941   3.245  0.2253 -0.5957 -0.3289
 1587SOL    HW215231   1.520   5.013   3.388 -1.8239 -0.0569 -1.0370
 1588SOL     OW15232   1.618   7.413   3.306 -0.3964  0.0293 -0.0857
 1588SOL    HW115233   1.527   7.452   3.322 -0.6663 -0.2119 -1.0097
 1588SOL    HW215234   1.686   7.465   3.356 -0.9493  0.7197 -0.0489
 1589SOL     OW15235   8.720   2.808   2.910 -0.1266 -0.1643 -0.2804
 1589SOL    HW115236   8.780   2.744   2.959 -0.2183 -0.4177 -0.4957
 1589SOL    HW215237   8.744   2.808   2.813 -1.2735 -1.1847 -0.5706
 1590SOL     OW15238   8.489   6.962   2.775 -0.4145 -0.3837 -0.1027
 1590SOL    HW115239   8.460   6.880   2.823  0.0471  0.4205  1.5777
 1590SOL    HW215240   8.415   7.029   2.774 -0.3444 -0.3063 -0.3191
 1591SOL     OW15241   8.041   0.051   0.274 -0.1172  0.2484  0.1102
 1591SOL    HW115242   7.966   0.048   0.340  1.0860 -0.1647  1.4859
 1591SOL    HW215243   8.048   0.142   0.234 -0.9718  0.4482  0.4184
 1592SOL     OW15244   9.212   3.662   0.712  0.1083  0.4692  0.3674
 1592SOL    HW115245   9.297   3.662   0.765  0.8698  1.5686 -0.8435
 1592SOL    HW215246   9.214   3.736   0.645 -1.3524 -0.1636 -0.3955
 1593SOL     OW15247   9.430   3.623   1.361 -0.5599  0.3430 -0.0837
 1593SOL    HW115248   9.386   3.670   1.438  1.0744  0.7599  0.6231
 1593SOL    HW215249   9.489   3.687   1.313  2.0923 -1.0559  1.1903
 1594SOL     OW15250   2.396   2.753   0.155  0.1337 -0.5149  0.3090
 1594SOL    HW115251   2.491   2.762   0.124 -0.4782  1.2172 -1.1436
 1594SOL    HW215252   2.346   2.837   0.135 -1.5316 -1.1216  1.7560
 1595SOL     OW15253   0.452   7.274   2.692  0.1268 -0.3680 -0.1791
 1595SOL    HW115254   0.433   7.177   2.706  0.4306 -0.3363  0.4696
 1595SOL    HW215255   0.380   7.314   2.636  1.7309 -1.7304 -3.4136
 1596SOL     OW15256   3.055   4.426   3.676  0.1797 -0.0642 -0.1970
 1596SOL    HW115257   3.026   4.390   3.587  2.2534  1.0064 -1.3549
 1596SOL    HW215258   3.147   4.465   3.667 -0.4983  2.0933  1.9010
 1597SOL     OW15259   2.991   4.454   2.043  0.5199  0.2535  0.0869
 1597SOL    HW115260   3.028   4.385   2.106 -0.9269  0.4680  1.1901
 1597SOL    HW215261   3.063   4.483   1.980  0.9108 -3.0329 -1.0974
 1598SOL     OW15262   8.645   6.943   2.571  0.1213 -0.0314 -0.4644
 1598SOL    HW115263   8.600   6.958   2.659  0.6921 -2.3207  0.2318
 1598SOL    HW215264   8.579   6.956   2.497 -0.7132  0.4539  0.3580
 1599SOL     OW15265   1.395   8.601   3.265 -0.2328  0.1147  0.0233
 1599SOL    HW115266   1.430   8.634   3.177 -0.1748 -0.2539 -0.0943
 1599SOL    HW215267   1.304   8.638   3.281 -0.5378 -0.3818 -0.5252
 1600SOL     OW15268   0.853   6.384   3.515  0.5633 -0.0022 -0.0378
 1600SOL    HW115269   0.914   6.309   3.540  1.7349  0.6577 -0.8524
 1600SOL    HW215270   0.906   6.456   3.470 -0.1615  2.2385  2.5456
 1601SOL     OW15271   8.457   9.743   3.100 -0.0092  0.1813 -0.1122
 1601SOL    HW115272   8.371   9.746   3.050  0.1722 -1.8951 -0.5928
 1601SOL    HW215273   8.534   9.753   3.036  0.1321  0.5729  0.1219
 1602SOL     OW15274   2.301   3.631   2.239 -0.2355 -0.5245  0.5167
 1602SOL    HW115275   2.342   3.700   2.180 -0.9460 -0.7503 -0.2534
 1602SOL    HW215276   2.232   3.580   2.188 -0.0664 -1.4794  1.2155
 1603SOL     OW15277   5.112   1.294   2.028 -0.1353 -0.4360  0.5012
 1603SOL    HW115278   5.042   1.316   2.097 -2.9022  0.4181 -2.4110
 1603SOL    HW215279   5.195   1.345   2.048 -0.3495 -1.2830  3.9489
 1604SOL     OW15280   7.319   9.917   1.728  0.5573  0.0063 -0.2997
 1604SOL    HW115281   7.322  10.016   1.741  2.1362 -0.2183  1.1840
 1604SOL    HW215282   7.248   9.877   1.786 -0.5645  0.3276 -1.4280
 1605SOL     OW15283   0.003   8.760   3.506  0.4206  0.1336  0.5167
 1605SOL    HW115284   0.008   8.859   3.521  0.8751  0.5984 -2.3633
 1605SOL    HW215285  -0.080   8.724   3.548 -0.0633  1.8352  1.0862
 1606SOL     OW15286   1.652   2.849   3.056  0.0781 -0.3221 -0.0867
 1606SOL    HW115287   1.579   2.916   3.037  2.4111  1.9941 -1.1945
 1606SOL    HW215288   1.665   2.842   3.155 -1.1282 -0.1660  0.0912
 1607SOL     OW15289   8.677   1.031   0.530 -0.4367  0.3060  0.3954
 1607SOL    HW115290   8.754   1.088   0.560 -0.5102  0.6717 -0.1100
 1607SOL    HW215291   8.711   0.940   0.506 -0.2357  0.3131  0.6454
 1608SOL     OW15292   4.396   5.304   2.615 -0.0402 -0.0988  0.2299
 1608SOL    HW115293   4.327   5.356   2.564 -0.4077 -0.4588  0.3509
 1608SOL    HW215294   4.352   5.257   2.692 -0.0665 -2.1152 -0.9853
 1609SOL     OW15295   1.091   6.124   0.415  0.0422 -0.1429  0.0562
 1609SOL    HW115296   1.070   6.207   0.467 -0.0906  0.0022 -0.2252
 1609SOL    HW215297   1.075   6.044   0.472 -0.1531  0.0158  0.2254
 1610SOL     OW15298   3.894   9.297   1.701 -0.7226 -0.3212  0.0024
 1610SOL    HW115299   3.830   9.366   1.736  1.3531  3.0749 -2.6023
 1610SOL    HW215300   3.854   9.254   1.620 -1.1256 -0.6279  0.3631
 1611SOL     OW15301   7.788   9.897   3.104  0.2260  0.8623 -0.3006
 1611SOL    HW115302   7.802   9.804   3.072 -0.7615  0.5375  0.1956
 1611SOL    HW215303   7.862   9.955   3.071  1.7128 -0.4179  0.7390
 1612SOL     OW15304   2.542   5.165   2.016  0.0147  0.2936 -0.2587
 1612SOL    HW115305   2.567   5.195   2.108 -0.7279 -2.1162  0.7461
 1612SOL    HW215306   2.443   5.155   2.010  0.0817  0.2153 -1.2517
 1613SOL     OW15307   1.427   7.225   3.938  0.1079 -0.3265 -0.2140
 1613SOL    HW115308   1.366   7.167   3.991  1.0595  0.5574  1.8947
 1613SOL    HW215309   1.496   7.265   3.998  1.7747 -0.0134 -2.2862
 1614SOL     OW15310   2.824   8.559   0.914  0.0917  0.1295  0.6237
 1614SOL    HW115311   2.911   8.599   0.943  0.4897 -0.5510  0.3719
 1614SOL    HW215312   2.818   8.562   0.815  0.2092 -0.6143  0.5928
 1615SOL     OW15313   4.147   4.198   1.914 -0.0839 -0.2202 -0.6133
 1615SOL    HW115314   4.107   4.107   1.906  0.6265 -0.5339 -0.6880
 1615SOL    HW215315   4.102   4.249   1.987 -1.0516 -0.3258 -1.1348
 1616SOL     OW15316   3.458   6.071   3.452 -0.6447  0.1251  0.9767
 1616SOL    HW115317   3.526   6.042   3.385 -1.0615 -0.3357  0.7477
 1616SOL    HW215318   3.388   6.000   3.460 -0.6004  0.1782  1.8887
 1617SOL     OW15319   1.885   3.549   3.992 -0.3653  0.0859  0.3444
 1617SOL    HW115320   1.890   3.461   3.945 -1.1820  0.7535 -0.9954
 1617SOL    HW215321   1.926   3.620   3.935 -2.5278  1.1258  0.0502
 1618SOL     OW15322   2.091   7.753   0.656 -0.2536 -0.2560 -0.0039
 1618SOL    HW115323   2.134   7.817   0.592 -0.0468 -0.7320 -0.3401
 1618SOL    HW215324   2.075   7.665   0.611 -0.3433 -0.5119  0.5192
 1619SOL     OW15325   9.969   7.003   1.379  0.1093 -0.0255 -0.6201
 1619SOL    HW115326  10.026   7.068   1.329 -0.6713  1.6234  0.5645
 1619SOL    HW215327  10.026   6.934   1.423  0.8841 -0.7558 -2.7131
 1620SOL     OW15328   7.306   9.339   0.951 -0.5804 -0.2024  0.0031
 1620SOL    HW115329   7.224   9.310   0.999  0.2479 -0.3174  1.3731
 1620SOL    HW215330   7.360   9.259   0.923 -0.5789 -0.1090 -0.2714
 1621SOL     OW15331   4.289   1.740   1.760 -0.1221  0.0093  0.3470
 1621SOL    HW115332   4.256   1.651   1.789  0.9807 -1.4503 -2.7097
 1621SOL    HW215333   4.386   1.749   1.782 -0.5402  1.0655  1.9099
 1622SOL     OW15334   8.444   8.452   1.944 -0.3892 -0.6338 -0.5100
 1622SOL    HW115335   8.425   8.366   1.991 -1.5354 -0.0404  0.1392
 1622SOL    HW215336   8.524   8.496   1.984 -0.0065 -1.2250 -0.6181
 1623SOL     OW15337   8.686   3.986   0.470  0.2797 -0.0056 -0.2768
 1623SOL    HW115338   8.696   3.930   0.552  0.1001  0.1461 -0.1519
 1623SOL    HW215339   8.591   4.017   0.462  0.1947 -0.3745 -0.7692
 1624SOL     OW15340   1.796   9.984   2.519  0.4720 -0.1700 -0.5059
 1624SOL    HW115341   1.783   9.885   2.518  0.6230 -0.1856 -0.7534
 1624SOL    HW215342   1.811  10.017   2.426  2.5227 -0.1880 -0.1980
 1625SOL     OW15343   9.142   5.966   1.041 -0.0897  0.2661 -0.1935
 1625SOL    HW115344   9.117   5.876   1.005 -0.5578  0.7518 -1.1017
 1625SOL    HW215345   9.206   6.010   0.978  0.8573  0.1887  0.7119
 1626SOL     OW15346   4.906   9.020   2.373 -0.0450 -0.2102 -0.1808
 1626SOL    HW115347   4.824   9.033   2.428  1.0178 -0.3634  1.4810
 1626SOL    HW215348   4.981   8.990   2.432  1.4785  0.9326 -1.4976
 1627SOL     OW15349   3.026   0.578   2.687  0.2318  0.3748 -0.5615
 1627SOL    HW115350   3.099   0.511   2.682 -0.3099 -0.3657  1.2275
 1627SOL    HW215351   2.940   0.533   2.711 -0.3234  1.5736 -0.2360
 1628SOL     OW15352   0.144   8.312   0.416  0.7595 -0.0075 -0.9638
 1628SOL    HW115353   0.124   8.386   0.480 -0.1533 -1.2506  0.2153
 1628SOL    HW215354   0.077   8.311   0.342  1.1858  0.7636 -1.3656
 1629SOL     OW15355   0.909   0.877   2.472 -0.2303 -0.6705 -0.1862
 1629SOL    HW115356   1.008   0.874   2.463 -0.0192 -1.5536  2.1050
 1629SOL    HW215357   0.871   0.789   2.444 -0.3871 -0.3010 -1.1525
 1630SOL     OW15358   4.441   7.826   2.384  0.0274 -0.5062 -0.0569
 1630SOL    HW115359   4.510   7.762   2.351 -0.3900  0.3900 -2.7672
 1630SOL    HW215360   4.455   7.915   2.342 -1.9307  0.0627  0.4449
 1631SOL     OW15361   1.134   7.537   2.825 -0.1075 -0.0993 -0.3109
 1631SOL    HW115362   1.107   7.634   2.823 -0.0728 -0.0463  1.5826
 1631SOL    HW215363   1.223   7.527   2.779 -0.2474  0.7240 -0.7709
 1632SOL     OW15364   8.276   9.122   3.247 -0.1497 -0.1295  0.9138
 1632SOL    HW115365   8.244   9.168   3.164 -0.0720  0.1283  1.0259
 1632SOL    HW215366   8.198   9.088   3.299 -0.4165  2.8482  2.5407
 1633SOL     OW15367   0.034   3.126   0.599  0.3397 -0.2055 -0.5546
 1633SOL    HW115368  -0.058   3.162   0.617  1.6087  2.7021  0.2901
 1633SOL    HW215369   0.078   3.102   0.685  0.6185 -1.0339 -0.9190
 1634SOL     OW15370   2.936   7.761   0.076  0.3548  0.4923  0.1501
 1634SOL    HW115371   2.923   7.670   0.115 -0.1728 -0.1432 -1.4469
 1634SOL    HW215372   2.896   7.829   0.137 -0.7466 -0.5037  0.5631
 1635SOL     OW15373   4.009   4.098   1.149  0.0916  0.2369 -0.6893
 1635SOL    HW115374   3.926   4.078   1.096  1.1481 -3.0413 -1.2425
 1635SOL    HW215375   4.058   4.174   1.106 -2.0389  1.4901 -0.9831
 1636SOL     OW15376   0.805   4.729   0.817 -0.4891 -0.1190  0.0898
 1636SOL    HW115377   0.791   4.761   0.910  0.3591  0.5446  0.0026
 1636SOL    HW215378   0.762   4.793   0.753 -2.3902 -1.3894  0.0852
 1637SOL     OW15379   1.930   0.381   2.017 -0.2892 -0.0094  0.1423
 1637SOL    HW115380   1.850   0.323   2.033  0.3505 -1.6402 -2.3736
 1637SOL    HW215381   1.914   0.437   1.936  0.9894 -0.0666 -0.1486
 1638SOL     OW15382   5.119   1.005   1.926  0.3946 -0.0217  0.1539
 1638SOL    HW115383   5.207   0.974   1.963  0.5494 -0.2953 -0.4380
 1638SOL    HW215384   5.114   1.104   1.930 -0.1569 -0.1126  2.1912
 1639SOL     OW15385   9.407   9.524   2.882 -0.1464 -0.1882  0.3444
 1639SOL    HW115386   9.344   9.554   2.953 -0.4836 -0.2300  0.0615
 1639SOL    HW215387   9.465   9.451   2.918 -2.8408 -2.8351 -0.5353
 1640SOL     OW15388   2.224   5.474   2.197 -0.5800 -0.2379 -0.1863
 1640SOL    HW115389   2.218   5.381   2.162 -1.7186  0.3950 -1.7894
 1640SOL    HW215390   2.308   5.486   2.249 -1.4099 -2.7227  1.7783
 1641SOL     OW15391   4.380   0.510   3.128 -0.2761 -0.1491 -0.2184
 1641SOL    HW115392   4.421   0.476   3.043 -0.6526 -0.4324 -0.2854
 1641SOL    HW215393   4.428   0.593   3.156  0.0828 -0.2505 -0.5167
 1642SOL     OW15394   9.437   0.541   0.681  0.6189  0.7144  0.7339
 1642SOL    HW115395   9.388   0.623   0.708  1.9315  1.3531  1.2187
 1642SOL    HW215396   9.380   0.487   0.619 -0.6513  1.4663  1.2206
 1643SOL     OW15397   1.964   5.901   3.904 -0.2224  0.1370  0.0953
 1643SOL    HW115398   1.994   5.974   3.965 -0.2932 -0.4217  0.8111
 1643SOL    HW215399   2.032   5.826   3.906  0.6379  0.8102 -1.7943
 1644SOL     OW15400   0.878   1.998   3.017  0.0366 -0.2385 -0.1742
 1644SOL    HW115401   0.805   2.063   3.036  0.4118  0.2786 -0.4904
 1644SOL    HW215402   0.967   2.042   3.032  0.2826 -1.1411  1.1569
 1645SOL     OW15403   8.702   0.901   3.966 -0.2375 -0.2992  0.0921
 1645SOL    HW115404   8.703   1.000   3.979  0.6803 -0.0657 -1.5659
 1645SOL    HW215405   8.730   0.856   4.050  0.1917  0.8807  0.5967
 1646SOL     OW15406   3.642   8.516   2.079 -0.4366 -0.1499  0.3012
 1646SOL    HW115407   3.652   8.464   1.994  0.8220  0.2906  0.1730
 1646SOL    HW215408   3.695   8.600   2.073  0.4935 -0.5999  1.8985
 1647SOL     OW15409   3.809   4.852   1.299  0.1050 -0.1829  0.3327
 1647SOL    HW115410   3.853   4.770   1.338 -0.5521 -0.2921  0.8501
 1647SOL    HW215411   3.868   4.931   1.315 -0.8536  0.0475  2.9364
 1648SOL     OW15412   4.451   9.593   2.571 -0.3000 -0.4038 -0.0526
 1648SOL    HW115413   4.517   9.592   2.646  2.0929  0.6642 -2.0601
 1648SOL    HW215414   4.455   9.507   2.521  1.5336  0.6242 -1.7586
 1649SOL     OW15415   4.036   2.732   2.378  0.2874  0.5062  0.0607
 1649SOL    HW115416   3.987   2.820   2.381  0.5686  0.6418  0.7513
 1649SOL    HW215417   4.107   2.736   2.308  0.8300  1.1194  0.6276
 1650SOL     OW15418   7.682   2.264   3.857 -0.0742  0.0183  0.2078
 1650SOL    HW115419   7.761   2.205   3.874  0.3277  0.0507 -1.4485
 1650SOL    HW215420   7.599   2.208   3.852  0.3462 -0.4866 -1.6590
 1651SOL     OW15421   9.145   5.495   3.413  0.0735  0.1386 -0.3944
 1651SOL    HW115422   9.130   5.593   3.425  0.2117  0.2363 -1.0102
 1651SOL    HW215423   9.150   5.451   3.502  0.4382  0.7586 -0.1088
 1652SOL     OW15424   2.101   6.145   2.215  0.6400 -0.0325 -0.2628
 1652SOL    HW115425   2.183   6.122   2.162  0.5207 -0.2518 -0.3517
 1652SOL    HW215426   2.053   6.221   2.170  0.5597 -0.1933 -0.4470
 1653SOL     OW15427   0.368   7.674   1.122 -0.0022 -0.0459  0.1382
 1653SOL    HW115428   0.281   7.686   1.072  1.1881  0.8705 -1.7752
 1653SOL    HW215429   0.372   7.741   1.196 -2.0906 -1.8651  1.9544
 1654SOL     OW15430   1.293   1.841   3.832  0.2853 -0.3688  0.3943
 1654SOL    HW115431   1.362   1.911   3.849  2.6467 -2.6304  0.4148
 1654SOL    HW215432   1.225   1.842   3.906  0.8443  1.2187  0.9008
 1655SOL     OW15433   0.747   0.961   3.257 -0.0213 -0.4360  0.1674
 1655SOL    HW115434   0.694   0.950   3.341 -1.6291  0.3770 -0.7128
 1655SOL    HW215435   0.772   1.057   3.245  0.8879 -0.6754  0.1188
 1656SOL     OW15436   1.202   8.449   3.909 -0.6667  0.7488 -0.0692
 1656SOL    HW115437   1.263   8.370   3.899 -1.5348  0.2784 -1.7043
 1656SOL    HW215438   1.223   8.496   3.995  1.5060  0.1708 -0.2453
 1657SOL     OW15439   4.753   1.886   2.468  0.3340 -0.2749 -0.0303
 1657SOL    HW115440   4.699   1.955   2.421  0.2640 -0.9710 -0.9738
 1657SOL    HW215441   4.836   1.928   2.505 -1.0247  0.8890  1.7831
 1658SOL     OW15442   8.742   3.083   2.952 -0.0679 -0.7530  0.2655
 1658SOL    HW115443   8.829   3.085   3.001  1.6195 -4.2225 -2.3621
 1658SOL    HW215444   8.706   2.989   2.952 -4.0545  0.6462  1.5627
 1659SOL     OW15445   0.027   4.466   4.012 -0.1216  0.4004  0.0053
 1659SOL    HW115446  -0.042   4.448   4.082 -0.6301  0.1128 -0.5685
 1659SOL    HW215447   0.059   4.561   4.022 -1.7710  1.0605 -0.7243
 1660SOL     OW15448   7.916   8.782   3.995  0.3258  0.2471 -0.5816
 1660SOL    HW115449   7.986   8.711   4.007 -0.9252 -1.4611 -2.8457
 1660SOL    HW215450   7.934   8.833   3.911 -0.7728  0.2284 -0.8383
 1661SOL     OW15451   4.282   3.094   2.589  0.0055  0.5439  0.1116
 1661SOL    HW115452   4.357   3.031   2.604  3.3423  4.5855  1.3926
 1661SOL    HW215453   4.274   3.114   2.491 -0.8149 -1.4756 -0.2520
 1662SOL     OW15454   2.089   5.248   1.354 -0.5880  0.1343  0.2304
 1662SOL    HW115455   2.022   5.322   1.361 -0.3400  0.3750  0.0775
 1662SOL    HW215456   2.122   5.241   1.260 -1.5652 -1.0193 -0.0484
 1663SOL     OW15457   0.738   2.134   2.040 -0.1864  0.2761 -0.2253
 1663SOL    HW115458   0.802   2.207   2.066  0.3055 -0.3878  0.4282
 1663SOL    HW215459   0.775   2.046   2.067 -1.6613 -0.0734  0.7355
 1664SOL     OW15460   0.972   8.301   3.122  0.9928  0.2644  0.1118
 1664SOL    HW115461   0.995   8.384   3.071 -0.4166  0.3755 -0.3745
 1664SOL    HW215462   0.876   8.305   3.151  1.5607 -0.1339  2.1398
 1665SOL     OW15463   6.930   8.620   2.599  0.3063  0.0672 -0.5583
 1665SOL    HW115464   6.915   8.546   2.534  2.3212 -1.6850  0.8891
 1665SOL    HW215465   6.969   8.583   2.683  1.8828  2.8462  0.0034
 1666SOL     OW15466   8.199   9.015   2.605  0.2584 -0.2282  0.2428
 1666SOL    HW115467   8.272   9.071   2.643 -0.0552 -0.3731  1.0606
 1666SOL    HW215468   8.195   8.927   2.653 -0.5269 -0.1749  0.2859
 1667SOL     OW15469   1.409   9.720   3.736 -0.1387  0.0747  0.2336
 1667SOL    HW115470   1.475   9.743   3.664 -0.5807  1.3975  0.2367
 1667SOL    HW215471   1.459   9.689   3.817  0.3416 -1.8157 -0.7685
 1668SOL     OW15472   9.996   9.097   2.316  0.1860 -0.3879 -0.0986
 1668SOL    HW115473   9.907   9.140   2.299 -0.4603 -1.7948 -0.3020
 1668SOL    HW215474  10.067   9.167   2.316 -0.8402  0.6654 -0.5653
 1669SOL     OW15475   0.339   6.738   2.715  0.1826 -0.8356 -0.8355
 1669SOL    HW115476   0.423   6.687   2.737  0.5513  0.2283  0.2642
 1669SOL    HW215477   0.274   6.676   2.671  1.1275 -1.9444 -0.7126
 1670SOL     OW15478   2.139   5.709   3.914  0.4256 -0.4191  0.0058
 1670SOL    HW115479   2.184   5.708   3.824 -0.2305  0.4014 -0.3319
 1670SOL    HW215480   2.158   5.623   3.961  0.3583 -1.0524 -1.1197
 1671SOL     OW15481   9.923   0.824   1.436 -0.3996 -0.0587  0.5464
 1671SOL    HW115482   9.888   0.890   1.502  0.4944  1.3780 -0.3722
 1671SOL    HW215483   9.907   0.858   1.343  0.1720 -1.0797  0.0610
 1672SOL     OW15484   8.923   5.816   1.995 -0.3951  0.2265 -0.1316
 1672SOL    HW115485   8.939   5.834   2.092  1.4693 -0.0532 -0.3613
 1672SOL    HW215486   9.011   5.805   1.948 -1.3148 -2.3573 -1.3486
 1673SOL     OW15487   0.880   7.150   0.027 -0.2107  0.4144 -0.6428
 1673SOL    HW115488   0.794   7.201   0.026 -0.6415 -0.2652  0.3599
 1673SOL    HW215489   0.955   7.213   0.048 -0.7651  0.6144  0.7966
 1674SOL     OW15490   9.256   8.384   1.701  0.2906 -0.1821  0.1076
 1674SOL    HW115491   9.322   8.343   1.764  0.5129  0.3481  0.2236
 1674SOL    HW215492   9.214   8.464   1.745  1.2679  0.8593 -0.8398
 1675SOL     OW15493   9.622   6.849   0.566 -0.1996 -0.2245  0.2666
 1675SOL    HW115494   9.644   6.885   0.475  0.8161  0.4746  0.7907
 1675SOL    HW215495   9.530   6.809   0.564 -0.8205  1.2206 -0.6552
 1676SOL     OW15496   3.594   4.126   1.447  0.4144  0.1433 -0.0013
 1676SOL    HW115497   3.594   4.055   1.517 -1.3205 -0.0943 -0.2232
 1676SOL    HW215498   3.563   4.212   1.487 -1.0811 -0.1122 -0.5659
 1677SOL     OW15499   3.650   2.213   0.922  0.5346  0.4586 -0.3522
 1677SOL    HW115500   3.672   2.306   0.893  4.2779 -0.6083 -1.3023
 1677SOL    HW215501   3.713   2.185   0.995 -1.8440 -0.6757  1.3406
 1678SOL     OW15502   3.048   1.092   3.170  0.1465  0.6413 -0.0640
 1678SOL    HW115503   3.137   1.103   3.214 -0.4383 -0.2947  1.3892
 1678SOL    HW215504   3.035   0.996   3.144 -0.1586  0.9019 -0.8980
 1679SOL     OW15505   9.932   0.452   3.744  0.1946 -0.2081  0.2608
 1679SOL    HW115506   9.957   0.546   3.721  2.4825 -0.7804  0.3417
 1679SOL    HW215507   9.832   0.447   3.757 -0.3111  1.5812 -2.5303
 1680SOL     OW15508   0.209   2.322   0.168  0.2279  0.0737 -0.5506
 1680SOL    HW115509   0.150   2.272   0.104 -0.9641  0.4300  0.2402
 1680SOL    HW215510   0.279   2.260   0.204 -0.1933 -0.5890 -0.8607
 1681SOL     OW15511   0.677   6.301   1.556 -0.5834  0.2293 -0.3553
 1681SOL    HW115512   0.617   6.369   1.598 -0.2458 -0.4946  1.3554
 1681SOL    HW215513   0.662   6.299   1.457 -1.9918  1.3935 -0.1774
 1682SOL     OW15514   9.523   5.095   1.088 -0.1673 -0.1358  0.1406
 1682SOL    HW115515   9.608   5.108   1.037  0.4258  1.2731  1.4338
 1682SOL    HW215516   9.446   5.087   1.024  0.5994  1.2237 -0.9800
 1683SOL     OW15517   9.448   2.389   3.113  0.4162 -0.1618 -0.0356
 1683SOL    HW115518   9.514   2.326   3.071  0.4942 -0.6659  0.8368
 1683SOL    HW215519   9.491   2.435   3.190 -0.3887 -0.8180  0.8140
 1684SOL     OW15520   8.451   1.323   0.031  0.7070 -0.0381  0.0794
 1684SOL    HW115521   8.486   1.410  -0.003 -0.7148  0.4844 -0.0717
 1684SOL    HW215522   8.352   1.328   0.040  0.5378 -1.8351 -0.4942
 1685SOL     OW15523   9.390   3.030   2.757 -0.0109 -0.1405  0.1662
 1685SOL    HW115524   9.389   2.966   2.681 -1.0835 -0.2065  0.2379
 1685SOL    HW215525   9.372   3.123   2.724 -1.0101 -0.2437  0.4009
 1686SOL     OW15526   9.243   9.658   2.421  0.6655  0.0597  0.3469
 1686SOL    HW115527   9.255   9.566   2.460  2.7656  0.8053  1.5186
 1686SOL    HW215528   9.146   9.674   2.405  0.3133 -2.6114 -0.4925
 1687SOL     OW15529   9.613   9.099   0.753  0.3321  0.8214 -0.1757
 1687SOL    HW115530   9.690   9.077   0.693  2.0170  3.8224  0.8270
 1687SOL    HW215531   9.542   9.145   0.700  1.5559  2.9076 -0.0627
 1688SOL     OW15532   2.532   2.092   0.398 -0.1664 -0.0125 -0.4355
 1688SOL    HW115533   2.473   2.102   0.318  2.8648 -1.2567 -2.9403
 1688SOL    HW215534   2.509   2.007   0.446 -1.6018  0.4290 -0.3267
 1689SOL     OW15535   7.872   9.574   1.928 -0.2946 -0.0582  0.3872
 1689SOL    HW115536   7.836   9.667   1.935  0.3988  0.3694 -1.4864
 1689SOL    HW215537   7.950   9.564   1.990  1.3823  1.4889 -1.4015
 1690SOL     OW15538   8.492   7.011   4.032  0.6856 -0.4631 -0.4151
 1690SOL    HW115539   8.486   7.052   3.941 -1.7674  0.8069  0.2861
 1690SOL    HW215540   8.436   6.928   4.035  0.3925 -0.2441  0.0831
 1691SOL     OW15541   1.821   8.714   2.678  0.2692  0.1405 -0.2819
 1691SOL    HW115542   1.894   8.671   2.732  0.7847 -0.7175 -1.6120
 1691SOL    HW215543   1.840   8.812   2.669  1.5584 -0.1561 -1.0356
 1692SOL     OW15544   2.868   8.681   2.029 -0.1313  0.3681  0.5944
 1692SOL    HW115545   2.868   8.661   2.127  1.8097  0.6108  0.6677
 1692SOL    HW215546   2.949   8.736   2.006  0.1179 -0.7621 -1.3397
 1693SOL     OW15547   3.905   3.852   1.549 -0.4208 -0.2102 -0.2154
 1693SOL    HW115548   3.902   3.939   1.500  0.3979  0.0676  0.2149
 1693SOL    HW215549   3.992   3.806   1.529 -0.4963 -0.5411  0.2120
 1694SOL     OW15550   9.395   4.290   1.209 -0.9759 -0.0399 -0.3946
 1694SOL    HW115551   9.461   4.258   1.278 -1.2338  0.1649 -0.0492
 1694SOL    HW215552   9.327   4.348   1.253 -0.6854  0.7343 -0.9720
 1695SOL     OW15553   2.310   5.734   1.842 -0.1385  0.2381 -0.2325
 1695SOL    HW115554   2.273   5.661   1.784  1.0036 -0.3443 -0.2327
 1695SOL    HW215555   2.366   5.796   1.788  3.3284 -1.9337  0.6931
 1696SOL     OW15556   9.231   9.958   2.154 -0.4346  0.0085  0.1827
 1696SOL    HW115557   9.257   9.863   2.172 -1.8278 -0.1962  1.1353
 1696SOL    HW215558   9.314  10.011   2.134  0.3796 -1.3438 -0.1319
 1697SOL     OW15559   0.923   7.382   0.839  0.0730 -0.7976 -0.0085
 1697SOL    HW115560   0.856   7.334   0.896 -1.2736  0.0929 -0.8092
 1697SOL    HW215561   0.897   7.478   0.830  0.1158 -0.9654 -2.3038
 1698SOL     OW15562   7.405   9.598   3.882  0.3148 -0.3017  0.0912
 1698SOL    HW115563   7.456   9.518   3.912 -0.1376 -1.1594 -1.3825
 1698SOL    HW215564   7.319   9.604   3.934 -1.1116 -2.5618 -1.8849
 1699SOL     OW15565   1.489   4.619   0.768 -0.3782 -0.2157  0.0865
 1699SOL    HW115566   1.412   4.631   0.705 -1.2891 -1.3921  0.9403
 1699SOL    HW215567   1.490   4.693   0.835  0.3133  0.7827 -1.0037
 1700SOL     OW15568   1.636   1.557   0.574  0.0374  0.0583 -0.9245
 1700SOL    HW115569   1.708   1.625   0.565 -0.0647  0.0236 -2.0229
 1700SOL    HW215570   1.547   1.600   0.564 -0.0043 -0.3611 -2.5139
 1701SOL     OW15571   0.037   3.511   3.595  0.2087 -0.0421 -0.4253
 1701SOL    HW115572   0.009   3.605   3.574 -0.3023  0.1928  1.2024
 1701SOL    HW215573   0.043   3.500   3.694  0.3372 -1.7226 -0.6046
 1702SOL     OW15574   6.335   8.347   2.932  0.0079 -0.0353 -0.0302
 1702SOL    HW115575   6.284   8.428   2.962  0.2126  0.0853 -0.0011
 1702SOL    HW215576   6.430   8.373   2.913  0.3150 -0.4535  0.8881
 1703SOL     OW15577   5.367   8.951   2.837  0.7119  0.4115  0.3002
 1703SOL    HW115578   5.416   9.037   2.851  0.6720  0.6065 -0.7384
 1703SOL    HW215579   5.381   8.920   2.743 -1.0418  0.4028  0.0272
 1704SOL     OW15580   3.814   8.953   3.611 -0.1051 -0.3029 -0.2340
 1704SOL    HW115581   3.810   9.052   3.605  0.7389 -0.3927 -2.6722
 1704SOL    HW215582   3.908   8.922   3.593 -0.8323 -1.6613 -1.8163
 1705SOL     OW15583   8.290   7.268   3.459 -0.3816  0.1867  0.1393
 1705SOL    HW115584   8.241   7.338   3.510 -1.9158 -0.7135 -0.0378
 1705SOL    HW215585   8.328   7.201   3.522  1.4734  1.3926  0.3359
 1706SOL     OW15586   2.427   6.227   1.652 -0.1534 -0.0363 -0.1771
 1706SOL    HW115587   2.442   6.207   1.749  0.7185  1.5111  0.0202
 1706SOL    HW215588   2.407   6.142   1.603 -0.7717 -0.8088  1.3834
 1707SOL     OW15589   0.397   0.103   2.785  0.2746 -0.0143  0.2433
 1707SOL    HW115590   0.396   0.045   2.703 -2.6140 -0.8814  0.8406
 1707SOL    HW215591   0.437   0.052   2.861  2.1134  0.4743 -0.3676
 1708SOL     OW15592   0.950   6.471   2.389  0.0420  0.3773 -0.3168
 1708SOL    HW115593   0.951   6.388   2.332  0.1286 -0.7027  1.2240
 1708SOL    HW215594   1.040   6.513   2.389  0.5380 -0.6451  0.4571
 1709SOL     OW15595   1.590   8.220   3.418 -0.0971 -0.0514  0.0006
 1709SOL    HW115596   1.499   8.256   3.397  1.2745  2.2495 -2.3383
 1709SOL    HW215597   1.634   8.278   3.487 -0.2527 -1.0042  0.9273
 1710SOL     OW15598   2.815   4.809   1.841  0.3442  0.6363  0.0736
 1710SOL    HW115599   2.776   4.736   1.897  2.0069 -0.2512  0.0987
 1710SOL    HW215600   2.770   4.895   1.863  0.7767  0.2539  2.6186
 1711SOL     OW15601   6.280   8.092   2.997 -0.4737 -0.1686  0.1817
 1711SOL    HW115602   6.292   8.191   2.990 -0.0082 -0.2086  0.3889
 1711SOL    HW215603   6.213   8.071   3.069 -0.6180 -0.0032  0.0946
 1712SOL     OW15604   3.239   2.672   1.032  0.3163  0.6085  0.6156
 1712SOL    HW115605   3.186   2.616   0.969  1.3054 -0.8449  1.0593
 1712SOL    HW215606   3.181   2.701   1.108 -0.0789 -0.2264  0.6393
 1713SOL     OW15607   0.484   8.961   2.326 -0.1453 -0.3459 -0.2103
 1713SOL    HW115608   0.406   8.902   2.306 -0.6781 -0.0885  1.0138
 1713SOL    HW215609   0.506   9.016   2.246 -2.1730  0.6543 -0.1229
 1714SOL     OW15610   1.716   4.082   2.554 -0.3613  0.3075  0.4244
 1714SOL    HW115611   1.748   3.994   2.517  0.0201  0.2207  0.9622
 1714SOL    HW215612   1.794   4.135   2.586 -0.6159  0.7419  0.3247
 1715SOL     OW15613   3.752   0.742   1.371  1.0118 -0.3368  0.1535
 1715SOL    HW115614   3.800   0.667   1.327  0.9692  0.1148 -0.6670
 1715SOL    HW215615   3.804   0.827   1.360 -0.0839  0.2029 -0.9579
 1716SOL     OW15616   2.849   3.292   3.741 -0.2597  0.4657  0.2617
 1716SOL    HW115617   2.919   3.221   3.752 -0.7726  0.0779  1.0354
 1716SOL    HW215618   2.883   3.362   3.678 -0.3008 -1.1825 -1.6508
 1717SOL     OW15619   4.955   7.362   0.352 -0.2635  0.3023  0.4949
 1717SOL    HW115620   4.904   7.378   0.267  1.0144 -1.2828 -0.6057
 1717SOL    HW215621   4.899   7.308   0.415 -0.9590  0.8996  0.3973
 1718SOL     OW15622   1.287   6.352   2.996  0.1637 -0.1478  0.1079
 1718SOL    HW115623   1.349   6.304   3.058  2.7650  2.6911 -0.1574
 1718SOL    HW215624   1.335   6.375   2.912 -1.7484  0.7479 -0.7695
 1719SOL     OW15625   2.545   4.437   0.039 -0.2707  0.2864  0.1251
 1719SOL    HW115626   2.510   4.525   0.074 -0.8584 -0.0330  0.3543
 1719SOL    HW215627   2.471   4.388  -0.007 -0.4066 -0.8762  1.5571
 1720SOL     OW15628   3.533   8.949   2.654 -0.5007 -0.4136 -0.9897
 1720SOL    HW115629   3.544   8.981   2.748 -2.5694 -3.0547  0.2170
 1720SOL    HW215630   3.614   8.896   2.628 -0.2914 -0.3960 -0.3878
 1721SOL     OW15631   9.997   5.688   2.650 -0.2170  0.2628  0.0630
 1721SOL    HW115632   9.968   5.777   2.616  0.7644  0.9394  0.9730
 1721SOL    HW215633   9.960   5.616   2.591 -0.1965  1.3159 -1.2571
 1722SOL     OW15634   1.063   0.706   1.015 -0.4667  0.3694  0.2553
 1722SOL    HW115635   0.967   0.682   1.025  0.5080 -2.5100  4.0910
 1722SOL    HW215636   1.105   0.647   0.945 -1.1419  0.5424 -0.2951
 1723SOL     OW15637   1.864   6.534   0.673 -0.4647  0.3586  0.2528
 1723SOL    HW115638   1.903   6.485   0.594  0.3025 -2.1771  2.1432
 1723SOL    HW215639   1.768   6.556   0.654 -0.2405 -0.0745 -1.4658
 1724SOL     OW15640   1.070   3.281   1.217 -0.3422 -0.4984  0.2200
 1724SOL    HW115641   1.064   3.377   1.244  2.0586 -0.4525  0.6736
 1724SOL    HW215642   0.978   3.242   1.213 -1.4062  1.9569 -0.5384
 1725SOL     OW15643   1.189   3.000   0.155 -0.2335 -0.0964 -0.4969
 1725SOL    HW115644   1.176   3.093   0.120 -1.0975  0.3715  0.9961
 1725SOL    HW215645   1.182   3.002   0.255  0.2375 -1.6968 -0.4314
 1726SOL     OW15646   9.664   9.368   2.775  0.1793 -0.0419 -0.0831
 1726SOL    HW115647   9.699   9.462   2.777  0.5795 -0.1973  0.3040
 1726SOL    HW215648   9.735   9.307   2.740  0.4393 -0.4241  1.1089
 1727SOL     OW15649   0.107   8.695   3.134 -0.4880  0.3172  1.0976
 1727SOL    HW115650   0.090   8.663   3.227 -1.1654 -0.4451  0.7091
 1727SOL    HW215651   0.101   8.619   3.070  1.6056  0.5326  0.6020
 1728SOL     OW15652   8.394   7.925   2.105 -0.0168 -0.5328 -0.1902
 1728SOL    HW115653   8.307   7.912   2.057  1.4500  1.1219 -3.5022
 1728SOL    HW215654   8.424   8.020   2.094  2.6971 -1.3232  0.0520
 1729SOL     OW15655   4.480   7.501   1.587 -0.1442  0.9717 -0.1103
 1729SOL    HW115656   4.567   7.485   1.540  0.2702  1.6405  0.4237
 1729SOL    HW215657   4.442   7.589   1.558 -1.1293  0.2491 -1.0709
 1730SOL     OW15658   2.418   3.817   1.121  0.3031 -0.0015  0.3165
 1730SOL    HW115659   2.339   3.758   1.106  0.8356 -0.3475 -1.3573
 1730SOL    HW215660   2.442   3.818   1.218 -3.2869  2.1327  1.2565
 1731SOL     OW15661   1.218   7.610   3.708  0.0810  0.2092 -0.6694
 1731SOL    HW115662   1.143   7.663   3.746  0.6993  0.4055  0.2930
 1731SOL    HW215663   1.280   7.670   3.657  0.5675  0.3501  0.0847
 1732SOL     OW15664   1.442   2.846   2.161 -0.3182 -0.6235  0.0738
 1732SOL    HW115665   1.408   2.929   2.116  0.9074  0.0220  0.3143
 1732SOL    HW215666   1.379   2.819   2.234  0.4861  1.5173  1.6224
 1733SOL     OW15667   5.020   8.666   1.894 -0.3574  0.3004 -0.2449
 1733SOL    HW115668   5.046   8.674   1.990 -0.9604  0.0921 -0.0639
 1733SOL    HW215669   5.002   8.571   1.872 -0.8837  0.4350 -0.3924
 1734SOL     OW15670   5.367   8.068   3.471 -0.3131  0.3539 -0.8315
 1734SOL    HW115671   5.294   8.118   3.517  1.0828  0.6159  1.1411
 1734SOL    HW215672   5.436   8.131   3.438 -0.3632  0.0063 -1.6263
 1735SOL     OW15673   2.290   9.686   1.973  0.0670  0.0576  0.3527
 1735SOL    HW115674   2.357   9.758   1.957 -0.2981  0.1481 -0.8111
 1735SOL    HW215675   2.297   9.618   1.901 -0.1704 -0.6371  0.9847
 1736SOL     OW15676   6.960   8.184   1.885 -0.2886 -0.0818 -0.8596
 1736SOL    HW115677   7.044   8.225   1.921  0.1686 -1.3880 -0.4303
 1736SOL    HW215678   6.966   8.178   1.786 -0.0713  0.2529 -0.8683
 1737SOL     OW15679   9.382   6.302   1.214  0.2989 -0.1384 -0.0369
 1737SOL    HW115680   9.447   6.365   1.256  0.9347 -0.6631 -0.2472
 1737SOL    HW215681   9.430   6.224   1.174 -0.3230  0.1604 -1.4104
 1738SOL     OW15682   3.998   4.561   2.416 -0.5772  0.7276  0.1059
 1738SOL    HW115683   4.083   4.510   2.422 -1.0839 -0.0541  0.6513
 1738SOL    HW215684   3.972   4.572   2.320 -0.0218  0.7201 -0.0475
 1739SOL     OW15685   2.482   4.866   2.697 -0.2153  0.1037  1.2832
 1739SOL    HW115686   2.541   4.877   2.776 -0.9573 -1.2317  2.0418
 1739SOL    HW215687   2.530   4.811   2.628  1.2060  2.9228 -0.0690
 1740SOL     OW15688   8.174   0.910   1.525 -0.2017  0.0904  0.1330
 1740SOL    HW115689   8.130   0.919   1.614  1.8541 -2.7174  1.5323
 1740SOL    HW215690   8.215   0.819   1.518  0.2729  0.5255 -3.4171
 1741SOL     OW15691   3.849   5.601   1.511 -0.7185 -0.1213  0.0582
 1741SOL    HW115692   3.942   5.631   1.489 -0.9997 -0.0533 -1.0695
 1741SOL    HW215693   3.848   5.559   1.602  0.1267  1.1980  0.6864
 1742SOL     OW15694   2.641   2.445   3.759  0.1117 -0.1598  0.2873
 1742SOL    HW115695   2.565   2.390   3.725 -1.9922  0.2901  3.9200
 1742SOL    HW215696   2.721   2.387   3.774 -0.2238 -1.0839 -1.4107
 1743SOL     OW15697   5.351   8.661   3.050 -0.1774 -0.3656 -0.1988
 1743SOL    HW115698   5.362   8.704   2.960 -0.7322 -0.9436 -0.5510
 1743SOL    HW215699   5.435   8.613   3.074 -0.6562 -1.7364 -1.2310
 1744SOL     OW15700   0.992   3.496   1.360  0.1073  0.6426  0.3894
 1744SOL    HW115701   1.067   3.534   1.415 -0.1703  1.3297  0.3038
 1744SOL    HW215702   0.906   3.511   1.408 -0.0110  0.1243  0.3437
 1745SOL     OW15703   3.660   1.666   3.662  0.1878 -0.1794  0.0435
 1745SOL    HW115704   3.701   1.651   3.752  0.4468  1.2872  0.1731
 1745SOL    HW215705   3.561   1.654   3.668  0.3691 -1.8263  0.1347
 1746SOL     OW15706   1.819   8.814   1.229  0.4557 -0.1776 -0.0445
 1746SOL    HW115707   1.788   8.757   1.153 -1.5471 -0.8561  1.2041
 1746SOL    HW215708   1.843   8.755   1.307  0.8798  0.5693  0.3963
 1747SOL     OW15709   3.060   5.669   2.367  0.0803 -0.4356  0.0800
 1747SOL    HW115710   2.992   5.686   2.438  1.0089 -0.6455  1.0263
 1747SOL    HW215711   3.038   5.584   2.320 -0.3828 -0.4389  0.2981
 1748SOL     OW15712   0.278   3.105   2.936 -0.1344 -0.0288  0.1523
 1748SOL    HW115713   0.356   3.042   2.926 -1.6184 -1.7324 -1.0607
 1748SOL    HW215714   0.308   3.198   2.916  1.9099 -0.4467  1.0924
 1749SOL     OW15715   0.656   6.117   1.914 -0.1047 -0.0499 -0.6720
 1749SOL    HW115716   0.712   6.062   1.852 -1.1790  1.5349 -3.1231
 1749SOL    HW215717   0.700   6.205   1.930 -0.0403 -0.2849  0.5215
 1750SOL     OW15718   6.416   9.818   2.423  0.1096 -0.1566 -0.0776
 1750SOL    HW115719   6.353   9.750   2.460  1.8403 -1.0078  1.4045
 1750SOL    HW215720   6.510   9.789   2.440  0.9524  0.7548 -2.8214
 1751SOL     OW15721   2.561   4.408   1.814 -0.2803 -0.2352  0.7100
 1751SOL    HW115722   2.613   4.407   1.729  0.6565 -0.1341  1.2853
 1751SOL    HW215723   2.503   4.489   1.817  0.5302  0.3505  0.6751
 1752SOL     OW15724   1.199   3.086   1.398 -0.1395  0.4908 -0.1165
 1752SOL    HW115725   1.188   3.157   1.329  1.2569  1.2287  0.3941
 1752SOL    HW215726   1.170   3.122   1.487  0.3952  0.3671  0.1088
 1753SOL     OW15727   1.059   0.400   2.761 -0.4425  0.3013 -0.3248
 1753SOL    HW115728   1.098   0.309   2.772  1.2949  1.0101 -0.5732
 1753SOL    HW215729   0.971   0.404   2.809  0.4959 -0.8497  1.5476
 1754SOL     OW15730   1.420   5.525   2.196 -0.6279  0.0071  0.0147
 1754SOL    HW115731   1.484   5.595   2.230 -0.9066  1.0286 -1.4932
 1754SOL    HW215732   1.419   5.448   2.259  1.7184  0.1861  0.3503
 1755SOL     OW15733   0.879   0.916   3.019  0.5009  0.4333  0.4086
 1755SOL    HW115734   0.965   0.865   3.030  1.2251  1.5358 -0.0217
 1755SOL    HW215735   0.836   0.928   3.109  2.3759  2.5116  1.1028
 1756SOL     OW15736   0.471   9.708   1.946 -0.0206 -0.3832  0.6177
 1756SOL    HW115737   0.495   9.743   2.037 -0.1306  0.4954  0.3143
 1756SOL    HW215738   0.554   9.690   1.894  0.0474 -1.2337  1.0264
 1757SOL     OW15739   1.609   3.933   2.091  0.8233 -0.2485 -0.2110
 1757SOL    HW115740   1.628   4.000   2.163 -2.0111  0.6828 -0.2473
 1757SOL    HW215741   1.524   3.885   2.114  2.1720 -2.9616 -0.8251
 1758SOL     OW15742   9.451   4.806   3.789 -0.4181 -0.1059  0.0515
 1758SOL    HW115743   9.522   4.768   3.730 -0.8041  0.4752 -0.7934
 1758SOL    HW215744   9.363   4.768   3.764 -0.7015  0.7611 -0.3022
 1759SOL     OW15745   3.055   4.273   2.761  0.4535 -0.7563  0.6040
 1759SOL    HW115746   3.035   4.301   2.667  0.4318 -0.7284  0.6172
 1759SOL    HW215747   3.139   4.218   2.762  0.4076 -0.8258  0.5572
 1760SOL     OW15748   9.145   6.372   0.471  0.0316 -0.0894  0.1047
 1760SOL    HW115749   9.109   6.380   0.378  2.4770 -0.6696 -0.9294
 1760SOL    HW215750   9.224   6.311   0.471  0.4377  0.3926  2.4599
 1761SOL     OW15751   8.286   6.054   0.817 -0.1892  0.2804 -0.2370
 1761SOL    HW115752   8.254   6.112   0.742 -0.5600 -0.7070 -0.8524
 1761SOL    HW215753   8.342   5.980   0.780  2.3784  1.6499  0.7577
 1762SOL     OW15754   2.841   7.274   2.798  0.1938  0.4636  0.6145
 1762SOL    HW115755   2.756   7.319   2.771  0.7345  1.4542  0.5308
 1762SOL    HW215756   2.826   7.220   2.880 -0.3310  1.2662  1.0490
 1763SOL     OW15757   0.525   9.813   2.237 -0.2268 -0.1683 -0.1113
 1763SOL    HW115758   0.487   9.893   2.284 -0.6113  0.4220 -1.4105
 1763SOL    HW215759   0.468   9.733   2.257 -0.9931  0.2971 -0.4130
 1764SOL     OW15760   1.847   2.325   3.994  0.1522 -0.2215  0.3410
 1764SOL    HW115761   1.902   2.306   3.913  0.0967 -1.1959  0.5240
 1764SOL    HW215762   1.906   2.331   4.074 -0.0275 -1.6171  0.5925
 1765SOL     OW15763   8.581   5.461   2.963 -0.1449  0.0079  0.3732
 1765SOL    HW115764   8.543   5.391   2.904 -1.5573  1.3720 -0.3804
 1765SOL    HW215765   8.603   5.542   2.909  0.2888  0.6069  1.4244
 1766SOL     OW15766   0.072   7.443   2.105 -0.0060 -0.1647  0.3528
 1766SOL    HW115767   0.053   7.540   2.090 -0.0581 -0.0342  1.2223
 1766SOL    HW215768   0.132   7.409   2.033  2.0582  1.1442  1.3947
 1767SOL     OW15769   3.956   3.572   0.648  0.0728 -0.4234 -0.0222
 1767SOL    HW115770   3.971   3.551   0.744 -0.0706  1.9248  0.5475
 1767SOL    HW215771   4.038   3.550   0.596  0.3861 -1.0798  0.7359
 1768SOL     OW15772   0.279   1.834   0.685 -0.7401  0.0060  0.1638
 1768SOL    HW115773   0.277   1.740   0.720 -1.2265  0.5093  1.5065
 1768SOL    HW215774   0.269   1.898   0.761  1.9384  1.2236 -0.4865
 1769SOL     OW15775   4.461   8.378   3.690 -0.7072 -0.4583  0.2682
 1769SOL    HW115776   4.465   8.372   3.591 -0.2498 -1.1168  0.3203
 1769SOL    HW215777   4.378   8.427   3.717  0.0423  1.2597 -0.4691
 1770SOL     OW15778   9.154   9.749   0.470  0.3846  0.0339  0.0139
 1770SOL    HW115779   9.086   9.721   0.402 -0.0326  0.4262  0.2676
 1770SOL    HW215780   9.244   9.755   0.427  0.1543  0.0985 -0.4573
 1771SOL     OW15781   8.132   9.698   0.958 -0.3444 -0.8007 -0.3210
 1771SOL    HW115782   8.155   9.623   0.896  0.7038 -0.8879  0.1548
 1771SOL    HW215783   8.180   9.684   1.045 -0.4646  0.2060 -0.0886
 1772SOL     OW15784   1.362   3.132   1.789 -1.1073  0.1077  0.0858
 1772SOL    HW115785   1.350   3.118   1.888 -0.1200 -1.6895 -0.0341
 1772SOL    HW215786   1.276   3.164   1.749 -1.6209  0.4867  1.4594
 1773SOL     OW15787   4.599   8.944   3.862  0.0515 -0.5455  0.4130
 1773SOL    HW115788   4.695   8.933   3.834 -0.6049 -0.0806 -2.2097
 1773SOL    HW215789   4.545   8.868   3.824 -0.0920 -2.7891  4.8260
 1774SOL     OW15790   2.923   0.028   0.397  0.1526  0.1841 -0.0850
 1774SOL    HW115791   2.847  -0.032   0.371 -0.5406  0.9035  0.2588
 1774SOL    HW215792   2.977   0.050   0.316  1.1232 -1.8638 -0.0293
 1775SOL     OW15793   2.402   7.742   1.116 -0.4245 -0.2317  0.3961
 1775SOL    HW115794   2.485   7.798   1.113  0.8288 -2.0667 -1.4858
 1775SOL    HW215795   2.387   7.709   1.209  1.2233 -0.2202  0.6852
 1776SOL     OW15796   8.259   3.560   0.100 -0.1465  0.2250 -0.2026
 1776SOL    HW115797   8.313   3.477   0.108  0.8882  0.9800  0.8579
 1776SOL    HW215798   8.179   3.554   0.159 -0.4065 -0.2668 -0.6016
 1777SOL     OW15799   4.045   9.813   1.235 -0.4079 -0.1395 -0.3808
 1777SOL    HW115800   4.124   9.862   1.199 -1.0372  0.6046 -0.7726
 1777SOL    HW215801   4.061   9.714   1.229  0.3980  0.0056 -0.6628
 1778SOL     OW15802   3.042   4.479   3.402  0.7049 -0.1048 -0.3649
 1778SOL    HW115803   3.100   4.550   3.361  1.2017 -0.1067  0.3082
 1778SOL    HW215804   2.978   4.444   3.334 -0.5693  2.0436 -0.3375
 1779SOL     OW15805   3.922   1.879   1.518  0.3804  0.1932 -0.4662
 1779SOL    HW115806   3.899   1.787   1.487 -0.3708  0.1832  0.1049
 1779SOL    HW215807   3.842   1.939   1.507  0.4168  0.4232  0.5208
 1780SOL     OW15808   8.165   5.401   3.640  0.0830 -0.6884 -0.2079
 1780SOL    HW115809   8.208   5.461   3.708  0.0796 -2.0047  0.9688
 1780SOL    HW215810   8.232   5.334   3.608 -0.5735 -1.5645  0.2451
 1781SOL     OW15811   2.877   9.506   1.072 -0.1911 -0.0952 -0.2249
 1781SOL    HW115812   2.846   9.441   1.003  0.2237  0.2636 -0.7445
 1781SOL    HW215813   2.976   9.513   1.071 -0.2489  0.8053 -0.4013
 1782SOL     OW15814   0.732   7.787   3.678 -0.2247  0.5503  0.0010
 1782SOL    HW115815   0.721   7.857   3.749 -1.6659 -0.4207  0.7611
 1782SOL    HW215816   0.658   7.794   3.612  0.3713  0.5874 -0.6706
 1783SOL     OW15817   4.489   8.395   3.405  0.4587  0.1557  0.8350
 1783SOL    HW115818   4.460   8.324   3.341  3.5837  0.2127 -0.6966
 1783SOL    HW215819   4.459   8.484   3.371 -0.1644 -0.0533  0.8236
 1784SOL     OW15820   1.052   2.862   1.334 -0.6349  0.3110  0.2091
 1784SOL    HW115821   1.105   2.945   1.354  2.3347 -1.3862 -0.4350
 1784SOL    HW215822   0.995   2.878   1.253 -1.6054  2.3658  1.2695
 1785SOL     OW15823   0.666   1.839   0.589 -0.3678 -0.5718 -0.4284
 1785SOL    HW115824   0.573   1.875   0.585  0.3242  1.5572  1.3386
 1785SOL    HW215825   0.730   1.906   0.551  1.0157  0.5161  3.4858
 1786SOL     OW15826   3.131   0.162   0.234 -0.8788 -0.6092  0.7346
 1786SOL    HW115827   3.165   0.068   0.233 -0.3387 -0.4120  0.2005
 1786SOL    HW215828   3.168   0.210   0.313  0.8625 -0.1198 -0.3603
 1787SOL     OW15829   1.926   0.728   2.172 -0.0111  0.3246  0.2667
 1787SOL    HW115830   1.827   0.733   2.180  0.0080 -1.1477  1.6615
 1787SOL    HW215831   1.959   0.644   2.214  1.9331  1.2885  0.7548
 1788SOL     OW15832   3.421   0.692   2.761  0.0350  0.1690  0.1884
 1788SOL    HW115833   3.495   0.759   2.773 -0.9456  1.3268 -0.1548
 1788SOL    HW215834   3.396   0.686   2.665  1.5410 -2.2752 -0.1025
 1789SOL     OW15835   8.180   5.930   0.520 -0.4191  0.3278 -0.3622
 1789SOL    HW115836   8.174   6.010   0.580 -0.3849 -0.4099  0.6481
 1789SOL    HW215837   8.129   5.854   0.561  1.6283 -0.9326 -0.0441
 1790SOL     OW15838   2.817   0.409   2.694 -0.1455 -0.1068  0.0540
 1790SOL    HW115839   2.785   0.350   2.768 -3.0716  0.7331 -0.4986
 1790SOL    HW215840   2.743   0.425   2.629  0.7737  3.5978 -0.1888
 1791SOL     OW15841   7.946   5.471   1.229 -0.1868 -0.0236  0.3100
 1791SOL    HW115842   7.883   5.396   1.210 -0.9849  0.5022  0.8360
 1791SOL    HW215843   7.938   5.497   1.325  1.3588 -0.4223  0.5609
 1792SOL     OW15844   1.444   8.751   1.247  0.0793  0.1133  0.4616
 1792SOL    HW115845   1.497   8.834   1.233 -1.5011  1.0671 -0.0445
 1792SOL    HW215846   1.497   8.685   1.300  2.2545  0.5116 -1.1398
 1793SOL     OW15847   8.753   3.967   1.666 -0.1398  0.3643  0.2857
 1793SOL    HW115848   8.709   4.057   1.669 -0.1243  0.3635  0.5787
 1793SOL    HW215849   8.851   3.978   1.682 -0.0847  0.3317 -0.0317
 1794SOL     OW15850   9.582   0.528   3.197 -0.2057 -0.2259 -0.0179
 1794SOL    HW115851   9.678   0.532   3.223 -0.0374  2.5805 -0.9476
 1794SOL    HW215852   9.526   0.513   3.278  0.9643 -1.7709  0.5439
 1795SOL     OW15853   0.020   3.342   1.104  0.7823  0.2577 -0.4710
 1795SOL    HW115854   0.107   3.338   1.055  0.8650  0.0291 -0.3030
 1795SOL    HW215855  -0.037   3.264   1.078 -0.5499  1.9455 -2.8092
 1796SOL     OW15856   0.583   7.407   3.875  0.0350 -0.4689  0.3337
 1796SOL    HW115857   0.521   7.467   3.926 -1.0131 -0.0926 -1.3314
 1796SOL    HW215858   0.665   7.459   3.849 -0.6107  0.0823 -0.6139
 1797SOL     OW15859   0.703   1.909   0.010 -0.1377 -0.4455  0.1980
 1797SOL    HW115860   0.758   1.939  -0.068  0.2221  0.9538  0.9786
 1797SOL    HW215861   0.749   1.832   0.055  0.4270 -0.2567 -0.0540
 1798SOL     OW15862   4.069   4.899   3.297 -0.1830 -0.0114  0.1260
 1798SOL    HW115863   4.119   4.832   3.243  0.4158  0.1623  0.4613
 1798SOL    HW215864   4.078   4.877   3.394  1.8029  1.7596  0.3842
 1799SOL     OW15865   2.842   2.564   3.102 -0.1301  0.5786  0.1320
 1799SOL    HW115866   2.748   2.549   3.134 -0.1533 -2.0255 -1.0785
 1799SOL    HW215867   2.902   2.495   3.142  1.0932  1.5864  0.0562
 1800SOL     OW15868   2.350   8.648   1.817 -0.2434 -0.5861 -0.2162
 1800SOL    HW115869   2.353   8.745   1.838 -3.9376 -0.5181  0.3862
 1800SOL    HW215870   2.393   8.596   1.891 -0.3205  0.4705  0.5792
 1801SOL     OW15871   9.307   2.404   2.871  0.0089  0.4223 -0.2971
 1801SOL    HW115872   9.233   2.337   2.871 -0.9138  1.4032  0.9358
 1801SOL    HW215873   9.321   2.438   2.964 -0.3610  2.8109 -1.0840
 1802SOL     OW15874   1.433   6.494   2.783  0.1134 -0.0818 -0.1444
 1802SOL    HW115875   1.526   6.462   2.767  0.7817  2.1308 -0.9322
 1802SOL    HW215876   1.435   6.580   2.833 -1.5341 -0.2814  0.3020
 1803SOL     OW15877   8.166   1.270   4.006 -0.6208  0.0433 -0.2512
 1803SOL    HW115878   8.153   1.295   3.910  0.1698 -0.3181 -0.4590
 1803SOL    HW215879   8.127   1.180   4.023 -0.0464 -0.2398 -0.4280
 1804SOL     OW15880   9.236   0.195   1.614  0.1502 -0.1644 -0.0352
 1804SOL    HW115881   9.289   0.204   1.698  0.6151 -1.3235 -0.1930
 1804SOL    HW215882   9.139   0.193   1.636  0.1075  2.5070  0.2086
 1805SOL     OW15883   9.744   9.921   3.812  0.3241  0.4584 -0.3492
 1805SOL    HW115884   9.663   9.966   3.850 -0.7433  0.0509 -2.0686
 1805SOL    HW215885   9.771   9.966   3.727  0.7665 -0.5659 -0.7694
 1806SOL     OW15886   1.595   3.401   0.303 -0.2759 -0.0410  0.5282
 1806SOL    HW115887   1.606   3.476   0.367 -0.4684 -0.3946  0.9804
 1806SOL    HW215888   1.498   3.386   0.284 -0.2015  0.3317 -0.1697
 1807SOL     OW15889   9.116   8.332   2.822  0.0582 -0.2763 -0.9515
 1807SOL    HW115890   9.078   8.372   2.905 -0.1006 -1.3967 -0.4762
 1807SOL    HW215891   9.060   8.254   2.793  0.8820 -0.7476 -1.3295
 1808SOL     OW15892   0.956   6.550   0.682  0.4719 -0.0160  0.2431
 1808SOL    HW115893   0.911   6.547   0.593  0.9909  1.0902 -0.0687
 1808SOL    HW215894   1.022   6.625   0.683  0.8316 -0.3407  1.3897
 1809SOL     OW15895   2.462   9.187   1.424 -0.0596 -0.0264 -0.1074
 1809SOL    HW115896   2.529   9.259   1.408  1.1419 -1.3545 -1.2357
 1809SOL    HW215897   2.371   9.218   1.394  0.6801  0.5254 -1.8117
 1810SOL     OW15898   1.251   1.319   1.070  0.3549  0.6759  0.1500
 1810SOL    HW115899   1.248   1.266   1.155  1.2869  1.2668  0.5639
 1810SOL    HW215900   1.346   1.340   1.048  0.3386 -1.6754 -2.4182
 1811SOL     OW15901   4.222   6.563   2.957  0.0071 -0.2489 -0.3164
 1811SOL    HW115902   4.127   6.548   2.986  0.0934 -1.5078 -0.6305
 1811SOL    HW215903   4.224   6.634   2.887 -0.3853  1.6576  1.5705
 1812SOL     OW15904   1.015   0.375   1.421 -0.1427  0.5022 -0.3706
 1812SOL    HW115905   1.007   0.464   1.376  1.6230  2.2924  2.6699
 1812SOL    HW215906   0.931   0.355   1.470  0.6274  2.1134  1.6728
 1813SOL     OW15907   9.118   0.804   1.103  0.1879  0.3336  0.1597
 1813SOL    HW115908   9.217   0.805   1.117  0.1728  0.2795  0.2674
 1813SOL    HW215909   9.093   0.871   1.034  0.4580 -0.6397 -0.8923
 1814SOL     OW15910   2.511   3.647   2.515 -0.0146 -0.0276 -0.2856
 1814SOL    HW115911   2.412   3.658   2.509  0.0164  0.2861 -0.2687
 1814SOL    HW215912   2.555   3.719   2.461  0.2049 -0.1596 -0.2836
 1815SOL     OW15913   4.662   2.823   0.137  0.0246 -0.1773 -0.1497
 1815SOL    HW115914   4.646   2.830   0.039 -0.1408 -0.4120 -0.1394
 1815SOL    HW215915   4.755   2.854   0.158 -0.3706  1.1080 -0.2236
 1816SOL     OW15916   8.728   0.989   2.054 -0.2799  0.4641 -0.2580
 1816SOL    HW115917   8.744   0.912   1.993  2.0868  0.5061  0.2630
 1816SOL    HW215918   8.733   0.958   2.149  0.0232  1.1257 -0.0557
 1817SOL     OW15919   3.939   8.401   2.506  0.2092 -0.1682 -0.3238
 1817SOL    HW115920   3.940   8.326   2.440 -2.3368 -0.4724 -0.0719
 1817SOL    HW215921   3.916   8.366   2.597 -0.5662  0.8275 -0.1175
 1818SOL     OW15922   9.654   4.811   3.388  1.2781 -0.2855 -0.2579
 1818SOL    HW115923   9.580   4.762   3.341  1.6580 -0.6901 -0.4452
 1818SOL    HW215924   9.692   4.752   3.459  1.1013  0.1048  0.1575
 1819SOL     OW15925   2.005   4.395   2.429  0.1921  0.0844  0.3161
 1819SOL    HW115926   2.082   4.400   2.493  0.7346  0.5978 -0.3775
 1819SOL    HW215927   1.925   4.439   2.470  0.6165  0.6672  0.5228
 1820SOL     OW15928   9.016   1.325   2.922 -0.1393 -0.2043  0.2597
 1820SOL    HW115929   8.994   1.229   2.936 -0.5094 -0.1703 -0.0881
 1820SOL    HW215930   9.098   1.348   2.974  0.4629 -0.9202 -0.3663
 1821SOL     OW15931   9.018   3.358   3.250  0.1301 -0.1077  0.2519
 1821SOL    HW115932   9.100   3.375   3.304  0.0368  0.9455  0.0610
 1821SOL    HW215933   8.992   3.441   3.201 -1.9570  0.0349  1.5487
 1822SOL     OW15934   2.945   4.410   1.734  0.3954 -0.1065  0.1563
 1822SOL    HW115935   3.025   4.452   1.777 -1.1952  1.7134  1.4209
 1822SOL    HW215936   2.897   4.478   1.678 -2.3926 -0.0533  2.4963
 1823SOL     OW15937   1.129   6.183   2.625 -0.2487  0.1100 -0.5806
 1823SOL    HW115938   1.083   6.210   2.710  0.0525 -2.4718  0.4421
 1823SOL    HW215939   1.064   6.135   2.567 -0.1293  0.8298 -1.3198
 1824SOL     OW15940   3.626   4.171   2.876  0.4493 -0.5306  0.0184
 1824SOL    HW115941   3.723   4.154   2.893  0.2508 -0.8407  0.8562
 1824SOL    HW215942   3.611   4.269   2.862  0.8549 -0.4578  0.0976
 1825SOL     OW15943   2.174   0.388   1.864  0.3289  0.7825 -0.0196
 1825SOL    HW115944   2.244   0.343   1.809  1.2526  1.8628  0.2507
 1825SOL    HW215945   2.086   0.383   1.816  0.7980  0.3080 -0.8423
 1826SOL     OW15946   2.336   4.356   1.201  0.3393 -0.1336 -0.2922
 1826SOL    HW115947   2.269   4.412   1.151 -0.3546 -0.8754 -0.2011
 1826SOL    HW215948   2.329   4.261   1.171  0.3853 -0.4687  0.7416
 1827SOL     OW15949   8.181   0.636   1.713 -0.0284 -0.5481 -0.5992
 1827SOL    HW115950   8.279   0.655   1.705 -0.0701 -0.4106 -0.7863
 1827SOL    HW215951   8.150   0.591   1.630  0.2164 -2.0860  0.1362
 1828SOL     OW15952   6.497   7.873   2.704 -0.1525 -0.5640  0.4724
 1828SOL    HW115953   6.482   7.785   2.750 -1.4934 -0.8892 -0.5324
 1828SOL    HW215954   6.420   7.933   2.722  0.9883  0.6017  1.5463
 1829SOL     OW15955   7.587   6.190   3.325  0.1312 -0.3155 -0.2983
 1829SOL    HW115956   7.669   6.191   3.382  0.3808 -1.4300 -0.6112
 1829SOL    HW215957   7.509   6.222   3.378  0.5819 -0.2290  0.3170
 1830SOL     OW15958   0.353   3.106   1.902  0.2002 -0.5570  0.3573
 1830SOL    HW115959   0.269   3.081   1.854  0.2991 -1.2508  0.5506
 1830SOL    HW215960   0.402   3.175   1.847 -0.2130 -0.5598 -0.0235
 1831SOL     OW15961   9.917   5.918   3.339 -0.1851 -0.3825 -0.2703
 1831SOL    HW115962   9.902   5.903   3.242  1.8731 -0.3862 -0.6094
 1831SOL    HW215963  10.015   5.928   3.357 -0.5102 -0.6845  1.8400
 1832SOL     OW15964   4.074   7.249   1.037 -0.0181 -1.2071  0.5809
 1832SOL    HW115965   3.979   7.276   1.049  0.0888 -0.4988 -0.1641
 1832SOL    HW215966   4.124   7.320   0.988  1.7156 -0.0278  3.9129
 1833SOL     OW15967   1.172   9.275   3.810 -0.0544 -0.1294 -0.1370
 1833SOL    HW115968   1.180   9.274   3.710  5.3157 -1.5876  0.1347
 1833SOL    HW215969   1.168   9.182   3.844  0.9849  0.2766  1.1213
 1834SOL     OW15970   2.777   1.263   2.814 -0.2105 -0.0011  0.6686
 1834SOL    HW115971   2.812   1.354   2.791 -1.5202  0.2821 -0.2215
 1834SOL    HW215972   2.799   1.243   2.910  1.0275  0.7964  0.5671
 1835SOL     OW15973   1.916   1.424   2.470 -0.4888 -0.1880 -0.0546
 1835SOL    HW115974   1.852   1.482   2.419 -0.1692 -0.9072 -1.2891
 1835SOL    HW215975   1.964   1.480   2.538 -0.9877  0.7659 -0.4688
 1836SOL     OW15976   2.592   7.227   0.720 -0.0428  0.1265  0.4101
 1836SOL    HW115977   2.602   7.136   0.760 -0.4922 -0.1193 -0.0349
 1836SOL    HW215978   2.501   7.263   0.739 -0.5007 -0.2705 -0.9506
 1837SOL     OW15979   2.188   1.937   1.324  0.2482  0.7197  0.0868
 1837SOL    HW115980   2.098   1.975   1.346  0.2207  0.8224 -0.2027
 1837SOL    HW215981   2.187   1.838   1.337 -0.0654  0.6512 -0.4552
 1838SOL     OW15982   2.584   7.015   2.445  0.0577  0.4005  0.2481
 1838SOL    HW115983   2.552   7.100   2.403 -1.0861 -0.5681 -0.8854
 1838SOL    HW215984   2.680   7.000   2.420 -0.0914  0.7449 -0.5365
 1839SOL     OW15985   9.412   7.951   0.688 -0.2114 -0.1722 -0.2852
 1839SOL    HW115986   9.471   7.872   0.667  0.0421 -0.1572  0.3869
 1839SOL    HW215987   9.321   7.933   0.652  0.0200 -0.4868 -0.7326
 1840SOL     OW15988   3.019   5.421   2.248  0.1433 -0.4957 -0.4023
 1840SOL    HW115989   2.960   5.362   2.193  0.4854 -1.6117  0.3963
 1840SOL    HW215990   3.111   5.423   2.209  0.4079 -1.3547  0.1592
 1841SOL     OW15991   0.179   7.470   1.685 -0.1939  0.2908 -0.6624
 1841SOL    HW115992   0.253   7.465   1.618  0.5567  0.7803  0.1299
 1841SOL    HW215993   0.145   7.564   1.691  0.7263  0.5535  0.6926
 1842SOL     OW15994   8.839   9.303   1.861  0.2575 -0.2792  0.1835
 1842SOL    HW115995   8.821   9.235   1.932  2.1763 -1.7569 -0.6994
 1842SOL    HW215996   8.926   9.349   1.880  0.1974  0.1481 -0.5687
 1843SOL     OW15997   2.132   5.495   3.158  0.1518  0.7146  0.2477
 1843SOL    HW115998   2.162   5.495   3.253 -0.2058 -0.0585  0.3656
 1843SOL    HW215999   2.173   5.417   3.110 -2.5641 -1.0694  0.7065
 1844SOL     OW16000   2.316   3.297   0.738  0.0109  0.3464 -0.3539
 1844SOL    HW116001   2.262   3.316   0.656  0.5440  0.3647 -0.7023
 1844SOL    HW216002   2.266   3.234   0.798 -1.2084  1.8051  0.1912
 1845SOL     OW16003   7.859   8.508   3.093  0.0746  0.2177 -0.0566
 1845SOL    HW116004   7.919   8.493   3.171 -1.1395 -2.4897  0.3912
 1845SOL    HW216005   7.859   8.427   3.034 -0.6780  1.4046 -1.7568
 1846SOL     OW16006   1.095   5.561   3.583 -0.1174  0.1128  0.1024
 1846SOL    HW116007   1.033   5.555   3.505 -1.0500  1.9326  0.6723
 1846SOL    HW216008   1.189   5.549   3.553 -0.7165 -2.6280 -0.7935
 1847SOL     OW16009   7.898   0.392   2.834  0.6064 -0.3312  0.2689
 1847SOL    HW116010   7.984   0.432   2.865  0.7121  0.5338 -1.0981
 1847SOL    HW216011   7.895   0.393   2.734 -1.8178  1.4509  0.3205
 1848SOL     OW16012   4.580   8.512   3.931 -0.2857  0.3154  0.0409
 1848SOL    HW116013   4.611   8.459   4.009  1.7222  0.4750 -0.6129
 1848SOL    HW216014   4.540   8.450   3.863  1.4553 -0.3129 -0.4423
 1849SOL     OW16015   8.566   2.793   2.391  0.2162 -0.3610  0.0617
 1849SOL    HW116016   8.539   2.719   2.452 -0.5939 -0.6026 -0.5901
 1849SOL    HW216017   8.488   2.852   2.372  0.3811 -0.4544 -0.9658
 1850SOL     OW16018   9.430   1.312   3.604 -0.1440  0.0637 -0.1551
 1850SOL    HW116019   9.455   1.319   3.508  1.5080 -0.2340  0.2464
 1850SOL    HW216020   9.509   1.334   3.661 -0.2243 -2.8140  1.1242
 1851SOL     OW16021   8.393   2.143   3.115  0.5309 -0.2547 -0.1166
 1851SOL    HW116022   8.383   2.238   3.084 -1.0228 -0.5122 -0.4417
 1851SOL    HW216023   8.484   2.109   3.090  0.3162  0.4623 -1.9112
 1852SOL     OW16024   6.014   7.730   3.344  0.0224  0.1508  0.1926
 1852SOL    HW116025   5.917   7.720   3.366 -0.1168 -1.4251 -1.0883
 1852SOL    HW216026   6.056   7.793   3.409 -1.8790  0.9390  0.6947
 1853SOL     OW16027   0.463   8.933   0.484 -0.4773 -0.5196  0.1679
 1853SOL    HW116028   0.459   8.889   0.394  0.0186  2.5126 -1.4158
 1853SOL    HW216029   0.551   8.913   0.527  0.0026 -0.5477 -0.8155
 1854SOL     OW16030   0.410   7.137   1.429  0.3002  0.4415 -0.1018
 1854SOL    HW116031   0.495   7.180   1.460  1.2554 -1.5318  0.0790
 1854SOL    HW216032   0.339   7.151   1.498  0.8119  1.0515  0.3081
 1855SOL     OW16033   0.116   6.628   0.084  0.4860 -0.3420  0.0256
 1855SOL    HW116034   0.145   6.666  -0.004 -0.4502 -0.4700 -0.3387
 1855SOL    HW216035   0.038   6.567   0.071  0.6090 -0.6988  0.8893
 1856SOL     OW16036   0.040   4.847   2.576  0.1708  0.3446 -0.2137
 1856SOL    HW116037  -0.020   4.910   2.626  0.0027 -0.4266  0.5708
 1856SOL    HW216038  -0.005   4.758   2.567  1.0469 -0.1361  0.0733
 1857SOL     OW16039   4.276   9.676   1.803  0.0684 -0.1610 -0.3121
 1857SOL    HW116040   4.203   9.608   1.803 -0.6629  0.6113 -0.3492
 1857SOL    HW216041   4.312   9.687   1.895 -1.0250  0.6644  0.0384
 1858SOL     OW16042   1.142   7.723   3.282 -0.1279 -0.4419 -0.2494
 1858SOL    HW116043   1.228   7.747   3.327 -0.1851 -0.3681 -0.1789
 1858SOL    HW216044   1.121   7.627   3.300 -0.3833 -0.2883  0.2590
 1859SOL     OW16045   1.486   5.698   1.048 -0.4568  0.3634  0.1070
 1859SOL    HW116046   1.503   5.678   1.145  0.4540 -2.2521 -0.5305
 1859SOL    HW216047   1.572   5.718   1.002 -0.7956  0.8761 -0.3113
 1860SOL     OW16048   4.383   9.330   1.819 -0.0311 -0.4253 -0.0393
 1860SOL    HW116049   4.385   9.342   1.719 -0.2934 -2.2142 -0.2760
 1860SOL    HW216050   4.290   9.348   1.852 -0.0099 -0.0958 -0.1588
 1861SOL     OW16051   2.960   2.300   0.089 -0.1563 -0.6459  0.0818
 1861SOL    HW116052   2.911   2.323   0.173  0.9023  0.8337  0.3040
 1861SOL    HW216053   2.895   2.262   0.023 -1.3669  0.0919  0.8214
 1862SOL     OW16054   4.149   8.838   2.619  0.5095 -0.2530 -0.3532
 1862SOL    HW116055   4.115   8.867   2.530  0.0834  0.1534 -0.0584
 1862SOL    HW216056   4.158   8.738   2.620  2.7379 -0.0993 -1.6344
 1863SOL     OW16057   8.794   6.808   3.173  0.1306 -0.5935  0.1017
 1863SOL    HW116058   8.733   6.732   3.190  0.6280 -1.1476 -0.5611
 1863SOL    HW216059   8.745   6.894   3.185 -1.6597 -1.0327 -3.5264
 1864SOL     OW16060   4.084   8.433   0.394 -0.2005  0.3093  0.1510
 1864SOL    HW116061   4.062   8.497   0.321  0.5662  0.1842 -0.1874
 1864SOL    HW216062   4.162   8.467   0.446  0.3439 -0.4507 -0.1591
 1865SOL     OW16063   9.981   6.444   1.418 -0.4594 -0.2729  0.7466
 1865SOL    HW116064  10.018   6.480   1.332 -2.7279 -1.5672 -0.8458
 1865SOL    HW216065  10.035   6.366   1.448 -0.7269 -0.9774 -0.5339
 1866SOL     OW16066   7.665   9.370   1.141  0.2904 -0.7110  0.4495
 1866SOL    HW116067   7.587   9.310   1.157  1.2551 -1.9576  0.5806
 1866SOL    HW216068   7.638   9.446   1.081 -1.7361  0.4726  2.7838
 1867SOL     OW16069   1.513   2.561   2.675 -0.1779  0.1716 -0.2907
 1867SOL    HW116070   1.512   2.587   2.579  1.1521 -0.4395 -0.4863
 1867SOL    HW216071   1.607   2.569   2.711 -0.4000 -0.9303  0.5681
 1868SOL     OW16072   4.869   9.238   1.845  0.0010  0.3785 -0.0199
 1868SOL    HW116073   4.924   9.312   1.807  0.2160 -0.4537 -1.3939
 1868SOL    HW216074   4.916   9.197   1.923  0.8712  0.3314 -0.5670
 1869SOL     OW16075   2.287   9.382   0.249 -0.2429 -0.8042  0.2131
 1869SOL    HW116076   2.219   9.448   0.279 -0.5786 -1.5192  1.0167
 1869SOL    HW216077   2.259   9.290   0.275  1.2354 -1.0652  0.9375
 1870SOL     OW16078   2.939   5.246   2.428 -0.2500  0.2456  0.0397
 1870SOL    HW116079   2.965   5.165   2.376  2.4394  0.2785  1.2669
 1870SOL    HW216080   2.965   5.328   2.377 -2.0226  0.3576 -0.7233
 1871SOL     OW16081   6.760   7.606   2.927 -0.2736 -0.5609  0.8315
 1871SOL    HW116082   6.681   7.632   2.872  1.4258 -0.3128 -1.5921
 1871SOL    HW216083   6.758   7.507   2.943 -1.0354 -0.5624  0.7514
 1872SOL     OW16084   8.841   2.316   2.544 -0.1437  0.2142  0.2097
 1872SOL    HW116085   8.903   2.385   2.507 -1.0146  0.7319 -0.3014
 1872SOL    HW216086   8.823   2.247   2.474 -0.9589  0.6237  0.0143
 1873SOL     OW16087   3.778   5.470   1.751  0.4117 -0.3299  0.1654
 1873SOL    HW116088   3.828   5.482   1.836 -0.6383  1.0022  0.6064
 1873SOL    HW216089   3.687   5.432   1.770 -0.4166  1.4283 -0.1890
 1874SOL     OW16090   2.417   0.075   1.176 -0.1238  0.0989  0.2261
 1874SOL    HW116091   2.444   0.118   1.261 -1.2641  0.6759  0.3068
 1874SOL    HW216092   2.352   0.001   1.195  1.3325 -1.2372  0.0388
 1875SOL     OW16093   0.345   1.627   1.964 -0.0256 -0.1776 -0.3412
 1875SOL    HW116094   0.442   1.611   1.945  0.2968  0.8082  0.4238
 1875SOL    HW216095   0.310   1.555   2.024  1.0835  1.2195  2.0464
 1876SOL     OW16096   7.038   9.255   1.009 -0.0453  0.3621  0.1470
 1876SOL    HW116097   7.014   9.228   0.915  2.6400  1.8151 -1.0158
 1876SOL    HW216098   6.970   9.320   1.043 -0.6849  0.3248 -1.0131
 1877SOL     OW16099   9.050   8.243   2.227  0.3208  0.3392 -0.4155
 1877SOL    HW116100   9.016   8.152   2.201 -0.6479  0.5787  0.0259
 1877SOL    HW216101   9.061   8.247   2.326 -1.6447  1.3892 -0.2210
 1878SOL     OW16102   8.079   7.857   3.807 -0.4009  0.0610  0.1534
 1878SOL    HW116103   8.001   7.889   3.754  1.3856 -1.0029 -3.3115
 1878SOL    HW216104   8.082   7.757   3.804  0.7060  0.0639  0.8192
 1879SOL     OW16105   2.224   2.550   0.827 -0.0262  0.4605  0.6650
 1879SOL    HW116106   2.227   2.566   0.926  0.0796 -0.1240  0.7606
 1879SOL    HW216107   2.139   2.502   0.804  0.1650  0.1885  0.5331
 1880SOL     OW16108   8.843   7.216   2.359 -0.3121  0.4612 -0.0712
 1880SOL    HW116109   8.775   7.215   2.286 -0.2189  1.0522 -0.1757
 1880SOL    HW216110   8.865   7.123   2.386 -2.7212  0.2927  1.4284
 1881SOL     OW16111   1.800   7.655   0.363 -0.5165  0.1160  0.7409
 1881SOL    HW116112   1.880   7.714   0.374 -0.3199 -0.5558  3.1197
 1881SOL    HW216113   1.820   7.565   0.403 -1.4265 -1.0306 -1.2988
 1882SOL     OW16114   5.083   7.086   2.837  0.3055 -0.3113  0.3332
 1882SOL    HW116115   5.057   7.071   2.742 -2.5027  0.4111  0.9462
 1882SOL    HW216116   5.169   7.138   2.841  1.1936 -1.5678 -1.7611
 1883SOL     OW16117   2.903   7.606   1.692 -0.7613 -0.6331 -0.4762
 1883SOL    HW116118   2.983   7.623   1.749 -0.1776  0.4869 -1.6040
 1883SOL    HW216119   2.820   7.631   1.742 -0.2783  0.0963 -0.0303
 1884SOL     OW16120   8.263   9.327   2.169  0.1726  0.8362  0.6510
 1884SOL    HW116121   8.340   9.276   2.207 -0.1626 -0.2458 -0.0953
 1884SOL    HW216122   8.195   9.343   2.241 -0.7074 -1.6709  0.4380
 1885SOL     OW16123   3.555   0.274   1.439 -0.0388  0.1212  0.5508
 1885SOL    HW116124   3.579   0.276   1.342  0.6361  0.4638  0.7158
 1885SOL    HW216125   3.639   0.278   1.494 -0.3853 -0.6690  1.1444
 1886SOL     OW16126   2.932   1.312   0.721 -0.0032  0.1857 -0.1944
 1886SOL    HW116127   2.848   1.257   0.722  0.6010 -0.7738 -1.4295
 1886SOL    HW216128   2.968   1.320   0.814 -0.4583 -0.9368  0.0777
 1887SOL     OW16129   1.322   1.344   0.687  0.1809 -0.5828  0.5004
 1887SOL    HW116130   1.250   1.402   0.724  0.2807  0.2998 -0.6533
 1887SOL    HW216131   1.398   1.340   0.751  0.1511  0.5259  0.6103
 1888SOL     OW16132   9.179   1.288   1.084 -0.2524 -0.7153  0.4732
 1888SOL    HW116133   9.252   1.240   1.036  0.8623  0.9380  0.4988
 1888SOL    HW216134   9.153   1.236   1.166  1.0598 -1.1806  0.5979
 1889SOL     OW16135   2.704   7.493   1.272  0.3619  0.2841 -0.3380
 1889SOL    HW116136   2.639   7.498   1.349 -0.3895  1.3015 -1.0296
 1889SOL    HW216137   2.788   7.449   1.303 -0.1466  0.1656  0.9250
 1890SOL     OW16138   6.325   9.418   2.067  0.0999  0.1415  0.4142
 1890SOL    HW116139   6.338   9.513   2.040 -1.3674  0.4458  0.7104
 1890SOL    HW216140   6.314   9.362   1.985 -0.8685  0.5242  0.2739
 1891SOL     OW16141   4.213   1.158   0.153  1.0372  0.0109  0.2217
 1891SOL    HW116142   4.295   1.102   0.161  0.3850 -0.9289  0.4162
 1891SOL    HW216143   4.133   1.099   0.141  0.5119  0.9618 -1.0071
 1892SOL     OW16144   5.746   7.222   2.926  0.4756  0.7292  0.2178
 1892SOL    HW116145   5.738   7.223   3.025 -2.5350  2.6685  0.0172
 1892SOL    HW216146   5.813   7.291   2.897  0.8792  0.6101  0.8718
 1893SOL     OW16147   9.374   5.895   1.844  0.2379  0.3513 -0.1446
 1893SOL    HW116148   9.461   5.856   1.873 -0.3449  0.6573  2.0781
 1893SOL    HW216149   9.389   5.988   1.810  0.7517  0.4891  0.4565
 1894SOL     OW16150   2.054   4.725   2.520 -0.5608  0.4844  0.5051
 1894SOL    HW116151   2.016   4.729   2.428 -0.5553  0.6570  0.5088
 1894SOL    HW216152   2.146   4.686   2.517  0.0389  1.8565  0.2367
 1895SOL     OW16153   3.158   7.843   2.811 -0.6421  0.2078  0.1570
 1895SOL    HW116154   3.216   7.774   2.769 -1.4058  0.4046 -1.2452
 1895SOL    HW216155   3.214   7.905   2.866  0.3166 -0.2951 -0.2416
 1896SOL     OW16156   3.475   9.818   3.826 -0.1611  0.1033 -0.1500
 1896SOL    HW116157   3.433   9.814   3.916  1.6351  0.3761  0.7127
 1896SOL    HW216158   3.520   9.906   3.814 -0.9595  0.3338 -1.5828
 1897SOL     OW16159   0.645   3.300   3.798 -0.2886  0.1575 -0.3179
 1897SOL    HW116160   0.580   3.224   3.790 -1.5912  1.4451 -2.2338
 1897SOL    HW216161   0.706   3.300   3.719  3.4484 -2.2299  2.3855
 1898SOL     OW16162   4.394   8.713   3.896 -0.2866 -0.1979 -0.4541
 1898SOL    HW116163   4.330   8.643   3.864  0.9997  0.0887 -3.8791
 1898SOL    HW216164   4.484   8.672   3.911 -0.2198  0.1897  0.2134
 1899SOL     OW16165   0.536   7.603   3.200 -0.0318 -0.2189  0.4683
 1899SOL    HW116166   0.571   7.628   3.290  0.0438  0.7552  0.1670
 1899SOL    HW216167   0.545   7.504   3.188  1.9553 -0.0834  0.6906
 1900SOL     OW16168   1.707   3.263   3.672  0.3498 -0.2244 -0.1387
 1900SOL    HW116169   1.637   3.290   3.605  2.5809  1.1210 -1.9806
 1900SOL    HW216170   1.751   3.178   3.641 -0.2802 -0.9620  0.9253
 1901SOL     OW16171   1.419   2.482   3.243 -0.6247  0.5083 -0.3165
 1901SOL    HW116172   1.359   2.474   3.322 -0.3529  1.3000 -0.0187
 1901SOL    HW216173   1.374   2.539   3.173 -0.4625  0.6202 -0.3301
 1902SOL     OW16174   3.850   3.640   3.730  0.0890  0.0921 -0.3085
 1902SOL    HW116175   3.938   3.641   3.682 -0.1047  0.5157 -0.6557
 1902SOL    HW216176   3.776   3.661   3.666 -0.0362  2.0875  0.4466
 1903SOL     OW16177   0.050   4.343   3.047  0.5232  0.5819  0.0639
 1903SOL    HW116178  -0.049   4.357   3.055  0.3442  1.3908 -2.9276
 1903SOL    HW216179   0.070   4.299   2.960  2.6236 -1.9431  1.7567
 1904SOL     OW16180   9.896   0.700   0.687 -0.2043  0.4096  0.0719
 1904SOL    HW116181   9.892   0.770   0.758 -1.2987  1.8483 -1.3797
 1904SOL    HW216182   9.811   0.647   0.688 -0.4428  0.7832 -0.5232
 1905SOL     OW16183   1.339   5.662   0.587  0.0153 -0.2794  0.1843
 1905SOL    HW116184   1.402   5.624   0.519  1.0586  0.8110  0.5245
 1905SOL    HW216185   1.358   5.760   0.599  0.2420 -0.5905  2.5003
 1906SOL     OW16186   3.812   1.408   2.977 -0.3085 -0.7032  0.3143
 1906SOL    HW116187   3.895   1.352   2.974  1.3748  1.7377 -0.6465
 1906SOL    HW216188   3.807   1.456   3.064 -1.0416 -1.2930  0.6033
 1907SOL     OW16189   2.510   6.632   0.700  0.1329  0.2583  0.5251
 1907SOL    HW116190   2.471   6.542   0.717  1.9946 -0.8259 -0.6961
 1907SOL    HW216191   2.580   6.653   0.768 -0.7261  1.0635  1.1746
 1908SOL     OW16192   4.983   8.304   2.371 -0.2586  0.4423 -0.3725
 1908SOL    HW116193   4.890   8.274   2.393  0.2662 -0.5060  0.6088
 1908SOL    HW216194   5.040   8.297   2.453  0.6789  1.0422 -0.9658
 1909SOL     OW16195   4.264   5.617   2.756  0.1944  0.4790  0.2326
 1909SOL    HW116196   4.363   5.618   2.740  0.3710  0.7880  1.3150
 1909SOL    HW216197   4.236   5.703   2.799 -0.4364  0.1314  0.5230
 1910SOL     OW16198   1.819   6.265   1.863  0.0964  0.3314  0.0770
 1910SOL    HW116199   1.772   6.272   1.950 -1.2511 -0.9833 -0.5135
 1910SOL    HW216200   1.918   6.260   1.878 -0.1155  0.3549  1.5022
 1911SOL     OW16201   3.220   3.455   1.936 -0.6529 -0.4779  0.3549
 1911SOL    HW116202   3.295   3.521   1.942 -0.9794 -0.1212  0.4846
 1911SOL    HW216203   3.241   3.387   1.865 -0.6649  0.2109 -0.3134
 1912SOL     OW16204   4.435   0.996   0.119  0.0270 -0.3451  0.0786
 1912SOL    HW116205   4.372   0.983   0.042  0.7911 -0.2434 -0.5715
 1912SOL    HW216206   4.523   1.028   0.084  0.0895  0.5819  1.0898
 1913SOL     OW16207   8.225   8.596   0.617  0.5206 -0.2388 -0.5437
 1913SOL    HW116208   8.245   8.631   0.709  0.1150 -0.3391 -0.4181
 1913SOL    HW216209   8.234   8.671   0.551 -0.1942  0.0720 -0.2953
 1914SOL     OW16210   2.729   7.166   3.055 -0.1308  0.3015 -0.8750
 1914SOL    HW116211   2.633   7.146   3.035  0.0619  0.5808 -2.1047
 1914SOL    HW216212   2.775   7.082   3.084 -0.8667  0.2694  0.2348
 1915SOL     OW16213   8.958   8.906   1.026 -0.4955 -0.2568  0.1394
 1915SOL    HW116214   9.049   8.946   1.041 -0.0449 -1.5117  0.7827
 1915SOL    HW216215   8.913   8.890   1.114 -1.0950 -0.2165 -0.1518
 1916SOL     OW16216   9.242   9.956   1.481 -0.0590  0.2689 -0.2166
 1916SOL    HW116217   9.245   9.891   1.556  1.7754  1.1879  0.5443
 1916SOL    HW216218   9.238  10.049   1.517 -0.3588  0.6659 -1.2592
 1917SOL     OW16219   2.335   0.139   2.310 -0.0981 -0.1253 -0.1632
 1917SOL    HW116220   2.398   0.069   2.276 -0.9196  0.0605 -2.1026
 1917SOL    HW216221   2.305   0.197   2.235  0.7680  2.5076  1.4744
 1918SOL     OW16222   2.492   5.776   0.960 -0.6756  0.2394 -0.3809
 1918SOL    HW116223   2.474   5.679   0.950  2.9794 -0.3552 -2.1887
 1918SOL    HW216224   2.428   5.828   0.904 -0.1851 -1.3732 -2.4958
 1919SOL     OW16225   0.731   0.037   1.375 -0.3740 -0.2036 -0.1325
 1919SOL    HW116226   0.829   0.020   1.358 -0.5562 -0.0596 -1.3946
 1919SOL    HW216227   0.721   0.113   1.438  0.3278  0.6635 -1.0444
 1920SOL     OW16228   4.698   8.635   2.158 -0.0574 -0.5446 -0.1608
 1920SOL    HW116229   4.781   8.579   2.152 -1.0844 -1.9986 -0.9684
 1920SOL    HW216230   4.685   8.664   2.253  0.6835 -1.3716  0.2028
 1921SOL     OW16231   5.695   7.479   3.172  0.8509 -0.1628  0.0550
 1921SOL    HW116232   5.628   7.519   3.235  0.2676 -1.7386  0.4797
 1921SOL    HW216233   5.681   7.516   3.081 -1.8564 -1.7893 -0.2715
 1922SOL     OW16234   7.435   8.432   1.919 -0.2927  0.4333 -0.1735
 1922SOL    HW116235   7.451   8.449   1.822 -2.0019 -0.0312 -0.5505
 1922SOL    HW216236   7.397   8.514   1.962 -0.8759  0.1872 -0.2145
 1923SOL     OW16237   0.896   3.232   2.994 -0.1589 -0.1534 -0.0455
 1923SOL    HW116238   0.812   3.219   2.941  0.6353  1.6343 -1.8082
 1923SOL    HW216239   0.894   3.322   3.037  0.8606 -0.0922 -0.1284
 1924SOL     OW16240   5.804   9.564   2.656  0.6054 -0.0167 -0.6196
 1924SOL    HW116241   5.840   9.536   2.567  0.1833 -2.8431  0.0658
 1924SOL    HW216242   5.870   9.541   2.728 -0.1790 -0.1659  0.0598
 1925SOL     OW16243   2.376   1.446   3.204 -0.1003 -0.2728  0.0983
 1925SOL    HW116244   2.308   1.442   3.130 -0.4006 -0.7229  0.3946
 1925SOL    HW216245   2.441   1.520   3.186 -0.4482 -0.0819 -0.3801
 1926SOL     OW16246   9.067   4.313   1.143 -0.1057 -0.2040 -0.2139
 1926SOL    HW116247   9.073   4.214   1.157 -0.8255 -0.1561  0.4595
 1926SOL    HW216248   9.112   4.338   1.057  1.1486 -0.9697  0.2098
 1927SOL     OW16249   3.094   2.417   1.249  0.1852 -0.0667 -0.3379
 1927SOL    HW116250   2.999   2.440   1.227  0.2601 -0.6314 -1.2617
 1927SOL    HW216251   3.149   2.501   1.252 -0.3976  0.2926  0.4967
 1928SOL     OW16252   0.231   3.247   0.446 -0.4765  0.4260 -0.7315
 1928SOL    HW116253   0.152   3.194   0.476  0.1334 -0.3427 -0.4613
 1928SOL    HW216254   0.257   3.311   0.519  0.0036 -0.3021 -0.2500
 1929SOL     OW16255   1.324   0.924   3.180  0.4403 -0.0823 -0.6263
 1929SOL    HW116256   1.379   0.854   3.134 -0.2045 -0.5598 -0.6783
 1929SOL    HW216257   1.377   0.964   3.255  0.2295 -1.8271  0.4857
 1930SOL     OW16258   3.812   7.796   0.658 -0.1382  0.6953 -0.5246
 1930SOL    HW116259   3.844   7.701   0.657  0.9311  1.0371 -3.1776
 1930SOL    HW216260   3.712   7.797   0.654 -0.2833 -0.3168  1.8994
 1931SOL     OW16261   2.596   4.322   3.488  0.1927  0.4104 -0.2955
 1931SOL    HW116262   2.619   4.335   3.585 -0.9980  0.5104 -0.0243
 1931SOL    HW216263   2.557   4.406   3.451  1.1793  0.5585 -1.0290
 1932SOL     OW16264   9.112   1.497   1.249 -0.0491  0.1988 -0.9088
 1932SOL    HW116265   9.134   1.440   1.169  0.8512  1.0533 -1.2794
 1932SOL    HW216266   9.027   1.546   1.231 -0.1565 -0.0529 -1.1032
 1933SOL     OW16267   8.469   7.353   3.047 -0.7196  0.1024  0.5499
 1933SOL    HW116268   8.559   7.311   3.049 -1.2789 -1.3284 -2.0319
 1933SOL    HW216269   8.471   7.441   3.095  1.6319 -0.6210  1.8444
 1934SOL     OW16270   5.724   7.769   3.344  0.3130 -0.0849 -0.0194
 1934SOL    HW116271   5.644   7.756   3.402 -1.2262  0.8799 -1.8609
 1934SOL    HW216272   5.695   7.784   3.249  2.6736  0.2346 -0.7343
 1935SOL     OW16273   4.682   8.057   1.025 -0.3385  0.0980  0.7153
 1935SOL    HW116274   4.763   8.003   1.046 -0.0895  1.0606  2.3374
 1935SOL    HW216275   4.655   8.042   0.930  0.9694 -1.2214  0.5401
 1936SOL     OW16276   6.534   8.490   1.947  0.1234 -0.3059  0.6472
 1936SOL    HW116277   6.485   8.441   2.020  1.0735 -0.1125  1.4196
 1936SOL    HW216278   6.621   8.445   1.929 -0.0592 -0.2846 -0.3019
 1937SOL     OW16279   2.467   0.679   3.246  0.0479  0.3484 -0.0734
 1937SOL    HW116280   2.510   0.590   3.265 -0.4193  0.1802  0.1944
 1937SOL    HW216281   2.372   0.665   3.221  0.0078  0.7669 -0.1450
 1938SOL     OW16282   8.287   5.157   3.240  0.4850 -0.1283 -0.2802
 1938SOL    HW116283   8.291   5.058   3.255 -1.8021 -0.0880  0.7552
 1938SOL    HW216284   8.363   5.201   3.288 -0.0404 -1.1290  1.5016
 1939SOL     OW16285   9.059   9.554   3.535 -0.1807  0.2142 -0.0940
 1939SOL    HW116286   8.980   9.504   3.570 -0.3397  0.2103 -0.4578
 1939SOL    HW216287   9.101   9.607   3.609 -0.7559  0.5213  0.0119
 1940SOL     OW16288   7.053   9.303   2.499  0.0730  0.4187  0.5816
 1940SOL    HW116289   7.123   9.357   2.453  0.2120  1.9280  2.5169
 1940SOL    HW216290   6.998   9.362   2.557 -1.7596 -1.0297  0.3549
 1941SOL     OW16291   9.323   0.649   1.554 -0.0266 -0.6001  0.3827
 1941SOL    HW116292   9.372   0.686   1.475  0.3303  0.3703  1.0425
 1941SOL    HW216293   9.370   0.676   1.638 -1.8041  0.5494  1.0394
 1942SOL     OW16294   3.431   3.561   3.582 -0.6910  0.0789 -0.1201
 1942SOL    HW116295   3.338   3.525   3.570 -0.4949  0.3189 -2.6615
 1942SOL    HW216296   3.497   3.486   3.577 -0.6898  0.0006  0.9644
 1943SOL     OW16297   2.593   2.516   1.226  0.2769  0.1524 -0.0451
 1943SOL    HW116298   2.568   2.490   1.319  0.1211 -0.1129 -0.1632
 1943SOL    HW216299   2.512   2.548   1.177  0.3209  0.0900 -0.1588
 1944SOL     OW16300   3.284   3.770   3.465  0.5321 -0.1162  0.0467
 1944SOL    HW116301   3.217   3.721   3.409 -0.9420  1.0531  0.7618
 1944SOL    HW216302   3.352   3.705   3.500  0.7947 -1.0405 -2.1117
 1945SOL     OW16303   8.243   0.671   1.398  0.4135  0.1562 -0.0311
 1945SOL    HW116304   8.185   0.612   1.343 -0.5463  1.1305 -0.0715
 1945SOL    HW216305   8.275   0.748   1.343 -2.5519  2.4875  1.3632
 1946SOL     OW16306   2.801   0.132   1.075  0.1445  0.6073  0.0914
 1946SOL    HW116307   2.786   0.203   1.008  0.9634  0.9604  0.2772
 1946SOL    HW216308   2.899   0.122   1.092  0.0135 -0.2835  0.3614
 1947SOL     OW16309   1.227   7.363   1.392  0.5912 -0.5289 -0.0287
 1947SOL    HW116310   1.158   7.294   1.369 -0.5493  0.5297  0.1716
 1947SOL    HW216311   1.211   7.445   1.337  0.2062  0.6073  1.7452
 1948SOL     OW16312   4.529   1.160   1.378  0.0692 -0.0733 -0.2704
 1948SOL    HW116313   4.603   1.114   1.329  0.1504 -0.9239  0.6542
 1948SOL    HW216314   4.441   1.118   1.355  0.1191 -0.5462  0.4058
 1949SOL     OW16315   3.158   9.053   3.519  0.7630  0.6516  0.1129
 1949SOL    HW116316   3.233   8.989   3.540  0.3953 -0.0101 -0.5620
 1949SOL    HW216317   3.117   9.028   3.431  0.3494  1.5817  0.0369
 1950SOL     OW16318   8.339   1.753   3.603 -0.5168 -0.6643  0.3119
 1950SOL    HW116319   8.298   1.752   3.512 -0.6550 -1.4406  0.3780
 1950SOL    HW216320   8.311   1.671   3.653 -0.5628 -0.1707  1.1062
 1951SOL     OW16321   1.736   5.374   0.642  0.0662 -0.7732  0.4757
 1951SOL    HW116322   1.805   5.305   0.663 -0.4303 -1.2496  0.5589
 1951SOL    HW216323   1.666   5.334   0.582 -0.4072 -0.4428  0.8027
 1952SOL     OW16324   8.847   8.757   0.811  0.1109 -0.5557 -0.8034
 1952SOL    HW116325   8.747   8.753   0.811 -0.0626  2.4051 -1.1430
 1952SOL    HW216326   8.879   8.798   0.896  0.9524 -0.1866 -1.2901
 1953SOL     OW16327   9.312   9.429   1.977  0.1891 -0.0666 -0.1073
 1953SOL    HW116328   9.363   9.510   1.950 -2.6119  2.0962  0.9331
 1953SOL    HW216329   9.353   9.390   2.060  1.7952  0.0103 -0.8465
 1954SOL     OW16330   9.284   7.541   2.985 -0.2610  0.1923 -0.2389
 1954SOL    HW116331   9.359   7.475   2.992 -0.9609 -0.4811  1.0421
 1954SOL    HW216332   9.265   7.560   2.888  0.0116 -1.4210 -0.6263
 1955SOL     OW16333   3.618   0.109   1.761  0.1158 -0.2613 -0.4548
 1955SOL    HW116334   3.667   0.133   1.845  2.6151 -0.4989 -1.7960
 1955SOL    HW216335   3.667   0.146   1.682 -1.1461 -1.6801 -1.9467
 1956SOL     OW16336   0.838   7.745   1.552  0.1591  0.2245 -0.2435
 1956SOL    HW116337   0.885   7.660   1.528 -2.0945 -1.0466 -0.3561
 1956SOL    HW216338   0.815   7.795   1.468  1.0249  0.6854 -0.2054
 1957SOL     OW16339   9.693   5.260   2.687  0.2155  0.1492 -0.3516
 1957SOL    HW116340   9.688   5.340   2.627 -0.8935  0.7937  0.5889
 1957SOL    HW216341   9.621   5.195   2.662 -1.1433  1.0400  1.1478
 1958SOL     OW16342   5.560   8.891   3.157  0.2778  0.0046 -0.1396
 1958SOL    HW116343   5.465   8.923   3.157  0.2687 -0.0145 -1.1738
 1958SOL    HW216344   5.571   8.819   3.089  0.8117 -0.6696  0.6556
 1959SOL     OW16345   9.337   1.238   2.559  0.3010  0.1481  0.1651
 1959SOL    HW116346   9.332   1.234   2.659 -0.2124  1.3068  0.1974
 1959SOL    HW216347   9.433   1.243   2.531  0.5561 -2.4459  0.4824
 1960SOL     OW16348   8.919   2.438   1.789  0.6888 -0.2853 -0.4463
 1960SOL    HW116349   8.858   2.491   1.849  1.1420 -2.1291  1.7129
 1960SOL    HW216350   9.003   2.489   1.772 -0.3458  1.1636 -1.3041
 1961SOL     OW16351   2.700   6.064   1.831 -0.2530 -0.0921  0.2893
 1961SOL    HW116352   2.726   6.004   1.906  4.1858  2.2744  0.8087
 1961SOL    HW216353   2.693   6.011   1.747  0.6981 -1.8041  1.2533
 1962SOL     OW16354   3.365   1.889   1.338 -0.6878 -0.6875 -0.0056
 1962SOL    HW116355   3.267   1.901   1.329 -0.6086  1.3049  1.4383
 1962SOL    HW216356   3.412   1.955   1.279 -0.2074 -1.3116 -0.3288
 1963SOL     OW16357   8.191   4.704   2.929  0.0909 -0.3994  1.0397
 1963SOL    HW116358   8.229   4.617   2.898  1.5585 -0.5396  3.0969
 1963SOL    HW216359   8.191   4.769   2.853  0.6021 -1.6779 -0.0705
 1964SOL     OW16360   6.656   8.116   2.944  0.7726  0.2225 -0.8173
 1964SOL    HW116361   6.705   8.038   2.905  0.3604  0.2782 -1.4574
 1964SOL    HW216362   6.678   8.198   2.893  1.0587  0.4940 -0.2601
 1965SOL     OW16363   2.814   4.835   0.977  0.4293  0.8578 -0.5363
 1965SOL    HW116364   2.836   4.910   1.039 -2.5012  0.5810  0.9219
 1965SOL    HW216365   2.855   4.750   1.011  1.3808  1.2795 -0.6372
 1966SOL     OW16366   2.981   8.113   0.098  0.3046  0.1496  0.0866
 1966SOL    HW116367   3.019   8.205   0.105  0.7182 -0.0962  1.2031
 1966SOL    HW216368   2.881   8.117   0.109  0.4991  0.2806  1.9224
 1967SOL     OW16369   3.716   7.535   1.182 -0.3638  0.4579 -0.6012
 1967SOL    HW116370   3.743   7.621   1.139 -1.4372  0.9310 -0.3438
 1967SOL    HW216371   3.638   7.551   1.242 -0.9838 -0.8144 -1.0453
 1968SOL     OW16372   2.185   4.054   3.155  0.2020 -0.0233 -0.3166
 1968SOL    HW116373   2.229   4.095   3.075  1.7817  1.6454  1.3417
 1968SOL    HW216374   2.144   4.125   3.211  1.3584 -0.8798  1.6730
 1969SOL     OW16375   3.786   4.896   2.915  0.4916 -0.1166 -0.0967
 1969SOL    HW116376   3.773   4.887   2.816  2.1072  2.5104 -0.5723
 1969SOL    HW216377   3.883   4.907   2.935 -0.1589  3.5798  1.3846
 1970SOL     OW16378   9.423   9.281   2.280  0.4912  0.2560 -0.2639
 1970SOL    HW116379   9.388   9.249   2.368  0.2023  0.2985 -0.3650
 1970SOL    HW216380   9.523   9.291   2.286  0.3300  1.6355  0.5183
 1971SOL     OW16381   9.582   7.769   0.267  0.2344  0.1246 -0.1538
 1971SOL    HW116382   9.506   7.730   0.216 -0.0098  2.4991 -1.6945
 1971SOL    HW216383   9.668   7.731   0.232 -0.0664 -0.0324 -0.7293
 1972SOL     OW16384   4.742   8.184   2.318 -0.1923  0.3238 -0.1379
 1972SOL    HW116385   4.752   8.161   2.222 -1.5473 -0.1666 -0.1717
 1972SOL    HW216386   4.687   8.267   2.328 -2.3385 -1.0966  0.2833
 1973SOL     OW16387   1.561   4.308   3.354 -0.6376 -0.1796  0.4850
 1973SOL    HW116388   1.496   4.327   3.428 -1.6238 -0.8777 -0.1940
 1973SOL    HW216389   1.518   4.249   3.286 -0.3303  1.8913 -1.5499
 1974SOL     OW16390   8.126   8.442   3.296 -0.4415 -0.3902  0.1095
 1974SOL    HW116391   8.103   8.359   3.347  0.5808 -1.3467 -0.9670
 1974SOL    HW216392   8.179   8.418   3.215 -3.2664  0.9723 -2.2394
 1975SOL     OW16393   9.930   1.121   3.441  0.1738  0.2016  0.4861
 1975SOL    HW116394   9.897   1.211   3.469 -0.7928 -0.0292  0.1383
 1975SOL    HW216395  10.016   1.130   3.391  0.4261  0.8684  1.0278
 1976SOL     OW16396   4.864   8.985   2.958 -0.1771 -0.6919 -0.2947
 1976SOL    HW116397   4.826   8.940   2.878  0.5362 -2.2627  0.2398
 1976SOL    HW216398   4.961   9.004   2.943  0.0358 -1.2896  0.3292
 1977SOL     OW16399   2.586   1.081   1.629 -0.1655 -0.0736  0.3401
 1977SOL    HW116400   2.506   1.141   1.635 -0.7222 -0.8334  0.5991
 1977SOL    HW216401   2.565   0.993   1.673  0.5502 -0.5526 -0.2651
 1978SOL     OW16402   1.296   2.609   1.008 -0.4345 -0.1410  0.2350
 1978SOL    HW116403   1.284   2.635   1.103 -1.9763 -1.7711  0.5336
 1978SOL    HW216404   1.389   2.577   0.993 -0.6162 -1.3696  1.6018
 1979SOL     OW16405   1.866   8.614   2.243  1.0148 -0.2746 -0.3256
 1979SOL    HW116406   1.964   8.591   2.239  0.8758 -0.9995  0.2782
 1979SOL    HW216407   1.849   8.698   2.191  2.1243  0.4042  0.3949
 1980SOL     OW16408   8.281   6.322   2.059 -0.4413  0.4018  0.2160
 1980SOL    HW116409   8.344   6.323   1.981 -0.9574 -0.6885 -0.2156
 1980SOL    HW216410   8.234   6.234   2.063 -1.0536  0.7722  1.2520
 1981SOL     OW16411   4.644   3.432   3.612  0.6569 -0.0168  0.6914
 1981SOL    HW116412   4.588   3.514   3.600 -1.0145 -1.1823  0.3596
 1981SOL    HW216413   4.667   3.395   3.522 -1.7770 -2.0127  0.8426
 1982SOL     OW16414   4.680   1.883   1.351  0.2169 -0.2833  0.1057
 1982SOL    HW116415   4.644   1.792   1.328  1.1806 -0.4468 -0.8051
 1982SOL    HW216416   4.779   1.884   1.338 -0.1610  1.8988 -3.4822
 1983SOL     OW16417   4.395   8.456   1.790  0.0957 -0.0572  0.0318
 1983SOL    HW116418   4.443   8.480   1.874 -0.6396 -0.0586  0.4514
 1983SOL    HW216419   4.333   8.530   1.764 -0.6565 -0.6149  0.2136
 1984SOL     OW16420   2.719   8.184   2.502  0.0003  0.2455 -0.2668
 1984SOL    HW116421   2.809   8.146   2.520 -0.2099 -0.1708 -0.0918
 1984SOL    HW216422   2.695   8.248   2.575  0.0937  0.2494 -0.2386
 1985SOL     OW16423   3.910   0.885   2.486  0.5083  0.3207 -0.5761
 1985SOL    HW116424   3.929   0.980   2.510  3.5973 -0.5276  0.6145
 1985SOL    HW216425   3.935   0.826   2.562 -0.1423 -1.5516 -1.7815
 1986SOL     OW16426   9.314   3.741   1.578 -0.4213 -0.1684  0.4798
 1986SOL    HW116427   9.394   3.697   1.618 -2.1794 -4.3959 -0.3255
 1986SOL    HW216428   9.249   3.765   1.651 -0.1094 -0.4084  0.8382
 1987SOL     OW16429   3.908   5.397   3.101 -0.0718 -0.2538  0.1006
 1987SOL    HW116430   3.841   5.340   3.053  0.2389 -0.5518  0.0242
 1987SOL    HW216431   3.982   5.421   3.038 -1.6054  2.5998 -0.7413
 1988SOL     OW16432   2.553   7.272   2.289 -0.3865  0.0421  0.5924
 1988SOL    HW116433   2.613   7.352   2.289  0.6875 -0.7391 -0.6808
 1988SOL    HW216434   2.496   7.273   2.207 -1.5424  0.3484  1.3905
 1989SOL     OW16435   9.041   9.991   3.386 -0.1063 -0.1861  0.2503
 1989SOL    HW116436   8.980   9.912   3.392 -1.5545  0.8312 -0.6313
 1989SOL    HW216437   9.038  10.029   3.293  0.0440  1.2795  0.8204
 1990SOL     OW16438   1.599   7.842   1.258  0.0159 -0.2800 -0.0418
 1990SOL    HW116439   1.514   7.880   1.221  0.2121 -1.5802 -1.9134
 1990SOL    HW216440   1.593   7.838   1.357 -1.4134  1.2934 -0.0467
 1991SOL     OW16441   2.346   7.359   0.757 -0.6509  0.0973 -0.0629
 1991SOL    HW116442   2.283   7.291   0.794  0.7337 -1.5080 -0.5819
 1991SOL    HW216443   2.322   7.449   0.792 -1.5467 -0.8790  1.9327
 1992SOL     OW16444   4.300   7.475   3.072  0.0378  0.0107 -0.5860
 1992SOL    HW116445   4.387   7.427   3.080  0.0276 -0.1387 -1.3181
 1992SOL    HW216446   4.253   7.474   3.160  1.0120  0.5558 -0.0511
 1993SOL     OW16447   2.657   6.926   2.715 -0.0893  0.4158  0.0127
 1993SOL    HW116448   2.622   7.000   2.659 -0.1462  0.6203  0.3191
 1993SOL    HW216449   2.754   6.942   2.736  0.4700 -0.6129 -1.6115
 1994SOL     OW16450   1.555   5.388   0.107  0.3487 -0.1036 -0.0609
 1994SOL    HW116451   1.618   5.325   0.060 -0.3130  0.0712 -1.2144
 1994SOL    HW216452   1.572   5.481   0.075  2.1866  0.5131  2.5836
 1995SOL     OW16453   8.870   2.320   1.487 -0.3071 -0.4422  0.2079
 1995SOL    HW116454   8.873   2.223   1.513  0.8562 -0.7153 -0.9031
 1995SOL    HW216455   8.891   2.377   1.567  2.9358 -1.2577 -0.0100
 1996SOL     OW16456   7.928   8.124   2.598 -0.4457  0.2570  0.4178
 1996SOL    HW116457   7.993   8.083   2.662 -0.9648 -0.4644  0.4800
 1996SOL    HW216458   7.978   8.177   2.529  0.2212 -0.5011  0.3155
 1997SOL     OW16459   2.330   0.402   3.533 -0.3341 -0.2352  0.0255
 1997SOL    HW116460   2.353   0.409   3.436  0.0484  0.0851  0.1403
 1997SOL    HW216461   2.230   0.404   3.545 -0.3484  0.7740 -0.2687
 1998SOL     OW16462   9.276   8.833   2.850  0.2846  0.2920  0.3669
 1998SOL    HW116463   9.201   8.773   2.879  1.2342 -0.9294  0.3178
 1998SOL    HW216464   9.328   8.862   2.931  1.4267 -1.1096  0.1637
 1999SOL     OW16465   7.710   9.052   3.007 -0.0883  0.6784  0.0553
 1999SOL    HW116466   7.689   8.963   3.047 -1.7514  1.5783  1.2307
 1999SOL    HW216467   7.633   9.084   2.951  0.3458  1.5457 -0.0717
 2000SOL     OW16468   8.732   8.062   1.929 -0.0810 -0.4207  0.4161
 2000SOL    HW116469   8.791   7.984   1.912 -0.0906 -0.6886  1.5897
 2000SOL    HW216470   8.707   8.104   1.842  0.2608 -1.4668 -0.1965
 2001SOL     OW16471   0.323   6.042   1.330 -0.2107  1.1252 -0.2034
 2001SOL    HW116472   0.327   5.947   1.300 -0.4956  1.4883 -1.4149
 2001SOL    HW216473   0.281   6.098   1.259 -0.6390  2.0578  0.7579
 2002SOL     OW16474   5.657   8.177   3.475 -0.0808  0.2058  0.0238
 2002SOL    HW116475   5.703   8.235   3.542  2.3050 -0.9074 -0.5963
 2002SOL    HW216476   5.715   8.099   3.453 -1.8473 -0.6924 -1.5831
 2003SOL     OW16477   3.284   1.345   1.094  0.1893 -0.2569 -0.0933
 2003SOL    HW116478   3.265   1.293   1.178  2.8023  0.2544  0.8793
 2003SOL    HW216479   3.342   1.423   1.116  0.0348  0.4962 -2.2456
 2004SOL     OW16480   1.703   5.598   3.198  0.2922  0.0393  0.1617
 2004SOL    HW116481   1.746   5.651   3.125  1.1242 -0.0272  0.5929
 2004SOL    HW216482   1.714   5.646   3.285 -0.0762 -0.2205  0.3547
 2005SOL     OW16483   2.349   3.338   1.960 -0.0341  0.0628 -0.0126
 2005SOL    HW116484   2.300   3.409   2.010  0.4181  0.1507  0.3054
 2005SOL    HW216485   2.338   3.353   1.861 -1.0613 -0.2030  0.0551
 2006SOL     OW16486   3.095   2.833   2.032  0.2920  0.3207  0.2918
 2006SOL    HW116487   3.112   2.781   1.949 -1.8105 -3.0774  1.9081
 2006SOL    HW216488   3.014   2.890   2.021 -0.5148 -0.8114  0.2661
 2007SOL     OW16489   9.695   6.729   2.104  0.3537  0.4958  0.1181
 2007SOL    HW116490   9.646   6.663   2.160  0.6767  0.7468  0.7094
 2007SOL    HW216491   9.721   6.808   2.160  3.8887 -0.8916  0.5522
 2008SOL     OW16492   2.718   7.022   0.307  0.5139 -0.0434 -0.2134
 2008SOL    HW116493   2.810   6.993   0.331  0.2737 -1.6908 -1.1811
 2008SOL    HW216494   2.710   7.029   0.207 -0.7683 -1.3002 -0.2290
 2009SOL     OW16495   9.756   3.923   1.946  0.0812  0.2053  0.2926
 2009SOL    HW116496   9.696   3.919   2.026 -0.1139 -0.0887  0.1314
 2009SOL    HW216497   9.724   3.995   1.884  0.5026  0.7400  0.6967
 2010SOL     OW16498   8.801   5.956   3.824  0.2376  0.1409 -0.6442
 2010SOL    HW116499   8.756   5.941   3.736  0.6169  0.2356 -0.8566
 2010SOL    HW216500   8.890   6.000   3.809  1.3749 -1.9510 -0.4091
 2011SOL     OW16501   5.061   0.843   1.719  0.4076 -0.2037 -0.1362
 2011SOL    HW116502   5.084   0.759   1.768 -2.6433 -1.2518 -0.3706
 2011SOL    HW216503   5.061   0.920   1.782  0.3389 -0.8821  0.7010
 2012SOL     OW16504   9.799   9.333   2.295  0.1670  0.3942 -0.8506
 2012SOL    HW116505   9.752   9.269   2.234  0.3572 -0.2807 -0.2995
 2012SOL    HW216506   9.825   9.415   2.244 -0.4490  0.2058 -1.4657
 2013SOL     OW16507   8.807   5.116   3.018 -0.1895  0.2282 -0.3733
 2013SOL    HW116508   8.852   5.200   3.047 -4.3045  1.1460  3.9794
 2013SOL    HW216509   8.716   5.136   2.984 -0.5934 -2.3265 -0.9414
 2014SOL     OW16510   0.274   8.613   3.588 -0.2070 -0.0221  0.2555
 2014SOL    HW116511   0.202   8.672   3.552 -0.4218 -1.4831 -1.8686
 2014SOL    HW216512   0.316   8.563   3.512  0.8781 -1.5715  1.8361
 2015SOL     OW16513   3.491   1.809   1.589 -0.0338  0.4851 -0.1116
 2015SOL    HW116514   3.541   1.725   1.610 -0.8166  0.1549  0.4465
 2015SOL    HW216515   3.472   1.813   1.491  0.3356  0.1990 -0.1963
 2016SOL     OW16516   1.471   0.751   1.721  0.0885 -0.0669 -0.0862
 2016SOL    HW116517   1.409   0.758   1.643 -0.0994 -2.3961 -0.1853
 2016SOL    HW216518   1.432   0.689   1.789  2.4634 -1.9962 -0.3697
 2017SOL     OW16519   1.562   1.419   1.984 -0.5292 -0.7957 -0.8748
 2017SOL    HW116520   1.554   1.466   1.896  0.7308 -0.4700 -0.8309
 2017SOL    HW216521   1.615   1.335   1.973 -1.1654 -1.2412 -0.5972
 2018SOL     OW16522   2.277   3.331   1.428 -0.1044 -0.3533  0.4085
 2018SOL    HW116523   2.231   3.364   1.345 -0.9651 -0.0833  0.9911
 2018SOL    HW216524   2.367   3.295   1.403 -0.1312  0.2278 -0.5713
 2019SOL     OW16525   1.831   8.524   3.200 -0.0650  0.7124 -0.4201
 2019SOL    HW116526   1.884   8.602   3.166  0.7818  0.2112 -0.2471
 2019SOL    HW216527   1.739   8.527   3.161 -0.2163  2.1082  0.0080
 2020SOL     OW16528   1.814   2.151   2.360 -0.7985 -0.1762 -0.0741
 2020SOL    HW116529   1.892   2.128   2.419  0.8695  1.0900 -1.7148
 2020SOL    HW216530   1.729   2.139   2.411  0.4563 -1.5624  1.7756
 2021SOL     OW16531   7.607   2.222   0.388 -0.4595 -0.6073  0.1928
 2021SOL    HW116532   7.628   2.226   0.291  1.6041 -0.1619  0.6369
 2021SOL    HW216533   7.691   2.229   0.441 -1.4505 -1.9977  2.0038
 2022SOL     OW16534   1.613   7.194   2.755 -0.4235  0.2413 -0.1641
 2022SOL    HW116535   1.681   7.265   2.736 -2.1894  1.6563 -1.4573
 2022SOL    HW216536   1.593   7.192   2.853 -0.9127  2.1071 -0.1976
 2023SOL     OW16537   0.888   9.751   0.349 -0.3171 -0.1434 -0.5301
 2023SOL    HW116538   0.825   9.763   0.425  0.6833  0.1429  0.2737
 2023SOL    HW216539   0.927   9.658   0.353 -0.7773 -0.3628 -1.0962
 2024SOL     OW16540   9.565   9.603   3.912 -0.7986  0.0587 -0.2897
 2024SOL    HW116541   9.641   9.557   3.959  0.3848  1.5142 -0.7472
 2024SOL    HW216542   9.512   9.536   3.861  0.5188 -0.8982 -0.4171
 2025SOL     OW16543   1.927   4.319   3.712  0.1263 -1.1663 -0.2108
 2025SOL    HW116544   1.902   4.228   3.678 -1.4082  0.1327 -2.7518
 2025SOL    HW216545   2.025   4.333   3.698  0.0670 -1.8018 -1.3673
 2026SOL     OW16546   4.038   3.857   0.248  0.3090 -0.7399  0.0031
 2026SOL    HW116547   4.114   3.896   0.197  0.7965 -2.2663 -0.4776
 2026SOL    HW216548   3.952   3.893   0.212  0.7810  0.8136  0.3898
 2027SOL     OW16549   7.847   2.497   3.733 -0.1751 -0.4051  0.4938
 2027SOL    HW116550   7.923   2.471   3.675  0.7425  0.3835  1.3247
 2027SOL    HW216551   7.763   2.456   3.699  0.5214 -0.7771 -0.7832
 2028SOL     OW16552   9.139   1.142   1.511 -0.2236 -0.3923 -0.1065
 2028SOL    HW116553   9.103   1.156   1.419  0.5919  0.7489 -0.2559
 2028SOL    HW216554   9.150   1.044   1.528  1.0163 -0.5484 -1.7528
 2029SOL     OW16555   9.621   8.175   1.082 -0.3046  0.3728 -0.6107
 2029SOL    HW116556   9.595   8.097   1.139 -0.3139  0.9828  0.2310
 2029SOL    HW216557   9.690   8.145   1.015 -1.2696 -0.6501 -1.1641
 2030SOL     OW16558   4.282   3.005   0.336  0.5858  0.2794  0.8790
 2030SOL    HW116559   4.199   2.949   0.339  0.9187 -0.3067 -0.4729
 2030SOL    HW216560   4.283   3.060   0.253  2.0848 -0.5832  0.3063
 2031SOL     OW16561   4.177   1.535   1.902 -0.2205 -0.1399  0.0209
 2031SOL    HW116562   4.080   1.513   1.914 -0.2907  0.0699 -0.1608
 2031SOL    HW216563   4.232   1.453   1.920 -0.4217 -0.2210  0.2705
 2032SOL     OW16564   9.926   1.893   3.734 -0.4319  0.0079 -0.2047
 2032SOL    HW116565   9.996   1.823   3.748 -0.4643  0.0591  0.2315
 2032SOL    HW216566   9.839   1.849   3.709 -0.3703 -0.0856 -0.2500
 2033SOL     OW16567   1.724   6.313   3.171 -0.3225  0.0237  0.3264
 2033SOL    HW116568   1.696   6.329   3.266 -0.0327 -0.6398  0.5236
 2033SOL    HW216569   1.728   6.215   3.153  2.3006  0.0647  0.4470
 2034SOL     OW16570   9.573   4.470   3.946 -0.2623 -0.0533 -0.3083
 2034SOL    HW116571   9.546   4.390   3.892 -0.5207  0.6512 -1.2407
 2034SOL    HW216572   9.491   4.516   3.980 -0.2720  1.5966 -2.4209
 2035SOL     OW16573   8.687   6.529   3.912  0.1012 -0.0471 -0.2673
 2035SOL    HW116574   8.768   6.547   3.856 -2.2602  2.2255 -3.0580
 2035SOL    HW216575   8.710   6.543   4.009  3.3426 -0.7047 -0.8672
 2036SOL     OW16576   9.357   8.520   0.822 -0.4578  0.1519  0.0085
 2036SOL    HW116577   9.314   8.491   0.737 -3.3022  1.9625  0.7770
 2036SOL    HW216578   9.374   8.439   0.879 -1.9996 -0.6991 -0.7060
 2037SOL     OW16579   9.079   6.449   0.945  0.4589 -0.4029  0.0917
 2037SOL    HW116580   9.071   6.415   0.852 -0.6912 -1.4001  0.5359
 2037SOL    HW216581   9.045   6.380   1.009 -0.7328  1.0647  1.0890
 2038SOL     OW16582   2.553   1.444   3.717  0.1743 -0.4190  0.4291
 2038SOL    HW116583   2.473   1.387   3.736  0.2521 -1.1765 -1.4024
 2038SOL    HW216584   2.620   1.434   3.791 -1.0191 -0.4852  1.5213
 2039SOL     OW16585   9.394   5.121   1.545  0.7379  0.2881  0.5279
 2039SOL    HW116586   9.398   5.070   1.459  0.7372  1.1770 -0.0035
 2039SOL    HW216587   9.303   5.161   1.556  0.1283 -1.4145  1.8769
 2040SOL     OW16588   4.205   0.480   2.786  0.3490 -0.1572  0.1782
 2040SOL    HW116589   4.281   0.416   2.789  1.1477  0.5475 -2.6070
 2040SOL    HW216590   4.237   0.571   2.813  0.2660 -0.0609 -0.0454
 2041SOL     OW16591   8.743   0.668   3.178  0.1588  0.2163 -0.1127
 2041SOL    HW116592   8.692   0.752   3.162  1.6833  0.9576 -1.2288
 2041SOL    HW216593   8.764   0.659   3.275  0.2728  1.2919 -0.0374
 2042SOL     OW16594   7.994   6.737   1.946 -0.1236 -0.2786  0.0824
 2042SOL    HW116595   8.049   6.769   1.869  1.9227 -0.1806  1.5441
 2042SOL    HW216596   7.988   6.637   1.945 -1.0459 -0.2204 -0.8194
 2043SOL     OW16597   9.105   5.738   2.950  0.0407  0.1987 -0.1063
 2043SOL    HW116598   9.124   5.778   2.860  2.2869  1.8216  1.0303
 2043SOL    HW216599   9.142   5.646   2.954 -3.5922 -1.4289 -2.1462
 2044SOL     OW16600   8.446   6.522   1.197  0.1207 -0.0236  0.6134
 2044SOL    HW116601   8.482   6.447   1.141  0.5726  0.6740 -0.0348
 2044SOL    HW216602   8.376   6.571   1.147 -0.2528 -0.0728  1.0823
 2045SOL     OW16603   1.658   5.165   2.220  0.6412  0.3107 -0.2920
 2045SOL    HW116604   1.566   5.134   2.246  1.0213 -0.4038  0.2212
 2045SOL    HW216605   1.726   5.119   2.277  1.3874  0.0731 -1.3645
 2046SOL     OW16606   6.891   9.216   2.308 -0.2042  0.0557 -0.5107
 2046SOL    HW116607   6.953   9.245   2.381 -2.2529  1.1483  0.8763
 2046SOL    HW216608   6.850   9.297   2.266 -1.1334 -0.6571 -0.9933
 2047SOL     OW16609   1.788   2.399   2.510 -0.5281 -0.9317 -0.2883
 2047SOL    HW116610   1.784   2.331   2.436  1.0048 -0.2114 -1.0436
 2047SOL    HW216611   1.849   2.366   2.582  0.9816  0.0491 -1.0954
 2048SOL     OW16612   3.236   2.069   0.621 -0.0963  0.0591  0.4913
 2048SOL    HW116613   3.274   1.980   0.593  0.3831 -0.8086  3.6768
 2048SOL    HW216614   3.294   2.108   0.693 -1.1034  2.2850  0.1184
 2049SOL     OW16615   9.408   8.883   3.117 -0.6329  0.7148  0.0917
 2049SOL    HW116616   9.362   8.806   3.161  0.2627  0.0274 -0.1764
 2049SOL    HW216617   9.402   8.963   3.177  2.2980 -0.7231  2.4563
 2050SOL     OW16618   1.129   4.657   0.236 -0.6769  0.4051  0.3482
 2050SOL    HW116619   1.094   4.727   0.172 -2.2472 -1.4540 -0.8881
 2050SOL    HW216620   1.223   4.679   0.260  0.1951  0.8252 -3.1495
 2051SOL     OW16621   1.722   2.462   3.237  0.0437 -0.4675  0.2038
 2051SOL    HW116622   1.624   2.473   3.222 -0.0618 -1.4600  0.1159
 2051SOL    HW216623   1.749   2.368   3.217  0.8807 -0.4050  0.9479
 2052SOL     OW16624   9.555   6.777   2.797 -0.1194  0.1180 -0.1421
 2052SOL    HW116625   9.608   6.824   2.868  0.1933  0.2985 -0.4901
 2052SOL    HW216626   9.460   6.771   2.825 -0.1220  0.7887 -0.0020
 2053SOL     OW16627   1.220   1.408   2.402  0.1939  0.1772  0.4214
 2053SOL    HW116628   1.129   1.374   2.377  1.1283 -1.1226 -1.3781
 2053SOL    HW216629   1.268   1.339   2.456  1.2557 -0.4720 -1.3053
 2054SOL     OW16630   6.542   9.032   1.978 -0.3765 -0.8969  0.0468
 2054SOL    HW116631   6.513   9.033   1.882  2.1974 -0.2537 -0.7671
 2054SOL    HW216632   6.539   8.939   2.013 -1.0142 -1.1853 -0.7632
 2055SOL     OW16633   2.844   2.779   1.620  0.1655  0.2313 -0.1640
 2055SOL    HW116634   2.851   2.749   1.715  0.0256 -0.7423 -0.4629
 2055SOL    HW216635   2.926   2.751   1.570  0.6687  1.5676 -0.1079
 2056SOL     OW16636   3.269   3.859   0.144 -0.1801 -0.5342  0.0548
 2056SOL    HW116637   3.358   3.812   0.136  1.0239  1.3726  1.8622
 2056SOL    HW216638   3.211   3.809   0.208 -0.0769 -1.2569 -0.4052
 2057SOL     OW16639   4.898   8.881   3.933 -0.5619 -0.1214 -0.7853
 2057SOL    HW116640   4.901   8.959   3.996 -0.4063 -1.5177  0.9564
 2057SOL    HW216641   4.894   8.915   3.839 -1.9666  1.9982  0.0024
 2058SOL     OW16642   1.370   0.603   1.099  0.0931 -0.3363  0.0339
 2058SOL    HW116643   1.419   0.533   1.048  0.1883 -0.7099  0.6244
 2058SOL    HW216644   1.279   0.615   1.061 -0.7483 -2.3912  1.2877
 2059SOL     OW16645   1.660   4.694   1.172 -0.4087 -0.5816 -0.7453
 2059SOL    HW116646   1.615   4.746   1.244 -0.2567 -0.2319 -0.9030
 2059SOL    HW216647   1.691   4.756   1.101 -1.0596 -0.9758 -1.3877
 2060SOL     OW16648   8.067   2.790   0.853 -0.2846  0.0665 -0.2114
 2060SOL    HW116649   7.973   2.757   0.846 -0.3142  0.1419 -0.1721
 2060SOL    HW216650   8.094   2.831   0.766  0.3048 -1.4974 -0.7753
 2061SOL     OW16651   8.552   5.628   0.103  0.0345  0.7886 -0.1699
 2061SOL    HW116652   8.632   5.606   0.159 -0.7030  1.8244  1.3183
 2061SOL    HW216653   8.489   5.551   0.103  0.4635  0.4353 -0.3424
 2062SOL     OW16654   4.658   0.996   3.990  0.7468  0.0322 -0.0353
 2062SOL    HW116655   4.753   0.994   3.961  0.4735  0.6151 -1.0243
 2062SOL    HW216656   4.603   1.041   3.920 -0.5662 -1.9867 -0.3386
 2063SOL     OW16657   8.003   9.086   2.400  0.1514 -0.2073  0.3374
 2063SOL    HW116658   8.013   9.054   2.306 -0.5571 -3.1475  1.2043
 2063SOL    HW216659   8.089   9.075   2.449 -0.2839 -1.4796  0.8299
 2064SOL     OW16660   2.080   8.322   0.000 -0.6480  0.1190 -0.3631
 2064SOL    HW116661   2.136   8.272   0.067 -1.2761  1.2484  1.0472
 2064SOL    HW216662   1.984   8.311   0.023 -0.8499  0.8735 -0.8316
 2065SOL     OW16663   0.819   5.744   0.144 -0.1344 -0.2032  0.6399
 2065SOL    HW116664   0.824   5.759   0.242 -2.5667  1.1409  0.6062
 2065SOL    HW216665   0.756   5.810   0.103  0.7105 -0.8399 -1.8086
 2066SOL     OW16666   8.165   6.525   0.648  0.6499  0.2501 -0.1868
 2066SOL    HW116667   8.166   6.508   0.549  0.0180  0.2464 -0.1938
 2066SOL    HW216668   8.110   6.607   0.667 -1.5195 -1.2769  0.3908
 2067SOL     OW16669   0.753   2.565   2.540 -0.3364 -0.4032  0.3960
 2067SOL    HW116670   0.716   2.639   2.597 -0.0885  0.7889 -0.9635
 2067SOL    HW216671   0.820   2.513   2.593 -2.0632 -1.0024  2.0555
 2068SOL     OW16672   5.084   0.580   2.630 -0.3425  0.3180 -0.2049
 2068SOL    HW116673   5.132   0.544   2.710 -2.5000 -2.9419 -0.2832
 2068SOL    HW216674   5.150   0.626   2.570  1.6050  1.2061  2.5251
 2069SOL     OW16675   9.765   2.057   0.069 -0.5860  0.0716  0.4791
 2069SOL    HW116676   9.799   2.090  -0.019  3.0368 -1.9116  1.0421
 2069SOL    HW216677   9.786   2.124   0.140  1.6234 -0.8018  0.6956
 2070SOL     OW16678   1.330   8.373   3.439 -0.2999 -0.2021 -0.5562
 2070SOL    HW116679   1.385   8.425   3.373 -0.1506  1.4738  0.8584
 2070SOL    HW216680   1.275   8.436   3.493 -0.5855 -1.5792  0.7860
 2071SOL     OW16681   1.236   8.543   3.644 -0.4629 -0.1222 -0.1972
 2071SOL    HW116682   1.296   8.621   3.624  0.6401 -1.1119 -0.8289
 2071SOL    HW216683   1.240   8.523   3.741  0.6427 -0.4964 -0.3086
 2072SOL     OW16684   0.304   8.116   3.913  0.7259 -0.1348  0.3023
 2072SOL    HW116685   0.296   8.031   3.861 -2.8662  0.5009 -0.3195
 2072SOL    HW216686   0.329   8.191   3.852 -1.0499  0.1508 -0.0969
 2073SOL     OW16687   9.221   0.071   0.499  0.4557  0.4102 -0.0373
 2073SOL    HW116688   9.181   0.017   0.573  1.5115  0.7095  0.7614
 2073SOL    HW216689   9.238   0.011   0.420  0.0460 -0.0684  0.2303
 2074SOL     OW16690   2.552   1.423   0.740 -0.0504  0.0117  0.3600
 2074SOL    HW116691   2.621   1.494   0.756 -0.4792  0.5383 -0.0799
 2074SOL    HW216692   2.478   1.461   0.684 -1.2094 -0.2346  1.6963
 2075SOL     OW16693   9.448   6.017   3.207 -0.7411 -0.2200  0.1245
 2075SOL    HW116694   9.519   6.017   3.278  0.7947 -0.6381 -1.3821
 2075SOL    HW216695   9.433   5.924   3.174 -0.1464  0.1947 -1.3636
 2076SOL     OW16696   2.413   2.590   1.974  0.2180 -0.0041 -0.3124
 2076SOL    HW116697   2.436   2.670   1.918 -0.6946  0.5085  0.0341
 2076SOL    HW216698   2.388   2.514   1.913 -2.9298  1.1967 -0.6422
 2077SOL     OW16699   0.731   9.907   3.550 -0.4463  0.0383 -0.2041
 2077SOL    HW116700   0.765   9.983   3.494 -0.4876  1.1784  1.2832
 2077SOL    HW216701   0.691   9.837   3.490 -1.0373  1.4984 -1.5618
 2078SOL     OW16702   1.046   2.242   1.326  0.0089  0.3669  0.4178
 2078SOL    HW116703   1.133   2.271   1.286 -0.0918  0.8933  0.5672
 2078SOL    HW216704   1.041   2.273   1.421 -0.7143  1.1260  0.1411
 2079SOL     OW16705   3.655   9.277   3.646  0.6781  0.1722  0.0865
 2079SOL    HW116706   3.603   9.199   3.608  1.0754 -0.2424  0.3900
 2079SOL    HW216707   3.624   9.295   3.739  2.1761 -1.0978  0.8458
 2080SOL     OW16708   3.291   1.087   3.881 -0.7053 -0.0750 -0.3315
 2080SOL    HW116709   3.211   1.063   3.935  0.2102 -0.1359  1.0322
 2080SOL    HW216710   3.326   1.006   3.835 -0.1391 -0.5014  0.8359
 2081SOL     OW16711   0.030   8.819   1.783  0.5444  0.4585 -0.9231
 2081SOL    HW116712   0.033   8.873   1.867  1.1502 -1.0214  0.0367
 2081SOL    HW216713  -0.041   8.855   1.722  2.4928  3.8212 -1.3651
 2082SOL     OW16714   2.415   1.400   2.040  0.7373 -0.0150  0.6702
 2082SOL    HW116715   2.411   1.301   2.057  0.7562  0.0594  1.1111
 2082SOL    HW216716   2.331   1.442   2.072 -0.1259 -0.1601 -1.3405
 2083SOL     OW16717   9.869   9.129   1.178 -0.1644  0.2506 -0.5227
 2083SOL    HW116718   9.952   9.185   1.167  0.2274 -0.5022 -1.4368
 2083SOL    HW216719   9.879   9.044   1.126 -0.8714 -0.5551  0.6441
 2084SOL     OW16720   3.479   2.305   1.799 -0.0745 -0.1409  0.7065
 2084SOL    HW116721   3.562   2.252   1.782 -0.9707 -1.4056  0.2223
 2084SOL    HW216722   3.438   2.277   1.886 -1.9437 -2.1045 -0.7530
 2085SOL     OW16723   2.036   8.419   2.721  0.2722 -0.5626  0.4326
 2085SOL    HW116724   1.972   8.421   2.644 -0.1504 -0.4740  0.7803
 2085SOL    HW216725   1.988   8.385   2.802  1.0760 -1.9682  0.3234
 2086SOL     OW16726   9.724   8.687   1.539 -0.3759  0.5429 -0.5254
 2086SOL    HW116727   9.715   8.589   1.558  0.2977  0.6606  0.4566
 2086SOL    HW216728   9.646   8.736   1.578 -0.6459  0.4110 -0.9010
 2087SOL     OW16729   9.238   8.096   0.943 -0.3008  0.2184  0.2324
 2087SOL    HW116730   9.312   8.153   0.979 -0.4742  1.7785 -1.7758
 2087SOL    HW216731   9.277   8.018   0.894 -0.0519 -0.9350  2.2260
 2088SOL     OW16732   9.089   8.294   0.561 -0.8963 -0.1149 -0.1354
 2088SOL    HW116733   9.029   8.275   0.484 -0.4156 -2.0775 -0.0409
 2088SOL    HW216734   9.177   8.249   0.548 -0.8137 -0.4908  1.5698
 2089SOL     OW16735   3.411   0.118   3.278  0.2023 -0.5139 -0.0205
 2089SOL    HW116736   3.398   0.142   3.182 -0.5987 -2.3046 -0.3738
 2089SOL    HW216737   3.382   0.194   3.336  0.3605  0.4383 -1.1824
 2090SOL     OW16738   8.538   7.116   1.158  0.1822 -0.2701 -0.0093
 2090SOL    HW116739   8.495   7.192   1.208 -0.7741 -0.8922  0.1292
 2090SOL    HW216740   8.546   7.038   1.219 -0.3286 -0.8053 -0.6256
 2091SOL     OW16741   4.326   9.197   1.259  0.2620  0.1754  0.2268
 2091SOL    HW116742   4.401   9.132   1.251  0.7250  0.6164  0.9163
 2091SOL    HW216743   4.345   9.278   1.203 -0.9613 -0.8646 -1.7412
 2092SOL     OW16744   0.388   2.370   2.772  0.1845  0.0457 -0.4144
 2092SOL    HW116745   0.290   2.360   2.788 -0.1499  2.3010 -0.8349
 2092SOL    HW216746   0.438   2.308   2.833 -1.4825 -0.9523 -0.0238
 2093SOL     OW16747   9.385   4.400   0.278 -0.6054  0.1321 -0.0227
 2093SOL    HW116748   9.287   4.386   0.263 -0.5595  0.3898 -0.5919
 2093SOL    HW216749   9.421   4.461   0.207 -0.3662  1.3849  1.1538
 2094SOL     OW16750   0.242   5.938   2.390 -0.0718  0.0894 -0.3056
 2094SOL    HW116751   0.161   5.951   2.333  0.3027  1.6429 -0.5077
 2094SOL    HW216752   0.310   5.885   2.339 -0.4605 -0.1342 -0.5998
 2095SOL     OW16753   9.585   4.005   1.596 -0.5619  0.3877 -0.3110
 2095SOL    HW116754   9.545   4.012   1.687  0.2391 -0.8149  0.1415
 2095SOL    HW216755   9.682   3.983   1.603 -0.8222 -1.2529 -1.4603
 2096SOL     OW16756   2.825   4.404   3.208  0.3469 -0.7812  0.1859
 2096SOL    HW116757   2.786   4.495   3.219  2.6643  0.0821  1.6909
 2096SOL    HW216758   2.883   4.401   3.127 -0.1175 -1.0834 -0.1416
 2097SOL     OW16759   1.091   7.845   1.060  0.1918  0.6171  0.1315
 2097SOL    HW116760   1.061   7.784   1.134 -3.9464 -0.8978 -2.5860
 2097SOL    HW216761   1.090   7.794   0.973 -0.0081  3.6472 -1.7062
 2098SOL     OW16762   9.157   4.045   0.719  0.4596  0.5696 -0.0051
 2098SOL    HW116763   9.138   4.108   0.644 -2.4526  0.2680  0.3958
 2098SOL    HW216764   9.224   4.086   0.781 -1.4406  3.3649  0.2873
 2099SOL     OW16765   0.940   3.886   1.105 -0.1661  0.0637 -0.0748
 2099SOL    HW116766   1.011   3.929   1.160 -0.3906  0.3529 -0.0131
 2099SOL    HW216767   0.982   3.828   1.035  0.1348  0.5620 -0.3043
 2100SOL     OW16768   4.069   7.645   2.376  0.2777  0.0987 -0.3656
 2100SOL    HW116769   4.077   7.716   2.306  1.6080  1.6127  1.2700
 2100SOL    HW216770   4.142   7.578   2.363  0.4770  0.3360 -0.4875
 2101SOL     OW16771   4.364   3.595   1.374  0.2158 -0.2752 -0.6110
 2101SOL    HW116772   4.374   3.501   1.344 -1.1893 -0.2603 -1.1840
 2101SOL    HW216773   4.449   3.645   1.356  0.6729 -1.2094 -1.0819
 2102SOL     OW16774   5.001   9.333   1.113  0.0966  0.3873  0.3637
 2102SOL    HW116775   5.032   9.385   1.193 -1.0358 -0.7045  1.5443
 2102SOL    HW216776   5.002   9.235   1.135 -0.2741  0.0787 -0.9618
 2103SOL     OW16777   8.153   9.438   3.248  0.2507 -0.1827  0.0312
 2103SOL    HW116778   8.215   9.387   3.309  0.1154  0.3803  0.6558
 2103SOL    HW216779   8.203   9.466   3.166  0.9113  0.5005  0.6576
 2104SOL     OW16780   9.546   0.382   1.276 -0.4241  0.0972 -0.4187
 2104SOL    HW116781   9.527   0.413   1.182  0.0276 -1.5143 -1.0705
 2104SOL    HW216782   9.489   0.302   1.296  1.4018 -1.2122 -0.3087
 2105SOL     OW16783   0.499   1.800   2.958  0.0908 -0.5309 -0.5255
 2105SOL    HW116784   0.428   1.829   2.895  0.1651  0.5941 -0.1034
 2105SOL    HW216785   0.500   1.861   3.037  0.7780 -1.2183  0.0031
 2106SOL     OW16786   0.046   4.096   3.727  0.4053 -0.1248 -0.0098
 2106SOL    HW116787   0.098   4.022   3.685 -0.3087  0.0399 -1.2400
 2106SOL    HW216788   0.086   4.121   3.814  1.4770 -1.0189 -0.2421
 2107SOL     OW16789   1.624   0.951   2.998  0.2283 -0.5150  0.2681
 2107SOL    HW116790   1.694   1.006   2.953  0.8536 -1.1106  0.5143
 2107SOL    HW216791   1.588   1.001   3.077 -1.1754  0.7232 -1.1025
 2108SOL     OW16792   4.082   9.476   1.521  0.4482  0.2506  0.1113
 2108SOL    HW116793   4.004   9.488   1.582 -0.6408 -1.7992 -0.8011
 2108SOL    HW216794   4.090   9.556   1.461 -0.5243  0.7916  0.6889
 2109SOL     OW16795   2.128   3.489   2.064 -0.1275 -0.3335 -0.1801
 2109SOL    HW116796   2.046   3.441   2.096 -0.8807  0.7870 -0.3606
 2109SOL    HW216797   2.100   3.569   2.011  1.0877  0.2951  0.1049
 2110SOL     OW16798   4.938   8.402   1.846  0.4122 -0.5493  0.0126
 2110SOL    HW116799   4.980   8.313   1.835 -0.8164 -1.2391  0.7012
 2110SOL    HW216800   4.840   8.396   1.825  0.5621  0.9237 -1.2033
 2111SOL     OW16801   3.495   0.753   0.299 -0.3014 -0.2960  0.1682
 2111SOL    HW116802   3.473   0.754   0.202 -0.5736 -0.9577  0.2223
 2111SOL    HW216803   3.583   0.708   0.314 -0.2241 -0.1286  0.2222
 2112SOL     OW16804   1.729   9.474   0.445 -0.6833 -0.4420  0.2807
 2112SOL    HW116805   1.670   9.400   0.415 -2.4479  2.2165 -3.0840
 2112SOL    HW216806   1.683   9.528   0.515 -0.3107 -1.1485  1.0780
 2113SOL     OW16807   2.609   4.592   3.119 -0.0128 -0.0315 -0.8432
 2113SOL    HW116808   2.556   4.669   3.083 -1.0717 -1.5668 -2.6777
 2113SOL    HW216809   2.616   4.521   3.049  0.0435 -2.0515  1.1517
 2114SOL     OW16810   2.953   7.274   1.229  0.2650  0.4792 -0.6398
 2114SOL    HW116811   2.972   7.219   1.148 -0.4176 -0.8425  0.0836
 2114SOL    HW216812   3.003   7.360   1.223  0.7704  0.0978 -2.1293
 2115SOL     OW16813   1.747   1.309   0.539  0.8018 -0.1445 -0.9627
 2115SOL    HW116814   1.711   1.401   0.521  2.2536  0.5476 -0.4299
 2115SOL    HW216815   1.676   1.253   0.580  0.7737  1.7219  1.7044
 2116SOL     OW16816   1.203   6.593   3.089 -0.2248  0.2414 -0.4843
 2116SOL    HW116817   1.216   6.654   3.011  2.0027 -0.6292 -0.8322
 2116SOL    HW216818   1.201   6.498   3.057  1.2626 -0.1587  0.5433
 2117SOL     OW16819   2.335   5.248   2.468 -0.0071  0.4681 -0.1010
 2117SOL    HW116820   2.235   5.245   2.467 -0.0155  0.2780  0.6239
 2117SOL    HW216821   2.366   5.328   2.416 -0.5493  0.7004 -0.0780
 2118SOL     OW16822   1.149   3.601   3.910 -0.1710  0.3292 -0.1395
 2118SOL    HW116823   1.203   3.665   3.966 -1.8403  2.5185 -0.9722
 2118SOL    HW216824   1.053   3.627   3.913 -0.6559 -1.1548 -1.8803
 2119SOL     OW16825   8.572   9.637   3.328 -0.1091  0.1162  1.0236
 2119SOL    HW116826   8.631   9.560   3.303  0.7235  0.7895  0.8827
 2119SOL    HW216827   8.503   9.651   3.256 -0.1065 -0.3389  0.9319
 2120SOL     OW16828   1.023   6.212   0.953  1.0114  0.4744  0.1046
 2120SOL    HW116829   1.011   6.274   1.029  1.2344  1.1002 -0.3660
 2120SOL    HW216830   1.120   6.209   0.928  1.0989 -0.5591  0.5446
 2121SOL     OW16831   3.001   6.203   0.911 -0.3272 -0.0012  0.2366
 2121SOL    HW116832   3.064   6.253   0.852 -1.1032  0.4111 -0.2386
 2121SOL    HW216833   2.915   6.188   0.863 -1.4356  1.4938  1.7276
 2122SOL     OW16834   8.294   4.864   3.242 -0.3417 -0.6649 -0.3479
 2122SOL    HW116835   8.207   4.842   3.199 -0.4133 -0.3896 -0.3439
 2122SOL    HW216836   8.362   4.795   3.216 -0.3850 -0.4950 -0.9088
 2123SOL     OW16837   2.615   0.372   0.093  0.3512 -0.7457 -0.0622
 2123SOL    HW116838   2.567   0.394   0.178  0.1342 -0.7753 -0.1765
 2123SOL    HW216839   2.673   0.292   0.107  1.6240  0.2449  0.5348
 2124SOL     OW16840   2.384   1.149   0.076  0.4007  0.2200 -0.3585
 2124SOL    HW116841   2.428   1.233   0.044  0.2676  0.2094 -0.5687
 2124SOL    HW216842   2.290   1.170   0.104  1.0471  0.5620  1.6263
 2125SOL     OW16843   2.558   7.504   1.026  0.0514  0.1827  0.0577
 2125SOL    HW116844   2.504   7.577   1.069 -0.2212  0.5153 -0.8357
 2125SOL    HW216845   2.639   7.485   1.081  0.7081  1.9320 -0.2571
 2126SOL     OW16846   9.206   5.907   2.076 -0.0730 -0.3683  0.2536
 2126SOL    HW116847   9.196   5.996   2.030 -2.4462 -0.5712  0.3218
 2126SOL    HW216848   9.274   5.853   2.028  1.2835  1.4167  0.0992
 2127SOL     OW16849   1.410   8.254   0.286 -0.3184  0.3516 -0.1190
 2127SOL    HW116850   1.500   8.235   0.325 -0.6731 -0.0049  0.5338
 2127SOL    HW216851   1.373   8.170   0.246 -0.1372  0.6198 -0.8725
 2128SOL     OW16852   8.983   8.594   0.270  0.1032  0.5221  0.4636
 2128SOL    HW116853   9.020   8.510   0.309 -2.2736 -0.7165  0.1285
 2128SOL    HW216854   8.940   8.649   0.342 -0.9639  0.0169  0.2250
 2129SOL     OW16855   0.754   0.906   1.120 -0.1304  0.3502 -0.3404
 2129SOL    HW116856   0.825   0.942   1.182 -0.9132  1.5849 -0.1556
 2129SOL    HW216857   0.787   0.822   1.078  0.7015 -0.1213  1.2201
 2130SOL     OW16858   2.960   5.599   0.946  0.5431 -0.4363 -0.2578
 2130SOL    HW116859   2.935   5.561   0.857 -0.0975 -0.2534 -0.1636
 2130SOL    HW216860   2.958   5.526   1.015  0.6870 -0.5085 -0.3307
 2131SOL     OW16861   3.518   6.788   3.682 -0.6258  0.0598  0.0699
 2131SOL    HW116862   3.534   6.848   3.604  0.3827  0.0277  0.2459
 2131SOL    HW216863   3.491   6.697   3.649 -1.2707  0.3496 -0.2139
 2132SOL     OW16864   1.144   3.204   0.938  0.2189 -0.4157 -0.5689
 2132SOL    HW116865   1.074   3.238   0.875 -1.1842 -0.8710  0.7134
 2132SOL    HW216866   1.133   3.249   1.027  1.8974 -0.1150 -0.4935
 2133SOL     OW16867   3.676   6.768   2.251 -0.1787 -0.2440 -0.1832
 2133SOL    HW116868   3.577   6.762   2.254 -0.2112 -0.0960 -0.9002
 2133SOL    HW216869   3.714   6.684   2.213  0.0344 -0.7425  1.1050
 2134SOL     OW16870   4.189   1.561   2.279  0.0688  0.1649  0.1337
 2134SOL    HW116871   4.204   1.617   2.197  1.1008  1.7764  1.4125
 2134SOL    HW216872   4.248   1.480   2.275  0.2845  0.3547 -0.5971
 2135SOL     OW16873   2.042   5.451   0.882 -0.3939 -0.0107  0.2077
 2135SOL    HW116874   2.024   5.500   0.967 -0.1287 -1.1022  0.9108
 2135SOL    HW216875   2.102   5.506   0.824  2.0801 -0.5826  2.1198
 2136SOL     OW16876   0.333   7.798   0.121  0.0962 -0.6785  0.2858
 2136SOL    HW116877   0.293   7.759   0.204  0.0016 -1.2870 -0.0412
 2136SOL    HW216878   0.362   7.892   0.139 -2.3492  0.1096  0.2622
 2137SOL     OW16879   1.324   2.250   0.574 -0.0959 -0.1369 -0.2464
 2137SOL    HW116880   1.324   2.348   0.557  0.3874 -0.2942 -1.2188
 2137SOL    HW216881   1.418   2.217   0.575 -0.3001 -0.7405 -0.8369
 2138SOL     OW16882   1.425   1.616   2.133 -0.4367 -0.3762  0.1919
 2138SOL    HW116883   1.327   1.598   2.138 -0.3394 -0.6179  1.3276
 2138SOL    HW216884   1.470   1.544   2.081 -1.0076  0.3172 -1.2793
 2139SOL     OW16885   9.287   2.014   2.768 -1.1623  0.1538  0.2364
 2139SOL    HW116886   9.337   2.067   2.700  0.2610  1.3233  2.1430
 2139SOL    HW216887   9.283   1.918   2.740  0.3834  0.4223 -0.9200
 2140SOL     OW16888   9.119   8.242   1.284 -0.1172 -0.8633 -0.3206
 2140SOL    HW116889   9.122   8.150   1.245 -1.9688 -0.7103 -0.8448
 2140SOL    HW216890   9.069   8.303   1.223 -1.2160 -0.1153  1.2945
 2141SOL     OW16891   8.505   4.634   0.633  0.3440  0.2110 -0.4078
 2141SOL    HW116892   8.591   4.638   0.684 -0.0121  0.6224  0.1686
 2141SOL    HW216893   8.455   4.552   0.658 -0.1340  0.7455  0.3975
 2142SOL     OW16894   7.877   2.760   1.337 -0.3413 -0.1727  0.0889
 2142SOL    HW116895   7.888   2.675   1.287  0.1644  0.0199 -0.1297
 2142SOL    HW216896   7.883   2.742   1.435 -0.6946 -0.4532  0.0612
 2143SOL     OW16897   1.905   7.227   0.660  0.1673  0.3738 -0.0315
 2143SOL    HW116898   1.848   7.223   0.742 -0.7233  0.3253 -0.6427
 2143SOL    HW216899   1.993   7.183   0.678 -0.1104  0.1536  0.8179
 2144SOL     OW16900   8.755   4.021   1.160 -0.4558 -0.2406  0.3600
 2144SOL    HW116901   8.666   4.013   1.206 -0.9917 -1.8473 -0.9088
 2144SOL    HW216902   8.817   4.075   1.217 -1.5186 -1.0817  2.3669
 2145SOL     OW16903   9.216   9.169   2.157 -0.8332 -0.5672 -0.0085
 2145SOL    HW116904   9.129   9.190   2.200 -0.5567 -1.3713  0.9632
 2145SOL    HW216905   9.289   9.223   2.199 -0.7917 -0.2642 -0.4741
 2146SOL     OW16906   2.685   4.332   0.260 -0.2938 -0.5287  0.2497
 2146SOL    HW116907   2.637   4.246   0.279  0.9513 -1.1426  0.6438
 2146SOL    HW216908   2.645   4.374   0.178 -1.2794 -1.1963  0.3747
 2147SOL     OW16909   9.501   9.087   0.359 -0.2381 -0.0966 -0.9593
 2147SOL    HW116910   9.406   9.066   0.385 -0.5968  1.0364 -1.2939
 2147SOL    HW216911   9.537   9.158   0.419  0.8799 -1.4867  0.0346
 2148SOL     OW16912   1.519   2.210   3.271  0.3977  0.6515  0.1251
 2148SOL    HW116913   1.452   2.281   3.246 -0.4959 -0.0970  0.3543
 2148SOL    HW216914   1.551   2.226   3.364 -0.9297 -0.0728  0.7283
 2149SOL     OW16915   7.751   5.498   2.767 -0.6550 -0.5145 -0.3523
 2149SOL    HW116916   7.746   5.409   2.812  0.2730 -0.8809 -0.9519
 2149SOL    HW216917   7.664   5.546   2.777 -1.8377 -2.3088 -1.6741
 2150SOL     OW16918   0.790   6.638   1.430  0.2963  0.3046 -0.3763
 2150SOL    HW116919   0.835   6.621   1.518  0.9628 -0.8369 -0.9223
 2150SOL    HW216920   0.767   6.735   1.422 -0.4969  0.2656  1.3969
 2151SOL     OW16921   0.015   3.974   2.016  0.5224  0.3915 -0.1202
 2151SOL    HW116922   0.061   3.885   2.006  2.6697  1.7234 -2.8982
 2151SOL    HW216923  -0.068   3.974   1.959  1.3887  0.6906 -1.4050
 2152SOL     OW16924   0.320   6.607   1.517  0.1944 -0.2568  0.2801
 2152SOL    HW116925   0.386   6.567   1.580 -0.2834 -0.5139  0.6184
 2152SOL    HW216926   0.358   6.691   1.477 -0.3491  1.0948  2.5405
 2153SOL     OW16927   1.117   0.103   0.383 -0.5234  0.0012 -1.2174
 2153SOL    HW116928   1.127   0.008   0.413 -0.1738 -0.3184 -2.3182
 2153SOL    HW216929   1.021   0.131   0.394 -0.8805 -0.8742 -1.9957
 2154SOL     OW16930   3.781   0.547   2.982  0.2091 -0.0940 -0.7277
 2154SOL    HW116931   3.878   0.539   3.006 -0.0787  0.0356  0.4850
 2154SOL    HW216932   3.759   0.642   2.961 -0.0021  0.1170  0.4690
 2155SOL     OW16933   1.958   8.341   2.962 -0.5643  0.2757 -0.4008
 2155SOL    HW116934   1.861   8.319   2.974 -0.6970  0.0805 -1.7671
 2155SOL    HW216935   1.985   8.408   3.031 -0.7400 -2.3456  2.3164
 2156SOL     OW16936   3.943   8.495   3.712 -0.8295  0.5255  0.6278
 2156SOL    HW116937   3.863   8.526   3.764 -2.0062  0.0471 -0.8554
 2156SOL    HW216938   3.936   8.396   3.697 -0.0790  0.5296  0.2839
 2157SOL     OW16939   9.949   1.803   1.243  0.5758  0.0679  0.1455
 2157SOL    HW116940  10.036   1.805   1.194 -0.4598 -1.3157 -1.7972
 2157SOL    HW216941   9.950   1.728   1.309  1.2769  0.7899  0.9732
 2158SOL     OW16942   1.206   2.536   0.308 -0.1974 -0.7850  0.4090
 2158SOL    HW116943   1.130   2.476   0.332 -1.0552  0.1662  0.0893
 2158SOL    HW216944   1.246   2.506   0.221 -2.9905  1.2788 -1.6567
 2159SOL     OW16945   0.081   4.340   0.694 -0.1301 -0.4642 -0.0204
 2159SOL    HW116946   0.036   4.250   0.698  0.9974 -1.0852 -1.0219
 2159SOL    HW216947   0.125   4.351   0.605 -1.5693  1.7420 -0.5107
 2160SOL     OW16948   0.963   4.729   2.289 -0.7348 -0.1536 -0.2244
 2160SOL    HW116949   0.919   4.756   2.203 -1.8476  0.8274  0.6261
 2160SOL    HW216950   0.893   4.695   2.352  0.0104 -0.4092  0.4689
 2161SOL     OW16951   9.409   4.204   0.740 -0.3374  0.0435  0.0946
 2161SOL    HW116952   9.414   4.281   0.677 -1.4551  0.2350  0.2243
 2161SOL    HW216953   9.462   4.128   0.704 -0.9831  0.1443 -1.0919
 2162SOL     OW16954   3.203   2.332   2.583 -0.6140  0.0600  0.5176
 2162SOL    HW116955   3.259   2.359   2.662 -2.6224  1.2662  1.5636
 2162SOL    HW216956   3.126   2.277   2.614  0.0309 -1.7164 -0.9337
 2163SOL     OW16957   9.224   2.534   1.805  0.3594  0.3914  0.2972
 2163SOL    HW116958   9.262   2.490   1.723 -1.0498  1.4272 -0.9419
 2163SOL    HW216959   9.258   2.487   1.887 -0.2128 -2.2652 -0.9353
 2164SOL     OW16960   4.056   3.307   3.861 -0.2536  0.1608 -0.0086
 2164SOL    HW116961   3.972   3.342   3.902  0.3697  1.0460  0.5436
 2164SOL    HW216962   4.135   3.353   3.902  0.4248  0.6032 -1.7372
 2165SOL     OW16963   8.358   7.611   3.934  0.1123  0.2336  0.1754
 2165SOL    HW116964   8.373   7.701   3.895  1.2556 -0.1612 -0.3028
 2165SOL    HW216965   8.431   7.589   3.998 -0.3908 -0.1814  0.6171
 2166SOL     OW16966   0.696   6.773   3.972  0.1257  0.0267 -0.4188
 2166SOL    HW116967   0.755   6.851   3.951 -0.6572  0.9942  0.8994
 2166SOL    HW216968   0.700   6.754   4.070 -0.0449 -1.3054 -0.6600
 2167SOL     OW16969   2.256   9.063   2.577 -0.5378  0.4318 -0.1420
 2167SOL    HW116970   2.270   9.161   2.588  0.3508  0.4348 -1.2504
 2167SOL    HW216971   2.288   9.034   2.487 -2.2509 -0.6057 -0.4547
 2168SOL     OW16972   2.913   3.505   3.575 -0.9751 -0.4598  0.3509
 2168SOL    HW116973   2.844   3.575   3.595 -0.1822  0.4113  0.0485
 2168SOL    HW216974   2.895   3.465   3.486 -0.3220  0.6958 -0.3049
 2169SOL     OW16975   7.776   0.058   1.130  0.8953  0.0316  0.3619
 2169SOL    HW116976   7.731  -0.021   1.088 -0.7158  1.3576 -0.4448
 2169SOL    HW216977   7.847   0.093   1.068  1.3933 -0.5812  0.5825
 2170SOL     OW16978   3.226   8.558   0.599 -0.4633  0.0791  0.0910
 2170SOL    HW116979   3.195   8.525   0.688 -0.1157 -1.6724 -0.4229
 2170SOL    HW216980   3.248   8.656   0.606 -0.7887  0.0520  1.8196
 2171SOL     OW16981   1.010   4.422   1.208 -0.3273 -0.2163  0.0548
 2171SOL    HW116982   1.108   4.439   1.197 -0.2471 -1.0938 -0.6635
 2171SOL    HW216983   0.973   4.483   1.279  0.6227  0.4824 -0.0437
 2172SOL     OW16984   2.547   0.335   3.670  0.1044 -0.4164 -0.4944
 2172SOL    HW116985   2.473   0.353   3.606 -0.0294  0.7539 -0.0139
 2172SOL    HW216986   2.543   0.240   3.700 -3.6938  0.6411  2.6676
 2173SOL     OW16987   4.145   0.607   2.432  0.1113 -0.3032  0.1485
 2173SOL    HW116988   4.237   0.577   2.456  0.4972  0.8708  0.1884
 2173SOL    HW216989   4.151   0.688   2.374 -0.8781 -0.9927 -0.9332
 2174SOL     OW16990   0.786   7.479   2.418 -0.1193  0.3297 -0.7471
 2174SOL    HW116991   0.763   7.550   2.352  0.0258 -0.3036 -1.4842
 2174SOL    HW216992   0.881   7.490   2.447 -0.1746  0.5913 -0.6664
 2175SOL     OW16993   7.183   8.328   1.958 -0.0549  0.3966  0.9918
 2175SOL    HW116994   7.277   8.332   1.925 -0.7540 -0.7287 -1.2321
 2175SOL    HW216995   7.138   8.416   1.940 -0.7026 -0.4815 -2.0889
 2176SOL     OW16996   9.396   1.759   0.623 -0.1665 -0.9257 -0.2702
 2176SOL    HW116997   9.379   1.744   0.526 -1.0088 -1.8902  0.0136
 2176SOL    HW216998   9.448   1.681   0.660  1.2698  0.0332 -0.2129
 2177SOL     OW16999   9.701   3.846   1.346 -0.3005  0.6318  0.2928
 2177SOL    HW117000   9.767   3.821   1.417 -0.0441 -0.4215 -0.3069
 2177SOL    HW217001   9.702   3.946   1.333  0.4237  0.7226  1.0091
 2178SOL     OW17002   0.882   9.433   0.659  0.1727  0.3076  0.3934
 2178SOL    HW117003   0.809   9.372   0.627  0.4631 -0.1733  0.6401
 2178SOL    HW217004   0.942   9.382   0.721  0.0969  0.9931  1.0344
 2179SOL     OW17005   9.334   1.084   3.207 -0.2335  0.2139  0.8963
 2179SOL    HW117006   9.349   1.035   3.121  1.1800  0.9258  0.7293
 2179SOL    HW217007   9.236   1.088   3.226 -0.7997  2.4235 -2.1045
 2180SOL     OW17008   8.149   1.087   1.302 -0.1264  0.0876  0.2902
 2180SOL    HW117009   8.180   1.024   1.373 -0.5009 -0.8076 -0.3262
 2180SOL    HW217010   8.067   1.135   1.333  0.7113  0.9863  1.1389
 2181SOL     OW17011   1.311   7.410   2.428  0.0819  0.0271  0.0979
 2181SOL    HW117012   1.362   7.416   2.342  1.5740 -1.1823  0.8711
 2181SOL    HW217013   1.341   7.329   2.479 -2.1556 -0.3408  0.8849
 2182SOL     OW17014   4.087   0.625   1.826  0.1089 -0.0678  0.1296
 2182SOL    HW117015   4.100   0.686   1.748  1.2102 -0.4516 -0.0003
 2182SOL    HW217016   4.100   0.678   1.911 -1.0191  0.3316  0.0539
 2183SOL     OW17017   3.910   5.271   2.334 -0.6073  0.0761 -0.1288
 2183SOL    HW117018   3.824   5.269   2.283 -1.1489 -2.2569  0.8259
 2183SOL    HW217019   3.891   5.276   2.432  0.3525 -0.1230  0.0743
 2184SOL     OW17020   2.300   0.945   2.465 -0.1973 -0.3366 -0.0835
 2184SOL    HW117021   2.260   1.007   2.398 -1.5047 -0.5241  0.5208
 2184SOL    HW217022   2.296   0.851   2.431 -0.3171 -0.3637  0.0082
 2185SOL     OW17023   9.469   3.576   2.730  0.2510  0.0398  0.4401
 2185SOL    HW117024   9.398   3.633   2.772  0.0927 -0.0810  0.3384
 2185SOL    HW217025   9.453   3.480   2.755  0.7607  0.0868  0.9575
 2186SOL     OW17026   0.255   4.473   2.163  1.1370 -0.2497  0.3656
 2186SOL    HW117027   0.342   4.521   2.153  0.6539  0.5265 -0.2704
 2186SOL    HW217028   0.225   4.440   2.073  1.4239 -1.6836  0.7876
 2187SOL     OW17029   2.845   2.517   2.572  0.6045  0.0741 -0.1862
 2187SOL    HW117030   2.838   2.479   2.664 -0.7211  1.3915  0.2649
 2187SOL    HW217031   2.775   2.586   2.558  0.3107 -0.6202 -2.4538
 2188SOL     OW17032   0.788   2.624   2.247  0.2528 -0.3956  1.0924
 2188SOL    HW117033   0.780   2.616   2.346  1.0737  0.4721  1.2237
 2188SOL    HW217034   0.696   2.634   2.207 -0.0589 -0.5179  1.7725
 2189SOL     OW17035   0.773   9.452   3.789 -0.3783 -0.2469  0.3589
 2189SOL    HW117036   0.749   9.544   3.820  0.6666  0.5179 -1.0270
 2189SOL    HW217037   0.830   9.407   3.857  0.3237  0.6870  0.3837
 2190SOL     OW17038   8.744   6.790   3.502 -0.3039  0.1864 -0.0558
 2190SOL    HW117039   8.707   6.817   3.591  1.0487  0.0031  0.5762
 2190SOL    HW217040   8.754   6.871   3.444  0.7898  0.6204  0.7165
 2191SOL     OW17041   0.496   1.166   3.411 -0.1469  0.3868 -0.3764
 2191SOL    HW117042   0.429   1.203   3.475 -0.9645 -1.4296 -0.1465
 2191SOL    HW217043   0.505   1.227   3.333  0.9163  2.6773  1.4747
 2192SOL     OW17044   1.362   1.202   2.557  0.3473 -0.9668  0.3836
 2192SOL    HW117045   1.322   1.196   2.648 -0.3731  1.1637  0.2332
 2192SOL    HW217046   1.454   1.164   2.558  0.4730 -0.6468  2.0634
 2193SOL     OW17047   1.206   9.811   3.010 -0.4631 -0.4598 -0.2331
 2193SOL    HW117048   1.147   9.891   3.022  0.9671  0.7890 -1.3905
 2193SOL    HW217049   1.195   9.776   2.917 -0.0202 -0.7612 -0.1705
 2194SOL     OW17050   7.392   9.480   3.397  0.4397 -0.0865 -0.4229
 2194SOL    HW117051   7.339   9.494   3.481  0.7198  0.4283 -0.3257
 2194SOL    HW217052   7.459   9.554   3.388 -0.2301  0.3826 -1.5866
 2195SOL     OW17053   4.936   9.877   1.339  0.1656  0.0268  0.2745
 2195SOL    HW117054   4.930   9.968   1.298 -1.0482  0.6090  1.6614
 2195SOL    HW217055   4.956   9.886   1.437 -0.9309 -1.1436  0.6211
 2196SOL     OW17056   0.324   7.035   3.491  0.5579 -0.4881 -0.5755
 2196SOL    HW117057   0.348   7.008   3.398  1.0559 -0.0300 -0.5762
 2196SOL    HW217058   0.304   7.133   3.494  1.6833 -0.2706  0.0322
 2197SOL     OW17059   2.282   5.014   2.022 -0.2820 -0.5456  0.3223
 2197SOL    HW117060   2.310   4.936   2.078 -0.0173 -0.1315  0.7693
 2197SOL    HW217061   2.194   4.995   1.979 -0.2460 -1.0641  0.4797
 2198SOL     OW17062   0.533   7.880   3.462 -1.1350 -0.4373  0.1327
 2198SOL    HW117063   0.578   7.951   3.514  0.3293 -1.4009  0.2130
 2198SOL    HW217064   0.455   7.919   3.413 -0.1596  1.2851 -0.1005
 2199SOL     OW17065   1.278   2.684   1.298  0.1068 -0.2785  0.5549
 2199SOL    HW117066   1.356   2.684   1.360  1.1654  0.2908 -0.7493
 2199SOL    HW217067   1.219   2.762   1.320 -0.6973 -1.3331  2.2488
 2200SOL     OW17068   8.868   8.382   3.621 -0.1373  0.4069 -0.5039
 2200SOL    HW117069   8.781   8.372   3.573 -0.0124 -0.9524 -0.4776
 2200SOL    HW217070   8.933   8.428   3.561 -0.6785  0.8373 -0.7664
 2201SOL     OW17071   0.618   5.954   3.447  0.2697  0.7770 -0.0568
 2201SOL    HW117072   0.597   5.964   3.350 -1.5042  2.7580  0.5054
 2201SOL    HW217073   0.665   5.867   3.462 -1.8538 -0.8113 -2.2999
 2202SOL     OW17074   9.149   0.434   1.526  0.2855 -0.3704 -0.4138
 2202SOL    HW117075   9.208   0.358   1.553  1.7486  0.4631 -1.2474
 2202SOL    HW217076   9.200   0.519   1.528 -0.7724  0.3145 -1.5476
 2203SOL     OW17077   9.435   2.663   0.687  0.5547 -0.3537  0.3412
 2203SOL    HW117078   9.525   2.623   0.673  0.8515  0.3516  0.2628
 2203SOL    HW217079   9.437   2.761   0.668 -0.0201 -0.1647  1.1779
 2204SOL     OW17080   1.451   1.988   0.502 -0.3263  0.2817 -0.3293
 2204SOL    HW117081   1.441   1.945   0.591 -2.2999  0.6249 -0.3756
 2204SOL    HW217082   1.512   2.067   0.510  0.9686 -0.7575  0.3293
 2205SOL     OW17083   2.956   4.318   2.457 -0.3829  0.4766 -0.0230
 2205SOL    HW117084   3.009   4.384   2.403  0.7572  0.2608  0.8109
 2205SOL    HW217085   2.969   4.226   2.419  0.7705  0.2639  0.8720
 2206SOL     OW17086   1.552   8.933   0.090 -0.4231 -0.2615  0.2751
 2206SOL    HW117087   1.503   9.008   0.045 -2.1344 -0.9322  0.9738
 2206SOL    HW217088   1.646   8.961   0.109 -0.0599  0.5475 -2.4304
 2207SOL     OW17089   2.585   8.162   1.933  0.5782 -0.1267 -0.0352
 2207SOL    HW117090   2.650   8.201   1.998  0.3374  0.3637 -0.0870
 2207SOL    HW217091   2.500   8.138   1.980 -0.1967  1.7129 -0.4436
 2208SOL     OW17092   8.631   0.966   2.653 -0.4660 -0.0723 -0.7629
 2208SOL    HW117093   8.723   0.946   2.619 -0.4054 -0.2546 -0.5046
 2208SOL    HW217094   8.564   0.955   2.580 -0.3183 -0.2674 -0.8683
 2209SOL     OW17095   0.872   9.025   3.164  0.0103 -1.0018  0.0051
 2209SOL    HW117096   0.861   9.112   3.211 -0.7906  0.7726 -3.2672
 2209SOL    HW217097   0.829   8.952   3.216 -1.7010  1.0321  1.4837
 2210SOL     OW17098   8.951   2.192   0.853  0.3115  0.7078  0.1201
 2210SOL    HW117099   8.942   2.203   0.952 -1.0847 -2.6075  0.4355
 2210SOL    HW217100   9.043   2.216   0.825  0.8680  1.2103  2.3179
 2211SOL     OW17101   3.514   9.106   2.306  0.5673  0.1732 -0.1056
 2211SOL    HW117102   3.603   9.121   2.263  0.4176 -1.1931 -0.9044
 2211SOL    HW217103   3.445   9.093   2.236 -0.1690  0.6468  0.5283
 2212SOL     OW17104   9.556   1.535   3.095 -0.0869  0.0278  0.7414
 2212SOL    HW117105   9.521   1.519   3.003  0.1610 -3.4396  1.1758
 2212SOL    HW217106   9.481   1.555   3.157 -0.5895 -0.6951  0.3714
 2213SOL     OW17107   0.589   0.593   1.821  0.3662 -0.5310  0.2069
 2213SOL    HW117108   0.547   0.505   1.798 -1.0430  0.1576  0.0802
 2213SOL    HW217109   0.677   0.601   1.776 -0.4530 -1.0020 -1.5101
 2214SOL     OW17110   9.489   8.572   1.838 -0.1639 -0.0939  0.3632
 2214SOL    HW117111   9.511   8.477   1.815  2.2093 -0.2159  2.9250
 2214SOL    HW217112   9.534   8.633   1.773  0.5479 -0.6269  0.3527
 2215SOL     OW17113   9.880   5.815   1.107 -0.5256  0.5975  0.0518
 2215SOL    HW117114   9.951   5.748   1.086  0.1231  0.9878  0.9662
 2215SOL    HW217115   9.852   5.804   1.203 -1.2357  0.8713 -0.1233
 2216SOL     OW17116   2.082   4.236   2.830  0.1739 -0.1138 -0.7713
 2216SOL    HW117117   2.137   4.193   2.902  0.6638 -0.5569 -1.4094
 2216SOL    HW217118   2.053   4.166   2.765 -1.4470  0.0535 -0.2561
 2217SOL     OW17119   8.461   1.009   1.979 -0.8313 -0.2309 -0.5149
 2217SOL    HW117120   8.547   0.998   2.028 -1.2705  2.2543  0.8478
 2217SOL    HW217121   8.467   1.088   1.918 -2.3857  0.3689  0.0979
 2218SOL     OW17122   0.844   7.968   1.717 -0.2940  0.3155 -0.0914
 2218SOL    HW117123   0.855   7.894   1.650  0.7678  0.2361  0.1764
 2218SOL    HW217124   0.775   7.941   1.785 -1.7090  0.5701 -1.3815
 2219SOL     OW17125   9.952   6.439   3.918  0.4050 -0.1851 -0.0702
 2219SOL    HW117126   9.886   6.430   3.843  0.1588 -1.0159  0.2363
 2219SOL    HW217127   9.946   6.359   3.977  1.4669 -0.1126  0.1479
 2220SOL     OW17128   0.834   7.543   3.800  0.0143  0.1348  0.2631
 2220SOL    HW117129   0.899   7.506   3.735 -1.9010 -0.9472 -1.1036
 2220SOL    HW217130   0.794   7.627   3.764 -0.9233 -0.3746  0.0870
 2221SOL     OW17131   1.920   3.171   0.058 -0.1976 -0.8300  0.7340
 2221SOL    HW117132   1.894   3.223  -0.024 -2.3068 -1.0570  1.2319
 2221SOL    HW217133   1.913   3.230   0.138  0.1888 -1.1013  0.9710
 2222SOL     OW17134   9.836   4.991   2.740 -0.0967  0.2851  0.2165
 2222SOL    HW117135   9.755   4.934   2.729  0.0967 -0.2369  1.5141
 2222SOL    HW217136   9.810   5.088   2.732 -0.7092  0.0953 -0.1418
 2223SOL     OW17137   9.917   6.427   2.745 -0.6639 -0.3047 -0.1691
 2223SOL    HW117138   9.819   6.435   2.762 -0.7019  1.0730 -0.9253
 2223SOL    HW217139   9.965   6.502   2.791  0.0199 -0.9067  0.1072
 2224SOL     OW17140   8.435   0.916   2.849 -0.5135 -0.7085  0.0719
 2224SOL    HW117141   8.484   0.882   2.769  1.1593  1.9057 -0.0726
 2224SOL    HW217142   8.379   0.994   2.823 -1.1414 -0.7908  1.1513
 2225SOL     OW17143   2.803   3.177   2.937 -0.4168 -0.1128  0.0397
 2225SOL    HW117144   2.754   3.254   2.979 -1.1936 -0.8705  0.5394
 2225SOL    HW217145   2.781   3.093   2.986  1.3227 -0.4934  0.2209
 2226SOL     OW17146   0.868   1.008   1.372  0.1660  0.2938  0.4286
 2226SOL    HW117147   0.865   0.908   1.371 -1.5157  0.3289 -2.2593
 2226SOL    HW217148   0.963   1.038   1.372  0.7132 -1.2668  2.8920
 2227SOL     OW17149   1.339   3.478   1.769 -0.4854  0.5020  0.1801
 2227SOL    HW117150   1.411   3.507   1.832 -0.1175  2.2865 -1.0207
 2227SOL    HW217151   1.329   3.378   1.772  3.1530  0.0530 -0.8263
 2228SOL     OW17152   2.636   3.112   3.794  0.3320 -0.3778 -0.5768
 2228SOL    HW117153   2.708   3.181   3.790  0.4664 -0.3864  1.3007
 2228SOL    HW217154   2.552   3.149   3.755  0.7001  0.4809 -0.5715
 2229SOL     OW17155   2.518   5.058   2.487  0.1809 -0.1396  0.1058
 2229SOL    HW117156   2.446   5.126   2.478 -0.8052 -1.2338 -0.4362
 2229SOL    HW217157   2.493   4.992   2.558  1.5362  0.5500  1.2488
 2230SOL     OW17158   2.075   7.278   0.080  0.1209 -0.4982  0.2870
 2230SOL    HW117159   2.055   7.237   0.169  0.9537 -0.2141  0.6037
 2230SOL    HW217160   2.171   7.306   0.076 -0.0437 -0.0206 -0.5048
 2231SOL     OW17161   2.197   7.902   2.770 -0.5272 -0.1588 -0.2892
 2231SOL    HW117162   2.161   7.954   2.848  0.6012 -1.3532  1.0558
 2231SOL    HW217163   2.122   7.850   2.728 -1.2950  1.0838 -0.5158
 2232SOL     OW17164   9.592   5.728   2.591  0.1915 -0.0702 -0.4159
 2232SOL    HW117165   9.510   5.759   2.544  0.2207  0.7977  0.0846
 2232SOL    HW217166   9.670   5.785   2.563  0.8619 -1.5869 -1.7316
 2233SOL     OW17167   9.167   7.787   4.019  0.7204 -0.6356 -0.3097
 2233SOL    HW117168   9.168   7.882   3.988 -0.3460 -1.0435 -1.6101
 2233SOL    HW217169   9.112   7.732   3.957  1.5808 -2.1754  0.2624
 2234SOL     OW17170   9.157   5.402   1.112  0.2694  0.8420  0.2166
 2234SOL    HW117171   9.211   5.342   1.170 -0.0965 -0.7934 -1.0876
 2234SOL    HW217172   9.059   5.383   1.126  0.1690  0.6417 -0.6786
 2235SOL     OW17173   2.926   9.916   0.812  0.6207 -0.2151 -0.4421
 2235SOL    HW117174   2.986   9.858   0.758 -0.1607 -0.3465 -1.1923
 2235SOL    HW217175   2.977   9.958   0.887  1.3558 -1.2620 -0.3563
 2236SOL     OW17176   4.765   3.004   0.431 -0.5691 -0.6054 -0.0902
 2236SOL    HW117177   4.863   3.020   0.419 -0.4443 -0.3329  1.1532
 2236SOL    HW217178   4.746   2.906   0.434 -0.4217 -0.6585 -1.0011
 2237SOL     OW17179   8.986   7.357   1.290  0.3680  0.0079  0.6631
 2237SOL    HW117180   9.073   7.400   1.311  0.7046 -0.9522  1.2715
 2237SOL    HW217181   8.989   7.318   1.198 -0.1860  1.8894 -0.1672
 2238SOL     OW17182   3.025   7.716   3.416  0.0213  0.2177  0.4881
 2238SOL    HW117183   3.076   7.793   3.379  0.4733  1.0383  2.7319
 2238SOL    HW217184   2.944   7.699   3.359  1.0008  1.0405 -1.1693
 2239SOL     OW17185   8.868   2.744   1.288  0.0330  0.2624  0.4261
 2239SOL    HW117186   8.955   2.749   1.238 -1.3685 -0.2571 -2.1644
 2239SOL    HW217187   8.838   2.837   1.311  0.8110  0.5043  0.4744
 2240SOL     OW17188   4.137   7.114   0.781  0.1257  0.3192 -0.2913
 2240SOL    HW117189   4.049   7.135   0.739  0.4120  0.9505 -0.5758
 2240SOL    HW217190   4.127   7.117   0.881 -0.6136 -1.4293 -0.2898
 2241SOL     OW17191   3.207   1.167   1.273 -0.1185 -0.1104 -0.3775
 2241SOL    HW117192   3.291   1.116   1.291 -2.7271 -3.5595  3.0038
 2241SOL    HW217193   3.190   1.230   1.349  0.3457  1.9806 -1.9803
 2242SOL     OW17194   6.102   7.152   2.720  0.0842  0.6006 -0.1225
 2242SOL    HW117195   6.014   7.159   2.675 -0.3391  2.5138  0.9688
 2242SOL    HW217196   6.093   7.096   2.803 -0.4420  2.0249  0.7927
 2243SOL     OW17197   3.092   6.291   1.148  0.0963  0.3896 -0.1809
 2243SOL    HW117198   3.150   6.227   1.199  0.7825  0.3264 -1.0339
 2243SOL    HW217199   3.075   6.254   1.056  2.3618  2.4613 -1.4838
 2244SOL     OW17200   7.201   8.321   3.470 -0.5529 -0.2332 -0.3192
 2244SOL    HW117201   7.300   8.320   3.477 -0.6514 -0.3250  1.2511
 2244SOL    HW217202   7.172   8.401   3.417  0.3719 -0.4762 -1.2084
 2245SOL     OW17203   0.756   8.889   2.434  0.5200 -0.0780 -0.1734
 2245SOL    HW117204   0.777   8.979   2.473  0.5682  0.1870 -0.7967
 2245SOL    HW217205   0.667   8.892   2.390  0.2788 -0.4949  0.2786
 2246SOL     OW17206   8.600   6.084   3.981  0.3758  0.2326 -0.7632
 2246SOL    HW117207   8.589   6.030   4.065  0.0654  0.4924 -0.6371
 2246SOL    HW217208   8.681   6.052   3.931 -0.1117 -0.7084 -0.9538
 2247SOL     OW17209   0.983   1.336   2.358 -0.1435 -0.9799 -0.4434
 2247SOL    HW117210   0.903   1.338   2.417  0.3283 -0.4665  0.1806
 2247SOL    HW217211   0.954   1.343   2.262 -0.7849  0.0952 -0.1727
 2248SOL     OW17212   1.292   9.147   0.087  0.1061 -0.0329 -0.6774
 2248SOL    HW117213   1.279   9.219   0.155 -1.2613  0.7125 -1.6976
 2248SOL    HW217214   1.239   9.169   0.005  0.9901 -1.3795 -1.6339
 2249SOL     OW17215   1.385   4.737   0.353  0.0730  0.1804 -0.3760
 2249SOL    HW117216   1.458   4.791   0.394 -0.0578 -0.1999  0.3629
 2249SOL    HW217217   1.425   4.661   0.300  0.2067 -1.1794  1.5953
 2250SOL     OW17218   8.096   4.865   0.100 -0.1629 -0.1890 -0.1267
 2250SOL    HW117219   8.164   4.793   0.114 -1.6796 -1.3322  1.5363
 2250SOL    HW217220   8.057   4.856   0.008 -0.4746 -1.6243  0.1332
 2251SOL     OW17221   7.832   1.543   2.120 -1.0230  0.2365 -0.3929
 2251SOL    HW117222   7.741   1.504   2.133 -0.9915  0.2780 -0.0445
 2251SOL    HW217223   7.879   1.550   2.208 -0.5809 -0.0279 -0.6039
 2252SOL     OW17224   5.781   9.829   3.081  0.2483  0.0001 -0.0923
 2252SOL    HW117225   5.751   9.742   3.120  0.4448  0.3376  0.8119
 2252SOL    HW217226   5.861   9.813   3.023  1.0565 -0.2543  1.0699
 2253SOL     OW17227   0.677   0.981   3.517 -0.4648 -0.3789  0.0651
 2253SOL    HW117228   0.607   1.052   3.510  0.2492  0.3077 -0.3022
 2253SOL    HW217229   0.660   0.925   3.597 -0.5144  0.7999  0.8972
 2254SOL     OW17230   8.901   5.682   3.777 -0.1180 -0.2387  0.3950
 2254SOL    HW117231   8.840   5.606   3.756 -0.2244  0.3635 -1.5727
 2254SOL    HW217232   8.850   5.768   3.772  0.6792  0.2015 -0.4931
 2255SOL     OW17233   3.339   9.549   1.795  0.0931  0.4366 -0.3056
 2255SOL    HW117234   3.332   9.649   1.799  0.4958  0.4571 -0.0135
 2255SOL    HW217235   3.290   9.515   1.716 -1.9832  0.6916  0.8381
 2256SOL     OW17236   2.243   9.837   0.007  0.5858  0.1553  0.1069
 2256SOL    HW117237   2.251   9.831  -0.093  0.0591  1.5905 -0.0267
 2256SOL    HW217238   2.162   9.785   0.036  0.3158  0.3444 -0.2915
 2257SOL     OW17239   3.341   1.142   3.158 -0.0583  0.4589  0.0850
 2257SOL    HW117240   3.354   1.169   3.062  0.3871 -1.1415 -0.3173
 2257SOL    HW217241   3.362   1.220   3.217 -0.0904  1.3909 -1.1084
 2258SOL     OW17242   1.623   2.199   4.013 -0.0537  0.2356  0.1299
 2258SOL    HW117243   1.612   2.147   4.097  1.5309 -1.2417 -0.5311
 2258SOL    HW217244   1.707   2.253   4.018 -0.1723  0.4691 -0.3508
 2259SOL     OW17245   1.939   7.139   3.919 -0.1575 -0.3621 -0.1459
 2259SOL    HW117246   1.911   7.047   3.945  1.1837 -0.6196  0.4195
 2259SOL    HW217247   2.003   7.175   3.987 -2.4534  1.8924  0.8789
 2260SOL     OW17248   6.858   9.700   1.902  0.8025  1.3385 -0.7455
 2260SOL    HW117249   6.844   9.618   1.847  1.1407  1.1538 -0.5607
 2260SOL    HW217250   6.816   9.688   1.992  1.8472  0.9097 -0.3082
 2261SOL     OW17251   8.054   9.654   1.742 -0.0291 -0.2615  0.0561
 2261SOL    HW117252   7.979   9.647   1.808 -1.5094 -4.4930 -1.9104
 2261SOL    HW217253   8.123   9.584   1.763  0.8763  0.2272 -1.2243
 2262SOL     OW17254   3.208   5.353   1.301  0.3660 -0.9510 -0.8864
 2262SOL    HW117255   3.245   5.446   1.292  0.4856 -1.0059 -0.9683
 2262SOL    HW217256   3.236   5.314   1.389  0.0662 -0.7975 -0.7225
 2263SOL     OW17257   1.790   1.581   2.290 -0.2441 -0.3017 -0.0778
 2263SOL    HW117258   1.817   1.608   2.198 -0.3531 -1.2639 -0.3956
 2263SOL    HW217259   1.773   1.663   2.345 -1.0318  0.2800 -1.1678
 2264SOL     OW17260   0.623   7.266   3.650 -0.1327  0.3570 -0.1518
 2264SOL    HW117261   0.588   7.307   3.734  0.3247 -3.4591  2.0322
 2264SOL    HW217262   0.722   7.258   3.656 -0.1786 -0.7215 -0.6469
 2265SOL     OW17263   1.805   1.979   0.092 -0.7113  0.7343  0.3644
 2265SOL    HW117264   1.814   1.881   0.109 -0.3645  0.4436 -1.3959
 2265SOL    HW217265   1.769   2.024   0.174  3.1161 -0.2256  2.6862
 2266SOL     OW17266   4.074   4.438   1.299  0.1271  0.0467  0.1260
 2266SOL    HW117267   4.146   4.374   1.273  0.4884  0.5943 -0.2264
 2266SOL    HW217268   4.024   4.467   1.217 -0.5634 -0.4108  0.3798
 2267SOL     OW17269   3.949   1.631   0.733 -0.1989 -0.0708 -0.3132
 2267SOL    HW117270   3.988   1.605   0.644  1.8681  2.2436 -0.1554
 2267SOL    HW217271   3.961   1.729   0.746 -3.6574  0.2228  1.0362
 2268SOL     OW17272   1.394   3.559   0.984 -0.1113 -0.7384  0.6811
 2268SOL    HW117273   1.415   3.528   0.891 -1.0269 -0.8608  0.5117
 2268SOL    HW217274   1.413   3.485   1.049 -1.7165 -1.4660  0.3385
 2269SOL     OW17275   3.230   9.734   3.744 -0.3721  0.2930 -0.2268
 2269SOL    HW117276   3.322   9.761   3.774  0.2077 -1.8495  0.0103
 2269SOL    HW217277   3.199   9.796   3.673  0.4770  2.1892  1.0091
 2270SOL     OW17278   7.013   8.492   2.824 -0.3907 -0.1773 -0.0892
 2270SOL    HW117279   7.079   8.471   2.896  0.0497  1.9616  0.1726
 2270SOL    HW217280   6.921   8.492   2.861 -0.3324 -0.8820  0.0613
 2271SOL     OW17281   0.780   8.290   0.152  0.2648  0.1269 -0.1915
 2271SOL    HW117282   0.799   8.374   0.203  1.3678 -0.1808 -0.0913
 2271SOL    HW217283   0.768   8.215   0.216 -1.2087  0.2853 -0.2553
 2272SOL     OW17284   1.167   3.284   1.619  0.2264 -0.5649 -0.5171
 2272SOL    HW117285   1.209   3.371   1.593 -1.3285  0.6071  0.7453
 2272SOL    HW217286   1.072   3.282   1.585  0.1716 -1.6638 -0.3142
 2273SOL     OW17287   0.600   6.612   2.735  0.2333 -0.1836 -0.1946
 2273SOL    HW117288   0.643   6.639   2.649  3.0724 -0.3184  1.1210
 2273SOL    HW217289   0.613   6.514   2.749  0.3641 -0.0380  0.7066
 2274SOL     OW17290   2.614   6.834   0.058 -0.4176  0.5750 -0.1472
 2274SOL    HW117291   2.705   6.812   0.022 -0.7107  1.2139 -1.2725
 2274SOL    HW217292   2.586   6.762   0.123  0.6210  0.0592 -0.2594
 2275SOL     OW17293   8.959   3.119   3.112  0.3700  0.7309  0.0426
 2275SOL    HW117294   9.042   3.095   3.063  0.4976  1.0600  0.0970
 2275SOL    HW217295   8.973   3.203   3.163  0.4117  0.1082  1.0806
 2276SOL     OW17296   0.140   9.230   1.193 -0.2931 -0.5470  0.1925
 2276SOL    HW117297   0.186   9.269   1.274 -1.9643  1.0886  0.3820
 2276SOL    HW217298   0.183   9.265   1.110 -0.3375 -0.0707  0.3698
 2277SOL     OW17299   8.313   2.000   1.345 -0.2529 -0.6272 -0.6739
 2277SOL    HW117300   8.384   1.935   1.371 -2.1380 -1.8189  1.7776
 2277SOL    HW217301   8.335   2.090   1.382  0.3306 -0.8357 -0.5058
 2278SOL     OW17302   4.600   3.421   1.589  0.1485 -0.0721  0.1029
 2278SOL    HW117303   4.616   3.448   1.494 -0.1163  0.3631  0.1804
 2278SOL    HW217304   4.501   3.413   1.606  0.1577  0.8436  0.6122
 2279SOL     OW17305   4.061   8.947   2.875  0.6355 -0.0953 -0.4375
 2279SOL    HW117306   4.082   8.914   2.783  1.9523  0.3051 -0.2841
 2279SOL    HW217307   4.133   9.010   2.906  0.2600 -0.3093  0.9161
 2280SOL     OW17308   3.979   0.579   3.806 -0.7163  0.0657  0.2663
 2280SOL    HW117309   4.078   0.565   3.797 -0.9595 -0.5280 -1.8479
 2280SOL    HW217310   3.961   0.647   3.877  1.4148  3.0498 -1.9485
 2281SOL     OW17311   8.844   0.310   0.538 -0.0817  0.2737 -0.3381
 2281SOL    HW117312   8.867   0.213   0.540 -2.1663 -0.2354  1.0300
 2281SOL    HW217313   8.774   0.326   0.468  0.2086  0.7824 -0.5171
 2282SOL     OW17314   9.145   5.865   0.313  0.3371 -0.4328  0.1546
 2282SOL    HW117315   9.226   5.847   0.256 -1.2750 -2.2652 -1.6727
 2282SOL    HW217316   9.157   5.823   0.403  0.8328 -2.0244 -0.6280
 2283SOL     OW17317   3.935   9.698   0.052 -0.1395 -0.2545 -0.0177
 2283SOL    HW117318   3.912   9.623  -0.009  0.6614 -0.5693  0.0656
 2283SOL    HW217319   3.941   9.665   0.146 -0.3224  0.0233  0.0957
 2284SOL     OW17320   3.093   5.390   0.203  0.0660 -0.2672  0.9597
 2284SOL    HW117321   3.075   5.291   0.200  0.4906 -0.3552  1.3142
 2284SOL    HW217322   3.114   5.418   0.296 -0.7837  0.2980  0.9857
 2285SOL     OW17323   8.182   1.634   1.660  0.1424  0.5522  0.0373
 2285SOL    HW117324   8.124   1.614   1.739  0.2802 -0.9601 -0.2283
 2285SOL    HW217325   8.186   1.733   1.646 -2.8920  0.6772 -0.3360
 2286SOL     OW17326   1.641   8.139   1.430 -0.6118 -0.4799 -0.2671
 2286SOL    HW117327   1.603   8.084   1.505  0.1407 -0.0375  0.4421
 2286SOL    HW217328   1.577   8.212   1.408  0.0925  0.6672  1.3777
 2287SOL     OW17329   0.710   6.217   2.304  0.2099  0.4502  0.4609
 2287SOL    HW117330   0.807   6.217   2.279 -0.4787  1.3354 -2.3011
 2287SOL    HW217331   0.692   6.142   2.368  2.5101 -0.3406  0.2196
 2288SOL     OW17332   9.306   4.033   0.329 -0.3472  0.3143 -0.0408
 2288SOL    HW117333   9.315   3.981   0.415 -0.7102 -1.0973 -0.8338
 2288SOL    HW217334   9.229   3.996   0.277  1.2859 -0.3473 -2.0236
 2289SOL     OW17335   7.734   1.416   2.944  0.1373 -0.5164  0.0449
 2289SOL    HW117336   7.787   1.482   2.996 -0.4204 -0.7415  0.9201
 2289SOL    HW217337   7.709   1.339   3.004  0.4607 -1.3358 -0.8550
 2290SOL     OW17338   6.703   9.711   3.572  0.2981 -0.4863  0.2231
 2290SOL    HW117339   6.725   9.800   3.532  0.4610 -0.3310  0.6561
 2290SOL    HW217340   6.780   9.649   3.559  0.2853 -0.4881  0.1499
 2291SOL     OW17341   2.049   3.122   1.864  0.0883 -0.5603  0.9311
 2291SOL    HW117342   2.098   3.125   1.951 -0.4046  2.6611  1.1732
 2291SOL    HW217343   2.113   3.099   1.791  0.9736 -1.0717  1.8424
 2292SOL     OW17344   7.877   8.553   3.565  0.0858 -0.5388  0.1590
 2292SOL    HW117345   7.842   8.541   3.472 -0.2075 -0.4926  0.2629
 2292SOL    HW217346   7.802   8.579   3.626 -0.0129 -2.0292  0.7016
 2293SOL     OW17347   2.969   6.600   2.998 -0.2489  0.1408 -0.1706
 2293SOL    HW117348   2.967   6.515   3.050  1.6680  0.3981  0.3856
 2293SOL    HW217349   2.878   6.641   2.998 -1.0105 -1.5009  0.2196
 2294SOL     OW17350   0.963   4.511   3.344 -0.0314 -0.5389  0.4779
 2294SOL    HW117351   1.041   4.531   3.403  0.5503  2.0053 -1.0481
 2294SOL    HW217352   0.981   4.549   3.253 -2.5289 -1.0005 -0.2206
 2295SOL     OW17353   4.157   0.212   2.541 -0.5497  0.3495  0.2996
 2295SOL    HW117354   4.115   0.302   2.529  2.3949  1.6410 -0.7848
 2295SOL    HW217355   4.142   0.156   2.460  0.5792  1.1557 -0.4816
 2296SOL     OW17356   0.081   7.808   0.567  0.0542 -0.0902 -0.2265
 2296SOL    HW117357   0.112   7.901   0.544  1.1173 -0.2332  0.5880
 2296SOL    HW217358   0.137   7.772   0.641  0.4274 -1.8535 -1.3523
 2297SOL     OW17359   9.318   2.727   0.912  0.2190  0.1734 -0.0347
 2297SOL    HW117360   9.374   2.690   0.838 -0.1578 -1.5974  0.5408
 2297SOL    HW217361   9.224   2.737   0.881  0.2677  0.4090 -0.1088
 2298SOL     OW17362   4.739   3.659   1.630  0.4351  0.1579  0.1011
 2298SOL    HW117363   4.816   3.663   1.567  0.1058 -0.9150 -0.3784
 2298SOL    HW217364   4.699   3.567   1.629  0.0534  0.2984  1.4279
 2299SOL     OW17365   0.806   3.728   3.408  0.1892 -0.1876 -0.1011
 2299SOL    HW117366   0.767   3.641   3.437  0.6687 -0.2454  0.3670
 2299SOL    HW217367   0.846   3.775   3.486  0.2890  0.2719 -0.4244
 2300SOL     OW17368   1.061   9.939   2.592  0.1747 -0.3494  0.8390
 2300SOL    HW117369   1.057   9.985   2.681 -0.5291 -0.5210  0.8960
 2300SOL    HW217370   1.027  10.000   2.521  1.3831  0.0384  0.5817
 2301SOL     OW17371   0.245   6.782   0.302 -0.1486  0.2440  0.6208
 2301SOL    HW117372   0.211   6.872   0.332  4.0326  2.7179 -1.6751
 2301SOL    HW217373   0.192   6.751   0.224  0.4388  2.3146 -0.6369
 2302SOL     OW17374   1.005   7.201   3.395 -0.1886 -0.3659  0.7761
 2302SOL    HW117375   0.948   7.153   3.328 -2.4120  2.2598  0.7064
 2302SOL    HW217376   1.095   7.157   3.399 -0.7589 -1.9749 -2.2450
 2303SOL     OW17377   8.399   6.490   3.804 -0.4737 -0.0980 -0.4533
 2303SOL    HW117378   8.460   6.416   3.774  0.1977  0.1400  0.2898
 2303SOL    HW217379   8.342   6.458   3.879 -0.6164 -0.0537 -0.5444
 2304SOL     OW17380   0.874   5.996   3.935  0.2800 -0.0320 -0.1365
 2304SOL    HW117381   0.939   5.998   4.011 -0.7096 -0.1487  0.7253
 2304SOL    HW217382   0.787   5.959   3.967 -0.6305  1.3802 -0.9434
 2305SOL     OW17383   2.534   9.735   1.216 -0.2102  0.1396 -0.1708
 2305SOL    HW117384   2.581   9.785   1.143 -0.5114 -0.9999 -1.1755
 2305SOL    HW217385   2.528   9.792   1.297 -2.4101  2.5402 -1.9320
 2306SOL     OW17386   2.251   6.094   1.470 -0.2686  0.4360 -0.2686
 2306SOL    HW117387   2.299   6.180   1.453  0.7157  0.3094  1.8304
 2306SOL    HW217388   2.183   6.080   1.397  0.5560  2.2485 -1.4376
 2307SOL     OW17389   3.615   3.929   1.939  0.7326  0.0489 -0.6608
 2307SOL    HW117390   3.625   3.914   1.840 -0.6450 -0.1235 -0.7819
 2307SOL    HW217391   3.563   3.853   1.979  0.7592  0.4291  0.0904
 2308SOL     OW17392   5.279   9.177   2.390  0.5032 -0.1017 -0.4062
 2308SOL    HW117393   5.252   9.140   2.301 -0.9607 -0.6662  0.2747
 2308SOL    HW217394   5.331   9.108   2.441  1.4789  0.2756 -0.8719
 2309SOL     OW17395   4.138   1.429   0.196 -0.2393 -0.4079  0.2244
 2309SOL    HW117396   4.131   1.331   0.217 -1.1365 -0.3558  0.1952
 2309SOL    HW217397   4.210   1.470   0.252 -0.5489 -0.8802  0.9879
 2310SOL     OW17398   7.309   0.342   3.468 -0.6760 -0.3649 -0.5180
 2310SOL    HW117399   7.219   0.374   3.498 -1.4733 -0.8922 -2.3263
 2310SOL    HW217400   7.298   0.259   3.413  1.0339 -1.2374  0.4164
 2311SOL     OW17401   0.040   1.928   0.549  0.8241  0.2854 -0.0005
 2311SOL    HW117402   0.128   1.883   0.564  1.1966  1.4132  1.2880
 2311SOL    HW217403  -0.008   1.936   0.636 -1.3430 -1.8641 -0.9410
 2312SOL     OW17404   9.086   1.262   0.787 -0.2137  0.1616  0.3705
 2312SOL    HW117405   9.120   1.324   0.858 -0.9202 -0.0690  0.9033
 2312SOL    HW217406   9.078   1.170   0.824  2.1453 -0.5488 -0.7992
 2313SOL     OW17407   7.931   9.291   2.043  0.1023  0.7280  0.0208
 2313SOL    HW117408   7.975   9.219   1.989 -1.2915  0.0500 -0.2215
 2313SOL    HW217409   8.002   9.352   2.080  1.3237 -0.9915  0.5900
 2314SOL     OW17410   8.734   0.791   1.880  0.3728  0.3490  0.1606
 2314SOL    HW117411   8.741   0.841   1.794 -0.3664 -0.1902 -0.2161
 2314SOL    HW217412   8.821   0.746   1.900  0.3068 -0.1492 -0.6859
 2315SOL     OW17413   2.495   8.642   1.338 -0.3790  0.0163 -0.1341
 2315SOL    HW117414   2.400   8.627   1.364 -0.3641  0.2469  0.0564
 2315SOL    HW217415   2.501   8.722   1.279 -0.1376  0.8064  0.9473
 2316SOL     OW17416   9.916   3.018   0.379  0.2770  0.3443 -0.1611
 2316SOL    HW117417   9.911   2.923   0.351  1.5396 -0.1652  1.2384
 2316SOL    HW217418   9.950   3.023   0.473 -0.0814  2.1602 -0.1035
 2317SOL     OW17419   2.842   4.526   2.650 -0.4940 -0.1128 -0.2581
 2317SOL    HW117420   2.885   4.472   2.578  0.7010 -1.6104  1.5334
 2317SOL    HW217421   2.789   4.465   2.709 -1.8806  1.1699 -0.1570
 2318SOL     OW17422   0.081   1.886   2.209 -0.5535  0.0694 -0.3412
 2318SOL    HW117423   0.070   1.860   2.113  2.9819 -1.2476 -0.4596
 2318SOL    HW217424   0.077   1.986   2.217 -0.4562  0.2165 -1.9144
 2319SOL     OW17425   0.899   7.835   2.649  0.1112 -1.0947 -0.3044
 2319SOL    HW117426   0.856   7.745   2.655 -0.7183 -0.6290  1.0915
 2319SOL    HW217427   0.828   7.905   2.640  0.6239 -0.4179  0.7691
 2320SOL     OW17428   4.537   9.465   1.357  0.1742 -0.1626  0.1597
 2320SOL    HW117429   4.485   9.491   1.439  0.1487  0.1751  0.0378
 2320SOL    HW217430   4.634   9.485   1.372  0.2443 -0.6018  0.3091
 2321SOL     OW17431   2.128   6.947   0.055 -0.0607 -0.1691 -0.1509
 2321SOL    HW117432   2.162   7.023   0.111 -0.3386 -1.0904  1.3166
 2321SOL    HW217433   2.199   6.917  -0.009  0.4924  0.4946  0.1494
 2322SOL     OW17434   2.033   4.477   3.415  0.5307  0.3572  0.7200
 2322SOL    HW117435   1.934   4.482   3.412  0.3721 -2.5737 -1.2197
 2322SOL    HW217436   2.065   4.492   3.509 -1.9800 -1.6112  1.9521
 2323SOL     OW17437   4.177   2.416   0.919 -0.7289  0.3784 -0.1233
 2323SOL    HW117438   4.095   2.468   0.944 -1.9119 -1.1873 -0.6156
 2323SOL    HW217439   4.243   2.477   0.875 -1.5736  1.6942  0.4046
 2324SOL     OW17440   0.903   6.077   3.370  0.0231 -0.4299  0.4924
 2324SOL    HW117441   0.902   6.072   3.270 -0.1265  4.2460  0.1659
 2324SOL    HW217442   0.822   6.032   3.406  0.4919 -2.9208 -1.3888
 2325SOL     OW17443   8.877   6.769   0.806  0.0526  0.6112  0.0190
 2325SOL    HW117444   8.959   6.752   0.861 -0.2581 -1.2921 -0.0473
 2325SOL    HW217445   8.801   6.794   0.866  0.1084  0.0918  0.3091
 2326SOL     OW17446   7.901   4.645   0.295 -0.0276 -0.3731 -0.1316
 2326SOL    HW117447   7.877   4.724   0.352  1.3556 -0.2706  0.3207
 2326SOL    HW217448   7.885   4.667   0.199  0.0962  0.3658  0.0147
 2327SOL     OW17449   1.244   1.356   3.021  0.5911 -0.2644  0.1584
 2327SOL    HW117450   1.238   1.311   2.932  0.4074 -0.3177  0.1979
 2327SOL    HW217451   1.205   1.297   3.091  0.3756 -0.0576  0.2146
 2328SOL     OW17452   2.459   7.902   0.706 -0.1226  0.5686 -0.2335
 2328SOL    HW117453   2.397   7.928   0.781  1.4932  1.7694  0.7016
 2328SOL    HW217454   2.515   7.825   0.735 -0.1268  0.4456 -0.5487
 2329SOL     OW17455   2.918   5.920   0.452  0.2243 -0.3005  0.4910
 2329SOL    HW117456   2.936   5.900   0.355  0.1902 -0.0239  0.4266
 2329SOL    HW217457   2.992   5.884   0.508  1.0968  1.0218  0.2056
 2330SOL     OW17458   8.133   4.025   0.094  0.1632  0.0695  0.3291
 2330SOL    HW117459   8.200   3.951   0.086 -0.6761 -0.8987  1.8314
 2330SOL    HW217460   8.160   4.086   0.169  0.4969  0.9081 -0.4707
 2331SOL     OW17461   7.742   9.265   2.734  0.6752 -0.1594  0.1819
 2331SOL    HW117462   7.685   9.187   2.758 -0.3580  0.2839 -0.8117
 2331SOL    HW217463   7.694   9.350   2.756  0.4791  0.2303 -1.6732
 2332SOL     OW17464   3.718   9.376   1.408 -0.6950 -0.3903 -0.1579
 2332SOL    HW117465   3.746   9.283   1.430  0.6656  0.1719  0.5450
 2332SOL    HW217466   3.656   9.410   1.478 -0.1923 -0.3202  0.2539
 2333SOL     OW17467   0.585   9.055   3.418  0.2036  0.1567 -0.4288
 2333SOL    HW117468   0.607   9.150   3.442  1.2362 -0.4961  1.2777
 2333SOL    HW217469   0.633   8.993   3.479 -1.3020 -1.4624 -0.8364
 2334SOL     OW17470   4.504   2.102   1.736  0.3991  0.2741 -0.5236
 2334SOL    HW117471   4.525   2.072   1.829 -0.6399 -1.1390 -0.7235
 2334SOL    HW217472   4.438   2.039   1.695  0.9348  0.8179 -2.2649
 2335SOL     OW17473   3.948   1.894   0.800  0.2709  0.7287  0.3169
 2335SOL    HW117474   4.004   1.943   0.867  1.1804  2.6247 -1.7705
 2335SOL    HW217475   3.884   1.957   0.757 -0.3466 -0.4713 -0.5412
 2336SOL     OW17476   1.580   8.469   0.586 -0.0950  0.0581 -0.1817
 2336SOL    HW117477   1.602   8.550   0.641 -0.9955 -0.3393  0.7960
 2336SOL    HW217478   1.535   8.496   0.501  0.1310  0.6121 -0.1225
 2337SOL     OW17479   8.580   7.596   0.497  0.1252 -0.0267  0.6255
 2337SOL    HW117480   8.533   7.609   0.584  1.5501 -0.4114  1.4815
 2337SOL    HW217481   8.658   7.535   0.511  0.7945  0.4930 -0.7724
 2338SOL     OW17482   0.510   0.957   3.050  0.1070 -0.0368  0.2467
 2338SOL    HW117483   0.583   0.997   3.106  1.1332 -0.4666 -0.7733
 2338SOL    HW217484   0.471   0.879   3.098  0.5842 -0.0532  0.6168
 2339SOL     OW17485   3.577   5.891   3.282  0.0943 -0.3173 -0.1626
 2339SOL    HW117486   3.660   5.924   3.238  1.1220 -0.7359  1.4276
 2339SOL    HW217487   3.601   5.826   3.355 -1.6204 -0.5340  0.2378
 2340SOL     OW17488   8.005   2.189   2.463  0.0151  0.2949  0.3255
 2340SOL    HW117489   7.906   2.185   2.449  0.1609 -2.0758 -0.2759
 2340SOL    HW217490   8.051   2.172   2.377  0.9367 -0.7214  1.0047
 2341SOL     OW17491   8.076   9.256   1.709  0.7203 -0.5074 -0.2118
 2341SOL    HW117492   8.018   9.306   1.644  3.5112 -0.7051 -2.9918
 2341SOL    HW217493   8.121   9.321   1.771 -0.7197 -0.1697  0.4816
 2342SOL     OW17494   3.496   0.932   3.137 -0.0183 -0.0519 -0.2386
 2342SOL    HW117495   3.430   1.002   3.164 -0.6314 -0.0683 -1.6464
 2342SOL    HW217496   3.448   0.855   3.097  0.9552  0.5595 -2.6383
 2343SOL     OW17497   2.351   2.102   3.996  0.6739  0.3002  0.1002
 2343SOL    HW117498   2.321   2.035   3.927  1.7046 -0.8807  0.7867
 2343SOL    HW217499   2.369   2.189   3.951  2.2001 -0.6980 -1.2800
 2344SOL     OW17500   0.264   3.604   1.636 -0.5750  0.3570 -0.5717
 2344SOL    HW117501   0.235   3.648   1.551 -1.1024  0.6227 -0.2632
 2344SOL    HW217502   0.270   3.673   1.708  2.3200  0.5683 -0.9727
 2345SOL     OW17503   9.623   4.207   2.652  0.4872  0.1663 -0.0932
 2345SOL    HW117504   9.671   4.213   2.564  0.0664 -0.7597 -0.3925
 2345SOL    HW217505   9.546   4.270   2.652  1.4876  1.4127  0.2585
 2346SOL     OW17506   3.505   2.149   0.496 -0.1897 -0.5800 -0.4047
 2346SOL    HW117507   3.600   2.173   0.476  0.1641 -1.6677 -0.0981
 2346SOL    HW217508   3.444   2.216   0.455  0.7871  2.0192  2.1780
 2347SOL     OW17509   2.939   7.025   3.511  0.3797  0.0513  0.6428
 2347SOL    HW117510   3.024   7.076   3.516  1.1406 -1.2180  1.0099
 2347SOL    HW217511   2.956   6.937   3.467 -0.5932 -0.5012  1.3503
 2348SOL     OW17512   4.504   8.462   0.860  0.5457 -0.2962  0.1016
 2348SOL    HW117513   4.595   8.503   0.852  0.4455 -0.4025 -2.0865
 2348SOL    HW217514   4.510   8.377   0.912  1.6639 -0.1720  0.1791
 2349SOL     OW17515   3.041   1.948   2.296  0.2303 -0.3441  0.0217
 2349SOL    HW117516   3.033   1.957   2.197  1.4378 -1.5718 -0.2041
 2349SOL    HW217517   3.092   2.025   2.333  0.0705 -0.0590 -0.3598
 2350SOL     OW17518   8.929   6.018   1.392  0.5074  0.5874  0.7399
 2350SOL    HW117519   8.929   6.048   1.487  0.9801 -1.0564  1.2773
 2350SOL    HW217520   9.017   6.041   1.350  0.5674  0.6639  0.9056
 2351SOL     OW17521   0.172   7.027   0.393 -0.2915  0.3549  0.7027
 2351SOL    HW117522   0.093   7.084   0.416 -0.4149  0.0631  0.9880
 2351SOL    HW217523   0.246   7.086   0.360 -0.4438  0.6794  0.9339
 2352SOL     OW17524   2.835   2.122   2.034  0.4761  0.1934  0.2368
 2352SOL    HW117525   2.836   2.117   1.934 -2.1161 -0.2511  0.2039
 2352SOL    HW217526   2.772   2.054   2.071 -0.6259  2.0870  2.0121
 2353SOL     OW17527   8.528   8.619   3.666 -0.2615 -0.0359 -0.3906
 2353SOL    HW117528   8.538   8.639   3.764  0.9275 -0.9300 -0.3169
 2353SOL    HW217529   8.435   8.641   3.637 -0.7808 -0.2310  1.0617
 2354SOL     OW17530   0.363   7.046   2.793  0.1906 -0.4441  0.5948
 2354SOL    HW117531   0.401   7.061   2.884 -0.9427 -0.7145  1.1193
 2354SOL    HW217532   0.315   6.958   2.791 -0.4027 -0.1131 -0.0476
 2355SOL     OW17533   9.042   3.136   0.233 -0.0795 -0.4495  0.1933
 2355SOL    HW117534   9.061   3.197   0.310  1.5441 -2.1241  1.1303
 2355SOL    HW217535   9.060   3.041   0.259 -1.9274 -1.2947 -1.4692
 2356SOL     OW17536   3.311   4.942   1.131  0.0493  0.2810 -0.3454
 2356SOL    HW117537   3.402   4.975   1.156 -0.2130  0.6971  0.0592
 2356SOL    HW217538   3.284   4.867   1.191 -0.0337  0.4110 -0.2201
 2357SOL     OW17539   0.172   1.503   3.248 -0.2652 -0.2235 -0.3710
 2357SOL    HW117540   0.161   1.442   3.169 -1.8433 -0.1076 -0.2698
 2357SOL    HW217541   0.161   1.598   3.218  1.7295  0.0020 -0.4495
 2358SOL     OW17542   3.137   7.245   3.254  0.3301 -0.0339 -0.3913
 2358SOL    HW117543   3.115   7.331   3.300  0.2887 -0.2040 -0.0937
 2358SOL    HW217544   3.148   7.172   3.322 -1.7411 -0.7329 -0.7740
 2359SOL     OW17545   3.285   1.461   2.959  0.0464 -0.6393  0.0892
 2359SOL    HW117546   3.231   1.505   2.886  1.2775 -0.8030 -0.9313
 2359SOL    HW217547   3.317   1.372   2.928  1.9415 -0.0264  0.2256
 2360SOL     OW17548   0.307   0.270   3.571 -0.1497  0.6137  0.2289
 2360SOL    HW117549   0.289   0.188   3.626 -2.5241  0.1959 -1.1372
 2360SOL    HW217550   0.373   0.328   3.620 -0.4495 -0.8306  2.4413
 2361SOL     OW17551   1.400   7.535   0.232 -0.3058  0.4900 -0.6961
 2361SOL    HW117552   1.327   7.498   0.290 -0.0239  1.3588  0.2331
 2361SOL    HW217553   1.437   7.619   0.274  1.4710 -0.1289 -0.9571
 2362SOL     OW17554   9.561   4.928   0.521 -0.1965  0.1017 -0.4688
 2362SOL    HW117555   9.562   5.014   0.470 -0.4077  1.1690  1.2591
 2362SOL    HW217556   9.531   4.946   0.615  1.1910 -1.6308  0.3256
 2363SOL     OW17557   4.209   5.471   2.529 -0.0304 -0.1702  0.1075
 2363SOL    HW117558   4.122   5.483   2.480 -0.5617 -2.0486  0.5312
 2363SOL    HW217559   4.224   5.549   2.589 -1.6911 -0.0408  0.3873
 2364SOL     OW17560   8.414   4.926   0.255  0.3017 -0.0201 -0.2750
 2364SOL    HW117561   8.328   4.966   0.222 -1.0695 -3.1057 -0.6411
 2364SOL    HW217562   8.399   4.830   0.277  2.8840  0.2489  2.8958
 2365SOL     OW17563   4.099   8.868   1.190 -0.2502  0.4652 -0.2276
 2365SOL    HW117564   4.033   8.919   1.245 -0.9755 -0.2352 -0.4550
 2365SOL    HW217565   4.052   8.799   1.136  0.6362  0.1400 -0.5902
 2366SOL     OW17566   4.639   8.234   0.610  0.4222 -0.4470 -0.6703
 2366SOL    HW117567   4.695   8.310   0.577 -0.7006  0.2952 -0.8839
 2366SOL    HW217568   4.547   8.241   0.573 -0.3166 -0.6737  1.0868
 2367SOL     OW17569   8.457   4.295   3.598 -0.3354 -0.0086 -0.2407
 2367SOL    HW117570   8.398   4.247   3.663 -0.1819  1.3275  0.9087
 2367SOL    HW217571   8.514   4.361   3.647  0.2237  0.5887 -1.6681
 2368SOL     OW17572   3.489   4.168   2.027  0.0297  0.3153 -0.3591
 2368SOL    HW117573   3.540   4.083   2.017 -0.3872  0.0679 -0.3919
 2368SOL    HW217574   3.551   4.246   2.012  0.0725  0.0086 -1.9288
 2369SOL     OW17575   1.791   3.381   3.032  0.3457 -0.4317  0.6007
 2369SOL    HW117576   1.715   3.438   3.061 -0.0366 -0.5504 -0.1495
 2369SOL    HW217577   1.877   3.421   3.064  0.1289  0.8698 -0.4105
 2370SOL     OW17578   0.782   7.315   2.931  0.2772  0.2180  0.1826
 2370SOL    HW117579   0.817   7.396   2.980  1.1175 -0.3645  0.5618
 2370SOL    HW217580   0.749   7.342   2.841  2.5403  0.6649 -0.5464
 2371SOL     OW17581   2.174   0.548   3.962  0.4279  0.4689 -0.1873
 2371SOL    HW117582   2.205   0.626   3.908  2.7524 -0.1422  0.2259
 2371SOL    HW217583   2.166   0.468   3.902 -0.3345  0.6017 -0.2747
 2372SOL     OW17584   2.109   4.229   0.868 -0.0138  0.3184 -0.2238
 2372SOL    HW117585   2.089   4.149   0.811  0.2246 -0.8011  1.2413
 2372SOL    HW217586   2.205   4.255   0.857  0.6433 -1.3091  1.3619
 2373SOL     OW17587   9.801   8.224   3.158 -0.0839  0.0321  0.3522
 2373SOL    HW117588   9.706   8.220   3.190  0.2537  1.4583  1.5638
 2373SOL    HW217589   9.861   8.241   3.236  0.8854  2.2113 -0.8381
 2374SOL     OW17590   2.597   7.802   2.644  0.2158 -0.2561 -0.5977
 2374SOL    HW117591   2.532   7.740   2.687 -1.5329  1.2689 -0.9827
 2374SOL    HW217592   2.679   7.751   2.618 -1.3932 -2.5314 -1.4364
 2375SOL     OW17593   3.351   1.825   3.029 -0.4440  0.5698  0.0760
 2375SOL    HW117594   3.254   1.823   3.005 -0.4604 -0.7549  0.2053
 2375SOL    HW217595   3.378   1.735   3.064  0.8611  0.8997 -0.0702
 2376SOL     OW17596   1.414   4.070   1.369 -0.9562 -0.3454 -0.2388
 2376SOL    HW117597   1.344   4.000   1.361 -0.6187 -0.5223 -1.8491
 2376SOL    HW217598   1.431   4.111   1.279  1.1660 -0.4917  0.0618
 2377SOL     OW17599   2.047   8.663   2.825 -0.3051 -0.4465  0.7552
 2377SOL    HW117600   2.100   8.740   2.788 -1.2071 -0.3021 -0.2558
 2377SOL    HW217601   2.087   8.577   2.793 -0.3528 -0.3514  0.4374
 2378SOL     OW17602   9.719   3.429   2.170  0.4056 -0.2458 -0.6353
 2378SOL    HW117603   9.725   3.467   2.262  3.9434  0.9805 -1.2997
 2378SOL    HW217604   9.643   3.364   2.166 -1.3324  1.4649  2.4455
 2379SOL     OW17605   6.785   9.500   3.198  0.2149  0.0580 -0.0818
 2379SOL    HW117606   6.818   9.405   3.204 -0.9863 -0.2412  1.9026
 2379SOL    HW217607   6.698   9.502   3.149 -0.4628 -0.0578  1.0928
 2380SOL     OW17608   0.396   6.972   2.100  0.1425 -0.3176 -0.2907
 2380SOL    HW117609   0.419   6.920   2.182 -0.5265 -1.1589 -0.6228
 2380SOL    HW217610   0.368   6.909   2.027 -2.8403  0.6266 -0.0174
 2381SOL     OW17611   8.235   7.661   2.286 -0.1035  0.3659 -0.2329
 2381SOL    HW117612   8.198   7.729   2.223 -1.6808 -0.9517 -0.7565
 2381SOL    HW217613   8.288   7.593   2.235 -0.0946  0.1556  0.0520
 2382SOL     OW17614   9.428   0.769   1.078 -0.4954 -0.8834  0.5278
 2382SOL    HW117615   9.406   0.805   0.987  1.9917 -0.1990  0.1793
 2382SOL    HW217616   9.434   0.669   1.074  0.7917 -0.7708 -0.3206
 2383SOL     OW17617   2.750   8.497   1.855  0.7578  0.2815 -0.5407
 2383SOL    HW117618   2.779   8.414   1.904  0.9546  1.0426  0.6661
 2383SOL    HW217619   2.772   8.577   1.911 -0.8869  1.0501 -0.9671
 2384SOL     OW17620   4.301   5.350   1.770  0.6292  0.2357  0.2340
 2384SOL    HW117621   4.307   5.250   1.758 -0.0297  0.1962  0.1795
 2384SOL    HW217622   4.380   5.382   1.822 -0.1712 -0.6091  2.0530
 2385SOL     OW17623   8.023   9.819   2.775 -0.1218  1.0879  0.1120
 2385SOL    HW117624   8.054   9.792   2.684 -1.3856 -0.3613  0.1005
 2385SOL    HW217625   7.957   9.894   2.767  0.6895  1.7950 -0.0724
 2386SOL     OW17626   3.732   8.696   1.781  0.2091 -0.4521 -0.1646
 2386SOL    HW117627   3.804   8.653   1.726  1.1805  0.8971  0.0415
 2386SOL    HW217628   3.755   8.792   1.798 -0.9260 -0.3889  1.1376
 2387SOL     OW17629   0.193   0.636   3.887 -0.2475 -0.4994 -0.1355
 2387SOL    HW117630   0.127   0.663   3.958  0.0265  2.5045 -0.9340
 2387SOL    HW217631   0.146   0.623   3.800 -0.4757 -3.4393  0.3970
 2388SOL     OW17632   2.745   8.810   3.192 -0.2743  0.4285  0.4318
 2388SOL    HW117633   2.792   8.863   3.121 -0.2812 -0.0811  0.0426
 2388SOL    HW217634   2.660   8.774   3.155 -0.7192  0.9103  0.9762
 2389SOL     OW17635   8.507   1.209   1.287  0.0672  0.3139 -0.5665
 2389SOL    HW117636   8.516   1.305   1.311  0.7073  0.4461 -1.3204
 2389SOL    HW217637   8.435   1.199   1.218 -0.2324  0.2073 -0.2402
 2390SOL     OW17638   3.989   3.192   2.073 -0.5212  0.0615 -0.1707
 2390SOL    HW117639   3.955   3.275   2.117  1.1234  0.7490 -0.1871
 2390SOL    HW217640   3.916   3.123   2.072 -1.6414  1.2126  0.5582
 2391SOL     OW17641   4.461   0.703   1.139 -0.5183  0.5013  0.2944
 2391SOL    HW117642   4.402   0.762   1.084 -1.2370 -1.8500 -1.5295
 2391SOL    HW217643   4.481   0.619   1.089  1.9276 -0.0780  2.1193
 2392SOL     OW17644   0.428   6.041   0.724 -0.3656 -0.4442  0.7430
 2392SOL    HW117645   0.404   6.007   0.814  0.8431 -0.1044  1.2002
 2392SOL    HW217646   0.411   6.140   0.720 -0.9253 -0.5512  0.4223
 2393SOL     OW17647   9.449   9.729   0.103 -0.1557 -0.0298 -0.2168
 2393SOL    HW117648   9.501   9.728   0.017 -0.9613  0.5857 -0.7207
 2393SOL    HW217649   9.357   9.764   0.086 -0.2629  0.2867  0.9373
 2394SOL     OW17650   2.911   6.967   2.807 -0.4002  0.2175 -0.2310
 2394SOL    HW117651   2.920   6.979   2.906 -0.3435  1.2679 -0.3532
 2394SOL    HW217652   2.969   6.891   2.777 -2.3020 -1.7352  0.8859
 2395SOL     OW17653   9.093   6.159   2.017 -0.9395 -0.0551 -0.0654
 2395SOL    HW117654   9.113   6.239   2.073 -2.1798  0.3662 -0.2153
 2395SOL    HW217655   9.063   6.188   1.926  0.4153 -0.7270 -0.7446
 2396SOL     OW17656   2.236   2.838   0.997 -0.5150 -0.5025 -0.4851
 2396SOL    HW117657   2.332   2.811   0.992 -0.9453 -2.1315 -0.2293
 2396SOL    HW217658   2.199   2.813   1.086 -1.0005  0.7482 -0.3289
 2397SOL     OW17659   7.193   8.005   2.395 -0.1630 -0.0294 -0.2528
 2397SOL    HW117660   7.211   7.979   2.300  0.7062 -0.0937 -0.0708
 2397SOL    HW217661   7.275   8.046   2.434 -0.6977  0.5265  0.2955
 2398SOL     OW17662   2.271   2.389   3.040  0.1257 -0.3844 -0.0810
 2398SOL    HW117663   2.359   2.342   3.029 -0.8252 -2.4621  0.7816
 2398SOL    HW217664   2.267   2.431   3.130  0.0424 -0.7135  0.0690
 2399SOL     OW17665   0.752   0.007   0.524 -0.0068 -0.1929 -0.2898
 2399SOL    HW117666   0.807  -0.051   0.583 -1.2092 -0.4927  0.5500
 2399SOL    HW217667   0.802   0.092   0.505  1.0661 -0.7944 -0.1982
 2400SOL     OW17668   7.769   2.461   1.008 -0.2076  0.4808 -1.1268
 2400SOL    HW117669   7.728   2.372   0.988  0.8590 -0.7962  2.0636
 2400SOL    HW217670   7.766   2.518   0.926 -0.1295 -2.7867 -3.4971
 2401SOL     OW17671   0.472   1.354   3.192  0.5389 -0.2409 -0.1462
 2401SOL    HW117672   0.529   1.379   3.115  0.4186 -1.5013 -0.6582
 2401SOL    HW217673   0.441   1.437   3.239  0.1092  0.5551 -1.8070
 2402SOL     OW17674   4.404   0.516   2.458  0.2880  0.0723  0.1263
 2402SOL    HW117675   4.472   0.516   2.531  1.1637 -2.4409 -0.6134
 2402SOL    HW217676   4.429   0.585   2.390  0.9394  0.6125  0.8997
 2403SOL     OW17677   8.554   0.261   3.823  0.3633  0.3106 -0.3805
 2403SOL    HW117678   8.617   0.185   3.839  0.6465  0.3990 -1.0774
 2403SOL    HW217679   8.560   0.326   3.900  1.4254  0.5274 -0.6408
 2404SOL     OW17680   9.742   2.177   2.727  0.0788 -0.1870  0.3524
 2404SOL    HW117681   9.808   2.203   2.656  0.5547  1.0813  1.2570
 2404SOL    HW217682   9.653   2.160   2.685  0.5063 -0.0305 -0.6248
 2405SOL     OW17683   3.438   2.275   2.080  0.2904 -0.0819 -0.0464
 2405SOL    HW117684   3.369   2.345   2.100  1.2854  1.3942 -1.5612
 2405SOL    HW217685   3.400   2.184   2.097 -1.9647  0.7154 -0.6720
 2406SOL     OW17686   7.794   1.106   1.440  0.0905  1.1574 -0.3558
 2406SOL    HW117687   7.875   1.160   1.465  0.1669  0.6036  0.6058
 2406SOL    HW217688   7.731   1.103   1.517 -0.4170  0.7964 -0.7846
 2407SOL     OW17689   6.034   7.966   3.107 -0.4608  0.6334  0.5442
 2407SOL    HW117690   6.015   7.870   3.127 -3.4047  1.0280 -0.1120
 2407SOL    HW217691   6.037   8.018   3.192  0.9047  0.0010  0.8859
 2408SOL     OW17692   7.934   0.861   0.274  0.2064 -0.2849  0.8581
 2408SOL    HW117693   7.857   0.802   0.250 -0.2019 -0.0735  1.6276
 2408SOL    HW217694   7.950   0.856   0.373 -1.3541  2.6988  1.3287
 2409SOL     OW17695   0.226   6.596   3.607 -0.7874 -0.3806 -0.2631
 2409SOL    HW117696   0.162   6.672   3.601  0.3966  0.9729  2.9819
 2409SOL    HW217697   0.309   6.618   3.556 -1.8189 -1.0021 -2.2323
 2410SOL     OW17698   3.763   0.257   1.589  0.3196  0.2355 -0.6905
 2410SOL    HW117699   3.802   0.334   1.640  1.0699  0.3619 -1.4488
 2410SOL    HW217700   3.835   0.212   1.536  0.0544 -1.4845  0.3555
 2411SOL     OW17701   0.060   4.333   2.261  0.2172  0.3882  0.1705
 2411SOL    HW117702   0.137   4.394   2.245 -1.2302  2.2466  0.0593
 2411SOL    HW217703   0.027   4.346   2.355  0.9028 -1.3967  0.6601
 2412SOL     OW17704   9.508   0.856   2.639 -0.1256  0.0756  0.2609
 2412SOL    HW117705   9.421   0.810   2.661  0.0846 -0.5094 -0.1105
 2412SOL    HW217706   9.542   0.904   2.720 -0.8038  0.3199  0.4060
 2413SOL     OW17707   7.785   4.917   3.843  0.3931  0.7828  0.1623
 2413SOL    HW117708   7.866   4.859   3.852 -0.2978 -0.0881  0.9374
 2413SOL    HW217709   7.790   4.969   3.758 -0.1073 -2.1832 -1.7457
 2414SOL     OW17710   8.510   9.880   3.949  0.0364  0.3452  0.5018
 2414SOL    HW117711   8.414   9.854   3.949 -0.2569  1.2785 -1.3788
 2414SOL    HW217712   8.567   9.802   3.974 -1.1724 -0.3286  1.1685
 2415SOL     OW17713   1.658   5.974   1.009 -0.4065  0.1463  0.2267
 2415SOL    HW117714   1.735   6.037   1.016 -0.3709 -0.0824  2.2360
 2415SOL    HW217715   1.692   5.885   0.979  0.4043 -0.4026  2.6367
 2416SOL     OW17716   2.485   7.960   1.701  0.0124  0.2623  0.1856
 2416SOL    HW117717   2.527   8.050   1.696 -4.1357  2.2880 -0.5835
 2416SOL    HW217718   2.515   7.903   1.624  1.2361  1.6242 -0.3503
 2417SOL     OW17719   9.596   9.170   1.013 -0.3982 -0.1398  0.2196
 2417SOL    HW117720   9.580   9.137   0.920 -0.5172 -0.7066  0.4368
 2417SOL    HW217721   9.640   9.098   1.067 -1.5780 -0.3120  0.9803
 2418SOL     OW17722   2.550   7.265   2.645  0.1054  0.2090 -0.6911
 2418SOL    HW117723   2.548   7.337   2.714 -0.4730 -0.3297 -0.1393
 2418SOL    HW217724   2.497   7.186   2.677  0.6382 -0.4212 -1.3357
 2419SOL     OW17725   3.209   5.785   3.783  0.0223  0.0103 -0.6254
 2419SOL    HW117726   3.215   5.687   3.799 -3.9221 -0.5798 -2.2929
 2419SOL    HW217727   3.282   5.813   3.721  1.4397 -1.7462  0.2131
 2420SOL     OW17728   4.272   8.713   2.349  0.3149 -0.0686  0.3694
 2420SOL    HW117729   4.299   8.627   2.307 -0.9352 -0.3768  0.1889
 2420SOL    HW217730   4.180   8.704   2.389  1.1082  0.4731  2.3946
 2421SOL     OW17731   5.600   8.522   3.080 -0.1704  0.3926 -0.1156
 2421SOL    HW117732   5.580   8.445   3.141  0.5860  1.5235  1.6092
 2421SOL    HW217733   5.697   8.546   3.088 -0.4229  1.5628 -0.5667
 2422SOL     OW17734   7.717   0.939   1.974  0.3733 -0.0599  0.5084
 2422SOL    HW117735   7.742   1.017   2.031 -0.2190 -0.5928  1.5048
 2422SOL    HW217736   7.621   0.946   1.946  0.2798 -0.4953  0.7099
 2423SOL     OW17737   8.217   2.698   2.875 -0.5990  0.1561  0.4442
 2423SOL    HW117738   8.316   2.695   2.863 -0.4182  1.6614  1.4034
 2423SOL    HW217739   8.189   2.790   2.903 -2.2204 -0.3556  0.5868
 2424SOL     OW17740   4.006   0.979   0.106 -0.1372 -0.5652  0.0641
 2424SOL    HW117741   4.017   0.888   0.066  0.1473  0.1627 -1.5227
 2424SOL    HW217742   3.926   0.980   0.166 -1.0093 -1.4516 -1.0794
 2425SOL     OW17743   8.639   8.388   1.391  0.3596  0.7352  0.7498
 2425SOL    HW117744   8.661   8.311   1.452  1.6294 -0.2368 -0.8820
 2425SOL    HW217745   8.580   8.356   1.317  1.6787  1.1017 -0.4753
 2426SOL     OW17746   3.820   3.432   3.925  1.0798  0.7841  0.0424
 2426SOL    HW117747   3.721   3.425   3.938  1.5310 -2.5546  2.2044
 2426SOL    HW217748   3.839   3.483   3.840 -2.4881  0.2965 -1.1206
 2427SOL     OW17749   1.881   6.110   0.955 -0.1384 -0.5628 -0.1809
 2427SOL    HW117750   1.942   6.103   0.876  1.9966 -0.6486  1.4089
 2427SOL    HW217751   1.936   6.129   1.037 -2.0454 -2.6610  1.6398
 2428SOL     OW17752   7.448   7.109   2.742  0.1839 -0.3478  0.1907
 2428SOL    HW117753   7.482   7.159   2.662  0.8031  0.2865  0.8464
 2428SOL    HW217754   7.353   7.134   2.759  0.2649  0.0495  0.0686
 2429SOL     OW17755   3.317   0.034   1.152  0.6465  0.0779 -0.3573
 2429SOL    HW117756   3.293   0.113   1.209  0.3488 -0.0894 -0.2519
 2429SOL    HW217757   3.268  -0.047   1.184  2.2397 -0.5411  0.6335
 2430SOL     OW17758   1.172   4.325   3.942  0.0904 -0.4376 -0.0864
 2430SOL    HW117759   1.093   4.337   3.882 -0.3925 -1.6154  0.2921
 2430SOL    HW217760   1.234   4.257   3.903  0.8003  0.2993 -0.2587
 2431SOL     OW17761   3.235   3.485   1.082 -0.3742  0.0149 -0.0039
 2431SOL    HW117762   3.257   3.421   1.155  0.5339  1.6744  1.2239
 2431SOL    HW217763   3.137   3.481   1.063 -0.6380 -0.3610  1.3782
 2432SOL     OW17764   8.650   2.854   1.064  0.3725  0.2745  0.1648
 2432SOL    HW117765   8.624   2.780   1.126  1.2473 -0.4476 -0.3097
 2432SOL    HW217766   8.568   2.898   1.027 -0.1706  1.0405  2.1914
 2433SOL     OW17767   1.371   7.037   3.281 -0.9030 -0.6136 -0.3804
 2433SOL    HW117768   1.406   6.973   3.213 -2.0502 -0.1699 -1.4161
 2433SOL    HW217769   1.305   7.098   3.238 -0.3291  0.8269  0.7478
 2434SOL     OW17770   4.235   7.009   3.614 -0.1251 -0.0156 -0.2778
 2434SOL    HW117771   4.137   7.016   3.594 -0.2150 -1.4845 -0.3567
 2434SOL    HW217772   4.276   6.939   3.556  0.6432 -0.6296  0.9946
 2435SOL     OW17773   1.983   4.170   3.971  0.1058 -0.0030 -0.2747
 2435SOL    HW117774   2.035   4.099   4.017 -1.6020 -1.5400 -0.6647
 2435SOL    HW217775   2.002   4.168   3.873 -0.4358 -0.3603 -0.3751
 2436SOL     OW17776   2.591   4.684   0.884  0.0208  0.2101 -0.3324
 2436SOL    HW117777   2.564   4.607   0.941  1.3057 -0.1744 -0.2155
 2436SOL    HW217778   2.663   4.736   0.931 -0.8166  1.4586 -0.4245
 2437SOL     OW17779   0.149   3.883   0.288 -0.2579  0.3409 -0.2559
 2437SOL    HW117780   0.163   3.966   0.342  1.4341  0.7076 -1.2259
 2437SOL    HW217781   0.236   3.852   0.250 -0.8380 -1.9419  0.1528
 2438SOL     OW17782   3.287   7.694   0.175 -0.3108  0.2185 -0.0166
 2438SOL    HW117783   3.264   7.726   0.267 -0.3367 -1.0223  0.4289
 2438SOL    HW217784   3.229   7.740   0.108 -1.6346 -0.2775  0.7691
 2439SOL     OW17785   2.203   4.399   2.608 -0.0405 -0.2501 -0.0938
 2439SOL    HW117786   2.172   4.350   2.690  0.2878  0.0531  0.2137
 2439SOL    HW217787   2.281   4.351   2.569  1.1996  0.8098  1.0351
 2440SOL     OW17788   8.883   7.303   3.101  0.0358 -0.3739  0.1771
 2440SOL    HW117789   8.960   7.359   3.133 -0.0913 -0.9235  1.4705
 2440SOL    HW217790   8.900   7.207   3.123 -0.5916 -0.6159 -0.3890
 2441SOL     OW17791   8.020   0.031   3.016  0.1988 -0.8554 -0.0913
 2441SOL    HW117792   8.050  -0.032   2.945  0.5918  0.2831 -0.9395
 2441SOL    HW217793   8.097   0.053   3.076 -0.1114 -1.7480  0.6682
 2442SOL     OW17794   9.168   2.494   1.504 -0.0283 -0.1132 -0.5180
 2442SOL    HW117795   9.227   2.423   1.542  1.2837  1.0744 -0.3026
 2442SOL    HW217796   9.182   2.499   1.405 -1.1104 -1.0522 -0.7294
 2443SOL     OW17797   8.342   6.749   2.943  0.5220 -0.1343  0.2157
 2443SOL    HW117798   8.297   6.674   2.992 -0.1806  0.2112  0.1073
 2443SOL    HW217799   8.293   6.834   2.961 -0.4621 -0.1886 -2.0046
 2444SOL     OW17800   9.131   6.269   1.754  0.9727 -0.3716 -0.1212
 2444SOL    HW117801   9.183   6.220   1.684  1.1599 -1.0977  0.5227
 2444SOL    HW217802   9.191   6.334   1.800  0.5249  1.1034 -1.5489
 2445SOL     OW17803   7.726   6.734   3.531 -0.1796  0.0606  0.4011
 2445SOL    HW117804   7.761   6.642   3.511 -1.2339 -0.2480 -0.0705
 2445SOL    HW217805   7.784   6.802   3.487 -1.3162 -0.5199 -2.1007
 2446SOL     OW17806   2.748   9.726   2.595  0.4913  0.0704  0.4368
 2446SOL    HW117807   2.834   9.713   2.644  1.5385  1.4625 -0.9591
 2446SOL    HW217808   2.700   9.639   2.589  2.8558 -1.2255 -0.6428
 2447SOL     OW17809   9.079   9.947   2.813  0.2370  0.4185  0.3622
 2447SOL    HW117810   9.112   9.900   2.731  1.7277 -0.9470  1.7019
 2447SOL    HW217811   9.100   9.892   2.893 -1.2544  1.7103  1.6645
 2448SOL     OW17812   0.159   9.841   2.871  0.4388 -0.1494  0.3227
 2448SOL    HW117813   0.250   9.811   2.899  0.2369 -0.5696  0.5324
 2448SOL    HW217814   0.127   9.912   2.933  1.9262  2.2592 -1.5997
 2449SOL     OW17815   3.217   5.915   2.646  0.2533  0.0137  0.0281
 2449SOL    HW117816   3.239   6.009   2.622  0.7328 -0.4850 -1.5384
 2449SOL    HW217817   3.168   5.913   2.733 -0.8412  1.8105 -0.5359
 2450SOL     OW17818   2.049   6.593   3.638  0.1453  0.3145  0.6723
 2450SOL    HW117819   1.979   6.568   3.572 -0.0033  0.5240  0.7504
 2450SOL    HW217820   2.103   6.670   3.603  0.4503  0.0390  0.5348
 2451SOL     OW17821   8.065   8.819   1.380 -0.5171 -0.6611  1.1573
 2451SOL    HW117822   8.059   8.848   1.285 -0.7635 -0.5311  1.2124
 2451SOL    HW217823   8.139   8.752   1.390 -0.1849 -0.3240  0.9639
 2452SOL     OW17824   3.095   4.047   0.316 -0.1946 -0.2138 -0.0680
 2452SOL    HW117825   3.192   4.062   0.335  0.1028 -0.7547 -1.0802
 2452SOL    HW217826   3.047   4.134   0.312  0.3502  0.0873 -0.0543
 2453SOL     OW17827   9.181   0.901   1.576  0.5680  0.2574 -0.4399
 2453SOL    HW117828   9.158   0.827   1.513  0.9388 -1.0680  0.9231
 2453SOL    HW217829   9.281   0.905   1.587  0.4558 -0.2847  0.9073
 2454SOL     OW17830   4.203   2.103   2.775  0.0293  0.5436 -0.7422
 2454SOL    HW117831   4.106   2.096   2.752 -0.7261 -1.9515  2.7509
 2454SOL    HW217832   4.214   2.167   2.851  0.8089 -0.8544  0.3395
 2455SOL     OW17833   0.472   3.694   0.604 -0.0365  0.3514 -0.4703
 2455SOL    HW117834   0.561   3.712   0.645 -0.8973  0.3568  1.4301
 2455SOL    HW217835   0.483   3.631   0.526  1.2348 -2.6445  2.0219
 2456SOL     OW17836   2.360   4.182   0.287  0.3769 -0.0779  0.7900
 2456SOL    HW117837   2.303   4.150   0.211  2.2350  0.3822 -0.8007
 2456SOL    HW217838   2.302   4.230   0.354 -1.4959 -1.7160  0.3966
 2457SOL     OW17839   3.008   4.109   2.265 -0.2424 -0.2708 -0.6569
 2457SOL    HW117840   2.960   4.030   2.305 -1.2195  0.6278 -0.0455
 2457SOL    HW217841   2.986   4.115   2.168  0.4373 -1.1919 -0.8790
 2458SOL     OW17842   9.969   3.696   2.444  0.3549  0.0118 -0.5308
 2458SOL    HW117843   9.998   3.600   2.453  2.1548  0.5685 -0.3013
 2458SOL    HW217844   9.910   3.704   2.363 -0.9946 -1.5476  0.2575
 2459SOL     OW17845   4.762   7.409   1.030  0.0580 -0.0737 -0.0705
 2459SOL    HW117846   4.791   7.377   0.940  1.6737  1.0038  0.0357
 2459SOL    HW217847   4.668   7.379   1.048 -0.9525  1.1662 -2.8696
 2460SOL     OW17848   9.092   2.792   1.861  0.6391  0.3658  0.3793
 2460SOL    HW117849   9.133   2.706   1.892 -1.0721 -0.5471  0.2142
 2460SOL    HW217850   9.070   2.785   1.763 -0.4854  0.5704  0.6022
 2461SOL     OW17851   1.999   1.446   2.752  0.8245 -0.4669 -0.0229
 2461SOL    HW117852   1.964   1.406   2.836  1.0186 -0.2891  0.1421
 2461SOL    HW217853   2.070   1.513   2.773  0.5980 -0.1316 -0.3054
 2462SOL     OW17854   1.932   0.365   0.741  0.4553  0.3653 -0.2858
 2462SOL    HW117855   1.949   0.439   0.676 -0.4834 -0.8384 -1.9442
 2462SOL    HW217856   1.902   0.404   0.828 -3.1041  1.8962 -2.0749
 2463SOL     OW17857   3.489   1.983   3.738  0.0202  0.7982 -0.4506
 2463SOL    HW117858   3.588   1.970   3.743 -0.1426 -0.3428  0.0662
 2463SOL    HW217859   3.448   1.959   3.826 -1.0156 -1.8762 -1.5965
 2464SOL     OW17860   0.359   7.951   1.240  0.2564 -0.5914  0.1544
 2464SOL    HW117861   0.276   7.980   1.288 -0.2488 -0.9177 -0.5075
 2464SOL    HW217862   0.413   7.892   1.300 -0.4139 -1.0715  0.2973
 2465SOL     OW17863   4.429   3.795   3.980 -0.1567  0.0873 -0.3788
 2465SOL    HW117864   4.389   3.735   3.912 -0.0868 -0.7756  0.3256
 2465SOL    HW217865   4.364   3.811   4.054  0.8553 -1.5358  0.9010
 2466SOL     OW17866   3.531   2.468   1.414 -0.4771 -0.9049  0.2474
 2466SOL    HW117867   3.466   2.538   1.445  0.7004  1.0520 -1.5705
 2466SOL    HW217868   3.510   2.444   1.319  1.1013 -0.6703 -0.1718
 2467SOL     OW17869   1.930   0.835   2.732  0.1582 -0.0212 -0.5757
 2467SOL    HW117870   1.887   0.854   2.644 -1.1453 -0.7175 -0.1082
 2467SOL    HW217871   1.905   0.743   2.762  0.6746  0.1695  0.4733
 2468SOL     OW17872   4.724   1.160   1.566  0.2340 -0.1208  0.0630
 2468SOL    HW117873   4.651   1.171   1.499 -0.6701 -1.2065  0.8536
 2468SOL    HW217874   4.697   1.202   1.653  0.3606 -0.8829  0.4820
 2469SOL     OW17875   2.797   5.296   1.822  0.2524  0.4929  0.3488
 2469SOL    HW117876   2.883   5.248   1.801 -0.0522 -0.2644  0.7972
 2469SOL    HW217877   2.777   5.361   1.749 -0.4983 -1.6766 -1.4543
 2470SOL     OW17878   1.960   5.025   0.200 -0.5501 -0.4126  0.3894
 2470SOL    HW117879   1.962   5.097   0.269 -1.4501  0.7776 -0.8005
 2470SOL    HW217880   1.894   4.955   0.226  0.3071 -0.8206  1.5356
 2471SOL     OW17881   3.759   5.836   3.630 -0.5205  0.2791 -0.0950
 2471SOL    HW117882   3.703   5.915   3.656 -1.7146 -0.7946  0.6550
 2471SOL    HW217883   3.703   5.769   3.582 -0.3643 -1.6384  2.2755
 2472SOL     OW17884   9.208   7.871   1.421 -0.0663 -0.1025 -0.1128
 2472SOL    HW117885   9.229   7.774   1.414 -0.7997 -0.1679 -1.6131
 2472SOL    HW217886   9.124   7.884   1.473  1.8024 -0.0316  3.0572
 2473SOL     OW17887   2.874   0.670   3.453 -0.1982  0.1761 -0.5524
 2473SOL    HW117888   2.826   0.613   3.519 -0.3781  0.1896 -0.6706
 2473SOL    HW217889   2.810   0.698   3.381 -0.0170  0.2086 -0.6996
 2474SOL     OW17890   0.674   1.480   3.416  0.0176  1.0287 -0.0296
 2474SOL    HW117891   0.726   1.524   3.489  0.8345 -1.2197  0.7644
 2474SOL    HW217892   0.736   1.432   3.354 -0.9844 -0.5041  0.1231
 2475SOL     OW17893   9.777   4.008   3.837  0.5777  0.0129 -0.7954
 2475SOL    HW117894   9.855   4.064   3.812  0.1893  0.2882 -1.4060
 2475SOL    HW217895   9.729   4.050   3.914  0.2024  0.6016 -1.3459
 2476SOL     OW17896   8.509   5.285   3.337 -0.0277 -0.1027  0.4643
 2476SOL    HW117897   8.604   5.258   3.319 -0.3465 -1.0395  0.1530
 2476SOL    HW217898   8.489   5.369   3.288  1.5616  1.8044  2.9674
 2477SOL     OW17899   5.291   0.719   2.476  0.0731 -0.2317  0.0036
 2477SOL    HW117900   5.374   0.721   2.419  0.8395  0.7605  1.1388
 2477SOL    HW217901   5.212   0.744   2.419  0.7925  0.5036 -0.6990
 2478SOL     OW17902   8.496   3.570   3.958 -0.0565 -0.0004 -0.0740
 2478SOL    HW117903   8.399   3.546   3.964  0.4883 -2.4538 -0.3793
 2478SOL    HW217904   8.536   3.573   4.049 -0.5004  1.4682  0.0867
 2479SOL     OW17905   2.442   4.178   3.805 -0.2075  0.2943 -0.3821
 2479SOL    HW117906   2.381   4.217   3.874  0.2776  0.1453  0.1289
 2479SOL    HW217907   2.471   4.087   3.834 -0.3161  0.0718 -0.9687
 2480SOL     OW17908   3.647   4.219   2.416  0.3477 -0.0192  0.1341
 2480SOL    HW117909   3.604   4.159   2.484  1.4767 -0.1682  0.7377
 2480SOL    HW217910   3.729   4.261   2.456 -1.1266  2.9559  0.1482
 2481SOL     OW17911   0.598   3.707   1.913  0.1065  0.1727 -0.5933
 2481SOL    HW117912   0.505   3.719   1.879 -0.9227  0.7906  2.3322
 2481SOL    HW217913   0.627   3.789   1.962  0.2583 -1.8385  2.8679
 2482SOL     OW17914   1.409   0.132   2.489 -0.3330  0.2423  0.1759
 2482SOL    HW117915   1.471   0.056   2.470 -0.3407 -0.0737  1.3574
 2482SOL    HW217916   1.334   0.131   2.424  0.0227 -0.3622 -0.2337
 2483SOL     OW17917   4.080   1.274   3.937 -0.3244 -0.1036  0.3813
 2483SOL    HW117918   3.995   1.312   3.974  0.3513  1.0530  0.7840
 2483SOL    HW217919   4.140   1.246   4.012  1.1160  2.3862  0.2286
 2484SOL     OW17920   0.107   7.215   1.585 -0.0008  0.1162  0.7424
 2484SOL    HW117921   0.048   7.199   1.506  1.4713 -1.2469 -0.1106
 2484SOL    HW217922   0.104   7.312   1.610 -1.5338  0.3035 -0.1130
 2485SOL     OW17923   3.234   4.393   0.491 -0.7625 -0.5269 -0.0977
 2485SOL    HW117924   3.214   4.491   0.497 -0.6499 -0.5742  1.1579
 2485SOL    HW217925   3.236   4.365   0.395 -0.4510  0.7697 -0.4771
 2486SOL     OW17926   6.342   7.246   2.622  0.0808  0.0923 -0.6703
 2486SOL    HW117927   6.263   7.209   2.672  0.5917 -1.5750 -1.0803
 2486SOL    HW217928   6.426   7.217   2.667  0.5277 -0.8549 -2.0740
 2487SOL     OW17929   9.634   7.660   1.227  0.5295  0.3307 -0.7318
 2487SOL    HW117930   9.567   7.710   1.173 -0.9298 -1.2590 -0.4318
 2487SOL    HW217931   9.661   7.715   1.306 -0.4178  1.0001 -0.8673
 2488SOL     OW17932   3.609   0.421   3.367 -0.2758  0.0548 -0.2945
 2488SOL    HW117933   3.594   0.518   3.385  0.6157  0.5131 -1.9835
 2488SOL    HW217934   3.707   0.400   3.379 -0.5696 -0.7948  0.7501
 2489SOL     OW17935   1.353   3.767   3.009  0.0970  0.0947 -0.4251
 2489SOL    HW117936   1.287   3.759   2.934 -0.4460  2.3118 -0.2423
 2489SOL    HW217937   1.305   3.787   3.094  0.9010  0.5143 -0.0604
 2490SOL     OW17938   1.148   7.210   2.847 -0.7569  0.0416  0.2463
 2490SOL    HW117939   1.144   7.309   2.834 -0.0730  0.4235  2.7314
 2490SOL    HW217940   1.140   7.164   2.758  2.4745  2.3918 -1.3686
 2491SOL     OW17941   1.834   5.165   1.504 -0.5644  0.4757 -0.1229
 2491SOL    HW117942   1.824   5.157   1.404 -3.0495  0.0252  0.1218
 2491SOL    HW217943   1.764   5.109   1.548  1.0057  0.0668  1.9065
 2492SOL     OW17944   3.097   6.757   1.207  1.3669  0.0409 -0.0252
 2492SOL    HW117945   3.045   6.672   1.218  1.0277  0.2145 -0.2890
 2492SOL    HW217946   3.195   6.736   1.199  1.3663 -0.2676  0.7205
 2493SOL     OW17947   0.300   8.385   0.965  0.9014 -0.4033  0.3363
 2493SOL    HW117948   0.378   8.328   0.990  1.4203  0.2429  0.1988
 2493SOL    HW217949   0.258   8.422   1.048  1.1127 -0.2592  0.3786
 2494SOL     OW17950   9.011   7.582   0.421  0.5300 -0.3891 -0.3847
 2494SOL    HW117951   9.103   7.560   0.390  0.0838  0.2957 -2.2494
 2494SOL    HW217952   8.958   7.621   0.346 -0.6403  1.1861  1.2099
 2495SOL     OW17953   2.285   3.121   3.002 -0.0867  0.0701  0.1832
 2495SOL    HW117954   2.310   3.156   3.092  0.3596  1.0223 -0.3002
 2495SOL    HW217955   2.364   3.131   2.940  0.4735 -2.9686  0.3673
 2496SOL     OW17956   1.997   6.378   2.128 -0.3008  0.1161  0.2604
 2496SOL    HW117957   2.057   6.428   2.190 -2.0844 -0.6052  2.6554
 2496SOL    HW217958   1.906   6.419   2.128 -0.7594 -0.8629 -0.6552
 2497SOL     OW17959   0.032   9.619   3.979 -0.5336  0.0263  0.0055
 2497SOL    HW117960   0.049   9.585   4.072  1.3632  1.5695  0.2297
 2497SOL    HW217961  -0.004   9.712   3.984 -0.2603  0.1720 -0.8309
 2498SOL     OW17962   2.794   4.816   3.095  0.0378 -0.7454 -0.4064
 2498SOL    HW117963   2.832   4.849   3.182  1.6031 -2.4265 -0.4114
 2498SOL    HW217964   2.741   4.733   3.111 -0.0759 -0.7838 -0.9781
 2499SOL     OW17965   0.791   2.559   0.059  0.1715  0.3335  0.4236
 2499SOL    HW117966   0.829   2.580   0.149  0.4910 -1.0655  0.6390
 2499SOL    HW217967   0.807   2.462   0.039  0.0974  0.6331 -1.1340
 2500SOL     OW17968   8.815   6.113   0.934  0.2556  0.0157 -0.0560
 2500SOL    HW117969   8.751   6.092   1.008 -0.2091  1.7595  0.0539
 2500SOL    HW217970   8.841   6.210   0.939  1.9014 -0.3735 -0.8771
 2501SOL     OW17971   9.456   7.879   3.223  0.5600  0.1933 -0.6353
 2501SOL    HW117972   9.525   7.834   3.167  0.5010 -0.9038  0.1309
 2501SOL    HW217973   9.500   7.925   3.300  0.3710 -1.9765  0.8453
 2502SOL     OW17974   0.032   5.583   2.911  0.0544  0.2252  0.0302
 2502SOL    HW117975   0.036   5.642   2.830  2.3948 -0.0347 -0.0548
 2502SOL    HW217976  -0.058   5.593   2.954 -1.7547 -0.6193 -3.3191
 2503SOL     OW17977   0.478   1.035   0.919  0.0108  0.7485  0.1828
 2503SOL    HW117978   0.523   1.083   0.845 -1.0741  1.1454 -0.2184
 2503SOL    HW217979   0.472   0.937   0.897 -0.0951  0.8296 -0.1464
 2504SOL     OW17980   4.766   0.706   1.093  0.2332 -0.2218 -0.0854
 2504SOL    HW117981   4.835   0.730   1.161  0.3245 -1.1011  0.1429
 2504SOL    HW217982   4.678   0.744   1.120  0.6999  1.2513 -0.5866
 2505SOL     OW17983   2.400   8.481   3.681 -0.1546 -0.3440  0.6992
 2505SOL    HW117984   2.353   8.393   3.688 -0.1374 -0.5163 -1.1354
 2505SOL    HW217985   2.333   8.552   3.658  0.0308 -0.0955  0.9298
 2506SOL     OW17986   8.625   9.122   2.829 -0.5177  0.1447 -0.0751
 2506SOL    HW117987   8.563   9.097   2.754 -2.0502 -0.5114  1.3989
 2506SOL    HW217988   8.595   9.208   2.870  2.3762  2.4276 -2.4540
 2507SOL     OW17989   2.197   7.133   0.873  0.2717 -0.1981  0.0947
 2507SOL    HW117990   2.274   7.098   0.927  0.8259  2.0174  0.7868
 2507SOL    HW217991   2.114   7.134   0.930 -0.1850 -2.0740 -0.4891
 2508SOL     OW17992   2.972   9.176   0.645  0.2687 -0.4649  0.3494
 2508SOL    HW117993   2.966   9.276   0.636 -0.7224 -0.5918 -0.3591
 2508SOL    HW217994   3.067   9.148   0.631  0.3903  0.2866 -0.4114
 2509SOL     OW17995   7.014   9.217   1.426  0.4081  0.2993  0.1535
 2509SOL    HW117996   7.055   9.299   1.387 -0.2843  0.5257 -0.0946
 2509SOL    HW217997   7.010   9.225   1.526 -0.6407  1.0185  0.0548
 2510SOL     OW17998   2.493   7.752   1.488 -0.0523  0.0979 -0.4388
 2510SOL    HW117999   2.531   7.799   1.408 -1.4676  0.1372 -1.1066
 2510SOL    HW218000   2.414   7.697   1.460 -0.7250  0.3222  0.9639
 2511SOL     OW18001   4.799   0.963   1.979  0.2326  0.2687 -0.1687
 2511SOL    HW118002   4.895   0.952   2.008 -0.0921  0.0674  0.8702
 2511SOL    HW218003   4.739   0.944   2.057 -0.6544  0.4225 -0.8107
 2512SOL     OW18004   9.372   8.356   1.444 -0.8462  0.1495 -0.3633
 2512SOL    HW118005   9.353   8.359   1.542  1.4829  0.2861  0.1123
 2512SOL    HW218006   9.323   8.430   1.399 -0.4414  1.2643  0.9800
 2513SOL     OW18007   9.015   6.310   0.716  0.2452 -0.1940 -0.0308
 2513SOL    HW118008   9.071   6.336   0.638  0.8173 -0.8333  0.1546
 2513SOL    HW218009   8.976   6.219   0.700 -1.6803  0.7061 -0.6554
 2514SOL     OW18010   3.253   8.061   4.018  0.3484 -0.2298  0.4586
 2514SOL    HW118011   3.256   7.961   4.023 -0.2104 -0.2655  0.2173
 2514SOL    HW218012   3.164   8.093   4.053 -0.3156  0.0354 -1.4044
 2515SOL     OW18013   2.795   1.558   0.716  0.2679 -0.1638 -0.2680
 2515SOL    HW118014   2.852   1.476   0.717  0.1637 -0.2353 -0.1521
 2515SOL    HW218015   2.844   1.634   0.760  1.2317  0.4269 -2.3062
 2516SOL     OW18016   4.751   3.540   0.136 -0.5973  0.2258 -0.1836
 2516SOL    HW118017   4.695   3.573   0.060 -0.2713  1.0884 -0.0568
 2516SOL    HW218018   4.847   3.541   0.109 -0.3876  1.4114  0.5308
 2517SOL     OW18019   8.392   5.669   0.416  0.3674  0.0042  0.8835
 2517SOL    HW118020   8.447   5.589   0.391 -0.6306 -0.5892  0.5430
 2517SOL    HW218021   8.397   5.737   0.343  0.6646 -0.0438  0.8594
 2518SOL     OW18022   1.314   6.278   1.303  0.0030 -0.0462  0.0071
 2518SOL    HW118023   1.339   6.366   1.345  0.7641 -0.6639  0.8558
 2518SOL    HW218024   1.391   6.244   1.250 -0.2867 -0.2162 -0.3001
 2519SOL     OW18025   1.808   9.162   3.376 -0.5142 -0.5656 -0.2087
 2519SOL    HW118026   1.792   9.243   3.318  1.2812 -0.1562 -0.1484
 2519SOL    HW218027   1.758   9.084   3.338 -1.8434  0.4376 -0.5657
 2520SOL     OW18028   1.367   1.143   1.261  0.3616  0.0745 -0.1073
 2520SOL    HW118029   1.424   1.061   1.252 -0.4079 -0.5512  0.5943
 2520SOL    HW218030   1.417   1.214   1.310  0.9464 -0.0655 -0.5011
 2521SOL     OW18031   0.729   1.334   2.489 -0.5742  0.2118  0.2981
 2521SOL    HW118032   0.730   1.432   2.511  0.6905 -0.1011  1.7704
 2521SOL    HW218033   0.662   1.288   2.547  0.4776 -0.1278  1.2711
 2522SOL     OW18034   2.137   6.330   3.170  0.2364  0.0321 -0.3428
 2522SOL    HW118035   2.118   6.313   3.266 -2.1044 -0.8680 -0.9234
 2522SOL    HW218036   2.124   6.427   3.149 -0.8130 -0.0466 -0.0763
 2523SOL     OW18037   2.566   6.630   0.235 -0.2720 -0.6438  0.0974
 2523SOL    HW118038   2.516   6.545   0.250  0.2039 -0.6711  1.5990
 2523SOL    HW218039   2.623   6.651   0.315 -0.6779  1.2960 -0.0780
 2524SOL     OW18040   3.410   1.022   0.367  0.0082 -0.4298 -0.0211
 2524SOL    HW118041   3.471   1.090   0.328  0.2350 -1.1780 -0.9755
 2524SOL    HW218042   3.429   0.933   0.327 -0.8469 -0.9084  0.6175
 2525SOL     OW18043   4.350   8.900   2.018  0.2361  0.0252  0.0168
 2525SOL    HW118044   4.394   8.933   1.935 -0.8457  1.7037  0.0971
 2525SOL    HW218045   4.380   8.955   2.096 -0.3995 -0.1643  0.3973
 2526SOL     OW18046   4.394   3.357   1.271 -0.5229 -0.1978 -0.2343
 2526SOL    HW118047   4.431   3.372   1.179  0.2053  4.0517  0.6666
 2526SOL    HW218048   4.430   3.272   1.308  3.3098  0.6275 -1.9051
 2527SOL     OW18049   0.675   6.285   3.732 -0.1238  0.2252  0.2520
 2527SOL    HW118050   0.730   6.344   3.673  0.4569  0.6786  1.2326
 2527SOL    HW218051   0.723   6.270   3.818 -1.4091  0.4109  1.0211
 2528SOL     OW18052   6.833   0.213   3.443 -0.1354  0.0471  0.4075
 2528SOL    HW118053   6.846   0.262   3.357 -1.5272  1.1072  0.8015
 2528SOL    HW218054   6.802   0.120   3.424  1.8181 -0.4914 -0.3068
 2529SOL     OW18055   9.143   7.697   3.645  0.4425 -0.0079  0.1682
 2529SOL    HW118056   9.050   7.692   3.611 -0.0495 -1.0448  1.5923
 2529SOL    HW218057   9.206   7.716   3.570 -0.8932  0.5451 -0.8179
 2530SOL     OW18058   1.193   5.595   2.044  0.0102  0.6008  0.1768
 2530SOL    HW118059   1.247   5.575   2.125  0.7961  2.4017  0.1128
 2530SOL    HW218060   1.119   5.528   2.035  1.8057 -1.4644  0.6296
 2531SOL     OW18061   6.232   9.392   3.155 -0.0152 -0.6102  0.0466
 2531SOL    HW118062   6.235   9.320   3.086 -2.1233  0.2495 -0.9552
 2531SOL    HW218063   6.146   9.441   3.150 -0.2185 -0.4841  3.2784
 2532SOL     OW18064   8.074   8.728   2.427 -0.3178  0.1783  0.3906
 2532SOL    HW118065   8.129   8.771   2.356  0.0350 -1.4273 -0.3455
 2532SOL    HW218066   8.002   8.791   2.457  0.3801  1.3711 -0.4129
 2533SOL     OW18067   9.710   3.916   2.585  0.5346  0.6110  0.3623
 2533SOL    HW118068   9.753   3.849   2.525 -0.7500 -0.7219  0.8779
 2533SOL    HW218069   9.734   4.008   2.556  2.0119 -0.0675 -0.6114
 2534SOL     OW18070   3.935   2.342   0.112 -0.5461  0.3823  0.1361
 2534SOL    HW118071   3.847   2.387   0.128 -0.1331  0.5343  2.0220
 2534SOL    HW218072   4.006   2.387   0.166  0.4225 -0.6395 -0.2798
 2535SOL     OW18073   7.221   8.162   3.194 -0.3968  0.4561 -0.4262
 2535SOL    HW118074   7.186   8.199   3.280  0.1556  2.3706 -1.0067
 2535SOL    HW218075   7.242   8.065   3.206 -3.5806 -0.1553  0.6091
 2536SOL     OW18076   8.589   7.907   0.744 -0.1905  0.2119  0.3456
 2536SOL    HW118077   8.536   7.990   0.764  1.0138  0.7550  1.3722
 2536SOL    HW218078   8.681   7.932   0.713  0.2500 -0.7331  0.8589
 2537SOL     OW18079   4.617   2.836   1.030 -0.7195 -0.4652 -0.4583
 2537SOL    HW118080   4.552   2.785   1.087 -0.4489  1.8420  2.0213
 2537SOL    HW218081   4.574   2.922   1.000  1.3641  1.4724  1.8893
 2538SOL     OW18082   0.406   9.357   0.706  0.0132 -0.0465 -0.3068
 2538SOL    HW118083   0.320   9.306   0.704  1.3235 -2.3341 -0.0712
 2538SOL    HW218084   0.475   9.304   0.755  1.2316  2.3248  0.6247
 2539SOL     OW18085   7.572   8.872   1.205  0.3905  0.0718 -0.1385
 2539SOL    HW118086   7.599   8.825   1.290 -3.4967 -1.1064  0.5155
 2539SOL    HW218087   7.609   8.822   1.127  2.2830  0.0115  0.7512
 2540SOL     OW18088   4.299   0.139   2.975 -0.1693 -0.2781  0.1379
 2540SOL    HW118089   4.334   0.171   2.887 -0.0381 -0.4472  0.1296
 2540SOL    HW218090   4.238   0.062   2.960  0.2646 -0.6418  0.2413
 2541SOL     OW18091   9.089   7.989   1.191 -0.5036  0.0710  0.1126
 2541SOL    HW118092   9.118   7.995   1.095 -0.6670 -0.3873  0.0346
 2541SOL    HW218093   9.145   7.921   1.238 -1.2803 -0.6312  0.0285
 2542SOL     OW18094   4.075   0.943   1.119 -0.3249  0.5606  0.0053
 2542SOL    HW118095   4.070   1.020   1.056 -0.2922  1.2862  0.8821
 2542SOL    HW218096   4.151   0.883   1.094 -0.1576  0.9802 -0.4869
 2543SOL     OW18097   1.404   1.060   3.431 -0.3655  0.6570 -0.0503
 2543SOL    HW118098   1.470   1.052   3.506  0.7642  0.0251 -1.0900
 2543SOL    HW218099   1.412   1.150   3.388  1.9721 -0.4582 -2.0991
 2544SOL     OW18100   4.496   2.950   2.609 -0.4045  0.0245  0.4102
 2544SOL    HW118101   4.500   2.874   2.544  0.0133 -0.4156  0.9440
 2544SOL    HW218102   4.564   2.936   2.681  2.4921  2.8222 -1.5885
 2545SOL     OW18103   4.433   4.142   2.010  0.0642  0.0796  0.1446
 2545SOL    HW118104   4.475   4.105   2.093  0.6781  0.4172 -0.0181
 2545SOL    HW218105   4.341   4.104   2.001  0.3312 -0.6775  0.4887
 2546SOL     OW18106   9.440   7.790   1.034 -0.2872  0.5736  0.1091
 2546SOL    HW118107   9.353   7.757   1.071  0.7339  0.1919  2.2102
 2546SOL    HW218108   9.454   7.751   0.943 -1.5208 -0.6918  0.4465
 2547SOL     OW18109   2.079   7.679   3.516  0.5352  0.3560 -0.3664
 2547SOL    HW118110   2.025   7.626   3.450 -0.4151 -0.2169  0.8276
 2547SOL    HW218111   2.083   7.774   3.487  0.9182 -0.0660 -1.7271
 2548SOL     OW18112   9.581   1.709   2.670  0.2020  0.4334  0.0682
 2548SOL    HW118113   9.560   1.666   2.582 -0.2421  0.4610  0.1606
 2548SOL    HW218114   9.679   1.700   2.689  0.0110 -1.1616  0.4080
 2549SOL     OW18115   1.353   8.147   0.618  0.0482 -0.1915 -0.0574
 2549SOL    HW118116   1.358   8.238   0.577  2.1715  0.1587  0.9074
 2549SOL    HW218117   1.360   8.077   0.547 -1.1122  0.3705 -0.7465
 2550SOL     OW18118   8.131   4.960   0.714  0.4316  0.6560  0.1360
 2550SOL    HW118119   8.221   4.921   0.696  0.3125  1.4883 -2.4225
 2550SOL    HW218120   8.070   4.889   0.748  1.4836 -0.3686 -0.0951
 2551SOL     OW18121   2.835   7.530   3.854 -0.1779 -0.0467  0.0959
 2551SOL    HW118122   2.882   7.459   3.906 -0.9640  1.0574  2.3773
 2551SOL    HW218123   2.748   7.494   3.819  0.6881 -1.0089 -1.0882
 2552SOL     OW18124   8.407   3.978   3.614  0.1278  0.1354 -0.6192
 2552SOL    HW118125   8.450   4.018   3.533 -0.0892 -1.3966 -1.5133
 2552SOL    HW218126   8.408   4.044   3.688 -1.3665  2.2531 -2.4205
 2553SOL     OW18127   4.160   6.531   2.623 -0.0991 -0.4362  0.2279
 2553SOL    HW118128   4.131   6.603   2.560 -1.1867 -1.9235 -1.0195
 2553SOL    HW218129   4.087   6.514   2.689  0.0755 -0.5145  0.4012
 2554SOL     OW18130   3.489   7.097   0.659 -0.2124 -0.1184  0.2025
 2554SOL    HW118131   3.537   7.040   0.593 -2.3669 -2.2773  0.4420
 2554SOL    HW218132   3.468   7.186   0.618 -2.3499 -1.7655 -2.3694
 2555SOL     OW18133   1.785   3.350   1.032 -0.0416 -0.2887 -0.3440
 2555SOL    HW118134   1.777   3.312   0.940  0.1427 -0.9643 -0.0850
 2555SOL    HW218135   1.706   3.324   1.086 -1.1276  1.7796 -0.8927
 2556SOL     OW18136   4.386   7.217   3.625  0.2002 -0.4315  0.2978
 2556SOL    HW118137   4.334   7.132   3.620  2.2778 -1.7006 -0.6588
 2556SOL    HW218138   4.367   7.272   3.543  0.9261 -1.2540 -0.4418
 2557SOL     OW18139   9.833   8.670   0.296  0.4418  0.0442  0.3380
 2557SOL    HW118140   9.793   8.581   0.319 -2.3834  1.1672 -0.0378
 2557SOL    HW218141   9.788   8.741   0.350 -0.6358  1.7801 -2.7449
 2558SOL     OW18142   8.542   9.395   0.296 -0.1590  0.0117  0.5876
 2558SOL    HW118143   8.610   9.419   0.365  0.4492  0.9830 -0.3489
 2558SOL    HW218144   8.582   9.402   0.205 -1.6973  1.2990 -0.0130
 2559SOL     OW18145   2.561   9.473   1.135 -0.1555  0.1219 -0.1155
 2559SOL    HW118146   2.631   9.472   1.064 -0.7665  2.2459 -0.7779
 2559SOL    HW218147   2.547   9.566   1.166 -2.3353 -0.3475  0.3676
 2560SOL     OW18148   9.611   8.894   2.932 -0.3615 -0.3328  0.2217
 2560SOL    HW118149   9.532   8.855   2.980 -1.0212  3.6670  2.5907
 2560SOL    HW218150   9.695   8.850   2.964 -1.1927 -0.9667  1.5676
 2561SOL     OW18151   1.553   0.728   2.111  0.1773 -0.0699 -0.0783
 2561SOL    HW118152   1.579   0.757   2.019  0.0384  0.8147  0.1501
 2561SOL    HW218153   1.570   0.630   2.122  1.4927  0.0888 -0.5948
 2562SOL     OW18154   1.429   0.899   0.206  0.6145  0.2777 -0.2570
 2562SOL    HW118155   1.411   0.940   0.117 -0.2381  1.0963  0.2976
 2562SOL    HW218156   1.372   0.941   0.276  1.3713 -0.2642  0.7146
 2563SOL     OW18157   9.963   6.223   0.501  0.0854  0.3185  0.7360
 2563SOL    HW118158   9.886   6.287   0.492  0.2022  0.2652 -0.8712
 2563SOL    HW218159  10.042   6.258   0.451  0.6296 -0.3560  1.1064
 2564SOL     OW18160   4.020   4.322   0.719  0.0971  0.0917 -0.1051
 2564SOL    HW118161   3.995   4.318   0.816 -1.3628  2.7603 -0.3387
 2564SOL    HW218162   3.959   4.384   0.671  0.9082 -1.0672 -2.7393
 2565SOL     OW18163   8.059   0.863   1.759 -0.3316 -0.1439 -0.5118
 2565SOL    HW118164   8.087   0.912   1.841 -1.7574 -0.6136  0.2773
 2565SOL    HW218165   8.096   0.770   1.761 -0.0582 -0.0359 -0.5793
 2566SOL     OW18166   2.901   6.365   0.189 -0.3664 -0.5911  0.5838
 2566SOL    HW118167   2.976   6.430   0.195 -1.6742  0.8606  1.8398
 2566SOL    HW218168   2.938   6.272   0.182  1.5297  0.1247  0.7065
 2567SOL     OW18169   1.994   1.417   1.442  0.3237  0.7986 -0.2789
 2567SOL    HW118170   2.091   1.415   1.462  0.3754 -1.0393 -0.5877
 2567SOL    HW218171   1.980   1.436   1.345  0.4690 -0.7620 -0.6272
 2568SOL     OW18172   3.377   0.649   0.540 -0.3092  0.2027  0.2720
 2568SOL    HW118173   3.291   0.602   0.520 -0.9754  1.3239  0.4666
 2568SOL    HW218174   3.413   0.688   0.455  0.7203 -1.4111 -0.0631
 2569SOL     OW18175   0.366   6.462   2.361  0.1256  0.8423 -0.2409
 2569SOL    HW118176   0.280   6.465   2.412  1.2911  0.6441  1.7951
 2569SOL    HW218177   0.361   6.391   2.290 -1.0109  0.1292  0.5405
 2570SOL     OW18178   3.182   5.518   0.571  0.7014 -0.3750  0.1423
 2570SOL    HW118179   3.258   5.547   0.513  0.3694 -0.1789 -0.1977
 2570SOL    HW218180   3.205   5.534   0.667  0.9319  0.0497  0.0174
 2571SOL     OW18181   0.522   8.013   0.130 -0.1962  0.3867 -0.0890
 2571SOL    HW118182   0.582   7.937   0.106 -0.6605  0.1035 -0.3546
 2571SOL    HW218183   0.512   8.073   0.050  1.5233  1.6519  0.6021
 2572SOL     OW18184   0.041   0.700   3.673 -0.1172 -0.1583 -0.0488
 2572SOL    HW118185  -0.029   0.683   3.603 -2.2924  1.6786  1.6202
 2572SOL    HW218186   0.095   0.780   3.646  1.1951 -1.3932 -1.1856
 2573SOL     OW18187   7.814   5.969   2.743 -0.0525 -0.1972  0.0674
 2573SOL    HW118188   7.750   6.045   2.734  0.3611  0.2285  0.6955
 2573SOL    HW218189   7.815   5.937   2.838 -0.6460 -1.3584 -0.3044
 2574SOL     OW18190   1.624   6.377   3.431  0.3713  0.6406 -0.0462
 2574SOL    HW118191   1.548   6.418   3.381  0.3943 -0.7902 -1.2857
 2574SOL    HW218192   1.620   6.406   3.527 -0.8705  1.7536 -0.4131
 2575SOL     OW18193   1.043   5.414   2.322 -0.1199 -0.0841  0.2526
 2575SOL    HW118194   1.010   5.392   2.414 -1.9153  0.0732 -0.3423
 2575SOL    HW218195   0.987   5.486   2.282  1.0310  0.2771 -0.7399
 2576SOL     OW18196   9.548   4.401   0.986 -0.3685 -0.2108 -0.0762
 2576SOL    HW118197   9.636   4.443   1.008 -0.8189  0.5961  0.2170
 2576SOL    HW218198   9.493   4.394   1.069 -0.2268 -1.5709 -0.0837
 2577SOL     OW18199   0.600   9.366   2.117  0.1639  0.0897 -0.1285
 2577SOL    HW118200   0.598   9.439   2.049  0.3614  0.0648 -0.1606
 2577SOL    HW218201   0.611   9.278   2.071  1.7629  0.2009  0.0323
 2578SOL     OW18202   8.879   4.829   2.962 -0.7937  0.1270 -0.1080
 2578SOL    HW118203   8.901   4.732   2.963  0.3287  0.3705  1.5259
 2578SOL    HW218204   8.901   4.869   3.051 -1.0213  1.9208 -0.8353
 2579SOL     OW18205   2.037   6.699   0.027  0.0847 -0.0521 -0.5803
 2579SOL    HW118206   2.008   6.726  -0.065 -1.2751  1.9714  0.4024
 2579SOL    HW218207   2.069   6.780   0.076  1.6029 -1.2630  0.4467
 2580SOL     OW18208   9.300   9.655   0.975 -0.0094 -0.1034  0.1105
 2580SOL    HW118209   9.250   9.737   1.002  0.3645  0.0101  0.4533
 2580SOL    HW218210   9.289   9.585   1.047  0.8730  0.1539  0.4947
 2581SOL     OW18211   7.935   8.490   1.105  0.2900 -0.3502 -0.3125
 2581SOL    HW118212   7.906   8.502   1.200  0.4594 -1.9837 -0.0481
 2581SOL    HW218213   8.034   8.476   1.102  0.1013 -1.7190 -0.5813
 2582SOL     OW18214   3.149   1.117   0.462 -0.1512 -0.2424 -0.1841
 2582SOL    HW118215   3.104   1.029   0.444  0.1045 -0.3084 -0.5074
 2582SOL    HW218216   3.242   1.115   0.424 -0.3338  0.3570 -0.6727
 2583SOL     OW18217   9.012   1.561   0.900  0.1556  0.3230  0.0029
 2583SOL    HW118218   9.077   1.636   0.887 -1.6930  2.1212  0.9631
 2583SOL    HW218219   8.943   1.563   0.828 -1.5537  1.3072  1.6457
 2584SOL     OW18220   2.017   6.178   1.168 -0.2540  0.2182  0.2064
 2584SOL    HW118221   1.974   6.243   1.231  0.0253 -0.4560  1.0977
 2584SOL    HW218222   2.117   6.181   1.179 -0.1722  0.4601 -0.5610
 2585SOL     OW18223   1.038   6.343   1.547 -0.1877  0.2349  0.7695
 2585SOL    HW118224   0.954   6.396   1.539 -0.0177  0.1528 -1.7554
 2585SOL    HW218225   1.110   6.401   1.587 -0.6195  1.2397  0.0982
 2586SOL     OW18226   8.352   2.704   0.813 -0.5164 -0.5028 -0.3497
 2586SOL    HW118227   8.258   2.685   0.785  0.3716 -2.4672 -2.1518
 2586SOL    HW218228   8.366   2.675   0.907 -1.9951  0.7945  0.2801
 2587SOL     OW18229   0.450   1.386   3.585  0.5684  0.0278 -0.5944
 2587SOL    HW118230   0.444   1.396   3.685  1.2969  0.9960 -0.6411
 2587SOL    HW218231   0.545   1.394   3.557  0.4297 -0.8380 -1.3151
 2588SOL     OW18232   9.806   5.490   1.069  0.0925  0.1126  0.3954
 2588SOL    HW118233   9.765   5.415   1.122  1.2361 -2.8264 -2.7000
 2588SOL    HW218234   9.788   5.477   0.972  1.9270  2.8743 -0.3841
 2589SOL     OW18235   0.428   0.583   3.757  0.4067 -0.4749  0.4815
 2589SOL    HW118236   0.334   0.606   3.784  0.9934  1.7280  0.7732
 2589SOL    HW218237   0.477   0.546   3.836  0.7960  1.6990  1.2865
 2590SOL     OW18238   8.666   4.995   0.279  0.4525 -0.1509  0.6226
 2590SOL    HW118239   8.570   4.965   0.280  0.2018  0.5800 -0.2722
 2590SOL    HW218240   8.726   4.917   0.298 -0.2682 -0.8300  0.1308
 2591SOL     OW18241   9.776   9.803   2.095  0.0191 -0.1833 -0.5591
 2591SOL    HW118242   9.780   9.858   2.011  1.3679  1.3891  0.4992
 2591SOL    HW218243   9.697   9.831   2.150  0.2811  0.1921 -0.3707
 2592SOL     OW18244   4.796   9.644   1.243 -0.7816  0.1084 -0.2034
 2592SOL    HW118245   4.832   9.726   1.288  0.1403 -0.3717 -0.0534
 2592SOL    HW218246   4.862   9.612   1.175 -0.7358 -1.0286  0.3685
 2593SOL     OW18247   1.839   1.103   2.870 -0.2301  0.6481 -0.5832
 2593SOL    HW118248   1.829   1.175   2.802 -1.9626 -0.4076 -1.4870
 2593SOL    HW218249   1.889   1.026   2.830  0.1257  0.6613 -0.1651
 2594SOL     OW18250   3.337   9.487   3.758  0.0370 -0.2472  0.2186
 2594SOL    HW118251   3.363   9.458   3.666 -0.3384 -0.2651  0.1153
 2594SOL    HW218252   3.281   9.570   3.752 -1.8150 -1.4678  0.2729
 2595SOL     OW18253   4.235   8.667   1.670  0.4352  0.2759  0.0408
 2595SOL    HW118254   4.293   8.702   1.596  0.3505 -0.3346 -0.3148
 2595SOL    HW218255   4.150   8.720   1.674  0.5263  0.4372 -0.1653
 2596SOL     OW18256   1.028   3.368   3.196  0.1211 -0.4636 -0.1888
 2596SOL    HW118257   1.045   3.319   3.110  1.6625 -0.4292  0.0839
 2596SOL    HW218258   1.087   3.449   3.200  0.1381 -0.5285  0.9609
 2597SOL     OW18259   7.069   9.840   1.095 -0.2997  0.4092  0.1474
 2597SOL    HW118260   7.020   9.890   1.166  1.4036  2.2156  0.0705
 2597SOL    HW218261   7.156   9.808   1.130 -1.4681 -2.8295  0.2868
 2598SOL     OW18262   8.519   6.091   3.586 -0.8770 -0.0543  0.4086
 2598SOL    HW118263   8.568   6.154   3.647 -1.6620  1.4335 -0.4676
 2598SOL    HW218264   8.453   6.038   3.640 -1.3641  1.0469  0.9133
 2599SOL     OW18265   1.692   1.993   3.608  0.4240  0.4852  0.4631
 2599SOL    HW118266   1.791   1.995   3.592  0.2314 -0.6663 -0.9733
 2599SOL    HW218267   1.653   1.912   3.565 -1.0965  0.7203  1.3713
 2600SOL     OW18268   3.463   4.943   1.560 -0.1191  0.1846  0.0665
 2600SOL    HW118269   3.439   4.851   1.531 -1.3309 -0.0864  1.8312
 2600SOL    HW218270   3.562   4.948   1.577  0.1727 -0.3719 -1.4266
 2601SOL     OW18271   9.773   5.111   0.962  0.8388  0.4646 -0.5784
 2601SOL    HW118272   9.842   5.112   0.890  1.8331 -1.7455  0.2969
 2601SOL    HW218273   9.815   5.084   1.048 -0.3893  2.8227  0.7976
 2602SOL     OW18274   9.899   4.982   3.012  0.6233  0.3433  0.0482
 2602SOL    HW118275   9.872   5.077   3.026  0.8974  0.5527 -0.7724
 2602SOL    HW218276   9.906   4.964   2.914 -0.3718 -0.7962  0.1824
 2603SOL     OW18277   8.312   2.130   0.955  0.0326 -0.3907  0.3806
 2603SOL    HW118278   8.389   2.112   1.017  0.0606  0.0657  0.4753
 2603SOL    HW218279   8.346   2.175   0.872 -0.0989 -0.4283  0.3065
 2604SOL     OW18280   4.844   0.685   3.699  0.7328  0.1669  0.2765
 2604SOL    HW118281   4.838   0.716   3.604  0.3825 -0.0841  0.2175
 2604SOL    HW218282   4.756   0.646   3.727  0.0275  2.5414  1.5044
 2605SOL     OW18283   3.162   2.534   0.577  0.3221  0.0028 -0.1303
 2605SOL    HW118284   3.080   2.515   0.630 -0.4823  2.8150 -0.2618
 2605SOL    HW218285   3.137   2.558   0.483  1.3470  0.0025 -0.4177
 2606SOL     OW18286   8.179   2.636   0.329 -0.8096 -0.0474 -0.0829
 2606SOL    HW118287   8.218   2.727   0.339  1.2536 -0.9771  0.7041
 2606SOL    HW218288   8.090   2.633   0.375 -0.1746  1.1325  1.2715
 2607SOL     OW18289   9.866   8.399   2.475  0.3320  0.1232  0.0833
 2607SOL    HW118290   9.798   8.329   2.497  0.0141  0.3429 -0.1828
 2607SOL    HW218291   9.932   8.406   2.550 -0.5292  0.6156  0.8120
 2608SOL     OW18292   9.500   3.967   2.757  0.1300 -0.5705 -0.4813
 2608SOL    HW118293   9.592   3.955   2.720  1.0679  0.3560  1.4402
 2608SOL    HW218294   9.450   4.035   2.703  1.0170 -0.1594 -0.7873
 2609SOL     OW18295   6.801   9.386   1.345 -0.1406 -0.5077 -0.5391
 2609SOL    HW118296   6.873   9.434   1.297 -0.0396  0.1268  0.2394
 2609SOL    HW218297   6.835   9.297   1.376 -0.4139 -1.2252 -2.2165
 2610SOL     OW18298   4.256   9.156   0.884  0.0788 -0.4257 -0.3148
 2610SOL    HW118299   4.252   9.077   0.946  0.3869 -1.0109 -1.0304
 2610SOL    HW218300   4.343   9.156   0.835  0.3639  0.7576  0.1965
 2611SOL     OW18301   8.645   0.994   3.509  0.1165  0.2858 -0.2476
 2611SOL    HW118302   8.594   1.016   3.426 -0.4900 -1.3022 -0.3252
 2611SOL    HW218303   8.626   0.899   3.535  1.9062  0.1288  0.5556
 2612SOL     OW18304   4.484   1.232   2.483  0.2239 -0.1924 -0.2211
 2612SOL    HW118305   4.498   1.258   2.579 -2.1308  1.6427 -0.3179
 2612SOL    HW218306   4.387   1.211   2.469  0.6400 -0.9102 -2.0999
 2613SOL     OW18307   8.394   9.470   1.652 -0.0341 -0.4428 -0.4402
 2613SOL    HW118308   8.468   9.405   1.668  1.0020  0.5779 -0.9680
 2613SOL    HW218309   8.348   9.448   1.565 -0.3913 -1.1099 -0.0836
 2614SOL     OW18310   7.285   9.018   2.856  0.2375  0.7376 -0.1328
 2614SOL    HW118311   7.257   8.975   2.942  1.1969 -0.5462 -0.4557
 2614SOL    HW218312   7.207   9.022   2.794  0.2155 -0.9302 -0.2491
 2615SOL     OW18313   1.237   3.184   3.687  0.0894 -0.3886  0.0823
 2615SOL    HW118314   1.190   3.230   3.611 -0.8687 -1.5749 -0.0575
 2615SOL    HW218315   1.211   3.227   3.773  0.2243  0.1741 -0.1538
 2616SOL     OW18316   9.186   5.513   0.384 -0.8974 -0.2877 -0.3818
 2616SOL    HW118317   9.171   5.415   0.373 -3.3492  0.1632 -1.4225
 2616SOL    HW218318   9.141   5.545   0.468 -1.5641  0.2207 -0.9245
 2617SOL     OW18319   0.258   4.343   3.730 -0.0297  0.0893 -0.0828
 2617SOL    HW118320   0.315   4.424   3.746  0.1313 -0.4376  2.2883
 2617SOL    HW218321   0.216   4.315   3.817  2.1016 -4.0303 -0.2461
 2618SOL     OW18322   0.988   1.957   1.320  0.1352  0.1379 -0.2537
 2618SOL    HW118323   0.897   1.925   1.348 -1.6855  2.2979 -3.3567
 2618SOL    HW218324   0.993   2.056   1.332  1.2234  0.3518 -2.2410
 2619SOL     OW18325   9.101   8.531   1.886 -0.1509 -0.2309  0.4183
 2619SOL    HW118326   9.149   8.531   1.974 -2.7104 -0.2667  1.8450
 2619SOL    HW218327   9.100   8.624   1.849  0.6193 -0.1555  0.5701
 2620SOL     OW18328   4.072   8.209   1.654  0.4951 -0.2211  0.4502
 2620SOL    HW118329   4.098   8.295   1.609 -0.3134  0.9528  2.1500
 2620SOL    HW218330   4.109   8.132   1.603  0.8890  1.1243 -1.3508
 2621SOL     OW18331   8.929   3.682   0.442  0.6815 -0.0967 -0.4254
 2621SOL    HW118332   8.852   3.655   0.384  1.3011  3.3273 -3.0308
 2621SOL    HW218333   9.010   3.628   0.417  0.3301 -0.3444 -1.0581
 2622SOL     OW18334   2.256   6.712   0.526  0.6193 -0.0960 -0.2828
 2622SOL    HW118335   2.307   6.797   0.535  2.3986 -1.1136 -0.2983
 2622SOL    HW218336   2.282   6.667   0.439  0.7365 -1.2801  0.3487
 2623SOL     OW18337   3.755   3.862   0.151 -1.0995  0.4175  0.1654
 2623SOL    HW118338   3.785   3.957   0.161  0.9215 -0.4152  2.4008
 2623SOL    HW218339   3.676   3.846   0.210 -2.5819  1.1467 -1.5694
 2624SOL     OW18340   3.931   7.910   3.125 -0.0141  0.3670 -0.1018
 2624SOL    HW118341   3.857   7.946   3.182  2.0990  0.6037  2.5609
 2624SOL    HW218342   3.975   7.985   3.075  0.7367  0.7218  1.0847
 2625SOL     OW18343   1.289   8.273   2.930  0.4278  0.1103  0.1281
 2625SOL    HW118344   1.217   8.342   2.932  0.0749 -0.2115 -0.9559
 2625SOL    HW218345   1.372   8.313   2.891  0.9488  0.5727  1.6806
 2626SOL     OW18346   1.950   7.835   3.113  0.1415 -0.5594 -0.4459
 2626SOL    HW118347   1.864   7.826   3.162  0.2720 -0.6598 -0.2337
 2626SOL    HW218348   1.967   7.931   3.092 -0.0540 -0.5466 -0.5439
 2627SOL     OW18349   8.892   7.620   1.977  0.4098 -0.4217 -0.2621
 2627SOL    HW118350   8.792   7.613   1.986  0.4918 -0.1695  1.0115
 2627SOL    HW218351   8.933   7.533   2.005  0.5799 -0.2724 -0.0408
 2628SOL     OW18352   2.559   5.790   2.503 -0.0769 -0.4123  0.0680
 2628SOL    HW118353   2.505   5.746   2.575  0.1963  0.4385  0.8087
 2628SOL    HW218354   2.597   5.876   2.538 -0.1738  0.1549 -1.1856
 2629SOL     OW18355   2.850   5.677   1.655  0.2446 -0.6979 -0.5228
 2629SOL    HW118356   2.797   5.672   1.740  0.2761  1.4229 -0.3574
 2629SOL    HW218357   2.876   5.584   1.627  0.0282 -1.4535  1.6408
 2630SOL     OW18358   2.111   4.960   3.362 -1.0046 -0.6801  0.4105
 2630SOL    HW118359   2.069   5.048   3.384 -0.0973 -0.1074 -0.1377
 2630SOL    HW218360   2.044   4.903   3.314 -0.7060  0.8294 -1.9002
 2631SOL     OW18361   4.218   1.083   2.759  0.3294 -0.2618 -0.0646
 2631SOL    HW118362   4.281   1.146   2.803 -1.7492  1.5876  0.3578
 2631SOL    HW218363   4.222   1.094   2.660 -0.5185  1.0445  0.0386
 2632SOL     OW18364   2.192   0.005   2.955  0.0862  0.3552  0.1408
 2632SOL    HW118365   2.168  -0.041   2.870 -1.3410  1.6563 -0.1848
 2632SOL    HW218366   2.242   0.088   2.934  0.5395  0.1986  0.6138
 2633SOL     OW18367   9.518   4.698   0.371 -0.6865 -0.0031  0.0891
 2633SOL    HW118368   9.586   4.633   0.405 -0.4403  0.2543  0.0900
 2633SOL    HW218369   9.533   4.787   0.413 -1.0952  0.0242  0.1741
 2634SOL     OW18370   9.182   0.326   0.514  0.0741  0.1251  0.0535
 2634SOL    HW118371   9.087   0.319   0.546 -0.6123  0.2709 -1.8760
 2634SOL    HW218372   9.221   0.235   0.503 -0.5100 -0.0112 -1.0116
 2635SOL     OW18373   3.829   1.910   0.372 -0.3357 -0.5163  0.2396
 2635SOL    HW118374   3.786   2.000   0.378 -1.1572 -0.9281  0.4795
 2635SOL    HW218375   3.927   1.919   0.393  0.0974  0.7294 -2.1110
 2636SOL     OW18376   9.661   4.722   1.654  0.1422  0.6152 -0.2392
 2636SOL    HW118377   9.661   4.660   1.575 -0.5851  0.4535 -0.1086
 2636SOL    HW218378   9.653   4.816   1.622 -0.1380  0.5512 -0.3567
 2637SOL     OW18379   3.102   1.015   2.165  0.1213 -0.1257  0.5497
 2637SOL    HW118380   3.082   1.039   2.260  0.7117  0.2976  0.5703
 2637SOL    HW218381   3.050   1.075   2.104  0.7466  0.4639  0.6022
 2638SOL     OW18382   3.090   2.517   0.869  0.1414 -0.3406  0.0676
 2638SOL    HW118383   3.166   2.457   0.896  0.6655  1.6632  3.2130
 2638SOL    HW218384   3.005   2.465   0.869  0.5523 -1.0808  3.0223
 2639SOL     OW18385   2.204   2.288   3.296  0.3738 -0.6478  0.4206
 2639SOL    HW118386   2.129   2.241   3.250 -0.4654  0.2103  0.8932
 2639SOL    HW218387   2.291   2.245   3.272 -0.2890 -1.7569  0.0097
 2640SOL     OW18388   3.324   4.916   3.614  0.2819 -0.0681  0.9259
 2640SOL    HW118389   3.324   4.829   3.664 -1.6927 -0.3561  0.4783
 2640SOL    HW218390   3.380   4.908   3.532  0.4778 -0.7690  1.1275
 2641SOL     OW18391   4.068   9.543   0.240  0.3242 -0.4488 -0.0795
 2641SOL    HW118392   4.156   9.519   0.281  0.9083 -1.2451 -1.7618
 2641SOL    HW218393   4.010   9.585   0.310  1.4996 -1.2317  1.4093
 2642SOL     OW18394   4.191   8.458   1.116  0.3669  0.2033  0.5016
 2642SOL    HW118395   4.238   8.516   1.050  0.5308  0.5664  0.9347
 2642SOL    HW218396   4.093   8.476   1.113  0.3214 -0.1214  0.0239
 2643SOL     OW18397   0.981   9.943   1.682  0.9394 -0.2172  0.0645
 2643SOL    HW118398   0.979   9.975   1.777  0.5905 -0.8893  0.2893
 2643SOL    HW218399   1.033  10.007   1.626  0.0586  0.8655  0.4560
 2644SOL     OW18400   0.360   2.906   0.652 -0.2235 -0.0777 -0.5058
 2644SOL    HW118401   0.322   2.814   0.637 -1.7758  0.0983  1.9774
 2644SOL    HW218402   0.300   2.956   0.715  1.6525  1.9454 -0.2991
 2645SOL     OW18403   0.500   1.283   1.626 -0.3369 -0.6888 -0.1679
 2645SOL    HW118404   0.496   1.229   1.711  0.0937 -1.6762 -0.7635
 2645SOL    HW218405   0.518   1.222   1.549 -2.0113  0.0223 -1.1546
 2646SOL     OW18406   0.692   9.735   3.878  0.4058  0.8576  0.0508
 2646SOL    HW118407   0.776   9.784   3.853  0.9168 -0.0305 -0.0065
 2646SOL    HW218408   0.678   9.743   3.977 -0.6108  2.8016 -0.2285
 2647SOL     OW18409   0.521   7.732   3.935  0.4050  0.5230 -1.2241
 2647SOL    HW118410   0.483   7.710   4.025 -0.5230  0.5370 -1.6019
 2647SOL    HW218411   0.576   7.815   3.941 -0.3125  0.9729 -0.8222
 2648SOL     OW18412   4.166   2.570   3.830  0.5333 -0.3842  0.2589
 2648SOL    HW118413   4.119   2.487   3.862  1.1431 -0.5466  0.7519
 2648SOL    HW218414   4.107   2.620   3.767  0.1759 -1.2202 -0.0747
 2649SOL     OW18415   9.736   4.646   2.493 -0.6287  0.0868  0.0999
 2649SOL    HW118416   9.644   4.687   2.496 -0.3908  0.7798 -1.5769
 2649SOL    HW218417   9.739   4.576   2.422  0.3186  0.5011 -0.2722
 2650SOL     OW18418   9.598   4.944   0.118 -0.4488  0.0903 -0.6213
 2650SOL    HW118419   9.681   4.899   0.149  0.2715  1.6436 -0.2635
 2650SOL    HW218420   9.592   4.937   0.018 -0.4648 -0.9782 -0.5526
 2651SOL     OW18421   9.173   7.986   3.568 -0.6335  0.2343 -0.0841
 2651SOL    HW118422   9.237   7.919   3.606 -0.1696  0.4794 -0.4346
 2651SOL    HW218423   9.186   8.074   3.614  0.5638  0.7807 -1.4290
 2652SOL     OW18424   8.893   0.565   0.386 -0.0822  0.6011  0.7902
 2652SOL    HW118425   8.872   0.471   0.414 -1.9451  0.6764 -0.2585
 2652SOL    HW218426   8.959   0.563   0.310  0.4875  0.1719  1.2957
 2653SOL     OW18427   1.612   3.778   2.469 -0.2992 -0.3656 -0.7751
 2653SOL    HW118428   1.537   3.782   2.402 -0.5535 -0.9085 -0.5273
 2653SOL    HW218429   1.592   3.706   2.536 -0.3303  0.5567  0.2184
 2654SOL     OW18430   4.326   6.971   1.998  0.1878 -0.3011 -0.4028
 2654SOL    HW118431   4.324   6.872   2.006 -0.3703 -0.2259  0.3655
 2654SOL    HW218432   4.283   6.999   1.912 -1.1719 -0.6285  0.1602
 2655SOL     OW18433   4.704   8.125   3.366  0.3615  0.1866  0.2054
 2655SOL    HW118434   4.624   8.156   3.316  0.6823  2.3882  0.9890
 2655SOL    HW218435   4.778   8.106   3.302 -0.0778  0.3604 -0.3577
 2656SOL     OW18436   9.074   8.153   3.184  0.2485  0.2017  0.7244
 2656SOL    HW118437   9.113   8.072   3.228  0.2243  0.5806  1.4541
 2656SOL    HW218438   9.144   8.198   3.130  0.2136 -0.4063  0.1639
 2657SOL     OW18439   2.480   5.358   1.828  0.1586 -0.1544 -0.5354
 2657SOL    HW118440   2.509   5.268   1.861  0.1682 -0.4690 -1.3699
 2657SOL    HW218441   2.517   5.372   1.736  0.3003  0.7795 -0.3363
 2658SOL     OW18442   8.541   5.066   0.544 -1.1886 -0.0289  0.1424
 2658SOL    HW118443   8.556   5.027   0.453  0.0717  0.4406  0.1420
 2658SOL    HW218444   8.629   5.086   0.587 -1.7944  1.2045  0.8346
 2659SOL     OW18445   9.946   4.249   3.509 -0.4117  0.3002 -0.0745
 2659SOL    HW118446   9.968   4.189   3.586 -0.4706  2.2268  1.4965
 2659SOL    HW218447  10.018   4.243   3.440 -0.3413 -1.4300  0.1421
 2660SOL     OW18448   8.768   9.707   0.368 -0.1919  0.0494  0.4334
 2660SOL    HW118449   8.690   9.723   0.308  0.2073  0.5491  0.0430
 2660SOL    HW218450   8.759   9.617   0.411  0.4895 -1.1682 -1.8933
 2661SOL     OW18451   8.464   0.171   0.533 -0.0485 -0.2605 -0.0332
 2661SOL    HW118452   8.524   0.113   0.588  0.7425 -0.4060 -1.0337
 2661SOL    HW218453   8.391   0.207   0.591 -0.4304 -2.0747  0.6535
 2662SOL     OW18454   2.256   0.760   3.802  0.5830 -0.6258  0.2959
 2662SOL    HW118455   2.267   0.827   3.876 -0.6545  0.1176 -0.1840
 2662SOL    HW218456   2.317   0.783   3.727 -0.6470  0.6249 -0.3305
 2663SOL     OW18457   8.462   8.787   0.694 -0.1216 -0.1436  0.5891
 2663SOL    HW118458   8.496   8.881   0.699 -0.6856  0.0742  0.4618
 2663SOL    HW218459   8.496   8.742   0.611  0.7596 -0.2988  1.0362
 2664SOL     OW18460   1.952   5.223   0.758  0.5360 -0.4364  0.6480
 2664SOL    HW118461   1.978   5.133   0.793 -0.4263 -0.5913  0.9876
 2664SOL    HW218462   2.006   5.293   0.805  1.6411 -0.8553  0.0264
 2665SOL     OW18463   1.796   7.562   1.502  1.1420 -0.1186 -0.2816
 2665SOL    HW118464   1.789   7.618   1.584  1.7040 -0.9466  0.3401
 2665SOL    HW218465   1.710   7.566   1.451  0.2684 -0.7735  1.1106
 2666SOL     OW18466   9.832   1.042   3.696  0.1884 -0.0211  0.2700
 2666SOL    HW118467   9.850   1.041   3.597 -0.2671  0.8393  0.1717
 2666SOL    HW218468   9.771   0.966   3.719 -0.4914  0.3488 -0.2738
 2667SOL     OW18469   3.449   9.460   0.093  0.5212  0.4927 -0.4649
 2667SOL    HW118470   3.444   9.536   0.157 -0.6609  0.9706 -1.1185
 2667SOL    HW218471   3.368   9.459   0.035  1.1413 -0.4905 -1.3432
 2668SOL     OW18472   4.533   9.862   2.877  0.3594 -0.7324  0.0312
 2668SOL    HW118473   4.557   9.912   2.794 -1.5009  1.1974  0.6068
 2668SOL    HW218474   4.558   9.916   2.957  0.3739 -1.7178  0.6962
 2669SOL     OW18475   3.591   2.999   0.635 -0.5185 -0.1056  0.7836
 2669SOL    HW118476   3.618   3.094   0.622 -2.6638  0.5063  0.5920
 2669SOL    HW218477   3.625   2.944   0.559  0.8536  0.4688  0.9651
 2670SOL     OW18478   1.657   4.708   3.483 -0.5162  0.6867 -0.3317
 2670SOL    HW118479   1.707   4.632   3.440 -1.1382 -0.9739  1.7715
 2670SOL    HW218480   1.648   4.783   3.418 -1.0224 -1.5558 -2.9483
 2671SOL     OW18481   1.210   6.228   1.853 -0.1851 -0.4903 -0.1199
 2671SOL    HW118482   1.225   6.148   1.795 -2.5694 -1.7692  0.9457
 2671SOL    HW218483   1.262   6.218   1.938  0.5408 -0.2830 -0.5371
 2672SOL     OW18484   4.142   5.403   2.176  0.6111  0.1382  0.2604
 2672SOL    HW118485   4.192   5.480   2.216 -0.0359 -0.4770  2.2604
 2672SOL    HW218486   4.066   5.377   2.235  1.2026 -2.4765 -0.0562
 2673SOL     OW18487   9.156   7.930   0.598 -0.1562 -0.3515 -0.8161
 2673SOL    HW118488   9.087   7.953   0.529 -1.7699 -1.8847  0.2287
 2673SOL    HW218489   9.184   7.834   0.586 -1.4623 -1.0453  1.4555
 2674SOL     OW18490   1.181   4.191   2.525  0.2177 -0.0330  0.2481
 2674SOL    HW118491   1.152   4.243   2.445  0.0644 -1.5862 -0.7116
 2674SOL    HW218492   1.223   4.254   2.591  0.4370  1.2446 -1.0698
 2675SOL     OW18493   4.078   1.081   3.354 -0.2225 -0.2392 -0.2201
 2675SOL    HW118494   4.144   1.151   3.381 -0.9868  0.1124  0.7521
 2675SOL    HW218495   4.013   1.065   3.428  0.3595 -2.5033 -0.1642
 2676SOL     OW18496   0.123   1.790   3.016  0.7040  0.2646 -0.5134
 2676SOL    HW118497   0.106   1.876   2.968 -2.8278  0.3335  0.7129
 2676SOL    HW218498   0.098   1.714   2.957  1.8517  0.1441 -0.8483
 2677SOL     OW18499   7.812   3.348   0.941  0.0909  0.2187  0.1391
 2677SOL    HW118500   7.733   3.307   0.985  1.0455 -0.6429  1.0707
 2677SOL    HW218501   7.869   3.277   0.899  1.3661  0.6268  1.1270
 2678SOL     OW18502   4.329   9.084   3.485  0.4297  0.6200 -0.2650
 2678SOL    HW118503   4.267   9.161   3.504 -0.2678 -0.2598  1.1101
 2678SOL    HW218504   4.349   9.036   3.570  1.0597 -0.5714 -1.0769
 2679SOL     OW18505   5.493   9.990   2.903 -0.4969  0.1539  0.3103
 2679SOL    HW118506   5.525  10.011   2.996 -1.6941  0.8375  0.5787
 2679SOL    HW218507   5.570   9.991   2.840 -0.2099  3.3454  0.6676
 2680SOL     OW18508   8.881   6.527   3.462  0.2581  0.4537 -0.1426
 2680SOL    HW118509   8.826   6.605   3.491  1.3020  0.9460  0.5661
 2680SOL    HW218510   8.884   6.524   3.362 -0.3316  0.9347 -0.1760
 2681SOL     OW18511   0.192   0.492   2.251  0.2848 -0.2865  0.5040
 2681SOL    HW118512   0.160   0.404   2.218  0.1833  0.1320 -0.5272
 2681SOL    HW218513   0.129   0.527   2.321 -0.5179 -0.3194 -0.1909
 2682SOL     OW18514   0.371   7.509   0.077  0.3933 -0.0544 -0.2872
 2682SOL    HW118515   0.384   7.606   0.098 -1.8734  0.3303 -0.6007
 2682SOL    HW218516   0.291   7.474   0.125  1.0986 -1.7430 -0.2946
 2683SOL     OW18517   1.141   6.802   2.569  0.4589 -0.1652  0.3437
 2683SOL    HW118518   1.187   6.798   2.480 -3.5900 -0.6973 -1.8509
 2683SOL    HW218519   1.120   6.710   2.600 -1.3372  0.1219  0.0517
 2684SOL     OW18520   2.883   5.070   1.127  0.2638  0.6797  0.3973
 2684SOL    HW118521   2.829   5.125   1.191  0.0485  0.3425  0.5035
 2684SOL    HW218522   2.973   5.112   1.117  0.2711  0.7818  0.8550
 2685SOL     OW18523   9.566   5.647   1.278  0.0877 -0.7622 -0.2111
 2685SOL    HW118524   9.538   5.584   1.350  0.9408 -0.2817  0.5517
 2685SOL    HW218525   9.629   5.601   1.216  0.5484 -0.7252  0.2267
 2686SOL     OW18526   0.991   3.834   2.998  0.1899  0.0488  0.1020
 2686SOL    HW118527   1.049   3.879   2.931  0.4621 -0.6769 -0.1607
 2686SOL    HW218528   0.908   3.799   2.953 -0.4113  1.0071  0.4589
 2687SOL     OW18529   8.005   9.962   0.018 -0.5641 -0.2165 -0.5199
 2687SOL    HW118530   7.912   9.976  -0.016 -0.7961  2.2475  1.0422
 2687SOL    HW218531   8.004   9.966   0.118  1.4509  1.3494 -0.5521
 2688SOL     OW18532   2.430   3.054   3.460 -0.0351  0.1057  0.5901
 2688SOL    HW118533   2.451   2.978   3.522 -2.8218 -0.4638  0.9031
 2688SOL    HW218534   2.347   3.033   3.408  0.3497  2.0484 -0.8854
 2689SOL     OW18535   2.092   1.806   0.437  0.4353  0.1877  0.0855
 2689SOL    HW118536   2.081   1.888   0.381  1.0472 -0.7355 -1.4497
 2689SOL    HW218537   2.186   1.773   0.429 -0.1437 -1.4126 -0.4335
 2690SOL     OW18538   3.443   7.166   1.378 -0.2968 -0.2109  0.3613
 2690SOL    HW118539   3.403   7.131   1.294  1.4325 -0.7661 -0.2493
 2690SOL    HW218540   3.379   7.230   1.421 -0.8730  0.6915 -1.7797
 2691SOL     OW18541   3.340   0.712   3.042  0.1183 -0.6884  0.4221
 2691SOL    HW118542   3.397   0.632   3.063 -0.6542 -1.1486  0.7861
 2691SOL    HW218543   3.332   0.722   2.943 -0.2998 -1.4431  0.3741
 2692SOL     OW18544   1.241   2.389   1.670  0.2529 -0.2503 -0.6814
 2692SOL    HW118545   1.282   2.301   1.648  1.3324  0.5362 -1.9023
 2692SOL    HW218546   1.141   2.382   1.662  0.3691 -1.1790 -1.4598
 2693SOL     OW18547   3.806   8.294   2.736  0.0039 -0.1409  0.6077
 2693SOL    HW118548   3.736   8.345   2.786 -0.6971 -1.6254  1.1578
 2693SOL    HW218549   3.767   8.211   2.698  1.1547 -0.3080 -0.2390
 2694SOL     OW18550   9.632   8.072   3.754 -0.4905 -0.0653  0.5802
 2694SOL    HW118551   9.591   8.162   3.766 -2.5477 -1.0467  1.1758
 2694SOL    HW218552   9.589   8.007   3.816  2.2467 -1.1055  1.4960
 2695SOL     OW18553   9.827   0.909   3.945  0.1682  0.5663 -0.2238
 2695SOL    HW118554   9.890   0.987   3.938  1.2336 -0.3910 -1.5741
 2695SOL    HW218555   9.814   0.886   4.042  0.7172  1.7157  0.1381
 2696SOL     OW18556   7.767   3.482   0.664 -0.0972 -0.0374  0.1671
 2696SOL    HW118557   7.670   3.481   0.689 -1.1979 -0.0439 -3.7575
 2696SOL    HW218558   7.803   3.389   0.665 -0.4090 -0.1515  0.7189
 2697SOL     OW18559   4.792   9.990   4.008 -0.7095  0.0699  0.0984
 2697SOL    HW118560   4.831   9.943   4.087 -0.4216  1.4427  0.8051
 2697SOL    HW218561   4.700  10.023   4.031  0.0754  2.0586  0.5215
 2698SOL     OW18562   2.342   7.895   0.166 -0.6656 -0.4202  0.4982
 2698SOL    HW118563   2.324   7.849   0.253 -0.6843 -0.8994  0.2407
 2698SOL    HW218564   2.423   7.952   0.175 -1.8196  1.1182  1.4281
 2699SOL     OW18565   2.477   6.113   3.892 -0.1813 -0.6494  0.1054
 2699SOL    HW118566   2.564   6.090   3.848 -0.8547 -0.2106 -1.4964
 2699SOL    HW218567   2.455   6.209   3.876 -0.5652 -0.5406  1.2061
 2700SOL     OW18568   9.584   2.530   3.316  0.4130  0.2730  0.5288
 2700SOL    HW118569   9.604   2.492   3.406  1.2679  0.2416  0.3339
 2700SOL    HW218570   9.642   2.609   3.299  0.4471  0.1201 -0.0979
 2701SOL     OW18571   1.667   7.613   0.719  0.2649 -0.4300  0.6272
 2701SOL    HW118572   1.741   7.681   0.717 -1.0832  1.0294 -0.1485
 2701SOL    HW218573   1.682   7.546   0.646  0.6128  0.0824  0.2231
 2702SOL     OW18574   0.752   3.413   0.658  0.0416 -0.0177  0.1024
 2702SOL    HW118575   0.666   3.392   0.704 -1.4340  0.6560 -2.2468
 2702SOL    HW218576   0.753   3.368   0.568  1.3608  1.4490 -0.6331
 2703SOL     OW18577   1.993   5.180   0.427 -0.0276  0.2261  0.2138
 2703SOL    HW118578   2.071   5.149   0.481 -0.1696 -0.3718  0.0779
 2703SOL    HW218579   1.983   5.279   0.436  0.6381  0.2776  0.3759
 2704SOL     OW18580   1.380   4.709   1.553  0.1380 -0.0782 -0.6339
 2704SOL    HW118581   1.284   4.693   1.577  0.6475 -0.3548  1.2541
 2704SOL    HW218582   1.408   4.640   1.486 -0.3471 -1.3773  0.4820
 2705SOL     OW18583   1.344   4.045   1.912 -0.3114 -1.1849  0.2665
 2705SOL    HW118584   1.305   3.955   1.934 -0.8936 -0.9196  0.3276
 2705SOL    HW218585   1.292   4.116   1.959  1.8946 -0.9853  2.4834
 2706SOL     OW18586   1.192   4.600   3.472 -0.1366  0.7761  0.0832
 2706SOL    HW118587   1.224   4.584   3.566  0.8902 -0.4675 -0.4628
 2706SOL    HW218588   1.221   4.690   3.441  1.5729  0.2424  0.1200
 2707SOL     OW18589   8.238   4.571   0.555  0.4120 -0.3741 -0.0242
 2707SOL    HW118590   8.208   4.657   0.515  1.1753 -0.0511  0.0944
 2707SOL    HW218591   8.168   4.501   0.539 -0.0962  0.1981 -0.3373
 2708SOL     OW18592   0.097   5.789   0.606  0.3113 -0.0420  0.4357
 2708SOL    HW118593   0.057   5.857   0.546 -1.1672  0.1046  1.5573
 2708SOL    HW218594   0.065   5.698   0.580 -1.6373  0.1748  1.9929
 2709SOL     OW18595   9.306   7.997   1.876 -0.1647 -0.0697 -0.6283
 2709SOL    HW118596   9.335   8.011   1.782 -1.4400  0.9722 -0.8821
 2709SOL    HW218597   9.305   7.899   1.897 -0.1353 -0.3169 -1.7714
 2710SOL     OW18598   3.880   2.106   1.024  0.1737 -0.2399  0.2955
 2710SOL    HW118599   3.860   2.042   1.099  0.2177 -0.1224  0.4078
 2710SOL    HW218600   3.975   2.094   0.996 -0.2524 -1.3266 -0.7470
 2711SOL     OW18601   7.628   0.764   0.465  0.0294  0.2189 -0.3380
 2711SOL    HW118602   7.582   0.847   0.500 -0.4788 -0.0112 -0.4534
 2711SOL    HW218603   7.633   0.768   0.366 -0.0105  0.1016 -0.3443
 2712SOL     OW18604   2.087   8.938   0.861  0.0629 -0.2325 -0.5574
 2712SOL    HW118605   2.110   8.881   0.782  0.3817 -1.6585  0.5324
 2712SOL    HW218606   2.170   8.954   0.915  0.0933  1.7906 -1.1686
 2713SOL     OW18607   2.944   5.525   0.429 -0.1852  0.4780 -0.4622
 2713SOL    HW118608   2.890   5.445   0.455 -1.0035  1.0256 -0.4650
 2713SOL    HW218609   3.020   5.535   0.492 -2.2223  1.8799  1.8553
 2714SOL     OW18610   9.622   1.872   2.144  0.6556 -0.6509  0.6076
 2714SOL    HW118611   9.652   1.798   2.084 -1.9955  0.1567 -1.8402
 2714SOL    HW218612   9.535   1.847   2.188  0.1150  0.7024  0.3375
 2715SOL     OW18613   4.199   4.330   2.611 -0.2155  0.2389 -1.3279
 2715SOL    HW118614   4.159   4.395   2.676  0.8039  0.5725 -1.0205
 2715SOL    HW218615   4.191   4.238   2.648  1.0554  0.5077 -0.3667
 2716SOL     OW18616   8.664   0.834   0.961  0.2768  0.4618 -0.1912
 2716SOL    HW118617   8.643   0.924   0.923  1.7200  1.2241  0.7721
 2716SOL    HW218618   8.673   0.767   0.887  0.3023  1.3334 -0.9813
 2717SOL     OW18619   3.286   4.697   0.486  0.3208 -0.6185 -0.5324
 2717SOL    HW118620   3.251   4.748   0.407  0.5850 -0.9014 -0.8326
 2717SOL    HW218621   3.356   4.753   0.533  2.0888 -1.5071 -2.0484
 2718SOL     OW18622   4.291   7.587   2.103  0.3460 -0.1041  0.3125
 2718SOL    HW118623   4.300   7.550   2.195  0.1713  1.8163  1.1236
 2718SOL    HW218624   4.230   7.666   2.105  0.9207  0.3964 -1.3317
 2719SOL     OW18625   0.514   9.775   1.117  0.4064  0.2331 -0.2224
 2719SOL    HW118626   0.444   9.709   1.144 -0.3006  0.0204 -2.5084
 2719SOL    HW218627   0.499   9.862   1.165 -1.2223  0.0781 -0.4279
 2720SOL     OW18628   2.106   9.557   0.359  0.8664 -0.2871  0.6639
 2720SOL    HW118629   2.057   9.596   0.280  0.4728 -2.0776 -0.0124
 2720SOL    HW218630   2.039   9.528   0.427  1.0366 -1.7061  0.2329
 2721SOL     OW18631   4.676   8.475   0.191  0.0786 -0.4962  0.1775
 2721SOL    HW118632   4.704   8.438   0.280 -2.1667 -1.6122  0.4617
 2721SOL    HW218633   4.716   8.565   0.178  2.8369 -1.5613  1.0240
 2722SOL     OW18634   5.408   8.394   1.933  0.3018 -0.1419 -0.1569
 2722SOL    HW118635   5.384   8.367   2.027 -0.5147 -0.8581 -0.5667
 2722SOL    HW218636   5.336   8.364   1.871  0.5660  0.8460 -0.9428
 2723SOL     OW18637   8.622   5.505   2.609  0.2833  0.3365  0.5949
 2723SOL    HW118638   8.577   5.573   2.666  1.2704  1.5192  0.0036
 2723SOL    HW218639   8.698   5.548   2.560 -1.4085 -0.3167 -2.6990
 2724SOL     OW18640   2.842   7.676   2.593  0.5428 -0.3817  0.1277
 2724SOL    HW118641   2.878   7.605   2.653  2.4114 -1.7802 -2.5485
 2724SOL    HW218642   2.908   7.751   2.587  0.5710 -0.4620 -0.5464
 2725SOL     OW18643   9.481   7.683   1.605 -0.0457  0.9442  0.1139
 2725SOL    HW118644   9.477   7.586   1.629 -1.3214  0.4691 -1.9194
 2725SOL    HW218645   9.570   7.705   1.565  0.9914  1.0903  2.4182
 2726SOL     OW18646   9.355   5.736   2.387  0.8210  0.0868  0.1798
 2726SOL    HW118647   9.328   5.641   2.401 -0.3927  0.6770  1.9675
 2726SOL    HW218648   9.368   5.753   2.290  0.2942 -1.7017 -0.2204
 2727SOL     OW18649   9.361   9.265   1.423  0.4427 -0.9839 -0.0273
 2727SOL    HW118650   9.364   9.269   1.523  1.0342  1.2096 -0.0952
 2727SOL    HW218651   9.267   9.246   1.394  0.4327 -2.5088  0.9401
 2728SOL     OW18652   9.988   6.767   0.892  0.4463  0.0019 -0.0881
 2728SOL    HW118653  10.000   6.668   0.891 -1.2716 -0.2137 -1.0179
 2728SOL    HW218654  10.032   6.808   0.813 -0.0007 -0.1703 -0.4276
 2729SOL     OW18655   9.766   0.032   0.737 -0.1542 -0.2694 -0.0229
 2729SOL    HW118656   9.861   0.004   0.720  0.4400  1.2481  0.6445
 2729SOL    HW218657   9.720  -0.038   0.791  1.4954  0.3047  2.2137
 2730SOL     OW18658   8.775   7.856   1.528 -0.3668  0.5563  0.1515
 2730SOL    HW118659   8.680   7.828   1.540 -0.2093 -0.0996 -0.1128
 2730SOL    HW218660   8.778   7.936   1.467 -0.6936  0.1304 -0.4286
 2731SOL     OW18661   0.620   1.129   1.441 -0.3437 -0.3052  0.2526
 2731SOL    HW118662   0.706   1.085   1.413 -1.4587 -2.1101 -0.4053
 2731SOL    HW218663   0.602   1.207   1.380  0.7572  0.0234  0.3239
 2732SOL     OW18664   5.736   9.301   3.341  0.1482  0.2198  0.0228
 2732SOL    HW118665   5.801   9.228   3.322  0.5914  0.4334  0.6926
 2732SOL    HW218666   5.643   9.269   3.322  0.2673 -0.7920  1.0959
 2733SOL     OW18667   7.348   8.737   2.711 -0.8262  0.1425  0.3499
 2733SOL    HW118668   7.433   8.722   2.760  1.9835  2.9541 -3.3303
 2733SOL    HW218669   7.314   8.829   2.731 -0.9991  0.3714 -0.9555
 2734SOL     OW18670   2.321   9.055   2.929  0.3401 -0.2468  0.0086
 2734SOL    HW118671   2.290   9.140   2.886  1.8592 -1.0444 -2.7411
 2734SOL    HW218672   2.290   8.977   2.875 -1.0367 -1.5064  2.5104
 2735SOL     OW18673   1.333   8.057   2.712  0.2463  0.3543  0.6027
 2735SOL    HW118674   1.300   7.969   2.748 -2.3252  1.3474  0.7589
 2735SOL    HW218675   1.319   8.128   2.781 -2.0022  1.7279 -1.1998
 2736SOL     OW18676   8.034   6.412   2.437  0.1894  0.0785 -0.4469
 2736SOL    HW118677   8.032   6.486   2.370  0.0750 -0.5481 -1.1464
 2736SOL    HW218678   7.944   6.367   2.439 -0.8906  2.2375  2.5671
 2737SOL     OW18679   8.074   9.601   1.363 -0.4757  0.4400  0.0975
 2737SOL    HW118680   8.061   9.693   1.399 -0.2729  0.0274  1.2380
 2737SOL    HW218681   7.993   9.546   1.383  0.8307 -0.6506  2.6295
 2738SOL     OW18682   7.948   0.928   2.578 -0.3037  0.2603  0.8600
 2738SOL    HW118683   7.979   0.838   2.607  0.0285 -0.1312 -0.6727
 2738SOL    HW218684   8.005   0.998   2.620  0.9610 -0.3440  0.1519
 2739SOL     OW18685   2.800   9.730   0.578 -0.2020 -0.3035  0.0545
 2739SOL    HW118686   2.742   9.795   0.529 -1.7123 -2.0421 -0.5084
 2739SOL    HW218687   2.895   9.741   0.547 -0.7206  0.4235 -1.3227
 2740SOL     OW18688   1.600   5.625   1.292 -0.9259  0.4601  0.1694
 2740SOL    HW118689   1.594   5.526   1.278 -0.1202  0.1869  1.6218
 2740SOL    HW218690   1.565   5.648   1.383  1.6668  1.1232  1.0430
 2741SOL     OW18691   1.987   9.046   1.995  0.0048 -0.4480 -0.3900
 2741SOL    HW118692   1.938   9.093   1.922  0.4046 -0.1752 -0.4879
 2741SOL    HW218693   1.984   9.101   2.078  1.7992  0.5248 -0.9250
 2742SOL     OW18694   4.057   3.698   0.995  0.7764  0.9058 -0.1243
 2742SOL    HW118695   3.979   3.638   0.978  1.0296  0.7303 -0.7012
 2742SOL    HW218696   4.054   3.733   1.088  2.2951 -2.4209  1.2187
 2743SOL     OW18697   0.608   7.687   1.016  0.3948 -0.6220 -0.1266
 2743SOL    HW118698   0.517   7.704   1.053  0.3812 -1.5652  0.2850
 2743SOL    HW218699   0.609   7.597   0.970  0.7492 -0.0306 -1.3012
 2744SOL     OW18700   3.009   1.161   2.420 -0.1021 -0.2725  0.3224
 2744SOL    HW118701   2.965   1.083   2.464  1.6254 -0.1524  2.3396
 2744SOL    HW218702   2.950   1.241   2.425 -1.1345 -0.9978 -0.1870
 2745SOL     OW18703   3.276   6.508   2.408  0.0933 -0.0382 -0.4549
 2745SOL    HW118704   3.244   6.599   2.437 -0.5208 -0.6493  0.8034
 2745SOL    HW218705   3.197   6.450   2.391  0.4994 -0.5615 -0.5376
 2746SOL     OW18706   6.630   0.181   3.120  0.1821 -0.0302  0.4759
 2746SOL    HW118707   6.716   0.230   3.123  0.4636 -0.4700 -0.1379
 2746SOL    HW218708   6.554   0.245   3.128  0.5554  0.4281  0.3453
 2747SOL     OW18709   9.543   5.031   1.744 -0.1233 -0.2994 -0.4443
 2747SOL    HW118710   9.506   5.062   1.656  0.0660  1.1713 -0.0315
 2747SOL    HW218711   9.582   5.110   1.793  0.5401 -1.2498  0.5814
 2748SOL     OW18712   4.386   2.409   1.923 -0.0432 -0.3387  0.5596
 2748SOL    HW118713   4.287   2.415   1.922 -0.0442 -0.3736  0.4950
 2748SOL    HW218714   4.420   2.397   1.829 -0.0611 -1.6581  0.7174
 2749SOL     OW18715   1.233   1.860   2.753 -0.2684  0.5606  0.5643
 2749SOL    HW118716   1.161   1.929   2.764 -2.7164 -1.8200  0.0080
 2749SOL    HW218717   1.256   1.822   2.842  0.7495  1.7516  0.8165
 2750SOL     OW18718   0.175   1.749   1.069 -0.3009  0.5359  0.0168
 2750SOL    HW118719   0.166   1.653   1.094 -0.0361  0.3372 -0.6335
 2750SOL    HW218720   0.202   1.756   0.973  0.7438  1.2350  0.3537
 2751SOL     OW18721   9.574   7.304   2.701 -0.2835 -0.1229  0.0525
 2751SOL    HW118722   9.598   7.209   2.720  1.9145  0.4583  0.3378
 2751SOL    HW218723   9.503   7.307   2.631 -0.1954 -1.9764 -0.1409
 2752SOL     OW18724   0.480   4.258   0.964  0.1632 -0.1908 -0.6899
 2752SOL    HW118725   0.534   4.341   0.980  1.0990 -1.0232  0.5927
 2752SOL    HW218726   0.539   4.187   0.925 -0.2545 -0.7757 -0.2632
 2753SOL     OW18727   4.581   8.225   1.636 -0.3066  0.2791  0.3205
 2753SOL    HW118728   4.660   8.282   1.612 -0.2938  0.2978  0.4062
 2753SOL    HW218729   4.504   8.284   1.660 -0.2012  0.2580  0.7072
 2754SOL     OW18730   3.684   2.471   0.102  0.7932 -0.0578 -0.0567
 2754SOL    HW118731   3.716   2.497   0.011  1.3088  1.8838  0.6692
 2754SOL    HW218732   3.678   2.552   0.160 -2.3752 -0.8265  0.7833
 2755SOL     OW18733   9.965   0.315   1.190  0.2197 -0.1536  0.0003
 2755SOL    HW118734   9.965   0.362   1.102  1.0590 -0.1871 -0.0220
 2755SOL    HW218735   9.954   0.217   1.176  1.6540 -0.2993 -0.1534
 2756SOL     OW18736   5.171   8.465   3.772 -0.2870 -0.3628  0.0886
 2756SOL    HW118737   5.101   8.394   3.771 -1.0151  0.3544 -0.1934
 2756SOL    HW218738   5.222   8.461   3.858 -0.8369 -0.7179  0.3981
 2757SOL     OW18739   8.851   1.691   4.027 -0.3203 -0.4740  0.4071
 2757SOL    HW118740   8.937   1.738   4.005 -0.0651 -0.5926  1.1471
 2757SOL    HW218741   8.807   1.661   3.942  0.7751 -1.1315  0.0660
 2758SOL     OW18742   4.454   3.059   1.303 -0.1318  0.5030  0.3023
 2758SOL    HW118743   4.374   3.063   1.362  0.3263 -0.6352  1.0128
 2758SOL    HW218744   4.515   2.986   1.334  0.0237 -0.2393 -1.6841
 2759SOL     OW18745   9.581   3.276   1.541 -0.7249  0.4934  0.2110
 2759SOL    HW118746   9.516   3.208   1.576 -1.4932  1.5139  0.7809
 2759SOL    HW218747   9.532   3.361   1.521  0.2993  0.9970 -0.1700
 2760SOL     OW18748   8.771   9.522   3.617 -0.0219 -0.1572  0.3353
 2760SOL    HW118749   8.775   9.618   3.646 -0.1641  0.4719 -1.6713
 2760SOL    HW218750   8.677   9.497   3.596  0.2094 -0.3299 -0.4977
 2761SOL     OW18751   3.224   0.425   1.733  0.1247 -0.3697  0.8764
 2761SOL    HW118752   3.126   0.405   1.734 -0.2504  1.1461 -1.6169
 2761SOL    HW218753   3.239   0.522   1.749  1.0813 -0.2375 -0.6520
 2762SOL     OW18754   9.664   8.217   2.530  0.1575  0.0471 -0.0115
 2762SOL    HW118755   9.592   8.166   2.483 -2.6276  3.1609  0.5935
 2762SOL    HW218756   9.648   8.214   2.628  0.7945  0.8128  0.1240
 2763SOL     OW18757   2.940   8.895   0.292 -0.0650  0.4657 -0.0201
 2763SOL    HW118758   2.985   8.949   0.221  2.3508 -1.0948  0.2521
 2763SOL    HW218759   2.921   8.803   0.257 -0.5203  0.2561  0.7640
 2764SOL     OW18760   3.400   4.969   0.619 -0.2029  0.8131 -0.0341
 2764SOL    HW118761   3.311   5.015   0.613 -1.1604 -0.8987  0.6526
 2764SOL    HW218762   3.443   4.991   0.707  0.6940  2.7138 -0.9101
 2765SOL     OW18763   1.043   5.170   3.290 -0.1526 -0.0680 -0.5131
 2765SOL    HW118764   1.134   5.212   3.293  0.3494 -1.1834  0.3681
 2765SOL    HW218765   1.052   5.072   3.269 -1.1579 -0.1786 -0.4630
 2766SOL     OW18766   8.772   2.069   2.310 -0.1088  0.3967  0.2228
 2766SOL    HW118767   8.679   2.057   2.275 -0.1442 -0.1823  0.5102
 2766SOL    HW218768   8.804   1.983   2.348  0.2531  0.8063  0.8435
 2767SOL     OW18769   7.350   1.342   0.300  0.4629 -0.1942  0.1883
 2767SOL    HW118770   7.447   1.332   0.325  1.4181  0.8875 -2.8391
 2767SOL    HW218771   7.334   1.297   0.212 -1.6189  0.3725  0.2554
 2768SOL     OW18772   4.193   4.147   0.379  0.1204  0.3453  0.4687
 2768SOL    HW118773   4.283   4.120   0.414  0.1346 -1.0413 -0.6267
 2768SOL    HW218774   4.201   4.236   0.334  0.3389  1.6048  2.8923
 2769SOL     OW18775   4.333   0.208   0.452  0.0167 -0.4093  0.1900
 2769SOL    HW118776   4.252   0.151   0.442 -0.3339 -0.3259  2.3897
 2769SOL    HW218777   4.414   0.157   0.423 -0.4660 -1.5581  0.8597
 2770SOL     OW18778   3.275   8.788   0.207  0.3489  0.3380 -0.2071
 2770SOL    HW118779   3.303   8.824   0.296 -1.6000  0.0092  0.5586
 2770SOL    HW218780   3.185   8.825   0.182  2.0165  2.5383 -3.3159
 2771SOL     OW18781   8.287   1.119   2.348  0.1670 -0.7310 -0.0761
 2771SOL    HW118782   8.326   1.035   2.387  0.8139 -1.4606 -2.2581
 2771SOL    HW218783   8.357   1.166   2.294 -0.0111  1.5414  1.5474
 2772SOL     OW18784   4.231   0.316   0.029 -0.0261 -0.0284 -0.4764
 2772SOL    HW118785   4.193   0.275  -0.053  1.2495 -0.9695 -0.6232
 2772SOL    HW218786   4.159   0.360   0.082 -0.9136  0.2497 -1.9047
 2773SOL     OW18787   0.569   4.851   2.008 -0.1918 -0.6545  0.0283
 2773SOL    HW118788   0.564   4.947   1.979  0.4102 -0.4920  0.4322
 2773SOL    HW218789   0.479   4.820   2.038 -0.6339 -0.5598 -1.1750
 2774SOL     OW18790   9.253   1.892   3.807  0.8323 -0.0237  0.3252
 2774SOL    HW118791   9.309   1.951   3.748  0.3862  0.7885  0.7083
 2774SOL    HW218792   9.220   1.814   3.754  2.8991 -0.8901  0.2697
 2775SOL     OW18793   8.916   2.921   0.988 -0.4207  0.1363 -0.2736
 2775SOL    HW118794   8.837   2.882   1.035  1.0889 -0.3023  1.9854
 2775SOL    HW218795   8.915   3.020   0.996 -1.2113  0.1963 -1.0488
 2776SOL     OW18796   4.394   0.928   2.415  0.3589 -0.0867  0.2632
 2776SOL    HW118797   4.303   0.911   2.378  0.0854  0.4013  0.6960
 2776SOL    HW218798   4.453   0.849   2.398  0.0101 -0.1830 -0.4899
 2777SOL     OW18799   7.804   0.377   2.068 -0.1398 -0.3692  0.6270
 2777SOL    HW118800   7.761   0.306   2.012  0.0695 -1.1498  1.4549
 2777SOL    HW218801   7.774   0.467   2.035  0.7593 -0.7588 -1.3856
 2778SOL     OW18802   2.158   7.559   1.067 -0.0431  0.1519 -0.0637
 2778SOL    HW118803   2.126   7.637   1.121  3.8081  1.4755  0.4770
 2778SOL    HW218804   2.215   7.591   0.992 -0.3045 -2.0623 -1.2716
 2779SOL     OW18805   9.387   6.415   2.707  0.7135 -0.3859 -0.1364
 2779SOL    HW118806   9.344   6.337   2.755  2.0576 -0.2290  1.3438
 2779SOL    HW218807   9.318   6.460   2.650 -0.6791 -1.2095  0.8460
 2780SOL     OW18808   4.492   9.062   1.850 -0.1482  0.3179  0.0761
 2780SOL    HW118809   4.470   9.159   1.836  0.0031  0.6800  2.2257
 2780SOL    HW218810   4.591   9.050   1.847 -0.1701  0.2097 -0.2522
 2781SOL     OW18811   3.968   7.953   3.942  0.2405 -0.3625 -0.0166
 2781SOL    HW118812   3.886   7.997   3.908 -0.9558 -1.6628  1.1299
 2781SOL    HW218813   3.964   7.948   4.042  1.5795 -0.6931  0.0319
 2782SOL     OW18814   7.649   9.603   2.234 -0.4128  0.4246  0.2382
 2782SOL    HW118815   7.625   9.521   2.183  1.7858  0.0718 -0.2736
 2782SOL    HW218816   7.652   9.582   2.332  0.4485 -0.2001  0.0860
 2783SOL     OW18817   0.809   4.737   2.066  0.1108  0.1970 -0.3382
 2783SOL    HW118818   0.724   4.785   2.045  0.6017  0.4476 -1.7879
 2783SOL    HW218819   0.847   4.698   1.982  0.9398 -0.7269  0.4503
 2784SOL     OW18820   9.782   5.242   2.960 -0.1239 -0.2439  0.3379
 2784SOL    HW118821   9.738   5.249   2.871 -0.1203 -0.5298  0.3146
 2784SOL    HW218822   9.736   5.303   3.025 -1.6690 -1.8570  0.7748
 2785SOL     OW18823   4.311   7.350   3.374  0.2682  0.3574 -0.0419
 2785SOL    HW118824   4.247   7.298   3.318 -1.1475 -0.4056  2.2203
 2785SOL    HW218825   4.281   7.445   3.380  0.0313  0.2812 -0.0093
 2786SOL     OW18826   4.509   3.556   3.123 -0.0753 -0.1405  0.0682
 2786SOL    HW118827   4.450   3.516   3.053  0.7668 -1.5835  0.1338
 2786SOL    HW218828   4.501   3.655   3.122 -1.2237 -0.2350 -1.0457
 2787SOL     OW18829   4.208   3.132   3.628 -0.1944 -0.1927  0.0154
 2787SOL    HW118830   4.282   3.124   3.695 -1.3432 -1.6656  1.1256
 2787SOL    HW218831   4.164   3.043   3.615 -3.0963  1.0478  0.9013
 2788SOL     OW18832   7.720   1.246   1.894 -0.2571 -0.1983 -0.4232
 2788SOL    HW118833   7.754   1.210   1.981 -2.5328 -0.6908  0.2960
 2788SOL    HW218834   7.751   1.188   1.819 -1.0292 -1.7076  0.4019
 2789SOL     OW18835   1.100   3.874   1.620  0.4247  0.1714 -0.4316
 2789SOL    HW118836   1.020   3.815   1.630  0.5111 -0.0105 -0.8362
 2789SOL    HW218837   1.183   3.823   1.641  0.5404  0.0136 -1.2506
 2790SOL     OW18838   3.220   6.876   1.419 -0.2206  0.3786 -0.0013
 2790SOL    HW118839   3.147   6.826   1.374  0.5534 -1.1089  0.3724
 2790SOL    HW218840   3.192   6.972   1.431 -2.0786 -0.1524  0.0894
 2791SOL     OW18841   8.898   8.390   1.779  0.8068  0.1452 -0.1710
 2791SOL    HW118842   8.983   8.422   1.821  0.8943 -0.2105 -0.0809
 2791SOL    HW218843   8.911   8.379   1.680  0.8855  0.0140 -0.1451
 2792SOL     OW18844   9.234   4.240   3.190 -0.1779  0.4255  0.2166
 2792SOL    HW118845   9.201   4.187   3.268 -0.7110 -2.1611 -1.6885
 2792SOL    HW218846   9.333   4.252   3.197 -0.2340  0.2991  1.3078
 2793SOL     OW18847   5.035   8.709   2.167  0.7370 -0.5470 -0.2594
 2793SOL    HW118848   5.013   8.676   2.259  2.2074  0.8351  0.6182
 2793SOL    HW218849   5.028   8.809   2.165 -0.5688 -0.6484 -2.0278
 2794SOL     OW18850   9.137   3.623   3.512 -0.2118 -0.2391 -0.7116
 2794SOL    HW118851   9.207   3.672   3.565 -0.4175  0.0148 -0.6742
 2794SOL    HW218852   9.127   3.667   3.423 -0.6207 -0.0201 -0.5578
 2795SOL     OW18853   8.924   7.965   0.444 -0.0323 -0.0285 -0.3236
 2795SOL    HW118854   8.895   7.878   0.403 -1.5348  0.1685  0.3091
 2795SOL    HW218855   8.916   8.038   0.376  0.4936 -0.2469 -0.6237
 2796SOL     OW18856   0.149   2.675   2.991 -0.6341 -0.3119  0.0560
 2796SOL    HW118857   0.079   2.604   2.989 -0.4772 -0.5200  1.2463
 2796SOL    HW218858   0.213   2.663   2.915 -2.8531  0.8918 -2.0558
 2797SOL     OW18859   8.611   8.208   0.802 -0.0630 -0.6677 -0.2096
 2797SOL    HW118860   8.685   8.265   0.767 -0.7206 -0.5492 -1.4855
 2797SOL    HW218861   8.642   8.157   0.882  2.0776 -2.2530 -1.9693
 2798SOL     OW18862   6.504   8.293   2.240  0.1713  0.1457  0.9055
 2798SOL    HW118863   6.571   8.246   2.298 -0.2783  0.1517  1.4339
 2798SOL    HW218864   6.486   8.384   2.277  0.8076  0.6245  0.0585
 2799SOL     OW18865   3.048   2.659   3.440 -0.0537 -0.3403  0.0116
 2799SOL    HW118866   3.020   2.583   3.499 -0.0290  0.2710  0.8286
 2799SOL    HW218867   3.145   2.649   3.417  0.2343  0.0252  1.0325
 2800SOL     OW18868   3.261   7.203   0.404  0.1430 -0.4690 -0.3485
 2800SOL    HW118869   3.261   7.292   0.451  1.6277 -0.8330  0.3714
 2800SOL    HW218870   3.270   7.130   0.472 -3.1031 -1.3131 -0.7429
 2801SOL     OW18871   8.058   7.184   3.120  0.2039  0.3939  0.4442
 2801SOL    HW118872   8.112   7.110   3.081  0.4375  0.3504  0.8414
 2801SOL    HW218873   8.119   7.259   3.147 -0.0455  0.7954 -0.1049
 2802SOL     OW18874   3.598   5.038   3.534  0.5117  0.0493  0.2824
 2802SOL    HW118875   3.657   5.014   3.611  1.5972  0.1211 -0.5187
 2802SOL    HW218876   3.651   5.035   3.449 -0.4389  0.9085 -0.3485
 2803SOL     OW18877   1.428   8.764   3.716 -0.0832 -0.5004  0.3121
 2803SOL    HW118878   1.430   8.734   3.812  1.8707  0.7505  0.6852
 2803SOL    HW218879   1.425   8.863   3.712 -2.7926 -0.5876 -0.9551
 2804SOL     OW18880   3.634   5.660   3.468 -0.6146 -0.0895 -0.4213
 2804SOL    HW118881   3.580   5.632   3.548 -1.9128 -1.0020 -1.5892
 2804SOL    HW218882   3.666   5.579   3.419  0.4432  0.4590 -0.6627
 2805SOL     OW18883   7.304   7.676   3.277 -0.3929  0.4036  0.0238
 2805SOL    HW118884   7.281   7.600   3.216 -0.0758  0.0891  0.2940
 2805SOL    HW218885   7.293   7.762   3.227 -1.0395  0.1992 -0.1918
 2806SOL     OW18886   6.589   0.310   3.497 -0.0341  0.8389  0.0526
 2806SOL    HW118887   6.612   0.396   3.544 -1.0362  1.0379  0.1930
 2806SOL    HW218888   6.672   0.257   3.483  0.3360  0.9493  1.7078
 2807SOL     OW18889   9.290   7.510   1.368  0.2180 -0.5089  0.0526
 2807SOL    HW118890   9.293   7.481   1.463  0.0897  2.1287  0.9167
 2807SOL    HW218891   9.382   7.527   1.335  0.2632 -1.4442 -0.3147
 2808SOL     OW18892   9.295   5.009   0.972  0.1507 -0.2596 -0.4789
 2808SOL    HW118893   9.205   5.039   0.940  0.4962  1.3461 -0.0162
 2808SOL    HW218894   9.284   4.932   1.034 -1.0896  1.0299  0.9722
 2809SOL     OW18895   2.372   2.076   3.230 -0.3397  0.6949 -0.1891
 2809SOL    HW118896   2.460   2.035   3.253 -0.4377  0.2787 -0.5393
 2809SOL    HW218897   2.299   2.008   3.240 -0.4702  0.6967 -1.0183
 2810SOL     OW18898   4.070   1.456   1.607 -0.2193  0.3468  0.1265
 2810SOL    HW118899   4.106   1.371   1.569 -1.0800  0.1889 -0.3459
 2810SOL    HW218900   4.144   1.524   1.611  0.1824 -0.0352 -0.6270
 2811SOL     OW18901   0.793   5.840   0.410 -0.4098 -0.0578 -0.5223
 2811SOL    HW118902   0.721   5.907   0.427 -0.5320 -0.0646 -1.0233
 2811SOL    HW218903   0.869   5.856   0.474 -1.5273 -1.0614  1.0791
 2812SOL     OW18904   4.439   3.579   1.808 -0.2558  0.5057  0.3647
 2812SOL    HW118905   4.537   3.573   1.790 -0.1226  0.5990  1.0414
 2812SOL    HW218906   4.419   3.540   1.898 -0.8195  0.5976  0.2811
 2813SOL     OW18907   0.961   6.804   3.451  0.2133 -0.2307  0.0051
 2813SOL    HW118908   0.875   6.822   3.500  0.1648 -0.0138 -0.1613
 2813SOL    HW218909   1.038   6.825   3.511  0.1548  0.2080 -0.0766
 2814SOL     OW18910   9.016   3.054   0.767  0.1790  0.6618 -0.2522
 2814SOL    HW118911   8.963   3.118   0.711  1.5065  0.4061 -1.8372
 2814SOL    HW218912   8.953   2.998   0.822 -1.2418  0.2199 -2.2612
 2815SOL     OW18913   3.687   3.026   1.270  0.0050  0.4841 -0.3073
 2815SOL    HW118914   3.657   3.117   1.240  0.3582  0.8135  0.3090
 2815SOL    HW218915   3.787   3.026   1.279  0.0880 -0.2433 -1.1938
 2816SOL     OW18916   9.282   1.160   3.777  0.1591  0.3973  0.0050
 2816SOL    HW118917   9.321   1.153   3.869 -0.8593  0.7117  0.4723
 2816SOL    HW218918   9.350   1.200   3.715  0.6142  0.8295  0.7752
 2817SOL     OW18919   8.491   2.695   1.298  0.1045 -0.4335 -0.0876
 2817SOL    HW118920   8.574   2.641   1.310  0.8357  0.4233 -1.1260
 2817SOL    HW218921   8.497   2.778   1.354  0.7161  0.4389 -1.3837
 2818SOL     OW18922   1.996   8.839   0.279  0.2365  0.1958  0.4729
 2818SOL    HW118923   2.002   8.759   0.220 -1.0433  0.1384  0.4198
 2818SOL    HW218924   1.936   8.820   0.356  0.9533  0.6736  1.1656
 2819SOL     OW18925   3.175   8.344   2.400  0.2502  0.0661  0.4474
 2819SOL    HW118926   3.195   8.390   2.314  0.7619  1.6032  1.3730
 2819SOL    HW218927   3.115   8.401   2.456 -1.0786 -1.4622  0.6138
 2820SOL     OW18928   1.684   4.848   0.675 -0.1190 -0.0729  0.3264
 2820SOL    HW118929   1.642   4.882   0.759 -0.1250  3.1722 -0.9345
 2820SOL    HW218930   1.663   4.909   0.599  0.8337 -2.3376 -1.8402
 2821SOL     OW18931   1.402   6.429   3.294 -0.6004 -0.5290 -0.5057
 2821SOL    HW118932   1.350   6.480   3.363  0.2630  0.8823 -0.8835
 2821SOL    HW218933   1.372   6.457   3.203 -0.2082 -0.7998 -0.7157
 2822SOL     OW18934   3.769   4.682   0.328  0.7541  0.4225 -0.1979
 2822SOL    HW118935   3.720   4.594   0.321  1.9170 -0.4835  2.4077
 2822SOL    HW218936   3.724   4.739   0.397  1.1486  1.1198 -0.5204
 2823SOL     OW18937   0.117   8.104   1.389 -0.4575  0.1726 -0.2003
 2823SOL    HW118938   0.061   8.031   1.351  0.2661  0.0846 -1.1114
 2823SOL    HW218939   0.077   8.193   1.366  0.2363  0.1375 -1.6371
 2824SOL     OW18940   4.047   0.526   3.024  0.4336 -0.5747 -0.4550
 2824SOL    HW118941   4.118   0.593   3.046  0.3098 -0.1239 -1.3975
 2824SOL    HW218942   4.089   0.437   3.008  0.9157 -0.0907 -1.9958
 2825SOL     OW18943   3.469   4.670   3.605  0.0405 -0.2620  0.4703
 2825SOL    HW118944   3.539   4.682   3.676  2.0998  0.4239 -1.6031
 2825SOL    HW218945   3.514   4.655   3.517 -2.3696  2.3101 -1.2931
 2826SOL     OW18946   8.321   3.266   0.080  0.5496  0.2102  0.0626
 2826SOL    HW118947   8.355   3.176   0.107  0.1253  0.9253  3.0934
 2826SOL    HW218948   8.307   3.267  -0.019  1.7106 -2.6499 -0.1897
 2827SOL     OW18949   8.928   1.922   0.939 -0.0099  0.4385 -0.3003
 2827SOL    HW118950   8.996   1.870   0.888 -0.4046 -0.2548 -0.1180
 2827SOL    HW218951   8.942   2.020   0.922  2.2098  0.4375  1.1997
 2828SOL     OW18952   1.446   3.549   0.722 -0.5866 -0.6570 -0.4777
 2828SOL    HW118953   1.392   3.631   0.740 -2.1898 -1.5680 -1.0839
 2828SOL    HW218954   1.509   3.566   0.646 -0.5611  0.1632 -0.2739
 2829SOL     OW18955   6.079   8.209   3.624 -0.6269 -0.9020 -0.4702
 2829SOL    HW118956   5.995   8.263   3.615  0.9136  1.2794 -2.3749
 2829SOL    HW218957   6.159   8.269   3.612  1.2459 -2.7689  2.1247
 2830SOL     OW18958   4.043   2.101   0.175 -0.2491 -0.0711 -0.2895
 2830SOL    HW118959   4.027   2.192   0.136  0.2018  0.0618 -0.1625
 2830SOL    HW218960   3.972   2.039   0.142  0.3041 -0.0416 -1.5663
 2831SOL     OW18961   9.673   1.272   2.841 -0.1033  0.2950  0.2272
 2831SOL    HW118962   9.720   1.324   2.913  0.1009  0.1264  0.2143
 2831SOL    HW218963   9.731   1.266   2.760 -0.1005 -0.0050  0.2493
 2832SOL     OW18964   1.950   0.046   3.143  0.4242  0.1106  0.4802
 2832SOL    HW118965   2.011   0.044   3.222  1.4471  0.2299 -0.3025
 2832SOL    HW218966   2.002   0.030   3.059 -0.8391 -1.1869 -0.0746
 2833SOL     OW18967   0.977   6.281   2.852 -0.1389 -0.3559 -0.0278
 2833SOL    HW118968   0.941   6.342   2.922 -0.1636 -0.1651 -0.2085
 2833SOL    HW218969   1.028   6.206   2.896  1.3673  0.7357  0.1292
 2834SOL     OW18970   0.110   9.271   1.921  0.2939  0.4197 -0.4064
 2834SOL    HW118971   0.148   9.343   1.978 -0.3189  0.8985 -0.5885
 2834SOL    HW218972   0.078   9.311   1.835 -0.9956  0.1042 -0.0816
 2835SOL     OW18973   2.087   0.937   1.091 -0.3745  0.1869  0.3524
 2835SOL    HW118974   2.025   0.966   1.018 -2.9773  1.4938  2.9570
 2835SOL    HW218975   2.115   0.842   1.075 -2.4366 -0.1705 -1.3586
 2836SOL     OW18976   3.942   7.751   2.592 -0.2008 -0.0600 -0.3631
 2836SOL    HW118977   3.932   7.691   2.671 -1.0784  0.1243 -0.3291
 2836SOL    HW218978   3.995   7.704   2.521  0.1584 -0.4115  0.1345
 2837SOL     OW18979   2.410   7.571   1.749 -0.0498 -0.3246  0.0233
 2837SOL    HW118980   2.460   7.553   1.834 -2.0759 -1.2898  1.0471
 2837SOL    HW218981   2.351   7.651   1.762 -0.5679 -0.6424 -0.3790
 2838SOL     OW18982   8.848   8.860   1.810 -0.3704  0.3366 -0.2820
 2838SOL    HW118983   8.835   8.850   1.711 -0.5885 -0.0067 -0.2207
 2838SOL    HW218984   8.818   8.776   1.856  0.7077  0.0934 -0.0084
 2839SOL     OW18985   1.414   2.898   2.548  0.4808  0.5841 -0.3767
 2839SOL    HW118986   1.366   2.983   2.528  2.3804  1.2024 -2.4454
 2839SOL    HW218987   1.368   2.822   2.502 -1.3601  0.4077  1.6726
 2840SOL     OW18988   8.233   9.779   4.030 -0.0615 -0.5728 -0.0552
 2840SOL    HW118989   8.142   9.777   3.990 -0.7212 -0.5282  1.4046
 2840SOL    HW218990   8.226   9.781   4.130  1.4801  1.6290  0.0679
 2841SOL     OW18991   9.749   7.368   3.936 -0.0875  0.0708 -0.4431
 2841SOL    HW118992   9.767   7.460   3.902 -2.0473  1.4821  2.1699
 2841SOL    HW218993   9.834   7.328   3.970  0.2669  2.2043  1.3286
 2842SOL     OW18994   2.503   2.439   1.478 -0.4575  0.0109 -0.5897
 2842SOL    HW118995   2.405   2.420   1.484 -0.4890  0.3243 -0.0839
 2842SOL    HW218996   2.554   2.361   1.512 -0.5961  1.0480  2.0668
 2843SOL     OW18997   2.919   3.579   2.900 -0.5001 -0.5114  0.0870
 2843SOL    HW118998   2.931   3.676   2.924 -0.9329 -0.1514 -1.1650
 2843SOL    HW218999   3.009   3.539   2.881 -0.4296 -0.0578 -0.5456
 2844SOL     OW19000   6.064   7.909   2.398  0.0865 -0.0970 -0.6157
 2844SOL    HW119001   6.130   7.974   2.360  0.6785 -1.3963 -1.8466
 2844SOL    HW219002   6.010   7.869   2.324  0.6371 -1.9898 -0.0130
 2845SOL     OW19003   1.046   6.190   3.575 -0.0652  0.0648 -0.1416
 2845SOL    HW119004   1.034   6.149   3.485  1.3513 -1.5107  0.3384
 2845SOL    HW219005   1.143   6.214   3.588 -0.7004  2.7221 -0.0279
 2846SOL     OW19006   0.809   3.566   1.534 -0.6122  0.2585 -0.0655
 2846SOL    HW119007   0.745   3.523   1.470 -1.7720  1.4584  0.2684
 2846SOL    HW219008   0.784   3.542   1.628  0.0668 -0.1313  0.0171
 2847SOL     OW19009   2.579   1.906   2.940  0.3027  0.4567  0.0631
 2847SOL    HW119010   2.549   1.990   2.895 -0.3463  0.7239  0.9698
 2847SOL    HW219011   2.607   1.927   3.034 -0.4677 -0.4317  0.5054
 2848SOL     OW19012   3.981   1.573   0.476 -0.0568  0.2252  0.2777
 2848SOL    HW119013   3.923   1.587   0.395  0.0429 -2.2483 -0.2650
 2848SOL    HW219014   4.076   1.569   0.447  0.0299 -0.0586  0.6110
 2849SOL     OW19015   0.483   4.500   3.810 -0.2342  0.1736  0.3456
 2849SOL    HW119016   0.559   4.553   3.773  0.1030 -1.1963 -0.9662
 2849SOL    HW219017   0.503   4.474   3.904  2.0724 -2.2826 -0.7611
 2850SOL     OW19018   0.708   4.622   3.705 -0.0093 -0.2688 -0.2382
 2850SOL    HW119019   0.741   4.643   3.613  0.4770  0.5001  0.1034
 2850SOL    HW219020   0.786   4.614   3.767 -0.4271  1.4092  0.5469
 2851SOL     OW19021   8.348   0.100   3.552  0.3460 -0.0043 -0.0767
 2851SOL    HW119022   8.275   0.107   3.619  0.5790  0.8240  0.1022
 2851SOL    HW219023   8.363   0.189   3.510  0.5583 -0.4029 -0.8487
 2852SOL     OW19024   8.845   3.460   2.298 -0.1315 -0.1529 -0.1379
 2852SOL    HW119025   8.917   3.495   2.238 -0.9203 -0.9097 -1.5623
 2852SOL    HW219026   8.764   3.439   2.243 -1.2013  0.0413  1.3468
 2853SOL     OW19027   3.969   3.479   1.379  0.4307  0.2594  0.1904
 2853SOL    HW119028   3.875   3.457   1.408  1.0526 -0.7774  1.4858
 2853SOL    HW219029   4.021   3.511   1.457  1.3416  0.2135 -0.3917
 2854SOL     OW19030   3.871   0.204   3.516 -0.2947 -0.0737 -0.0235
 2854SOL    HW119031   3.942   0.136   3.534  0.8452  1.5846  1.8510
 2854SOL    HW219032   3.897   0.261   3.438 -0.4658 -0.6588 -0.5167
 2855SOL     OW19033   5.289   9.425   3.328  0.6082  0.3033  0.0967
 2855SOL    HW119034   5.289   9.507   3.270  0.8163 -0.2221 -0.6536
 2855SOL    HW219035   5.269   9.452   3.422  0.8479  1.2408 -0.1080
 2856SOL     OW19036   2.710   6.668   0.469  0.4872  0.4871 -0.0212
 2856SOL    HW119037   2.802   6.697   0.495  1.7687 -2.2355 -1.3541
 2856SOL    HW219038   2.647   6.682   0.545  2.0678  1.9548  1.0454
 2857SOL     OW19039   2.713   2.724   2.283 -0.3241  0.0714 -0.5580
 2857SOL    HW119040   2.799   2.678   2.264 -0.4999 -0.6840  0.4443
 2857SOL    HW219041   2.719   2.819   2.253  1.4252  0.4698  0.9571
 2858SOL     OW19042   8.607   5.172   2.302  0.7687 -0.0733 -0.3616
 2858SOL    HW119043   8.643   5.124   2.222 -1.3795 -0.9412 -0.8338
 2858SOL    HW219044   8.568   5.259   2.274 -2.0691 -1.3897 -0.6541
 2859SOL     OW19045   9.362   7.380   0.794 -0.5331 -0.0522  0.0087
 2859SOL    HW119046   9.266   7.406   0.799 -0.1979  1.3057 -0.3382
 2859SOL    HW219047   9.400   7.373   0.887 -0.7681  0.1934  0.1253
 2860SOL     OW19048   1.700   8.446   3.552  0.0859  0.1221 -0.4821
 2860SOL    HW119049   1.745   8.451   3.641  1.2799  0.3896 -1.0889
 2860SOL    HW219050   1.663   8.536   3.528  0.0231  0.1234 -0.3800
 2861SOL     OW19051   8.611   6.280   3.795  0.6176 -0.1717 -0.0404
 2861SOL    HW119052   8.638   6.365   3.841 -0.6099 -0.2041  0.7553
 2861SOL    HW219053   8.576   6.215   3.862 -0.6140 -0.4578 -0.9294
 2862SOL     OW19054   7.888   9.499   3.339 -0.2982  0.8171 -0.6867
 2862SOL    HW119055   7.878   9.595   3.363 -1.0149  0.2618  1.2839
 2862SOL    HW219056   7.982   9.483   3.306  0.2086  1.9313  0.1763
 2863SOL     OW19057   0.656   0.480   2.127 -0.4082  0.5121  0.0788
 2863SOL    HW119058   0.640   0.491   2.029 -1.3167 -2.1762 -0.1214
 2863SOL    HW219059   0.754   0.486   2.147 -0.1057 -0.1483 -1.1804
 2864SOL     OW19060   7.811   3.986   0.882  0.4350 -0.2111 -0.0349
 2864SOL    HW119061   7.817   4.085   0.895 -1.6420  0.1243 -1.5206
 2864SOL    HW219062   7.889   3.955   0.828  1.0509  0.6036  0.3711
 2865SOL     OW19063   1.454   9.852   0.348 -0.5266 -0.6558  0.3627
 2865SOL    HW119064   1.495   9.941   0.372 -1.1483 -0.3981  0.4668
 2865SOL    HW219065   1.420   9.855   0.254  0.1310 -1.0293  0.1124
 2866SOL     OW19066   0.136   9.544   0.461 -0.5299 -0.2612  0.2090
 2866SOL    HW119067   0.066   9.543   0.390 -0.1461 -1.2935 -0.1551
 2866SOL    HW219068   0.095   9.518   0.548 -1.2321  2.0411  0.5938
 2867SOL     OW19069   9.545   3.194   3.157 -0.0049  0.2648 -0.2214
 2867SOL    HW119070   9.642   3.172   3.167  0.1746  0.9234 -0.4956
 2867SOL    HW219071   9.493   3.147   3.229  0.6216  0.6184  0.4720
 2868SOL     OW19072   8.716   1.842   0.797 -0.0419 -0.2026  0.4741
 2868SOL    HW119073   8.783   1.909   0.829  0.2402 -1.1964  2.0134
 2868SOL    HW219074   8.648   1.826   0.868 -0.4835 -1.0653 -0.1338
 2869SOL     OW19075   3.344   7.414   0.943  0.1815  0.2501 -0.2377
 2869SOL    HW119076   3.397   7.473   1.005 -0.3228 -0.5008  0.9279
 2869SOL    HW219077   3.302   7.470   0.872  2.1272  0.9189 -0.8892
 2870SOL     OW19078   2.024   9.786   1.372 -0.0026  0.1550 -0.5252
 2870SOL    HW119079   1.940   9.753   1.415 -0.2210  1.1763 -0.1677
 2870SOL    HW219080   2.079   9.707   1.343 -0.5352 -0.5294  0.2970
 2871SOL     OW19081   8.387   6.901   1.006 -0.4201 -0.0677  0.3314
 2871SOL    HW119082   8.353   6.821   0.957  1.7866  0.5213 -2.2465
 2871SOL    HW219083   8.328   6.919   1.085 -2.7913 -2.3358 -0.8485
 2872SOL     OW19084   8.368   3.037   1.866 -0.1066 -0.4063  0.3634
 2872SOL    HW119085   8.296   2.970   1.887 -1.1721  0.1744 -1.3031
 2872SOL    HW219086   8.362   3.113   1.931  1.2795 -2.0219  2.4299
 2873SOL     OW19087   9.981   6.254   2.532  0.0859 -0.1749 -0.2130
 2873SOL    HW119088   9.948   6.297   2.616 -0.2195  0.0367 -0.4405
 2873SOL    HW219089  10.055   6.189   2.554  0.2398  0.1344  0.1753
 2874SOL     OW19090   7.919   5.266   3.698 -0.0431 -0.7280 -0.8117
 2874SOL    HW119091   7.912   5.262   3.798 -0.0491 -1.5740 -0.8460
 2874SOL    HW219092   7.992   5.330   3.673 -0.0472 -0.5047 -0.2685
 2875SOL     OW19093   4.599   1.610   2.015  0.4485 -0.7744  0.0049
 2875SOL    HW119094   4.531   1.677   2.045  0.6683 -0.5157 -0.0757
 2875SOL    HW219095   4.646   1.571   2.094 -0.2828 -1.4693  0.1050
 2876SOL     OW19096   2.516   2.835   0.997  0.3509 -0.0188  0.1078
 2876SOL    HW119097   2.542   2.764   0.932 -0.2910  0.6416 -0.8770
 2876SOL    HW219098   2.493   2.919   0.948 -1.0576  0.2049  1.1221
 2877SOL     OW19099   0.028   9.611   1.605  0.2368  0.0876 -0.3753
 2877SOL    HW119100   0.016   9.709   1.587 -1.9867  0.0938  1.0089
 2877SOL    HW219101  -0.061   9.566   1.606  1.2667 -2.0294 -1.2852
 2878SOL     OW19102   9.836   9.592   2.705  0.1551  0.0239  0.5219
 2878SOL    HW119103   9.898   9.666   2.679  0.9661 -0.3666  1.2996
 2878SOL    HW219104   9.846   9.516   2.641 -0.2073  0.3355  0.0965
 2879SOL     OW19105   7.613   8.680   1.021 -0.2897  0.0588  0.5005
 2879SOL    HW119106   7.522   8.641   1.037 -0.0825 -0.6606 -0.0267
 2879SOL    HW219107   7.670   8.613   0.973  0.5518  0.4716  0.9097
 2880SOL     OW19108   2.368   6.993   1.041  0.3031 -0.1183  0.6728
 2880SOL    HW119109   2.396   7.058   1.112 -0.5190  1.0854 -0.0986
 2880SOL    HW219110   2.441   6.926   1.027  1.1441  0.6092  1.5064
 2881SOL     OW19111   0.389   1.746   3.651 -0.0740  0.0196 -0.0980
 2881SOL    HW119112   0.410   1.759   3.748 -2.7516 -0.0286  0.5182
 2881SOL    HW219113   0.368   1.834   3.609 -0.8979 -0.1884 -0.1363
 2882SOL     OW19114   0.606   4.628   0.546 -0.0525  0.2132 -0.0474
 2882SOL    HW119115   0.667   4.701   0.577 -0.3639  0.7031 -0.5714
 2882SOL    HW219116   0.621   4.546   0.601  1.0222  0.3517 -0.1155
 2883SOL     OW19117   3.139   0.311   0.492 -0.0076 -0.1044 -0.4784
 2883SOL    HW119118   3.043   0.288   0.506 -0.1960 -0.4742 -2.3131
 2883SOL    HW219119   3.147   0.402   0.450  0.5255  0.7270  1.3766
 2884SOL     OW19120   2.715   1.774   1.505 -0.5736 -0.4106 -0.6157
 2884SOL    HW119121   2.809   1.757   1.475 -0.9216  0.1373 -2.0707
 2884SOL    HW219122   2.709   1.864   1.547 -0.2175 -0.9116  0.5211
 2885SOL     OW19123   2.253   9.441   3.361 -0.3095 -0.9204  0.2634
 2885SOL    HW119124   2.221   9.520   3.308  0.4448 -0.1402  0.9417
 2885SOL    HW219125   2.330   9.469   3.418  1.5395 -2.7212 -1.2704
 2886SOL     OW19126   9.366   8.090   1.323 -0.3724 -0.3283 -0.6246
 2886SOL    HW119127   9.396   8.181   1.354  0.4678 -0.5232 -0.8679
 2886SOL    HW219128   9.268   8.080   1.341 -0.4506  0.5903 -0.5036
 2887SOL     OW19129   3.645   9.875   1.613 -0.1101 -0.2829 -0.2222
 2887SOL    HW119130   3.650   9.957   1.670 -0.5146 -0.9758  0.8255
 2887SOL    HW219131   3.694   9.891   1.527 -0.0591  0.9996  0.0345
 2888SOL     OW19132   4.417   0.901   0.368  0.3099  0.7654  0.2972
 2888SOL    HW119133   4.333   0.848   0.379  1.1164 -0.5139  0.4497
 2888SOL    HW219134   4.419   0.943   0.278 -0.8893  1.5290  0.6115
 2889SOL     OW19135   2.951   3.375   0.373 -0.2230  0.2420 -0.4695
 2889SOL    HW119136   3.046   3.383   0.403 -0.4038 -0.0504  0.1909
 2889SOL    HW219137   2.897   3.448   0.416 -0.6284 -0.6247  0.5117
 2890SOL     OW19138   2.623   6.289   2.971 -0.7181 -0.0196  0.1221
 2890SOL    HW119139   2.558   6.275   3.045 -1.1097  0.6062 -0.1017
 2890SOL    HW219140   2.668   6.202   2.949 -0.5614 -0.2007  1.1226
 2891SOL     OW19141   7.531   0.220   1.168  0.7692  0.2117 -0.5712
 2891SOL    HW119142   7.509   0.301   1.114  1.6575  0.1804 -0.9841
 2891SOL    HW219143   7.630   0.206   1.169  0.7268 -0.1031  0.6046
 2892SOL     OW19144   0.363   2.723   0.259 -0.1841 -0.0964 -0.7853
 2892SOL    HW119145   0.415   2.796   0.303 -0.2807 -0.1127 -0.6413
 2892SOL    HW219146   0.280   2.706   0.312 -0.4590  0.1006 -1.1552
 2893SOL     OW19147   2.845   2.137   0.754 -0.2759  0.5066  0.0024
 2893SOL    HW119148   2.892   2.089   0.679 -1.6515  1.3311 -1.4077
 2893SOL    HW219149   2.753   2.161   0.726 -0.6107  1.3799  1.7685
 2894SOL     OW19150   1.091   4.438   2.914 -0.6605  0.4763 -0.5157
 2894SOL    HW119151   1.174   4.419   2.966 -1.5263  0.6527  0.9635
 2894SOL    HW219152   1.047   4.352   2.889 -2.2780  0.3873  2.4199
 2895SOL     OW19153   3.160   4.551   1.845  0.1684 -0.3084  0.0590
 2895SOL    HW119154   3.228   4.623   1.839  1.3102 -1.3952 -0.3506
 2895SOL    HW219155   3.205   4.462   1.834 -0.9142 -1.1884  2.4187
 2896SOL     OW19156   9.608   1.680   3.415  0.0104  0.3048  0.1230
 2896SOL    HW119157   9.668   1.608   3.380 -0.4894 -0.5471  0.9958
 2896SOL    HW219158   9.519   1.640   3.440 -0.7457  1.4542 -0.6634
 2897SOL     OW19159   4.688   0.383   2.101  0.0376  0.2458  0.2218
 2897SOL    HW119160   4.663   0.293   2.064  0.3814  0.2046  0.0858
 2897SOL    HW219161   4.635   0.454   2.054  0.5131  0.1988 -0.3983
 2898SOL     OW19162   8.321   3.582   0.807 -0.2489 -0.3246  0.2452
 2898SOL    HW119163   8.371   3.499   0.832 -1.3904 -0.5437  1.8512
 2898SOL    HW219164   8.224   3.559   0.791 -0.6781  0.7648  1.2018
 2899SOL     OW19165   8.308   1.525   3.760 -0.4459 -0.1283  0.2355
 2899SOL    HW119166   8.222   1.550   3.805 -1.1309 -2.2102  0.1585
 2899SOL    HW219167   8.380   1.518   3.829 -1.4133 -2.9381  1.0297
 2900SOL     OW19168   3.155   8.862   0.941 -0.1220 -0.3459 -0.4333
 2900SOL    HW119169   3.104   8.947   0.956 -0.1770 -0.4557  0.0153
 2900SOL    HW219170   3.143   8.832   0.847 -0.4054 -0.0534 -0.4909
 2901SOL     OW19171   4.808   0.488   2.901 -0.2128 -0.0746 -0.5600
 2901SOL    HW119172   4.733   0.426   2.925 -0.2914 -0.3740 -1.5584
 2901SOL    HW219173   4.855   0.453   2.819  0.2273  0.7686 -0.6679
 2902SOL     OW19174   9.593   1.023   1.812 -0.0687 -0.2731 -0.7428
 2902SOL    HW119175   9.668   0.965   1.843  0.7865  1.0278 -0.3499
 2902SOL    HW219176   9.624   1.118   1.807 -1.9316  0.4266  0.3327
 2903SOL     OW19177   0.622   1.297   2.887 -0.4527 -0.1938 -0.0212
 2903SOL    HW119178   0.603   1.390   2.917 -2.7231 -0.6301 -0.0421
 2903SOL    HW219179   0.570   1.277   2.804 -1.9509 -2.2895  1.3821
 2904SOL     OW19180   9.588   8.027   3.448  0.1214 -0.0885 -0.1280
 2904SOL    HW119181   9.554   8.096   3.385  1.6309  0.0126 -0.8504
 2904SOL    HW219182   9.639   8.071   3.522 -0.1861 -0.3271  0.2279
 2905SOL     OW19183   1.432   7.313   1.972  0.5698  0.3280  0.7754
 2905SOL    HW119184   1.501   7.250   2.006  1.3699  1.2172  0.8035
 2905SOL    HW219185   1.455   7.341   1.879  0.2286  0.6152  0.7777
 2906SOL     OW19186   9.367   4.971   1.281 -0.2924 -0.2517 -0.1169
 2906SOL    HW119187   9.386   4.876   1.257 -1.8565 -0.3583 -1.0289
 2906SOL    HW219188   9.420   5.032   1.223  1.8903 -0.5625  1.5096
 2907SOL     OW19189   3.882   5.183   1.884  0.0895  0.1972 -0.1239
 2907SOL    HW119190   3.928   5.269   1.909  0.1475 -0.0791  0.7296
 2907SOL    HW219191   3.815   5.201   1.812 -1.3438  1.3458  1.4496
 2908SOL     OW19192   7.417   8.376   3.908 -0.5185  0.4840  0.6937
 2908SOL    HW119193   7.414   8.432   3.825  1.1480 -1.0385 -0.4589
 2908SOL    HW219194   7.430   8.434   3.988  0.6199  1.7821 -0.4071
 2909SOL     OW19195   1.702   2.900   0.028  0.3072 -0.2542 -0.2813
 2909SOL    HW119196   1.801   2.900   0.016  0.3924 -0.2583  0.3742
 2909SOL    HW219197   1.664   2.989   0.001  0.7321  0.4296  1.2979
 2910SOL     OW19198   9.675   7.071   0.796 -0.2568  0.2219  0.3631
 2910SOL    HW119199   9.601   7.032   0.851 -0.4460  0.0552 -0.0103
 2910SOL    HW219200   9.713   7.001   0.736  1.3839 -0.1363  1.8125
 2911SOL     OW19201   8.383   6.273   0.193 -0.4628 -0.0111  0.0448
 2911SOL    HW119202   8.381   6.353   0.253 -0.9021 -1.9558  2.7245
 2911SOL    HW219203   8.478   6.245   0.178 -0.4035 -0.2979  0.9324
 2912SOL     OW19204   3.908   0.018   3.279  0.1069  0.3094 -0.3908
 2912SOL    HW119205   3.874   0.103   3.241  0.8700  0.9491  0.3331
 2912SOL    HW219206   3.984   0.037   3.341 -3.0321 -0.3556  3.9017
 2913SOL     OW19207   2.226   7.304   1.797  0.5063 -0.3207 -0.0631
 2913SOL    HW119208   2.267   7.223   1.755 -0.5226 -0.8982  0.0306
 2913SOL    HW219209   2.260   7.386   1.752  0.2826 -0.8863 -1.2702
 2914SOL     OW19210   3.981   4.067   1.423 -0.1254 -1.1403  0.0576
 2914SOL    HW119211   4.064   4.075   1.480 -0.9383 -3.0794  1.6069
 2914SOL    HW219212   3.998   4.107   1.333  1.8432  0.2800  1.0233
 2915SOL     OW19213   1.016   2.759   1.768  0.0579  0.1915  0.0602
 2915SOL    HW119214   1.090   2.694   1.785 -0.2747 -0.1163  0.3029
 2915SOL    HW219215   0.983   2.748   1.674 -0.9314 -0.9250  0.5310
 2916SOL     OW19216   4.204   8.408   0.109 -0.0234 -0.5589 -0.3711
 2916SOL    HW119217   4.165   8.370   0.025 -0.4184  1.6502 -1.1993
 2916SOL    HW219218   4.134   8.459   0.159  0.9918  0.6855 -0.2163
 2917SOL     OW19219   7.174   0.694   3.015 -0.5800 -0.1596  0.5439
 2917SOL    HW119220   7.160   0.684   3.114  0.2215  2.6905  0.9771
 2917SOL    HW219221   7.089   0.722   2.972 -0.4900  0.3864  0.7110
 2918SOL     OW19222   1.517   1.619   1.115  0.2991 -0.0586  0.3978
 2918SOL    HW119223   1.439   1.681   1.120 -0.3479 -0.7243 -1.2411
 2918SOL    HW219224   1.596   1.667   1.079  0.4053  0.3833  1.2111
 2919SOL     OW19225   9.923   2.600   3.858  0.0347 -0.0972 -0.0843
 2919SOL    HW119226   9.973   2.653   3.926 -1.1924  0.8528  0.0933
 2919SOL    HW219227   9.848   2.551   3.902 -0.6686  0.3989 -0.7138
 2920SOL     OW19228   3.538   8.991   3.844  0.1381 -0.1761  0.2973
 2920SOL    HW119229   3.550   9.026   3.751  1.3303 -1.2316  0.0417
 2920SOL    HW219230   3.623   9.004   3.896 -0.2056 -0.4599  0.9355
 2921SOL     OW19231   1.687   1.323   0.222 -0.1699  0.0813 -0.2015
 2921SOL    HW119232   1.656   1.418   0.215  0.2133  0.3237  1.1469
 2921SOL    HW219233   1.632   1.275   0.291  2.0004  0.3444  1.7588
 2922SOL     OW19234   7.238   9.501   2.377 -0.2999  0.1117  0.6824
 2922SOL    HW119235   7.180   9.572   2.418 -0.9517  0.1023 -0.2264
 2922SOL    HW219236   7.292   9.541   2.304 -1.7724 -0.6349 -0.8498
 2923SOL     OW19237   3.859   1.592   1.534  0.1598 -0.2006 -0.6839
 2923SOL    HW119238   3.937   1.545   1.575 -0.0218 -0.0147 -0.1179
 2923SOL    HW219239   3.840   1.553   1.443  2.9828  1.9347 -2.2656
 2924SOL     OW19240   3.469   0.681   1.313 -0.5020  0.4733 -0.4946
 2924SOL    HW119241   3.562   0.712   1.333 -0.0221 -0.6687 -0.9068
 2924SOL    HW219242   3.437   0.621   1.387 -0.6137  0.2353 -0.7358
 2925SOL     OW19243   8.504   4.343   0.680  0.1023  0.1163 -0.7775
 2925SOL    HW119244   8.577   4.332   0.747 -1.1492  2.4092  1.0168
 2925SOL    HW219245   8.426   4.287   0.705  0.2185 -0.2485 -1.2162
 2926SOL     OW19246   9.706   5.184   1.500 -0.0728  0.5794 -0.1693
 2926SOL    HW119247   9.717   5.217   1.594 -0.6763  1.4017 -0.3750
 2926SOL    HW219248   9.759   5.101   1.487  0.5798  0.8553  0.6976
 2927SOL     OW19249   4.297   1.842   0.534  0.5507  0.0950 -0.2196
 2927SOL    HW119250   4.394   1.841   0.557  0.4576 -2.9036  0.2152
 2927SOL    HW219251   4.242   1.831   0.617 -0.0557 -0.9538 -0.7424
 2928SOL     OW19252   1.235   3.646   1.407  0.1988  0.0671 -0.1241
 2928SOL    HW119253   1.303   3.573   1.396 -0.8455 -0.8983 -0.2554
 2928SOL    HW219254   1.259   3.702   1.486  1.2302 -0.1830 -0.2549
 2929SOL     OW19255   9.508   6.289   0.635 -0.2867  0.2507  0.1876
 2929SOL    HW119256   9.539   6.384   0.644 -0.5081  0.1345  2.5067
 2929SOL    HW219257   9.470   6.275   0.544  1.2176  1.9469 -0.7368
 2930SOL     OW19258   7.715   1.877   2.450 -0.3036  0.0211  0.4977
 2930SOL    HW119259   7.692   1.886   2.353 -1.1963  1.6784  0.8466
 2930SOL    HW219260   7.814   1.868   2.460 -0.2298 -0.5328 -0.5788
 2931SOL     OW19261   8.453   1.357   3.581  0.2756  0.1613  0.2608
 2931SOL    HW119262   8.467   1.267   3.623 -0.7989 -0.7878 -1.3479
 2931SOL    HW219263   8.414   1.420   3.648  0.2661 -0.8261  1.1829
 2932SOL     OW19264   8.845   8.685   0.533  0.5709 -0.2857  0.4437
 2932SOL    HW119265   8.774   8.615   0.536 -0.5561  0.8110 -0.4681
 2932SOL    HW219266   8.863   8.718   0.626  1.0038 -1.6467  0.8618
 2933SOL     OW19267   9.478   0.678   1.770  0.0233  0.0527 -0.3381
 2933SOL    HW119268   9.568   0.639   1.791 -1.4401 -2.5996  1.2662
 2933SOL    HW219269   9.457   0.750   1.836  0.3607 -0.2849  0.1400
 2934SOL     OW19270   3.139   3.750   1.225  0.2418 -0.8068  0.0140
 2934SOL    HW119271   3.164   3.680   1.158  1.3060 -0.9734  0.5801
 2934SOL    HW219272   3.071   3.712   1.289 -2.0243 -0.1489 -1.9165
 2935SOL     OW19273   8.303   7.842   2.753  0.3019 -0.5453 -0.3715
 2935SOL    HW119274   8.321   7.744   2.742  0.9419 -0.2296 -2.3397
 2935SOL    HW219275   8.375   7.895   2.708 -0.3162  0.8338  0.2267
 2936SOL     OW19276   4.121   9.057   0.258  0.2507  0.1405  0.2283
 2936SOL    HW119277   4.133   9.021   0.165 -1.8070  0.2257 -0.0997
 2936SOL    HW219278   4.102   8.982   0.321 -0.2172  0.2699  0.2416
 2937SOL     OW19279   0.885   5.801   0.748 -0.3323 -0.2924  0.3081
 2937SOL    HW119280   0.797   5.769   0.782 -1.1266  1.3969 -0.1408
 2937SOL    HW219281   0.952   5.727   0.755 -1.3382 -1.0493  2.2775
 2938SOL     OW19282   0.860   2.231   3.381  0.4292  0.1520  0.6827
 2938SOL    HW119283   0.813   2.162   3.326  0.8313  0.2865  0.1658
 2938SOL    HW219284   0.919   2.185   3.447  1.0102 -0.0042  0.0651
 2939SOL     OW19285   2.203   6.873   1.517 -0.2807  0.4597  0.1879
 2939SOL    HW119286   2.145   6.793   1.498  0.0090  0.7213 -1.9037
 2939SOL    HW219287   2.228   6.917   1.431  2.0097  1.0932  1.1528
 2940SOL     OW19288   4.571   2.878   3.894 -0.0678  0.4036 -0.5458
 2940SOL    HW119289   4.585   2.880   3.795  0.1989 -1.7080 -0.5738
 2940SOL    HW219290   4.495   2.817   3.916  1.1022 -0.6479  0.6709
 2941SOL     OW19291   3.178   7.154   0.961  0.2305 -0.4981 -0.5402
 2941SOL    HW119292   3.208   7.245   0.932 -0.2607 -0.2748 -0.3550
 2941SOL    HW219293   3.251   7.088   0.944  0.8442  0.0453 -0.0541
 2942SOL     OW19294   2.175   1.100   2.266  0.4942  1.1318 -0.9187
 2942SOL    HW119295   2.111   1.042   2.216  0.4909 -0.0689  0.4258
 2942SOL    HW219296   2.250   1.127   2.205 -0.0047  0.5042 -1.8240
 2943SOL     OW19297   7.469   9.735   0.798 -0.5499  0.3633  0.0867
 2943SOL    HW119298   7.454   9.832   0.781  0.0912  0.7261  1.4896
 2943SOL    HW219299   7.495   9.689   0.713  0.8860  1.7694 -0.2416
 2944SOL     OW19300   8.788   8.897   1.252 -0.3550 -0.0862 -0.0352
 2944SOL    HW119301   8.753   8.809   1.285  0.9868 -1.3432 -1.8524
 2944SOL    HW219302   8.853   8.934   1.319 -0.2110 -0.9341  0.3036
 2945SOL     OW19303   2.261   0.320   2.127 -0.1453  0.0998  0.6598
 2945SOL    HW119304   2.349   0.363   2.148 -0.2086 -0.3931  1.9742
 2945SOL    HW219305   2.220   0.366   2.048  1.3181  0.2922 -0.0095
 2946SOL     OW19306   2.219   0.659   0.389 -0.4796 -0.4729 -0.2512
 2946SOL    HW119307   2.310   0.652   0.432  0.5898 -1.4319 -2.5653
 2946SOL    HW219308   2.201   0.754   0.365 -1.0976  0.0768  2.2869
 2947SOL     OW19309   9.338   4.618   2.693 -0.6113 -0.0980 -0.3234
 2947SOL    HW119310   9.244   4.648   2.679 -0.4521 -0.8512 -3.4457
 2947SOL    HW219311   9.397   4.658   2.623  0.7778 -2.3547 -0.5036
 2948SOL     OW19312   9.541   6.636   1.162 -0.1629 -0.5089 -0.0456
 2948SOL    HW119313   9.466   6.611   1.100 -0.7214 -1.4664  0.9852
 2948SOL    HW219314   9.549   6.736   1.167  0.4628 -0.4254 -2.3180
 2949SOL     OW19315   1.143   7.854   2.368 -0.4737  0.0349 -0.3345
 2949SOL    HW119316   1.096   7.778   2.413 -0.5301 -1.4665 -2.8400
 2949SOL    HW219317   1.237   7.859   2.402 -0.6377 -0.7874  0.2686
 2950SOL     OW19318   8.678   4.912   3.741  0.3058 -0.4027 -0.1415
 2950SOL    HW119319   8.674   5.009   3.717  1.0434 -0.2995  0.1276
 2950SOL    HW219320   8.674   4.902   3.840  1.0675 -0.5906 -0.1271
 2951SOL     OW19321   7.977   8.295   0.189  0.4462  0.0493 -0.6533
 2951SOL    HW119322   7.879   8.315   0.195  0.4747  0.5998 -1.7561
 2951SOL    HW219323   7.997   8.256   0.099  1.5583  1.9520 -1.2676
 2952SOL     OW19324   1.904   3.422   2.240 -0.1374  0.7448 -0.0451
 2952SOL    HW119325   1.870   3.517   2.238 -2.1561  0.0834  1.2988
 2952SOL    HW219326   1.894   3.385   2.332  1.3502 -0.5569 -0.3904
 2953SOL     OW19327   2.121   1.587   3.642 -0.2467  0.2904  0.2036
 2953SOL    HW119328   2.138   1.526   3.565 -0.5841  0.1796  0.2163
 2953SOL    HW219329   2.208   1.618   3.680 -0.0843  0.3587 -0.2325
 2954SOL     OW19330   2.982   3.603   0.699 -0.6984 -0.1404 -0.0164
 2954SOL    HW119331   3.008   3.596   0.795  0.6479  0.4370 -0.3151
 2954SOL    HW219332   2.935   3.689   0.683 -1.3478 -0.4526  0.2193
 2955SOL     OW19333   4.278   5.208   2.066 -0.3017  0.3305  0.0346
 2955SOL    HW119334   4.251   5.281   2.128 -1.5420  0.1176 -0.2206
 2955SOL    HW219335   4.333   5.245   1.991 -0.0632  0.8315  0.4583
 2956SOL     OW19336   5.067   0.146   2.107 -0.0125  0.3357  0.3428
 2956SOL    HW119337   4.989   0.126   2.166  0.8924  0.4811  1.6045
 2956SOL    HW219338   5.039   0.209   2.034 -1.5692 -1.2162 -0.4540
 2957SOL     OW19339   0.308   2.341   0.632  0.1411 -0.3889 -0.0349
 2957SOL    HW119340   0.233   2.329   0.568  0.5459  2.0088 -1.0036
 2957SOL    HW219341   0.285   2.299   0.720 -2.0635 -0.1720 -0.5025
 2958SOL     OW19342   9.344   5.516   2.755  0.2549  0.1553  0.2771
 2958SOL    HW119343   9.329   5.431   2.703  2.0584 -0.2832  0.4295
 2958SOL    HW219344   9.331   5.498   2.852 -0.2191  0.2654  0.2344
 2959SOL     OW19345   0.395   8.840   3.953 -0.0808  0.0057  0.1155
 2959SOL    HW119346   0.438   8.923   3.989 -0.0289 -0.0529  0.1897
 2959SOL    HW219347   0.300   8.836   3.983  0.0605 -0.2208  0.5433
 2960SOL     OW19348   2.632   0.593   1.863 -0.5024 -0.3695 -0.1784
 2960SOL    HW119349   2.557   0.627   1.920  0.8225 -1.7354  2.5077
 2960SOL    HW219350   2.686   0.670   1.829 -1.7148  0.5098 -0.1347
 2961SOL     OW19351   2.671   7.883   1.314  0.6048  0.1854  0.2620
 2961SOL    HW119352   2.741   7.832   1.363 -0.1645 -0.0722  1.0919
 2961SOL    HW219353   2.687   7.981   1.325 -0.3264  0.1478  2.1534
 2962SOL     OW19354   8.628   3.362   3.827  0.1116 -0.5255  0.0520
 2962SOL    HW119355   8.586   3.361   3.736  0.8964 -0.3911 -0.3127
 2962SOL    HW219356   8.605   3.447   3.874 -0.5704 -0.7397  0.1109
 2963SOL     OW19357   0.663   0.690   0.543  0.6568 -0.8118  0.2845
 2963SOL    HW119358   0.563   0.697   0.548  0.6888  1.7944 -1.7145
 2963SOL    HW219359   0.687   0.607   0.491 -0.4218 -1.9660  1.5878
 2964SOL     OW19360   1.559   7.719   0.433 -0.0447 -0.4334 -0.2230
 2964SOL    HW119361   1.522   7.649   0.494  0.4766 -0.1124  0.4779
 2964SOL    HW219362   1.656   7.702   0.417  0.1320  0.2222  0.1084
 2965SOL     OW19363   9.651   6.088   0.760 -0.3671  0.3718  0.2749
 2965SOL    HW119364   9.747   6.106   0.740 -0.9153  2.7645 -0.3844
 2965SOL    HW219365   9.594   6.159   0.717 -2.4206 -0.9976  0.6601
 2966SOL     OW19366   1.966   1.852   2.014 -0.7663  0.1584 -0.1010
 2966SOL    HW119367   1.890   1.788   2.007 -1.4863  0.8771  0.9753
 2966SOL    HW219368   2.049   1.809   1.980 -1.2923 -1.2665  0.3836
 2967SOL     OW19369   7.743   1.967   1.647 -0.5375  0.2237  0.5667
 2967SOL    HW119370   7.818   1.956   1.582 -0.2245  1.3087  0.7302
 2967SOL    HW219371   7.777   2.008   1.732 -1.2786  0.6099  0.6874
 2968SOL     OW19372   9.684   4.576   1.408  0.6777  0.2771  0.3605
 2968SOL    HW119373   9.608   4.586   1.344  0.6610  0.3603  0.3943
 2968SOL    HW219374   9.712   4.480   1.412 -0.3494  0.0117  1.4054
 2969SOL     OW19375   4.604   0.147   1.586  0.3193  0.4114  0.4149
 2969SOL    HW119376   4.701   0.172   1.576  0.1007  1.1336  0.0972
 2969SOL    HW219377   4.595   0.048   1.579  1.1354  0.2796  1.2285
 2970SOL     OW19378   9.222   3.060   3.006  0.5292  0.6142  0.0655
 2970SOL    HW119379   9.255   3.088   3.096  2.2303 -1.0463 -0.0153
 2970SOL    HW219380   9.290   3.085   2.936  0.2055 -0.0157 -0.4842
 2971SOL     OW19381   0.970   7.304   2.593  0.2907 -0.4519 -0.3661
 2971SOL    HW119382   0.881   7.262   2.611 -0.1768  0.5717 -0.2899
 2971SOL    HW219383   1.042   7.235   2.606 -0.6564 -2.0095 -3.0077
 2972SOL     OW19384   9.045   5.010   3.425  0.2620  0.0139  0.5161
 2972SOL    HW119385   9.121   4.981   3.482 -0.2852 -1.9924  0.2517
 2972SOL    HW219386   8.970   5.042   3.482  0.9291  1.1094  0.7997
 2973SOL     OW19387   9.110   7.455   3.180 -0.7540  0.3746 -0.1889
 2973SOL    HW119388   9.165   7.490   3.104 -1.0157 -0.8709 -0.9671
 2973SOL    HW219389   9.159   7.470   3.266  1.7349 -2.4453 -1.0239
 2974SOL     OW19390   9.742   4.068   0.320 -0.3977  1.1412 -0.2707
 2974SOL    HW119391   9.656   4.027   0.291 -1.0559  1.8114  0.7017
 2974SOL    HW219392   9.815   4.000   0.311 -1.0738  0.4589 -0.7722
 2975SOL     OW19393   2.730   3.510   3.850 -0.0823 -0.1161 -0.0593
 2975SOL    HW119394   2.704   3.565   3.771 -1.0292 -0.0226  0.3143
 2975SOL    HW219395   2.759   3.420   3.820  0.3226  0.1816 -0.5754
 2976SOL     OW19396   4.413   2.519   2.618  0.5288  0.0784  0.3307
 2976SOL    HW119397   4.337   2.466   2.580  0.2994  1.2414 -0.8731
 2976SOL    HW219398   4.384   2.613   2.634  0.7192 -0.2907  3.1351
 2977SOL     OW19399   3.109   0.360   3.304  0.2766  0.4177 -0.2336
 2977SOL    HW119400   3.128   0.446   3.256  0.6636  0.4055 -0.1059
 2977SOL    HW219401   3.195   0.320   3.335  0.1382 -0.2802 -0.7443
 2978SOL     OW19402   8.348   7.575   2.744 -0.4192  0.3405 -0.1721
 2978SOL    HW119403   8.438   7.535   2.758 -0.5820 -0.0206 -0.1609
 2978SOL    HW219404   8.306   7.534   2.663 -1.1911 -0.5637  0.6878
 2979SOL     OW19405   2.821   5.840   0.995  0.7575  0.0563  0.2995
 2979SOL    HW119406   2.849   5.748   0.968  2.4678  0.7722 -0.4150
 2979SOL    HW219407   2.902   5.895   1.016 -0.2703  1.2957  1.0624
 2980SOL     OW19408   1.144   7.548   2.174 -0.0028  1.0077 -0.9439
 2980SOL    HW119409   1.244   7.545   2.180 -0.1239 -1.2758  0.7875
 2980SOL    HW219410   1.105   7.534   2.265 -1.9207 -2.7680 -2.2456
 2981SOL     OW19411   2.142   6.976   2.252  0.0348  0.8229 -0.6080
 2981SOL    HW119412   2.072   7.047   2.253 -1.5657 -0.7296  1.8229
 2981SOL    HW219413   2.198   6.982   2.335  0.6454 -0.0090 -0.9425
 2982SOL     OW19414   8.160   2.074   3.220 -0.5427 -0.1446 -0.2423
 2982SOL    HW119415   8.243   2.108   3.176 -1.3010  0.7888 -0.9464
 2982SOL    HW219416   8.167   2.089   3.319 -0.3489  0.9799 -0.4180
 2983SOL     OW19417   3.800   8.312   0.559 -0.2606  0.1704  0.0193
 2983SOL    HW119418   3.821   8.223   0.600  0.1740  0.7074  0.9751
 2983SOL    HW219419   3.882   8.349   0.516 -0.5353 -0.0578 -0.7072
 2984SOL     OW19420   8.443   6.515   3.154  0.0710 -0.0080  0.3380
 2984SOL    HW119421   8.525   6.504   3.097 -0.0612  1.5098 -0.1641
 2984SOL    HW219422   8.447   6.450   3.231  1.9175  0.2868  0.5130
 2985SOL     OW19423   0.844   8.640   3.146  0.3409 -0.3270 -0.2442
 2985SOL    HW119424   0.826   8.713   3.212  0.4399  0.3804 -0.9936
 2985SOL    HW219425   0.802   8.555   3.178  2.3868 -0.5799  1.9022
 2986SOL     OW19426   9.835   7.040   3.739  0.7618  0.6013 -0.2870
 2986SOL    HW119427   9.868   6.975   3.807  0.2703  1.5837  0.9094
 2986SOL    HW219428   9.907   7.107   3.719 -0.1752  2.2579  1.7174
 2987SOL     OW19429   8.749   4.600   0.803 -0.1350 -0.0107 -0.3010
 2987SOL    HW119430   8.724   4.670   0.868 -0.2061 -0.0051 -0.3345
 2987SOL    HW219431   8.782   4.519   0.851 -1.3531 -0.4618 -0.2219
 2988SOL     OW19432   1.078   5.699   0.344  0.5448  0.2109  0.5580
 2988SOL    HW119433   1.132   5.618   0.323  0.7949  0.7211 -0.8457
 2988SOL    HW219434   0.997   5.701   0.285 -0.2960  0.1661  1.6887
 2989SOL     OW19435   1.715   4.481   3.023 -0.6309  0.0109 -0.4634
 2989SOL    HW119436   1.654   4.402   3.021  1.3415 -1.5712  0.5682
 2989SOL    HW219437   1.782   4.474   2.950 -0.2290  0.5515 -0.1555
 2990SOL     OW19438   3.597   9.914   0.650  0.3278 -0.1861 -0.5527
 2990SOL    HW119439   3.608  10.010   0.623 -1.1245 -0.1186 -0.9657
 2990SOL    HW219440   3.683   9.866   0.638  1.5888  1.4890  1.4352
 2991SOL     OW19441   9.735   0.934   3.345  0.6019 -0.4188  0.0913
 2991SOL    HW119442   9.799   1.002   3.381 -0.7148  1.8282 -1.7381
 2991SOL    HW219443   9.645   0.949   3.385  0.4487 -1.5356  0.1805
 2992SOL     OW19444   0.743   8.961   1.255  0.2285 -0.7134 -0.6005
 2992SOL    HW119445   0.671   9.024   1.226 -2.3068 -1.5407  3.5588
 2992SOL    HW219446   0.807   9.009   1.315  1.5183 -0.7171 -1.9548
 2993SOL     OW19447   2.281   5.505   1.699 -0.1358  0.4256 -0.2231
 2993SOL    HW119448   2.364   5.461   1.731  0.3785  1.3223 -0.2964
 2993SOL    HW219449   2.201   5.457   1.736  0.4164 -0.1891  0.1803
 2994SOL     OW19450   8.062   1.650   3.864  0.5142  0.3693  0.1717
 2994SOL    HW119451   7.967   1.681   3.855 -0.3732 -2.1326  0.5016
 2994SOL    HW219452   8.114   1.717   3.916 -0.8101  2.2657 -0.8802
 2995SOL     OW19453   0.476   9.567   3.710  0.4877  0.7376  0.0890
 2995SOL    HW119454   0.552   9.519   3.753  0.2599  1.7187  1.6180
 2995SOL    HW219455   0.394   9.558   3.767 -0.4388  0.0544 -1.3257
 2996SOL     OW19456   4.425   7.021   2.916  0.2553  0.0239  0.1792
 2996SOL    HW119457   4.334   7.030   2.956  0.0844  1.5609 -0.5287
 2996SOL    HW219458   4.490   6.991   2.987 -0.4916  0.4639  1.0528
 2997SOL     OW19459   3.065   5.854   3.404 -0.3314 -0.5489 -0.5985
 2997SOL    HW119460   3.107   5.887   3.319 -2.7336  0.1531 -1.5481
 2997SOL    HW219461   3.085   5.918   3.478  2.9018 -1.8447 -0.2682
 2998SOL     OW19462   4.037   3.833   2.739 -0.3648 -0.1139  0.0199
 2998SOL    HW119463   4.042   3.820   2.838  0.4239 -1.5075 -0.1862
 2998SOL    HW219464   4.115   3.788   2.696 -0.4132  0.9349 -1.1987
 2999SOL     OW19465   9.614   9.923   2.540  0.0484  0.0785 -0.4038
 2999SOL    HW119466   9.707   9.905   2.571  0.1540  0.3140 -0.5879
 2999SOL    HW219467   9.553   9.851   2.575  0.2293  0.1422  0.0445
 3000SOL     OW19468   8.440   6.940   2.406 -0.2012  0.9458  0.0883
 3000SOL    HW119469   8.386   6.953   2.322 -0.8818  0.1644  0.4001
 3000SOL    HW219470   8.386   6.889   2.473  0.0492  2.2330  1.2991
 3001SOL     OW19471   8.982   6.395   0.255 -0.2948  0.5058 -0.2213
 3001SOL    HW119472   8.904   6.442   0.295 -0.9128 -0.0117 -0.8040
 3001SOL    HW219473   8.951   6.334   0.182  0.6446  0.2545 -0.4255
 3002SOL     OW19474   4.394   4.037   1.412 -0.0635  0.3793  0.0655
 3002SOL    HW119475   4.444   3.977   1.474  0.2886  0.8587  0.2459
 3002SOL    HW219476   4.296   4.018   1.419  0.1580 -1.5081 -1.2674
 3003SOL     OW19477   7.814   6.500   3.412  0.1913  0.1235 -0.0239
 3003SOL    HW119478   7.845   6.523   3.320  1.6233  0.9334  0.6329
 3003SOL    HW219479   7.803   6.401   3.419 -2.5008  0.2550 -1.8133
 3004SOL     OW19480   3.776   9.507   0.462 -0.2120  0.4403 -0.2015
 3004SOL    HW119481   3.835   9.535   0.538 -0.1905 -0.7028  0.2075
 3004SOL    HW219482   3.816   9.427   0.417 -0.5145  0.7722 -1.0660
 3005SOL     OW19483   1.613   0.595   2.529  0.2942 -0.7589  0.4038
 3005SOL    HW119484   1.706   0.564   2.510  0.5500 -0.7181  1.5620
 3005SOL    HW219485   1.564   0.525   2.582  0.5415  0.3568  2.1396
 3006SOL     OW19486   9.564   9.900   3.271 -0.2949  0.0978 -0.2943
 3006SOL    HW119487   9.644   9.840   3.260 -0.2548 -0.0286  0.6602
 3006SOL    HW219488   9.576   9.982   3.214 -0.3951 -0.8341 -1.6857
 3007SOL     OW19489   0.780   0.140   3.381 -0.4531  0.5339  0.2856
 3007SOL    HW119490   0.722   0.186   3.449  0.8366  1.9267  0.4751
 3007SOL    HW219491   0.771   0.186   3.293 -1.3335 -0.6376 -0.2466
 3008SOL     OW19492   9.248   8.512   0.544  0.3228  0.3500 -0.1813
 3008SOL    HW119493   9.295   8.508   0.457  2.9419 -1.2927  1.2459
 3008SOL    HW219494   9.176   8.442   0.547  0.6070  0.0338 -0.8234
 3009SOL     OW19495   4.464   3.649   3.596  0.5496  0.1635 -0.3388
 3009SOL    HW119496   4.406   3.675   3.519 -0.8576  0.5996  0.8673
 3009SOL    HW219497   4.409   3.609   3.668  2.2610 -3.3106 -0.8383
 3010SOL     OW19498   5.899   7.679   2.158  0.2442 -0.0496 -0.3442
 3010SOL    HW119499   5.804   7.653   2.141  0.5821 -2.2284  0.8102
 3010SOL    HW219500   5.913   7.775   2.134 -1.8658 -0.1111 -1.9439
 3011SOL     OW19501   2.893   1.874   3.556 -0.5242  0.8034 -0.0465
 3011SOL    HW119502   2.891   1.836   3.649 -0.7854 -1.9165 -1.1207
 3011SOL    HW219503   2.984   1.861   3.517 -1.1951 -0.6729 -1.1800
 3012SOL     OW19504   9.500   2.492   1.922 -0.0270  0.0579 -0.2069
 3012SOL    HW119505   9.483   2.492   1.824  0.9950 -0.5529 -0.3870
 3012SOL    HW219506   9.598   2.478   1.939 -0.5321 -2.3542  0.9438
 3013SOL     OW19507   0.332   7.768   3.632  0.1846 -0.3904 -0.4139
 3013SOL    HW119508   0.383   7.810   3.557  0.0296  1.0725  0.2610
 3013SOL    HW219509   0.396   7.742   3.705  0.1379  0.0609 -0.2064
 3014SOL     OW19510   7.894   4.883   0.470 -0.1806 -0.2586 -0.2231
 3014SOL    HW119511   7.924   4.979   0.475  0.8636 -0.6767  1.9299
 3014SOL    HW219512   7.826   4.866   0.540  0.3674 -1.3461  0.0461
 3015SOL     OW19513   2.217   0.755   0.854 -0.0297 -0.3141  0.0451
 3015SOL    HW119514   2.131   0.801   0.831  0.5845 -0.0405 -1.7279
 3015SOL    HW219515   2.202   0.657   0.861 -0.4702 -0.2720 -0.3102
 3016SOL     OW19516   1.040   6.882   2.198 -0.1424  0.8657 -0.6904
 3016SOL    HW119517   0.967   6.950   2.187 -0.4057  0.3242 -2.4223
 3016SOL    HW219518   1.008   6.794   2.163  1.2895  0.5816 -1.3023
 3017SOL     OW19519   0.645   3.478   3.413  0.3761 -0.0957 -0.4380
 3017SOL    HW119520   0.570   3.454   3.475  0.3727 -1.0516 -0.7995
 3017SOL    HW219521   0.693   3.395   3.385  1.6879  0.5314 -0.0666
 3018SOL     OW19522   3.334   4.761   1.896  0.0677  0.1018 -0.4287
 3018SOL    HW119523   3.422   4.795   1.862  0.6910 -1.3096 -0.2461
 3018SOL    HW219524   3.345   4.727   1.989 -0.5526 -0.6212 -0.6152
 3019SOL     OW19525   0.437   9.072   2.587  0.3947 -0.4045  0.0186
 3019SOL    HW119526   0.445   9.005   2.661  0.9007 -0.1809  0.1675
 3019SOL    HW219527   0.440   9.025   2.499 -2.8012 -0.9581  0.1353
 3020SOL     OW19528   1.409   7.859   2.494  0.3515  0.6230  0.3314
 3020SOL    HW119529   1.471   7.901   2.428 -1.6343 -0.2124 -2.1999
 3020SOL    HW219530   1.389   7.923   2.568 -0.4167  3.1406 -1.9706
 3021SOL     OW19531   0.742   5.713   3.857 -0.0667  0.1330 -0.8237
 3021SOL    HW119532   0.681   5.735   3.934  0.0645  3.5211 -1.6026
 3021SOL    HW219533   0.699   5.643   3.800 -0.8034 -1.3968  1.5278
 3022SOL     OW19534   1.324   0.387   3.451 -0.0220 -0.3102  0.0962
 3022SOL    HW119535   1.278   0.417   3.535 -0.6932 -0.1710 -0.3189
 3022SOL    HW219536   1.406   0.334   3.475  1.4873  2.2633  0.8628
 3023SOL     OW19537   0.461   3.401   3.579 -0.6338  0.1493 -0.0664
 3023SOL    HW119538   0.484   3.309   3.613 -1.0271 -0.6044 -1.8075
 3023SOL    HW219539   0.412   3.451   3.651 -2.8739 -1.9812 -0.0359
 3024SOL     OW19540   8.361   3.554   1.182  0.4090  0.5257  1.0786
 3024SOL    HW119541   8.282   3.498   1.160 -0.3433  1.9830 -0.0134
 3024SOL    HW219542   8.374   3.623   1.110  2.3547  0.6287  1.5002
 3025SOL     OW19543   1.588   9.516   3.783  0.1318 -0.0153  0.4265
 3025SOL    HW119544   1.663   9.547   3.841  0.0009 -0.1165  0.6523
 3025SOL    HW219545   1.625   9.481   3.697  0.3765 -0.4073  0.6854
 3026SOL     OW19546   0.739   6.951   1.445 -0.6603  0.0645  0.0041
 3026SOL    HW119547   0.680   6.924   1.521 -0.3991 -2.6651 -0.6753
 3026SOL    HW219548   0.738   7.050   1.435 -2.1326  0.3386  2.3896
 3027SOL     OW19549   9.823   8.771   3.074 -0.0204  0.2647 -0.0586
 3027SOL    HW119550   9.787   8.696   3.131 -1.4713  1.8176  1.1158
 3027SOL    HW219551   9.923   8.766   3.072  0.1146  0.5887  3.2528
 3028SOL     OW19552   0.833   9.832   2.199  0.3529 -0.2086  0.4997
 3028SOL    HW119553   0.739   9.850   2.228  0.3929  1.7534 -0.5249
 3028SOL    HW219554   0.892   9.824   2.279 -0.0968  1.9971  1.0800
 3029SOL     OW19555   1.804   4.868   1.001 -0.3587  0.2645 -0.1139
 3029SOL    HW119556   1.900   4.844   0.988 -0.5596 -0.5269 -0.1263
 3029SOL    HW219557   1.781   4.947   0.944 -0.0414 -0.3179 -1.0369
 3030SOL     OW19558   0.620   4.420   2.955 -0.4279 -0.0671 -0.2901
 3030SOL    HW119559   0.524   4.439   2.937 -1.1716 -1.1501  2.3304
 3030SOL    HW219560   0.635   4.321   2.956  0.4577  0.0652  0.5027
 3031SOL     OW19561   9.837   1.390   3.057  0.3213  0.1089  0.0306
 3031SOL    HW119562   9.826   1.489   3.052  0.1346  0.0264 -1.4346
 3031SOL    HW219563   9.934   1.367   3.043  0.1788  0.0242 -0.8730
 3032SOL     OW19564   4.218   7.661   1.312  0.2289 -0.1440 -0.2167
 3032SOL    HW119565   4.249   7.568   1.331  0.3645  0.1847  1.2115
 3032SOL    HW219566   4.265   7.725   1.373 -0.7324  0.7256 -0.3736
 3033SOL     OW19567   3.236   2.198   1.365  0.0484 -0.6029  0.2981
 3033SOL    HW119568   3.206   2.289   1.336  0.2361 -1.1753 -1.7268
 3033SOL    HW219569   3.158   2.149   1.404 -0.8263 -0.7128 -1.5121
 3034SOL     OW19570   0.939   0.354   2.507  0.0400 -0.3927  0.5643
 3034SOL    HW119571   1.013   0.380   2.569 -0.8883  1.5860  0.8787
 3034SOL    HW219572   0.852   0.355   2.557 -0.4786 -0.5727 -0.3205
 3035SOL     OW19573   4.178   4.123   1.614 -0.1608 -0.1107 -0.3444
 3035SOL    HW119574   4.270   4.162   1.626 -0.9684  2.2704 -1.4740
 3035SOL    HW219575   4.157   4.063   1.691  1.2285  1.6269  1.4365
 3036SOL     OW19576   1.344   2.958   2.840  0.0375 -0.0194  0.5599
 3036SOL    HW119577   1.355   2.909   2.754  0.9167 -0.2820  0.8155
 3036SOL    HW219578   1.247   2.974   2.857 -0.1408  0.0427 -0.4794
 3037SOL     OW19579   9.019   0.314   1.282 -0.0981  0.6160 -0.2219
 3037SOL    HW119580   9.047   0.406   1.312  2.7448 -0.5561  0.8775
 3037SOL    HW219581   8.971   0.268   1.356  0.7028  0.2847  0.0865
 3038SOL     OW19582   2.589   8.208   0.881  0.1800  0.1929  0.5841
 3038SOL    HW119583   2.610   8.269   0.959  0.6908 -0.4511  0.9573
 3038SOL    HW219584   2.594   8.260   0.796 -0.9179  1.0351  1.0223
 3039SOL     OW19585   3.752   0.028   2.540 -0.3767  0.1612  0.0228
 3039SOL    HW119586   3.653   0.033   2.525  0.0180  0.6080 -2.6481
 3039SOL    HW219587   3.796   0.110   2.505  1.2352 -1.2643 -1.4228
 3040SOL     OW19588   1.083   2.843   0.668  0.3775  0.3387  0.0209
 3040SOL    HW119589   1.057   2.749   0.691  2.1514 -0.3434 -0.5940
 3040SOL    HW219590   1.007   2.905   0.687 -0.9356 -1.2665  0.1301
 3041SOL     OW19591   8.823   3.774   1.265 -0.4058  0.2506 -0.0867
 3041SOL    HW119592   8.769   3.762   1.348 -0.6288 -0.5615 -0.3361
 3041SOL    HW219593   8.790   3.855   1.215 -1.0739  0.0474  0.0141
 3042SOL     OW19594   9.684   8.401   3.466 -0.3207  0.0847 -0.7890
 3042SOL    HW119595   9.721   8.308   3.459 -0.2855  0.0840 -0.5976
 3042SOL    HW219596   9.687   8.444   3.376  1.9314  0.7607 -0.4272
 3043SOL     OW19597   4.958   9.397   0.607 -0.3949  0.3264  0.1432
 3043SOL    HW119598   4.942   9.490   0.574 -0.4286 -0.1576 -1.2523
 3043SOL    HW219599   4.910   9.333   0.547 -0.9155 -0.5459  1.4874
 3044SOL     OW19600   2.230   8.177   0.188 -0.3275  0.5266  0.3720
 3044SOL    HW119601   2.289   8.242   0.236 -0.8361 -0.7466  2.8082
 3044SOL    HW219602   2.256   8.083   0.213 -1.9646 -0.1077 -0.2114
 3045SOL     OW19603   2.480   1.042   0.948  0.3003  0.0063 -0.4498
 3045SOL    HW119604   2.440   1.133   0.957  0.2197 -0.0543 -0.1778
 3045SOL    HW219605   2.524   1.016   1.034  1.4481  0.3131 -0.9392
 3046SOL     OW19606   1.786   6.566   1.224 -0.0444 -0.2907 -0.3191
 3046SOL    HW119607   1.751   6.498   1.159 -2.5768 -0.8333  1.5258
 3046SOL    HW219608   1.712   6.593   1.286  2.1819  0.5469  2.0407
 3047SOL     OW19609   4.536   2.026   1.995  0.8330 -0.3055 -0.0708
 3047SOL    HW119610   4.512   1.948   2.054 -1.1887  0.6731  0.4338
 3047SOL    HW219611   4.546   2.108   2.051 -0.7741  0.5637 -1.0501
 3048SOL     OW19612   2.519   6.895   1.872 -0.5717  0.0235 -0.0593
 3048SOL    HW119613   2.480   6.829   1.808  1.1495 -0.3774 -0.7287
 3048SOL    HW219614   2.471   6.889   1.960 -2.1055 -0.3164 -0.9078
 3049SOL     OW19615   9.415   9.991   1.287  1.1767 -0.0287  0.1771
 3049SOL    HW119616   9.340   9.971   1.350 -0.9129 -0.3901 -2.3389
 3049SOL    HW219617   9.403  10.083   1.249  2.3194  0.1217  0.1645
 3050SOL     OW19618   7.973   5.004   2.916  0.2588  0.4497 -0.1245
 3050SOL    HW119619   7.971   4.978   2.819  1.5741  0.8178 -0.2623
 3050SOL    HW219620   8.027   4.937   2.967  1.2186  1.3063  0.0067
 3051SOL     OW19621   8.391   2.646   3.736 -0.5437 -0.7265 -0.1931
 3051SOL    HW119622   8.410   2.676   3.830  0.8282 -2.4949  0.1135
 3051SOL    HW219623   8.292   2.637   3.724 -0.8740  1.6722  0.3871
 3052SOL     OW19624   6.774   8.455   2.967 -0.1007  0.2453 -0.2351
 3052SOL    HW119625   6.816   8.368   2.994 -0.5009 -0.6083 -2.2965
 3052SOL    HW219626   6.675   8.447   2.973 -0.1000  1.2086  1.4404
 3053SOL     OW19627   7.336   3.068   0.485 -0.2008  0.3292 -0.5389
 3053SOL    HW119628   7.344   3.149   0.427  0.4030  0.4464 -0.2987
 3053SOL    HW219629   7.322   3.097   0.580  0.1385  0.1567 -0.4356
 3054SOL     OW19630   8.565   2.413   2.849 -0.2329  0.5481 -0.0668
 3054SOL    HW119631   8.616   2.376   2.926  0.2330 -0.3413 -0.7991
 3054SOL    HW219632   8.580   2.512   2.844  1.8868  0.2404 -0.5936
 3055SOL     OW19633   2.862   9.274   2.008  0.4916  0.3148  0.0899
 3055SOL    HW119634   2.770   9.292   1.974  0.5019 -0.1269 -0.1898
 3055SOL    HW219635   2.926   9.342   1.972  0.5414 -0.2858 -0.9702
 3056SOL     OW19636   3.409   1.676   3.828 -0.3902  0.2514  0.2337
 3056SOL    HW119637   3.355   1.752   3.792 -1.8059 -0.7064  0.2960
 3056SOL    HW219638   3.396   1.595   3.770 -2.2019 -1.1403  2.4752
 3057SOL     OW19639   9.538   9.664   0.595 -0.1097 -0.1437  0.2894
 3057SOL    HW119640   9.460   9.709   0.553 -0.9544 -1.2722  0.6345
 3057SOL    HW219641   9.616   9.665   0.531 -0.1288  1.7172  0.2703
 3058SOL     OW19642   1.210   6.524   2.349 -0.1405  0.4018  0.4498
 3058SOL    HW119643   1.246   6.617   2.359  1.3334 -0.1276  0.2216
 3058SOL    HW219644   1.262   6.462   2.407  1.2462 -0.8478 -2.0286
 3059SOL     OW19645   8.296   5.223   0.395 -0.3842 -0.5013  0.0539
 3059SOL    HW119646   8.347   5.168   0.462  0.8198 -1.7584 -1.8404
 3059SOL    HW219647   8.316   5.320   0.409  1.6432 -0.8941  0.0938
 3060SOL     OW19648   8.593   1.073   0.836 -0.2924 -0.3567  0.3631
 3060SOL    HW119649   8.644   1.158   0.852 -0.1011 -0.4278  0.1368
 3060SOL    HW219650   8.559   1.072   0.742 -1.0416 -0.1355  0.6264
 3061SOL     OW19651   2.657   1.117   3.659  0.0925 -0.2520 -0.1931
 3061SOL    HW119652   2.658   1.025   3.697 -0.1719 -0.2697 -0.2277
 3061SOL    HW219653   2.728   1.172   3.703 -1.8658  0.4698  2.1807
 3062SOL     OW19654   5.016   8.374   3.376 -0.5656 -0.7086 -0.3560
 3062SOL    HW119655   4.930   8.398   3.423 -0.4796 -1.7684  0.3523
 3062SOL    HW219656   5.001   8.295   3.318  0.3158 -1.9159  1.0277
 3063SOL     OW19657   8.237   2.194   2.616 -0.4983 -0.0815  0.6640
 3063SOL    HW119658   8.141   2.212   2.595 -0.5157 -0.9393  0.0128
 3063SOL    HW219659   8.293   2.210   2.535 -0.1967 -0.4717  0.7930
 3064SOL     OW19660   9.258   6.398   0.157  0.1528 -0.6268  0.5615
 3064SOL    HW119661   9.159   6.404   0.171  0.0494 -0.4996 -0.2180
 3064SOL    HW219662   9.283   6.304   0.133  0.5161 -1.1795  2.9595
 3065SOL     OW19663   7.772   0.343   1.032  0.4017 -0.4066 -0.5811
 3065SOL    HW119664   7.678   0.338   0.998 -0.0187 -1.5878  0.7244
 3065SOL    HW219665   7.780   0.418   1.098 -0.1827 -1.7200  0.9976
 3066SOL     OW19666   8.971   5.483   0.790  0.0073 -0.0737 -0.2813
 3066SOL    HW119667   8.934   5.465   0.881 -1.2355  1.5044 -0.4453
 3066SOL    HW219668   8.988   5.396   0.743  0.9317 -0.8963  1.5435
 3067SOL     OW19669   8.170   7.709   1.974 -0.1648  0.0001 -0.4030
 3067SOL    HW119670   8.107   7.677   1.903  1.4847 -2.6340 -0.7416
 3067SOL    HW219671   8.235   7.636   1.996  2.3584  2.4272  0.4312
 3068SOL     OW19672   1.229   2.586   3.065  0.3479 -0.5905 -0.1044
 3068SOL    HW119673   1.183   2.500   3.086  1.0722 -0.5629  1.6758
 3068SOL    HW219674   1.181   2.661   3.111  1.2539 -0.3732  0.4954
 3069SOL     OW19675   2.593   0.867   0.467  0.0461  0.0794 -0.1742
 3069SOL    HW119676   2.531   0.870   0.545  0.6311  1.7709  0.2582
 3069SOL    HW219677   2.539   0.873   0.382 -0.4487  0.4459  0.1622
 3070SOL     OW19678   8.925   2.334   3.866  0.2991  0.0290 -0.4260
 3070SOL    HW119679   9.014   2.295   3.842  0.0873 -0.6486 -0.1167
 3070SOL    HW219680   8.852   2.274   3.831 -0.0161 -0.3236  0.8326
 3071SOL     OW19681   3.346   1.925   0.370  0.1954 -0.0897 -0.1034
 3071SOL    HW119682   3.353   1.827   0.391 -2.5115 -0.1185  0.9297
 3071SOL    HW219683   3.423   1.973   0.409  1.3373 -1.7542 -0.2473
 3072SOL     OW19684   2.033   8.226   1.197  0.1657  0.1670 -0.3329
 3072SOL    HW119685   2.063   8.153   1.136  0.1923 -0.4666  0.4274
 3072SOL    HW219686   2.105   8.295   1.204  0.3036  0.0644 -0.7423
 3073SOL     OW19687   4.837   9.069   1.154  0.4429 -0.9566  0.2162
 3073SOL    HW119688   4.877   9.014   1.228  0.8312  1.1220  1.6098
 3073SOL    HW219689   4.782   9.143   1.194  0.7606  0.2901 -1.5802
 3074SOL     OW19690   3.692   9.456   2.109  0.1669  0.0875  0.1904
 3074SOL    HW119691   3.726   9.451   2.015 -0.1797 -0.0293  0.0711
 3074SOL    HW219692   3.755   9.408   2.169  0.7509  0.7551  0.1179
 3075SOL     OW19693   9.265   0.249   4.033  0.2263  0.0129 -0.6541
 3075SOL    HW119694   9.181   0.278   4.081  0.4299  1.6717 -1.2577
 3075SOL    HW219695   9.240   0.188   3.958 -0.1498 -2.1127  1.1310
 3076SOL     OW19696   1.154   9.701   0.709  0.0756  0.0246  0.4193
 3076SOL    HW119697   1.209   9.766   0.761 -0.0101  0.8723 -0.5341
 3076SOL    HW219698   1.138   9.619   0.764  1.7765  0.0207  0.9163
 3077SOL     OW19699   1.891   5.143   3.980 -0.3007  0.1313 -0.3967
 3077SOL    HW119700   1.898   5.127   4.078 -1.9401 -0.3301 -0.3416
 3077SOL    HW219701   1.952   5.218   3.954  0.9290 -0.4516  0.7887
 3078SOL     OW19702   8.938   7.862   3.127  0.0861  0.2876  0.2004
 3078SOL    HW119703   8.923   7.765   3.146  1.6644  0.0476  0.3052
 3078SOL    HW219704   9.000   7.900   3.195  1.5534  0.7173 -1.3273
 3079SOL     OW19705   7.553   9.060   2.779 -0.0761 -0.1971  0.1622
 3079SOL    HW119706   7.587   8.971   2.749  0.0848 -0.4387  1.0339
 3079SOL    HW219707   7.455   9.053   2.800  0.6930 -1.1638  3.8494
 3080SOL     OW19708   1.147   4.639   2.531 -0.0995  0.1848 -1.0199
 3080SOL    HW119709   1.075   4.595   2.585 -0.5220  1.2574 -0.6833
 3080SOL    HW219710   1.130   4.738   2.528  1.0115  0.3706 -1.4713
 3081SOL     OW19711   1.176   4.317   1.477  0.0766 -0.5098 -0.2106
 3081SOL    HW119712   1.225   4.303   1.563  1.3313 -0.6487 -0.9521
 3081SOL    HW219713   1.148   4.229   1.440 -1.0369 -0.4172  0.3656
 3082SOL     OW19714   3.792   3.364   2.187 -0.4393 -0.4240  0.1481
 3082SOL    HW119715   3.752   3.310   2.261 -0.4968  2.3879  2.2750
 3082SOL    HW219716   3.816   3.455   2.222  0.1962  0.7360 -3.1378
 3083SOL     OW19717   2.929   8.804   0.548 -0.2631  0.1373 -0.7532
 3083SOL    HW119718   2.856   8.867   0.576  0.4937  0.9073 -0.4864
 3083SOL    HW219719   2.951   8.820   0.452 -0.4145 -0.0632 -0.8210
 3084SOL     OW19720   8.462   0.627   2.943 -0.4271  0.5108  1.1023
 3084SOL    HW119721   8.426   0.705   2.891  0.7027  0.6883  0.5736
 3084SOL    HW219722   8.386   0.570   2.974 -1.1119  0.2777 -0.9332
 3085SOL     OW19723   0.900   7.243   3.642 -0.4714  0.1951 -0.5177
 3085SOL    HW119724   0.929   7.242   3.546 -0.2018  2.2907 -0.4762
 3085SOL    HW219725   0.969   7.198   3.699  0.5217  1.1179 -0.9942
 3086SOL     OW19726   3.663   1.445   2.749  0.3584  0.0658  0.6177
 3086SOL    HW119727   3.709   1.441   2.838  0.3045  0.3500  0.6587
 3086SOL    HW219728   3.661   1.539   2.716  0.2799 -0.0224  0.3660
 3087SOL     OW19729   0.254   1.168   0.402  0.4188 -0.5783 -0.6370
 3087SOL    HW119730   0.215   1.260   0.389  0.3339 -0.8073 -2.1857
 3087SOL    HW219731   0.353   1.173   0.393  0.6636 -0.2226  1.9284
 3088SOL     OW19732   1.909   8.116   2.282  0.1624 -0.1751  0.0139
 3088SOL    HW119733   1.849   8.067   2.218  1.5132 -0.6633 -0.8971
 3088SOL    HW219734   1.978   8.053   2.317  2.1937  1.1434 -1.5024
 3089SOL     OW19735   4.721   3.318   3.899 -0.2478 -0.0334 -0.6272
 3089SOL    HW119736   4.717   3.417   3.896 -1.9954 -0.0921 -0.5448
 3089SOL    HW219737   4.745   3.282   3.809 -0.7799  0.4089 -0.9408
 3090SOL     OW19738   0.084   7.664   3.277  0.0497  0.2298 -0.0168
 3090SOL    HW119739   0.095   7.666   3.178 -0.1897  0.3208 -0.0431
 3090SOL    HW219740   0.170   7.639   3.320 -0.4394 -2.0917 -0.3488
 3091SOL     OW19741   3.067   6.529   3.655 -0.0449 -0.3890  0.2158
 3091SOL    HW119742   2.972   6.532   3.624 -0.3700  0.3361  1.2679
 3091SOL    HW219743   3.091   6.435   3.679 -0.3848 -0.6340 -0.3852
 3092SOL     OW19744   7.393   8.699   3.152 -0.0842 -0.3033 -0.0319
 3092SOL    HW119745   7.395   8.696   3.252  0.3253  0.3122 -0.0158
 3092SOL    HW219746   7.478   8.740   3.118  0.7987 -2.6512 -0.7306
 3093SOL     OW19747   1.724   6.500   2.979  0.0721 -0.0518 -0.0033
 3093SOL    HW119748   1.699   6.451   2.895 -2.2462  1.6213 -0.3350
 3093SOL    HW219749   1.740   6.434   3.052  0.0157 -1.4354 -1.2165
 3094SOL     OW19750   1.849   0.547   1.245  0.3647 -0.3397  0.3071
 3094SOL    HW119751   1.934   0.594   1.222 -0.2795  0.8927  0.3406
 3094SOL    HW219752   1.850   0.455   1.208  1.2466  0.0465 -0.6646
 3095SOL     OW19753   8.990   1.180   1.285 -0.6082 -0.4170 -0.1147
 3095SOL    HW119754   8.982   1.277   1.260 -0.3928 -0.4105 -0.1599
 3095SOL    HW219755   8.901   1.146   1.315 -0.9742 -0.5479 -1.3306
 3096SOL     OW19756   2.441   6.388   0.224 -0.2949  0.3114 -0.2778
 3096SOL    HW119757   2.492   6.326   0.164 -1.2304  0.9215 -1.7266
 3096SOL    HW219758   2.349   6.401   0.187 -1.5176 -0.7770  2.3081
 3097SOL     OW19759   3.340   6.904   1.662 -0.6126  0.7340  0.5380
 3097SOL    HW119760   3.307   6.906   1.567  1.0409 -0.7478 -0.0973
 3097SOL    HW219761   3.419   6.964   1.670  0.5065 -0.7086  0.4677
 3098SOL     OW19762   2.959   5.260   0.868 -0.0086  0.1373  0.2532
 3098SOL    HW119763   3.023   5.240   0.942 -0.3333  1.2424  0.8381
 3098SOL    HW219764   2.868   5.277   0.906 -0.8594 -2.2207 -0.6305
 3099SOL     OW19765   8.164   2.536   3.323  0.2453  0.6425  0.5966
 3099SOL    HW119766   8.160   2.518   3.225  0.7170 -0.7219  0.8101
 3099SOL    HW219767   8.234   2.477   3.365 -0.8412  0.2665  1.9431
 3100SOL     OW19768   3.898   5.105   1.359 -0.2315  0.3488  0.5677
 3100SOL    HW119769   3.933   5.149   1.442  0.3429  0.5858  0.2024
 3100SOL    HW219770   3.879   5.175   1.290  0.3612  0.0568  0.1035
 3101SOL     OW19771   0.492   1.700   0.326  0.3378  0.3453 -0.1537
 3101SOL    HW119772   0.486   1.613   0.375  1.5059  0.2349 -0.1731
 3101SOL    HW219773   0.584   1.709   0.286  0.8553  2.4216  1.4099
 3102SOL     OW19774   2.355   5.201   2.761 -0.4510 -0.5000 -0.4529
 3102SOL    HW119775   2.440   5.171   2.804  0.9572  2.7412 -0.8336
 3102SOL    HW219776   2.362   5.193   2.662 -1.2483 -1.8053 -0.4173
 3103SOL     OW19777   4.091   3.429   2.385 -0.0372  0.1035 -0.2824
 3103SOL    HW119778   4.189   3.443   2.402 -0.3931  1.1196  1.0349
 3103SOL    HW219779   4.065   3.478   2.302  0.5753 -0.2383 -0.6877
 3104SOL     OW19780   4.079   5.506   1.716 -0.0676  0.4059  0.6280
 3104SOL    HW119781   4.172   5.475   1.735 -0.1085  0.3226  0.6922
 3104SOL    HW219782   4.034   5.532   1.801 -0.7401 -1.3445  0.8211
 3105SOL     OW19783   8.284   2.422   0.745  0.2715  0.1307 -0.2398
 3105SOL    HW119784   8.185   2.409   0.752  0.3018 -0.8201 -1.4008
 3105SOL    HW219785   8.304   2.480   0.665  0.7304 -0.9081 -0.8835
 3106SOL     OW19786   8.053   7.690   2.802  0.0741 -0.1331 -0.3418
 3106SOL    HW119787   8.008   7.680   2.713 -0.1879  2.1524 -0.4940
 3106SOL    HW219788   8.094   7.781   2.809  0.2237 -0.3352  1.8297
 3107SOL     OW19789   7.909   5.664   3.406 -0.3283  0.3203 -0.0709
 3107SOL    HW119790   7.963   5.580   3.403  1.4786  1.4257  0.7496
 3107SOL    HW219791   7.832   5.651   3.469  0.4066 -0.4507  0.6946
 3108SOL     OW19792   0.183   2.287   1.687 -0.1934 -0.0956 -0.3266
 3108SOL    HW119793   0.160   2.268   1.783 -0.0344 -0.7637 -0.4176
 3108SOL    HW219794   0.232   2.208   1.649 -2.0190 -0.6535 -1.5530
 3109SOL     OW19795   2.890   7.446   1.983 -0.1778  0.8408  0.6067
 3109SOL    HW119796   2.904   7.385   2.061  2.2022  0.3671 -0.1592
 3109SOL    HW219797   2.853   7.394   1.906  1.2019  0.4885  0.1735
 3110SOL     OW19798   4.155   0.495   1.078 -0.1104  0.4326  0.1178
 3110SOL    HW119799   4.224   0.504   1.150 -0.5149  0.7873  0.4672
 3110SOL    HW219800   4.167   0.408   1.030 -0.0913  0.0101  0.8842
 3111SOL     OW19801   4.348   9.531   3.316 -0.1055  0.0987 -0.1542
 3111SOL    HW119802   4.315   9.589   3.390  0.7038  0.2145  0.1192
 3111SOL    HW219803   4.396   9.452   3.354 -1.4376 -0.8913 -0.5205
 3112SOL     OW19804   1.240   3.976   0.190  0.7320  0.1652 -0.7352
 3112SOL    HW119805   1.165   4.042   0.178  1.4988  0.7925 -2.2303
 3112SOL    HW219806   1.311   4.017   0.248  0.6923  0.2228 -0.7272
 3113SOL     OW19807   3.358   0.154   3.910  0.1381  0.4467  0.4910
 3113SOL    HW119808   3.451   0.155   3.873  1.1004 -0.8680  2.8048
 3113SOL    HW219809   3.354   0.207   3.994 -1.3133  0.8248  0.2041
 3114SOL     OW19810   8.050   0.462   0.772 -0.2201  0.0682  0.2115
 3114SOL    HW119811   8.053   0.380   0.829 -0.5215  0.2418  0.4792
 3114SOL    HW219812   8.095   0.537   0.819  2.8829 -0.7365 -1.3539
 3115SOL     OW19813   0.694   6.244   3.312  0.1132  0.0592 -0.3399
 3115SOL    HW119814   0.762   6.241   3.385  0.3036  2.6421 -0.3776
 3115SOL    HW219815   0.729   6.195   3.232  1.2630  0.0157  0.1807
 3116SOL     OW19816   2.687   6.635   2.181 -0.1993  0.0995  0.3297
 3116SOL    HW119817   2.591   6.660   2.178 -0.6840 -1.5864  1.6220
 3116SOL    HW219818   2.719   6.615   2.088 -1.3243 -0.2258  0.0059
 3117SOL     OW19819   9.682   8.797   3.369 -0.0230  0.1181  0.1613
 3117SOL    HW119820   9.614   8.868   3.355 -0.4918 -0.5336 -1.0186
 3117SOL    HW219821   9.773   8.837   3.369 -0.3684  0.9236  1.2133
 3118SOL     OW19822   8.532   2.353   1.302  0.1503 -0.0139 -0.4172
 3118SOL    HW119823   8.560   2.257   1.291 -0.8757 -0.2878 -0.6803
 3118SOL    HW219824   8.613   2.411   1.309  0.8070 -0.6081 -2.7218
 3119SOL     OW19825   8.795   7.469   0.571 -0.0009 -0.0906  0.5134
 3119SOL    HW119826   8.857   7.506   0.502 -0.2879 -0.5033  0.0216
 3119SOL    HW219827   8.832   7.383   0.606  0.0649  0.0356  0.7496
 3120SOL     OW19828   8.026   0.741   2.093 -0.4007  0.4042  0.2985
 3120SOL    HW119829   7.928   0.757   2.078  0.0846  0.0857 -3.5355
 3120SOL    HW219830   8.076   0.827   2.087  0.0863 -0.0479 -2.4227
 3121SOL     OW19831   9.093   7.774   2.107  0.3118  0.2754  0.6574
 3121SOL    HW119832   9.125   7.729   2.024  0.2323  1.1683  0.1379
 3121SOL    HW219833   9.011   7.827   2.088 -0.1485 -0.1327  1.4783
 3122SOL     OW19834   0.977   1.028   0.736  0.4049  0.0337  0.4758
 3122SOL    HW119835   0.949   0.932   0.738 -0.1652  0.2130  1.3554
 3122SOL    HW219836   0.991   1.061   0.829 -2.1269  1.5683  0.3588
 3123SOL     OW19837   3.094   3.642   1.709  0.4818 -0.1513 -0.4313
 3123SOL    HW119838   3.065   3.550   1.682  1.3251 -0.5288 -0.0657
 3123SOL    HW219839   3.131   3.639   1.802  0.1221  0.6363 -0.2617
 3124SOL     OW19840   3.080   0.057   1.032  0.3081  0.0281 -0.2016
 3124SOL    HW119841   3.055  -0.016   1.096  0.8166 -1.2664 -1.4591
 3124SOL    HW219842   3.179   0.073   1.037  0.3201  0.0506 -0.5315
 3125SOL     OW19843   0.153   4.661   1.921  0.1122 -0.2549 -0.2883
 3125SOL    HW119844   0.059   4.690   1.938 -0.0233 -0.3602 -0.8449
 3125SOL    HW219845   0.153   4.587   1.853  0.6945  0.6159 -1.2375
 3126SOL     OW19846   0.322   8.354   3.083 -0.5740  0.1187  0.5660
 3126SOL    HW119847   0.232   8.398   3.090 -0.4661  0.1606  1.9628
 3126SOL    HW219848   0.312   8.256   3.096 -0.6533 -0.1172 -1.2394
 3127SOL     OW19849   4.827   2.558   2.021  0.6187  0.3655 -0.0593
 3127SOL    HW119850   4.861   2.479   2.072  0.5591 -0.7989 -1.7952
 3127SOL    HW219851   4.805   2.530   1.928 -1.3911  1.9785 -0.0846
 3128SOL     OW19852   0.980   3.422   0.399  0.4440  0.2954  0.0486
 3128SOL    HW119853   0.926   3.345   0.364  0.4995  0.7739 -1.1097
 3128SOL    HW219854   1.048   3.388   0.464 -0.6868 -0.4173  0.8881
 3129SOL     OW19855   8.339   4.133   0.779  0.3663  0.3745  0.1865
 3129SOL    HW119856   8.341   4.109   0.876  0.2659 -2.0495 -0.3921
 3129SOL    HW219857   8.372   4.056   0.725 -0.5334  1.3490 -1.7909
 3130SOL     OW19858   3.396   3.018   1.646  0.1737 -0.9348 -0.3550
 3130SOL    HW119859   3.305   3.005   1.686  0.2120 -1.6226 -0.4963
 3130SOL    HW219860   3.390   3.007   1.547  0.2428 -0.0811 -0.4604
 3131SOL     OW19861   1.360   3.320   2.214  0.0502 -0.5143  0.5309
 3131SOL    HW119862   1.327   3.237   2.169  0.3800 -0.1270 -0.4395
 3131SOL    HW219863   1.415   3.296   2.293 -1.4985 -1.1926  1.4156
 3132SOL     OW19864   3.280   3.295   1.255  0.3534 -0.0135 -0.2390
 3132SOL    HW119865   3.197   3.255   1.294 -0.4947  2.2277  0.3465
 3132SOL    HW219866   3.343   3.317   1.329  0.6587  0.0651 -0.5254
 3133SOL     OW19867   9.473   5.610   0.935  0.0043  0.0678 -0.2153
 3133SOL    HW119868   9.530   5.692   0.934  1.6156 -0.9975  0.6927
 3133SOL    HW219869   9.425   5.604   1.022 -0.5494  0.3519 -0.5054
 3134SOL     OW19870   3.647   4.220   3.994  0.4143  0.2055 -0.0589
 3134SOL    HW119871   3.622   4.124   3.981  1.0163  0.1486 -0.8850
 3134SOL    HW219872   3.648   4.266   3.905  2.1971  0.4551  0.0748
 3135SOL     OW19873   3.461   2.605   3.768  0.4341 -0.2669 -0.4978
 3135SOL    HW119874   3.412   2.647   3.691  1.0960 -1.1512 -1.4207
 3135SOL    HW219875   3.511   2.676   3.818 -0.6713  0.4357 -0.3761
 3136SOL     OW19876   1.335   9.047   2.092 -0.1343  0.4007  0.8871
 3136SOL    HW119877   1.271   8.972   2.072  1.0897 -0.5998  0.6438
 3136SOL    HW219878   1.422   9.009   2.123  0.8485  1.6963 -0.2034
 3137SOL     OW19879   1.511   3.715   0.299 -0.0437 -0.6553 -0.6625
 3137SOL    HW119880   1.563   3.687   0.380  0.7267  1.4086 -0.4134
 3137SOL    HW219881   1.459   3.798   0.319 -1.2887 -1.1436 -1.7539
 3138SOL     OW19882   8.708   6.278   0.190 -0.0164 -0.0407  0.0496
 3138SOL    HW119883   8.789   6.232   0.152  0.6044 -0.1073  1.4439
 3138SOL    HW219884   8.714   6.376   0.172  0.7993  0.0701  0.8968
 3139SOL     OW19885   4.051   4.202   2.208 -0.3800 -1.1652 -0.2921
 3139SOL    HW119886   3.999   4.235   2.130 -3.1338  2.1857  2.7704
 3139SOL    HW219887   3.993   4.146   2.267  0.4664 -0.4526  1.2763
 3140SOL     OW19888   1.470   4.901   3.973  0.0702  0.1968 -0.3198
 3140SOL    HW119889   1.526   4.909   3.891 -0.0994 -0.2738 -0.4881
 3140SOL    HW219890   1.514   4.838   4.038 -1.3092 -1.9097 -1.3729
 3141SOL     OW19891   1.840   0.119   2.265 -0.7280 -0.4100 -0.7403
 3141SOL    HW119892   1.936   0.095   2.283 -1.5693 -1.6035  2.3956
 3141SOL    HW219893   1.808   0.069   2.184  0.1008 -3.2094  0.6252
 3142SOL     OW19894   1.578   6.024   2.303 -0.8271 -0.0748 -0.5342
 3142SOL    HW119895   1.527   6.110   2.290 -0.7831 -0.1357 -1.1055
 3142SOL    HW219896   1.674   6.045   2.322 -0.9116  0.0168 -0.2001
 3143SOL     OW19897   3.688   3.159   2.874 -0.0023 -0.3207 -0.1474
 3143SOL    HW119898   3.649   3.158   2.782 -0.3145 -0.2896 -0.0169
 3143SOL    HW219899   3.641   3.228   2.930  2.8876  2.5702 -1.1232
 3144SOL     OW19900   8.687   5.500   3.763 -0.3241  0.2686 -0.4605
 3144SOL    HW119901   8.658   5.584   3.808  0.5043 -0.6630  1.9383
 3144SOL    HW219902   8.695   5.515   3.665 -0.6277  2.8468 -0.1230
 3145SOL     OW19903   0.008   3.629   0.748  0.1287  0.2973 -0.4474
 3145SOL    HW119904   0.050   3.713   0.713 -0.3935  0.7902  0.1030
 3145SOL    HW219905  -0.066   3.652   0.810  0.0115 -0.5777 -0.2557
 3146SOL     OW19906   2.907   3.892   0.679 -0.6629 -0.2540 -0.3599
 3146SOL    HW119907   2.956   3.884   0.765  0.8130  1.6365 -1.0035
 3146SOL    HW219908   2.860   3.980   0.675 -1.7527 -0.8511 -0.9665
 3147SOL     OW19909   2.467   7.033   1.445  0.0741  0.0470 -0.2778
 3147SOL    HW119910   2.406   7.045   1.523 -0.6702  3.0854 -1.2556
 3147SOL    HW219911   2.433   7.085   1.367  2.2725 -0.7135 -1.8059
 3148SOL     OW19912   1.197   3.006   0.437  0.6958 -0.0101 -0.2778
 3148SOL    HW119913   1.166   2.941   0.505 -0.5567  0.1308 -0.7047
 3148SOL    HW219914   1.173   3.099   0.465  1.9288  0.2332  0.0295
 3149SOL     OW19915   8.624   0.825   1.226 -0.4216  0.0010  0.2558
 3149SOL    HW119916   8.690   0.755   1.254 -0.1432  0.1581 -0.0047
 3149SOL    HW219917   8.621   0.830   1.127  0.3964  1.1467  0.2757
 3150SOL     OW19918   3.185   7.465   3.683 -0.2175  0.0663 -0.4582
 3150SOL    HW119919   3.230   7.388   3.636 -0.6603  1.0725 -2.5759
 3150SOL    HW219920   3.254   7.534   3.706  0.0299 -0.5112  0.6157
 3151SOL     OW19921   5.381   7.479   2.856  0.5972  0.2241 -0.7515
 3151SOL    HW119922   5.300   7.447   2.807  1.6717 -0.2339 -2.2543
 3151SOL    HW219923   5.459   7.421   2.833  1.6698  1.5081 -0.3856
 3152SOL     OW19924   0.256   4.081   1.012 -0.0662  0.1224  0.2979
 3152SOL    HW119925   0.159   4.104   1.007 -0.0035  0.8590  1.9680
 3152SOL    HW219926   0.310   4.165   1.005  0.5017 -0.4101 -1.8021
 3153SOL     OW19927   4.842   9.369   1.499  0.1717 -0.2048  0.0161
 3153SOL    HW119928   4.821   9.279   1.462  0.5392 -0.4910  0.4852
 3153SOL    HW219929   4.767   9.401   1.557 -0.5936  0.4379 -1.3264
 3154SOL     OW19930   2.267   6.360   2.883 -0.1749 -0.2606  0.5625
 3154SOL    HW119931   2.275   6.381   2.980 -2.3939 -0.7837  0.9078
 3154SOL    HW219932   2.290   6.440   2.829  1.7250 -0.1571  1.4790
 3155SOL     OW19933   9.551   3.486   0.127 -0.2331 -0.4637  0.0590
 3155SOL    HW119934   9.627   3.464   0.189  0.3581  0.2464 -0.3981
 3155SOL    HW219935   9.520   3.404   0.081  0.8708 -0.6152 -0.4331
 3156SOL     OW19936   9.881   1.886   2.408  0.3269 -0.2804  0.4339
 3156SOL    HW119937   9.830   1.969   2.386 -1.3091 -1.4314 -0.1930
 3156SOL    HW219938   9.925   1.851   2.325 -0.7787 -1.2262  0.2344
 3157SOL     OW19939   2.411   1.056   3.600 -0.3727  0.0331  0.1787
 3157SOL    HW119940   2.417   0.958   3.583 -0.3286 -0.1431  1.1901
 3157SOL    HW219941   2.501   1.091   3.625 -0.2344  0.4740 -0.9083
 3158SOL     OW19942   0.878   2.404   2.100 -0.1202 -0.5380 -0.0846
 3158SOL    HW119943   0.852   2.490   2.143  0.1289  0.4290 -1.7970
 3158SOL    HW219944   0.962   2.370   2.141  0.3562  0.5995 -0.1015
 3159SOL     OW19945   1.414   5.484   1.883 -0.9786  0.1298 -0.0488
 3159SOL    HW119946   1.429   5.563   1.823  0.2321  1.3945  1.8360
 3159SOL    HW219947   1.376   5.515   1.970  1.6747 -1.0146  1.6054
 3160SOL     OW19948   8.979   2.347   3.217  0.4330  0.5793 -0.1064
 3160SOL    HW119949   8.943   2.255   3.203  0.5621  0.4386  0.4857
 3160SOL    HW219950   9.078   2.343   3.226  0.5332  0.8910 -1.0651
 3161SOL     OW19951   7.939   7.660   4.016 -0.0783 -0.4959  0.0247
 3161SOL    HW119952   8.015   7.662   4.080  0.1743 -1.4569 -0.2408
 3161SOL    HW219953   7.958   7.595   3.942 -2.3219 -2.8130  1.4179
 3162SOL     OW19954   9.981   0.551   2.417 -0.2500 -0.3466 -0.6294
 3162SOL    HW119955   9.906   0.488   2.396 -1.7158  1.1630 -0.0737
 3162SOL    HW219956   9.971   0.585   2.511  0.5585  0.6292 -0.8805
 3163SOL     OW19957   3.459   9.364   2.449 -0.0744  0.0904 -0.0052
 3163SOL    HW119958   3.479   9.368   2.547 -0.4827 -0.9754  0.1378
 3163SOL    HW219959   3.502   9.282   2.410  1.8550  1.6269 -1.1546
 3164SOL     OW19960   2.161   8.213   1.853 -0.2352 -0.6134  0.0777
 3164SOL    HW119961   2.139   8.302   1.814  0.2123 -0.5836 -0.1090
 3164SOL    HW219962   2.079   8.175   1.897  0.1396  0.8924  2.1659
 3165SOL     OW19963   4.279   3.742   3.378  0.1083  0.4577 -0.8956
 3165SOL    HW119964   4.230   3.703   3.301 -1.8620  1.2252 -0.0598
 3165SOL    HW219965   4.221   3.808   3.425  0.4998 -1.5054  2.4952
 3166SOL     OW19966   8.146   6.336   1.588 -0.1774  0.2575  0.5595
 3166SOL    HW119967   8.105   6.310   1.676  0.9380 -1.2703  0.6465
 3166SOL    HW219968   8.074   6.362   1.524 -1.0349  0.8666  1.7547
 3167SOL     OW19969   4.216   8.125   2.516 -0.2632 -0.1330  0.1563
 3167SOL    HW119970   4.120   8.129   2.487 -0.1355 -0.6981 -0.3535
 3167SOL    HW219971   4.275   8.145   2.438  0.1015 -2.1821 -0.1257
 3168SOL     OW19972   3.531   8.883   2.055 -0.3811 -0.3384  0.6438
 3168SOL    HW119973   3.612   8.880   2.114 -0.2175  0.7818  0.5017
 3168SOL    HW219974   3.512   8.978   2.031 -0.9823 -0.7168 -0.3847
 3169SOL     OW19975   3.199   9.572   3.453  0.4638 -0.1428  0.5595
 3169SOL    HW119976   3.296   9.593   3.439 -0.0115  0.3732 -2.1406
 3169SOL    HW219977   3.143   9.650   3.422 -0.8446 -0.7721  1.3119
 3170SOL     OW19978   1.913   2.394   3.015 -0.0634  0.0726 -0.1534
 3170SOL    HW119979   1.865   2.477   3.044 -1.3423 -0.3632 -0.9959
 3170SOL    HW219980   1.912   2.328   3.090  0.8271  0.7480  0.4670
 3171SOL     OW19981   4.332   6.848   3.424  0.8317  0.4575  0.0415
 3171SOL    HW119982   4.418   6.841   3.373  1.8103 -2.5731  2.0108
 3171SOL    HW219983   4.259   6.803   3.372  0.4986  2.5217 -1.3566
 3172SOL     OW19984   4.356   8.956   3.256 -0.1977 -0.0553  0.0826
 3172SOL    HW119985   4.341   9.012   3.337  0.1863 -0.8589  0.7181
 3172SOL    HW219986   4.288   8.883   3.252 -0.5734  0.3328 -0.6331
 3173SOL     OW19987   7.134   8.953   0.144 -0.4104  0.3941 -0.6284
 3173SOL    HW119988   7.162   8.885   0.076 -1.4728  1.2822 -1.9843
 3173SOL    HW219989   7.102   8.906   0.227 -0.0226 -0.7239 -1.0975
 3174SOL     OW19990   3.758   1.043   1.096 -0.3069  0.5785 -0.3870
 3174SOL    HW119991   3.804   1.007   1.177  0.4869 -0.8084 -1.4178
 3174SOL    HW219992   3.681   0.983   1.072 -0.8122  1.2273 -0.3961
 3175SOL     OW19993   2.510   8.125   3.821  0.1847  0.0869  1.4335
 3175SOL    HW119994   2.536   8.203   3.879  0.0600  2.3461 -1.4157
 3175SOL    HW219995   2.576   8.116   3.747 -1.4943 -0.6268  0.0049
 3176SOL     OW19996   9.137   6.875   2.240 -0.5198 -0.2330 -0.2275
 3176SOL    HW119997   9.202   6.806   2.270  1.0226  1.6769  0.9868
 3176SOL    HW219998   9.076   6.899   2.316 -0.8080  0.0220 -0.5332
 3177SOL     OW19999   0.308   7.004   3.768 -0.1821 -0.1649  0.2563
 3177SOL    HW120000   0.342   7.015   3.674 -1.7003 -0.7740 -0.3722
 3177SOL    HW220001   0.362   6.935   3.815  1.4101  1.0352  0.2559
 3178SOL     OW20002   4.856   0.122   1.508  0.2006 -0.2189 -0.5315
 3178SOL    HW120003   4.840   0.129   1.410  0.1550 -1.3453 -0.6059
 3178SOL    HW220004   4.856   0.026   1.536 -3.1539  0.1900  1.1475
 3179SOL     OW20005   8.946   4.197   3.486 -0.1827  0.7621 -0.0051
 3179SOL    HW120006   8.895   4.145   3.554  1.1393  0.9836  1.1713
 3179SOL    HW220007   8.962   4.290   3.519  2.7235  0.1290  0.5842
 3180SOL     OW20008   1.937   6.185   3.653 -0.1718 -0.3492  0.2408
 3180SOL    HW120009   1.868   6.123   3.614 -1.2904 -0.1941  1.9046
 3180SOL    HW220010   1.891   6.261   3.699  1.1401  0.2912  0.5131
 3181SOL     OW20011   0.297   7.166   0.697  0.0894 -0.7704 -0.2046
 3181SOL    HW120012   0.377   7.119   0.658  0.5953  0.0887 -0.2167
 3181SOL    HW220013   0.217   7.106   0.691  0.3016 -0.9041 -1.9763
 3182SOL     OW20014   0.744   9.054   2.928 -0.1936 -0.0471  0.2677
 3182SOL    HW120015   0.784   9.033   3.018 -0.8187 -0.0273  0.5573
 3182SOL    HW220016   0.806   9.114   2.877  0.3724 -0.4188  0.5077
 3183SOL     OW20017   3.874   4.028   2.305  0.1064 -0.2577  0.4388
 3183SOL    HW120018   3.824   3.984   2.231 -1.7023  0.6459  1.1040
 3183SOL    HW220019   3.810   4.075   2.366  1.7027  0.3658  1.6784
 3184SOL     OW20020   2.261   5.178   3.758 -0.3655 -0.4552 -0.4936
 3184SOL    HW120021   2.261   5.244   3.682  0.7074  1.1183  0.8430
 3184SOL    HW220022   2.229   5.090   3.725 -1.4523  0.6298 -2.4216
 3185SOL     OW20023   1.304   0.488   0.571 -0.2061  0.3341  0.1356
 3185SOL    HW120024   1.311   0.413   0.505  0.0985 -0.5236  1.1421
 3185SOL    HW220025   1.396   0.516   0.598 -0.3587 -1.0136  2.1094
 3186SOL     OW20026   1.156   3.298   3.453  0.2085 -0.0905  0.4337
 3186SOL    HW120027   1.117   3.382   3.490  0.2730 -0.0410  0.3907
 3186SOL    HW220028   1.214   3.320   3.374 -2.5189 -0.5165 -1.7603
 3187SOL     OW20029   9.899   8.889   1.561  0.2510 -0.5825 -0.1069
 3187SOL    HW120030   9.827   8.821   1.550  0.9729 -1.3207 -0.3690
 3187SOL    HW220031   9.949   8.899   1.475  0.1146  0.3278 -0.0874
 3188SOL     OW20032   1.783   8.949   3.162  0.0103 -0.5731  0.2499
 3188SOL    HW120033   1.859   8.888   3.140 -0.2226 -0.6367 -0.3854
 3188SOL    HW220034   1.700   8.895   3.177  0.4449 -0.6391  2.5952
 3189SOL     OW20035   0.820   5.274   2.889 -0.0564 -0.4026  0.1773
 3189SOL    HW120036   0.907   5.313   2.920  1.0771 -1.5194 -1.4871
 3189SOL    HW220037   0.828   5.175   2.883 -1.4192 -0.5076 -0.0773
 3190SOL     OW20038   4.834   8.064   1.600 -0.5004 -0.3838  0.0584
 3190SOL    HW120039   4.774   8.144   1.592 -0.9415 -0.9384 -2.7585
 3190SOL    HW220040   4.780   7.980   1.596  0.0725 -0.8646  1.9065
 3191SOL     OW20041   3.334   8.852   3.541  0.1060  0.6696 -0.7901
 3191SOL    HW120042   3.289   8.805   3.616  1.2853  1.0129  0.1477
 3191SOL    HW220043   3.343   8.790   3.463 -1.6773  0.5066 -0.8905
 3192SOL     OW20044   0.090   8.594   1.975 -0.0544  0.3582 -0.1648
 3192SOL    HW120045   0.048   8.614   1.887  1.3678 -0.1046 -0.9662
 3192SOL    HW220046   0.133   8.677   2.011  0.3511  0.2815 -0.4632
 3193SOL     OW20047   1.523   7.041   2.334  0.3456  0.9274 -0.1897
 3193SOL    HW120048   1.503   7.065   2.239 -1.2877 -0.6725 -0.2813
 3193SOL    HW220049   1.507   6.943   2.348  1.4614  0.9664  1.5140
 3194SOL     OW20050   2.326   4.122   2.940 -0.7216  0.5462 -0.0616
 3194SOL    HW120051   2.368   4.059   2.875 -1.1448 -0.4664  0.6198
 3194SOL    HW220052   2.395   4.184   2.976  0.7120 -2.4508  2.6162
 3195SOL     OW20053   1.938   6.590   1.885 -0.2977  0.1147 -0.3609
 3195SOL    HW120054   1.993   6.507   1.886 -0.3057  0.1132  0.5939
 3195SOL    HW220055   1.923   6.621   1.979 -1.6168  0.3206 -0.6300
 3196SOL     OW20056   1.501   1.400   1.290  0.5133  0.2660 -0.0296
 3196SOL    HW120057   1.425   1.463   1.308  0.4690 -0.3195  1.9286
 3196SOL    HW220058   1.543   1.423   1.202 -1.5252  1.0009 -0.8438
 3197SOL     OW20059   3.429   4.675   1.508  1.0114 -0.4115 -0.8632
 3197SOL    HW120060   3.519   4.633   1.511  0.6773 -1.0486  0.6475
 3197SOL    HW220061   3.360   4.608   1.534  0.2503  0.4749 -0.5641
 3198SOL     OW20062   0.507   2.913   1.109  0.0824 -0.2654  0.1152
 3198SOL    HW120063   0.430   2.850   1.115  0.5857 -0.7639  1.4775
 3198SOL    HW220064   0.581   2.869   1.058  0.1279 -0.4706  0.3551
 3199SOL     OW20065   9.044   5.208   3.227 -0.0529  0.4176 -0.5468
 3199SOL    HW120066   9.046   5.113   3.259  2.9992  0.6540  0.0832
 3199SOL    HW220067   9.042   5.209   3.127 -0.1252 -0.3226 -0.5567
 3200SOL     OW20068   0.488   5.616   3.480  0.0476  0.2637 -0.4757
 3200SOL    HW120069   0.500   5.573   3.391 -1.1712  1.0610 -1.0393
 3200SOL    HW220070   0.577   5.647   3.514  0.3268  1.3055 -2.1038
 3201SOL     OW20071   1.483   1.412   0.937 -0.2515 -0.2956  0.6195
 3201SOL    HW120072   1.489   1.482   1.008 -0.0991 -1.1494  1.4600
 3201SOL    HW220073   1.542   1.436   0.860 -1.6867  1.4694  0.0487
 3202SOL     OW20074   2.464   0.857   2.036 -0.3118 -0.0055 -0.0754
 3202SOL    HW120075   2.538   0.828   2.096 -0.3429  0.4216  0.1681
 3202SOL    HW220076   2.378   0.819   2.069 -0.0745 -1.2812 -0.8944
 3203SOL     OW20077   9.669   5.284   1.264 -0.0724 -0.3127  0.2521
 3203SOL    HW120078   9.685   5.263   1.360 -0.5000  0.3862  0.4806
 3203SOL    HW220079   9.620   5.209   1.220 -0.3827 -0.3831  0.7220
 3204SOL     OW20080   0.653   3.417   2.374 -0.6037 -0.1489  0.2216
 3204SOL    HW120081   0.588   3.405   2.450 -0.1233 -0.3341  0.6058
 3204SOL    HW220082   0.627   3.497   2.321 -0.5505  0.3799  0.9825
 3205SOL     OW20083   2.778   8.276   2.120 -0.2227 -0.2045 -0.3870
 3205SOL    HW120084   2.740   8.233   2.202 -0.2112  1.4762  0.5215
 3205SOL    HW220085   2.878   8.272   2.124 -0.2185  0.1374 -0.1866
 3206SOL     OW20086   3.411   3.715   1.295 -0.0285 -0.3440 -0.2942
 3206SOL    HW120087   3.326   3.752   1.257 -0.0977 -1.4609 -1.2337
 3206SOL    HW220088   3.489   3.750   1.243 -0.0401 -0.8700 -0.6641
 3207SOL     OW20089   4.615   3.277   2.653 -0.4971 -0.2524  0.2234
 3207SOL    HW120090   4.536   3.300   2.595 -0.9475 -2.4126 -0.0807
 3207SOL    HW220091   4.586   3.277   2.749 -0.9787 -1.3325  0.0944
 3208SOL     OW20092   1.488   7.037   3.706  0.1897 -0.4186 -0.2930
 3208SOL    HW120093   1.414   7.098   3.732 -0.4903 -1.3876  0.0513
 3208SOL    HW220094   1.576   7.085   3.717 -0.2263 -0.0327  1.5474
 3209SOL     OW20095   4.410   9.355   2.400  0.2068  0.6266  0.2597
 3209SOL    HW120096   4.359   9.276   2.364  0.3430  0.0858  1.2248
 3209SOL    HW220097   4.486   9.322   2.456  2.4962  1.3929 -2.2864
 3210SOL     OW20098   3.472   3.754   2.581 -0.1455  0.2518  0.1836
 3210SOL    HW120099   3.485   3.809   2.663 -1.5369 -1.7608  1.8267
 3210SOL    HW220100   3.556   3.705   2.559  0.3220  1.0415  0.2165
 3211SOL     OW20101   9.724   0.620   1.307 -0.0784 -0.2023 -0.5562
 3211SOL    HW120102   9.799   0.617   1.373  0.5760  0.4419 -1.2620
 3211SOL    HW220103   9.687   0.528   1.295 -0.0514 -0.3662  0.5210
 3212SOL     OW20104   7.572   8.701   2.875  0.4939 -0.7137 -0.2453
 3212SOL    HW120105   7.615   8.700   2.965  0.3213 -1.4680 -0.1656
 3212SOL    HW220106   7.640   8.725   2.806 -0.1069  3.3083  0.4325
 3213SOL     OW20107   2.116   1.122   1.912 -0.3186  0.3264  0.2345
 3213SOL    HW120108   2.053   1.095   1.985 -0.3588 -0.1428  0.0291
 3213SOL    HW220109   2.090   1.212   1.877  0.0815  0.8435  1.2313
 3214SOL     OW20110   9.259   7.147   1.900  0.5698 -0.2610  0.1347
 3214SOL    HW120111   9.184   7.083   1.915 -0.2308  0.9542  1.4438
 3214SOL    HW220112   9.322   7.143   1.978  1.6964 -1.0394 -0.8055
 3215SOL     OW20113   7.801   9.822   2.147 -0.6612  0.3529  0.4504
 3215SOL    HW120114   7.765   9.854   2.059  0.5085  2.7481  0.7966
 3215SOL    HW220115   7.744   9.747   2.181 -1.5232 -0.1683 -2.0179
 3216SOL     OW20116   9.783   9.138   1.627  0.3093  0.6866  0.3210
 3216SOL    HW120117   9.787   9.191   1.542  0.1662 -0.2403 -0.2838
 3216SOL    HW220118   9.842   9.058   1.618  0.6105  0.8023  1.2584
 3217SOL     OW20119   4.034   8.952   2.403  0.4370 -0.1057  0.3825
 3217SOL    HW120120   4.056   8.931   2.307  2.2740  3.1931  0.0083
 3217SOL    HW220121   3.945   8.996   2.408 -0.0109 -0.9890  0.2992
 3218SOL     OW20122   7.383   9.370   0.534  0.3870 -0.1112  0.1628
 3218SOL    HW120123   7.306   9.368   0.598  0.6578  0.9655  0.5395
 3218SOL    HW220124   7.427   9.280   0.532 -0.6962 -0.6518  0.1653
 3219SOL     OW20125   9.506   6.949   1.209 -0.5784 -0.3509 -0.3525
 3219SOL    HW120126   9.448   7.030   1.210 -0.5823 -0.3287  2.3128
 3219SOL    HW220127   9.570   6.953   1.286  0.2412 -2.2802 -0.9033
 3220SOL     OW20128   0.063   9.273   3.700 -0.2549  0.4577 -0.1492
 3220SOL    HW120129   0.097   9.358   3.659  1.3426 -0.0080  0.1930
 3220SOL    HW220130   0.001   9.228   3.636 -0.8875  1.7297 -0.4515
 3221SOL     OW20131   1.462   0.687   3.630  0.2026  0.1835 -0.2052
 3221SOL    HW120132   1.472   0.634   3.714 -0.1785 -0.7593 -0.7479
 3221SOL    HW220133   1.520   0.768   3.635 -1.5720  1.3908  1.9680
 3222SOL     OW20134   3.883   8.207   2.328 -0.0475  0.0410  0.6414
 3222SOL    HW120135   3.940   8.218   2.247  2.0161 -0.7414  1.9487
 3222SOL    HW220136   3.879   8.110   2.352 -0.2792  0.3184  1.7317
 3223SOL     OW20137   7.832   2.882   0.656  0.0360  0.0215 -0.0331
 3223SOL    HW120138   7.735   2.888   0.632  0.1041 -0.6718 -0.4869
 3223SOL    HW220139   7.882   2.956   0.611 -0.0448 -0.5091 -1.0107
 3224SOL     OW20140   2.433   6.989   0.328 -0.8697 -0.4453 -0.4195
 3224SOL    HW120141   2.459   6.970   0.423 -0.6100 -0.5361 -0.5070
 3224SOL    HW220142   2.494   6.938   0.266  0.4808  1.4700 -0.6834
 3225SOL     OW20143   3.465   6.895   2.603  0.6313 -0.0714  0.0618
 3225SOL    HW120144   3.556   6.909   2.642  0.0698 -0.6057  1.6175
 3225SOL    HW220145   3.401   6.957   2.647 -0.1842 -1.2971  0.6211
 3226SOL     OW20146   7.432   0.519   3.197  0.4866 -0.1473 -0.1041
 3226SOL    HW120147   7.459   0.508   3.292 -1.1845 -3.3001  0.0608
 3226SOL    HW220148   7.513   0.539   3.141  1.5127  1.4785  1.8734
 3227SOL     OW20149   8.342   1.459   0.417  0.0945  0.0666  0.0545
 3227SOL    HW120150   8.409   1.397   0.457 -0.0263 -0.3127 -0.3263
 3227SOL    HW220151   8.280   1.407   0.358  0.1052  0.5784 -0.4105
 3228SOL     OW20152   1.995   4.484   3.943 -0.1823 -0.3394 -0.2944
 3228SOL    HW120153   1.959   4.431   3.867 -1.5098  0.9944 -0.6060
 3228SOL    HW220154   1.979   4.435   4.029 -0.5629 -0.8762 -0.6755
 3229SOL     OW20155   1.411   7.483   2.192 -0.2825 -0.9227 -0.3081
 3229SOL    HW120156   1.402   7.424   2.112  1.0721  0.0038 -1.1742
 3229SOL    HW220157   1.509   7.496   2.213 -0.6053 -0.6473  1.1178
 3230SOL     OW20158   0.218   8.947   0.982 -0.3414  0.1466  0.1009
 3230SOL    HW120159   0.252   8.870   1.037  0.7419 -1.3718 -2.5802
 3230SOL    HW220160   0.285   9.021   0.982 -1.2635  0.9943  2.4763
 3231SOL     OW20161   5.888   7.454   2.324  0.1492  0.0524 -0.2646
 3231SOL    HW120162   5.902   7.535   2.265 -0.9605  0.7676  0.4408
 3231SOL    HW220163   5.964   7.447   2.388 -0.5969  1.5394  0.8100
 3232SOL     OW20164   8.444   3.340   2.276 -0.0239 -0.0818 -0.3071
 3232SOL    HW120165   8.540   3.314   2.271  0.5903  2.0465  0.1006
 3232SOL    HW220166   8.398   3.285   2.346  1.5148  0.7857  1.4083
 3233SOL     OW20167   3.401   0.482   1.467 -0.5781 -0.0582 -0.5445
 3233SOL    HW120168   3.434   0.389   1.481 -0.9334  0.0264  1.0314
 3233SOL    HW220169   3.309   0.480   1.427  1.3126 -0.2903 -5.0481
 3234SOL     OW20170   1.431   3.411   3.080  0.0031 -0.5023 -0.1119
 3234SOL    HW120171   1.433   3.402   3.179 -0.6046 -1.4780 -0.1833
 3234SOL    HW220172   1.437   3.320   3.038 -3.2000 -0.4088 -0.9040
 3235SOL     OW20173   2.647   3.880   2.340  0.1012  0.0779  0.1393
 3235SOL    HW120174   2.745   3.875   2.355 -0.0734 -3.8354  0.4474
 3235SOL    HW220175   2.626   3.857   2.245 -0.6352 -0.7654  0.5000
 3236SOL     OW20176   8.122   8.166   2.121  0.0279 -0.3499  0.2417
 3236SOL    HW120177   8.146   8.150   2.026 -0.0231  0.4570  0.0920
 3236SOL    HW220178   8.041   8.224   2.126 -0.8289 -1.5663  0.7654
 3237SOL     OW20179   1.559   5.762   3.372  0.0895 -0.4631  0.3012
 3237SOL    HW120180   1.527   5.826   3.442  0.4704  0.2514 -0.1669
 3237SOL    HW220181   1.655   5.741   3.388  0.9098  1.7297 -1.4789
 3238SOL     OW20182   4.717   2.958   2.864  0.1265  0.4819 -0.8414
 3238SOL    HW120183   4.725   2.858   2.859  0.7959  0.6332 -2.8145
 3238SOL    HW220184   4.696   2.984   2.959  0.0189 -1.5139 -0.2865
 3239SOL     OW20185   7.691   4.289   0.674 -0.6571 -0.5628  0.0265
 3239SOL    HW120186   7.659   4.258   0.763  0.9639  0.0551  0.8471
 3239SOL    HW220187   7.754   4.222   0.636  0.1712  0.0736  0.2469
 3240SOL     OW20188   7.746   9.712   1.341 -0.7228  0.6876 -0.1021
 3240SOL    HW120189   7.664   9.724   1.285 -0.7099  0.5027 -0.1611
 3240SOL    HW220190   7.736   9.631   1.399 -0.3097  0.2806 -0.5944
 3241SOL     OW20191   7.162   9.217   1.994  0.3000 -0.2603  0.1764
 3241SOL    HW120192   7.102   9.143   2.025  0.8883 -0.7502  0.1364
 3241SOL    HW220193   7.238   9.227   2.058 -1.2970  2.2099  1.7897
 3242SOL     OW20194   7.756   1.607   0.423  0.4942 -0.3768 -0.5168
 3242SOL    HW120195   7.672   1.661   0.430  0.6544 -0.1876 -0.0104
 3242SOL    HW220196   7.814   1.644   0.352  0.4199 -0.1303 -0.4499
 3243SOL     OW20197   8.150   3.592   0.504 -0.0370  0.5747  0.0169
 3243SOL    HW120198   8.064   3.640   0.521  0.0246  1.5930 -2.4005
 3243SOL    HW220199   8.150   3.505   0.553 -2.4896  0.5162 -0.0602
 3244SOL     OW20200   8.389   4.921   1.250  0.4467 -0.0359  0.3633
 3244SOL    HW120201   8.389   4.880   1.158 -1.6752  0.4451  0.1177
 3244SOL    HW220202   8.419   5.016   1.244  0.9618 -0.2038  0.2673
 3245SOL     OW20203   2.174   6.607   3.100  0.1233  0.0034 -0.2297
 3245SOL    HW120204   2.205   6.657   3.019 -0.0662 -0.9391 -0.8886
 3245SOL    HW220205   2.139   6.672   3.168  2.3997  1.0099  0.0472
 3246SOL     OW20206   4.879   7.781   2.119  0.1548  0.4346 -0.2978
 3246SOL    HW120207   4.969   7.807   2.085  1.0126 -1.8929  0.1232
 3246SOL    HW220208   4.819   7.761   2.041  0.8854 -0.8760 -0.5309
 3247SOL     OW20209   3.417   7.707   1.952  0.2429  1.0350 -0.0496
 3247SOL    HW120210   3.467   7.624   1.925 -0.1882  0.9192 -0.4859
 3247SOL    HW220211   3.425   7.776   1.880  0.3046  1.2510  0.1609
 3248SOL     OW20212   9.242   8.879   2.192 -0.3756  0.0230  0.3329
 3248SOL    HW120213   9.281   8.938   2.121 -0.6098  0.2765  0.4090
 3248SOL    HW220214   9.271   8.785   2.178  0.0895  0.1758  0.2705
 3249SOL     OW20215   9.091   3.819   2.463  0.6057  0.1664  0.5345
 3249SOL    HW120216   9.131   3.768   2.540 -1.4025 -1.9327  0.2388
 3249SOL    HW220217   9.160   3.834   2.393  1.3892 -1.6622  0.8936
 3250SOL     OW20218   3.503   1.774   2.285  0.5442  0.1407 -0.6812
 3250SOL    HW120219   3.488   1.703   2.217  1.9019 -1.3887  0.6048
 3250SOL    HW220220   3.593   1.815   2.272  0.8905 -0.2971  0.3164
 3251SOL     OW20221   0.873   1.374   3.232  0.0475 -0.1271  0.1998
 3251SOL    HW120222   0.972   1.365   3.238  0.0148  0.4840  1.7343
 3251SOL    HW220223   0.837   1.307   3.167  1.5431  0.1753 -0.9587
 3252SOL     OW20224   2.913   2.144   3.629 -0.3749  0.6192  0.0583
 3252SOL    HW120225   2.896   2.051   3.597  0.0344  0.5658 -0.0074
 3252SOL    HW220226   2.890   2.150   3.726  0.6953  0.1432  0.3509
 3253SOL     OW20227   2.845   6.240   1.983 -0.1203 -0.2501  0.2784
 3253SOL    HW120228   2.866   6.193   2.068 -0.4778  2.4416  1.9194
 3253SOL    HW220229   2.781   6.185   1.929 -1.0212 -1.3322  2.3929
 3254SOL     OW20230   1.595   2.481   3.680  0.1008 -0.2027 -0.1848
 3254SOL    HW120231   1.507   2.518   3.650 -0.3292 -0.4685  0.7330
 3254SOL    HW220232   1.652   2.556   3.714  0.4767  0.0571 -1.3830
 3255SOL     OW20233   9.122   3.531   0.365  0.4221 -0.3024 -0.5145
 3255SOL    HW120234   9.215   3.558   0.390  0.9879 -2.9068  0.2585
 3255SOL    HW220235   9.122   3.488   0.275 -0.3440  1.2995 -1.3166
 3256SOL     OW20236   9.712   7.167   1.610  0.0997  0.2410  0.4539
 3256SOL    HW120237   9.793   7.169   1.668 -0.6603  2.6720  1.5011
 3256SOL    HW220238   9.631   7.147   1.665 -0.1405 -1.2866 -0.4323
 3257SOL     OW20239   2.042   6.124   0.732 -0.2521  0.2597 -0.1721
 3257SOL    HW120240   2.078   6.217   0.722  1.5255 -0.5529 -1.8134
 3257SOL    HW220241   1.979   6.104   0.657  0.0510 -0.1269 -0.3321
 3258SOL     OW20242   3.907   7.023   1.003  0.3299  0.2744  0.3005
 3258SOL    HW120243   3.861   7.072   1.077  0.5944 -0.8314  1.1986
 3258SOL    HW220244   4.000   7.000   1.031  0.1995 -0.7746 -0.0938
 3259SOL     OW20245   8.319   3.832   0.083 -0.1179 -0.0018  0.2923
 3259SOL    HW120246   8.292   3.736   0.075  1.7598 -0.8319  3.1130
 3259SOL    HW220247   8.406   3.847   0.037  0.2515  0.0278  0.9890
 3260SOL     OW20248   9.750   2.523   2.899 -0.6157 -0.5474 -0.5486
 3260SOL    HW120249   9.716   2.435   2.933  0.7087 -1.2535 -0.9815
 3260SOL    HW220250   9.690   2.597   2.929 -0.9136 -1.4407  1.0925
 3261SOL     OW20251   8.868   7.194   1.494  0.2818  0.2923 -0.2262
 3261SOL    HW120252   8.903   7.247   1.571  1.8106  0.9137 -1.3347
 3261SOL    HW220253   8.885   7.243   1.408 -1.2363 -0.4662 -1.0019
 3262SOL     OW20254   9.589   2.441   0.983  0.3162  0.0099  0.2458
 3262SOL    HW120255   9.509   2.386   0.958  0.5228 -0.7310  1.1605
 3262SOL    HW220256   9.558   2.529   1.020 -0.0208  0.4269 -0.9985
 3263SOL     OW20257   4.368   4.621   2.379  0.5169  0.4561  0.1058
 3263SOL    HW120258   4.328   4.529   2.379 -2.0772  1.5652  1.1256
 3263SOL    HW220259   4.318   4.679   2.314  2.3929  1.0808 -0.8305
 3264SOL     OW20260   7.604   8.440   2.678 -0.2417  0.2656 -0.4951
 3264SOL    HW120261   7.605   8.514   2.745  1.3838 -0.0356 -0.1768
 3264SOL    HW220262   7.591   8.478   2.587 -0.6555  0.8329 -0.2041
 3265SOL     OW20263   2.606   0.574   0.792  0.0893  0.1402  0.3168
 3265SOL    HW120264   2.705   0.582   0.783  0.3796 -2.3217  0.9167
 3265SOL    HW220265   2.574   0.637   0.863  1.1076  1.4495 -0.3676
 3266SOL     OW20266   7.603   3.187   0.715  0.1630  0.5585 -0.0952
 3266SOL    HW120267   7.608   3.105   0.773  2.7716  0.3059 -0.6022
 3266SOL    HW220268   7.631   3.267   0.768  0.4259  0.6705 -0.4017
 3267SOL     OW20269   1.144   3.749   2.400 -0.3367  0.1811  0.3684
 3267SOL    HW120270   1.201   3.668   2.410  1.8742  1.6013 -0.4031
 3267SOL    HW220271   1.076   3.751   2.473  1.3964 -0.8973  2.0643
 3268SOL     OW20272   2.593   8.144   1.316 -0.6525  0.1465 -0.2841
 3268SOL    HW120273   2.610   8.235   1.353 -0.5629  0.0422 -0.0680
 3268SOL    HW220274   2.495   8.126   1.317 -0.5034 -0.6913  1.9114
 3269SOL     OW20275   1.769   4.141   3.391  0.2287 -0.2961  0.0561
 3269SOL    HW120276   1.694   4.206   3.390 -0.1864 -0.7961 -1.2284
 3269SOL    HW220277   1.771   4.094   3.480 -1.2563 -0.6097 -0.0672
 3270SOL     OW20278   2.764   6.555   1.068  0.5916  0.5470  0.3708
 3270SOL    HW120279   2.852   6.541   1.112  0.2382 -0.2624  0.8366
 3270SOL    HW220280   2.724   6.467   1.045 -1.3501  0.7455  2.7080
 3271SOL     OW20281   9.505   8.961   2.277 -0.3233 -0.3916 -0.2523
 3271SOL    HW120282   9.557   8.925   2.355 -0.7275 -0.9173 -0.2201
 3271SOL    HW220283   9.412   8.924   2.279 -0.3919 -0.2632 -0.8821
 3272SOL     OW20284   7.770   9.206   2.453 -0.1834 -0.3756  0.3941
 3272SOL    HW120285   7.863   9.190   2.421  0.4424  0.6556  1.6446
 3272SOL    HW220286   7.772   9.249   2.544 -1.8614  0.5921  0.0051
 3273SOL     OW20287   2.326   9.378   3.792  0.7819 -0.2071 -0.4014
 3273SOL    HW120288   2.399   9.429   3.839  1.8486 -0.9457 -1.2359
 3273SOL    HW220289   2.365   9.298   3.746 -0.6634 -0.9897 -0.3036
 3274SOL     OW20290   9.624   6.112   0.261 -0.2637 -0.5861 -0.5662
 3274SOL    HW120291   9.681   6.038   0.228 -0.1254 -1.4636  1.5671
 3274SOL    HW220292   9.567   6.080   0.337 -0.5589  1.3471  0.0716
 3275SOL     OW20293   7.936   8.579   0.555  0.2588  0.6856 -0.2763
 3275SOL    HW120294   7.896   8.667   0.530  0.7272  1.1315  0.5092
 3275SOL    HW220295   8.030   8.593   0.586  0.6737 -0.2156 -1.0992
 3276SOL     OW20296   3.317   6.832   2.072 -0.0104  0.7391 -0.2956
 3276SOL    HW120297   3.343   6.865   2.163 -0.0445 -0.0348 -0.0042
 3276SOL    HW220298   3.369   6.883   2.003  1.1634  0.2722  0.2216
 3277SOL     OW20299   2.237   8.817   2.717 -0.4648 -0.2078 -0.2679
 3277SOL    HW120300   2.252   8.908   2.678 -0.3079 -0.2771 -0.3723
 3277SOL    HW220301   2.236   8.749   2.643  1.7934 -0.5880  0.0081
 3278SOL     OW20302   0.156   3.933   2.512  0.3859  0.9796  0.1841
 3278SOL    HW120303   0.091   3.941   2.587  1.3688 -1.0289  1.2704
 3278SOL    HW220304   0.128   3.858   2.452  1.1821  0.7296  0.1280
 3279SOL     OW20305   0.764   1.570   0.563 -0.1412 -0.2037  0.1359
 3279SOL    HW120306   0.740   1.518   0.646 -1.1570 -0.1739 -0.1255
 3279SOL    HW220307   0.754   1.668   0.582 -3.3176 -0.2748 -0.8621
 3280SOL     OW20308   0.028   8.823   1.279 -0.1361 -0.2284  0.6927
 3280SOL    HW120309  -0.024   8.861   1.202  0.8970  0.2371  0.2165
 3280SOL    HW220310  -0.003   8.730   1.297 -0.9183 -0.0697  0.2126
 3281SOL     OW20311   7.846   1.177   0.919  0.3622 -0.0292 -0.5042
 3281SOL    HW120312   7.786   1.252   0.891 -1.5654 -1.7023 -0.9669
 3281SOL    HW220313   7.811   1.136   1.003  0.7333 -1.1983 -0.9144
 3282SOL     OW20314   2.604   1.626   3.230  0.0684  0.6172  0.1100
 3282SOL    HW120315   2.682   1.572   3.198 -0.8561 -0.1935 -0.8116
 3282SOL    HW220316   2.619   1.652   3.325  1.4515  0.4499 -0.0517
 3283SOL     OW20317   6.845   9.710   2.618 -0.2683  0.4034 -0.2241
 3283SOL    HW120318   6.844   9.648   2.697 -2.3628  1.3567  0.5497
 3283SOL    HW220319   6.776   9.781   2.632  2.4089  3.1835 -0.8924
 3284SOL     OW20320   8.923   8.773   3.378  0.4744 -0.4827 -0.6266
 3284SOL    HW120321   8.936   8.802   3.283 -1.9851  0.2678 -0.7805
 3284SOL    HW220322   8.834   8.728   3.386  0.0154  0.7767  1.6145
 3285SOL     OW20323   8.290   0.034   1.432  0.1132 -0.5806  0.0996
 3285SOL    HW120324   8.226  -0.037   1.463  0.0557 -0.6151 -0.1040
 3285SOL    HW220325   8.238   0.114   1.402  0.1501 -0.8302 -0.6198
 3286SOL     OW20326   8.893   8.018   2.161  0.2156  0.1566  0.3124
 3286SOL    HW120327   8.822   7.973   2.215 -0.2826  1.2304  0.5695
 3286SOL    HW220328   8.851   8.068   2.086  0.6803  0.9697  0.5877
 3287SOL     OW20329   1.324   3.647   0.107  0.4209 -0.7050 -0.2275
 3287SOL    HW120330   1.238   3.660   0.156  0.3892 -1.8055  0.0217
 3287SOL    HW220331   1.401   3.674   0.165  0.3107 -0.8626 -0.0082
 3288SOL     OW20332   8.733   4.645   0.175  0.2251 -0.0001 -0.6280
 3288SOL    HW120333   8.810   4.706   0.195 -0.5201  0.6433  0.2840
 3288SOL    HW220334   8.664   4.654   0.246  0.3656 -2.3630 -0.1579
 3289SOL     OW20335   5.174   8.002   2.009 -0.9555 -0.9574  0.7655
 3289SOL    HW120336   5.167   7.904   2.028 -1.4220 -0.8604  1.0970
 3289SOL    HW220337   5.167   8.053   2.095  1.1734 -0.7135  0.8285
 3290SOL     OW20338   6.309   8.535   3.216  0.2876  0.1059 -0.7603
 3290SOL    HW120339   6.249   8.456   3.204  1.8855 -1.4431  0.9538
 3290SOL    HW220340   6.338   8.569   3.127 -2.4607  0.4051 -1.5970
 3291SOL     OW20341   9.746   1.315   0.981 -0.2138 -0.3677 -0.6048
 3291SOL    HW120342   9.828   1.268   1.015  0.6364 -0.1734 -2.3004
 3291SOL    HW220343   9.674   1.312   1.050  1.2459 -0.5046  0.9404
 3292SOL     OW20344   9.274   3.316   0.214  0.0342 -0.7529 -0.4321
 3292SOL    HW120345   9.341   3.373   0.262  0.1674 -1.1899 -0.1038
 3292SOL    HW220346   9.321   3.255   0.150 -0.0746 -0.8101 -0.4584
 3293SOL     OW20347   0.927   9.838   3.786 -0.1625 -0.1053 -0.3202
 3293SOL    HW120348   0.883   9.867   3.701 -1.7629  1.4978  0.9916
 3293SOL    HW220349   0.996   9.769   3.767 -1.2896 -0.5994 -2.7924
 3294SOL     OW20350   1.345   9.852   0.104  0.4450 -0.0898  0.5991
 3294SOL    HW120351   1.354   9.908   0.022 -0.7846 -1.0960 -0.2517
 3294SOL    HW220352   1.250   9.857   0.137  0.5884 -0.8176  1.1302
 3295SOL     OW20353   2.919   1.637   2.502  0.3249  0.4780  0.0137
 3295SOL    HW120354   2.868   1.719   2.475  0.5394  0.7181  0.3265
 3295SOL    HW220355   3.011   1.641   2.461  0.8343  1.1019  1.1910
 3296SOL     OW20356   3.162   1.392   1.771  0.2236  0.0248 -0.0901
 3296SOL    HW120357   3.239   1.438   1.815  0.0871 -0.5878  0.8018
 3296SOL    HW220358   3.077   1.439   1.795  0.0712 -0.7776  0.9296
 3297SOL     OW20359   0.017   8.411   1.690  0.2229 -0.8224 -0.3427
 3297SOL    HW120360   0.080   8.375   1.758  0.2135 -1.8981 -0.8980
 3297SOL    HW220361  -0.054   8.466   1.735  0.6756 -0.8652  0.4245
 3298SOL     OW20362   8.177   7.643   0.111  0.0382  0.6195 -0.6019
 3298SOL    HW120363   8.240   7.594   0.171 -1.6039 -1.6610 -0.6747
 3298SOL    HW220364   8.210   7.640   0.017 -0.8895 -1.8947 -0.8842
 3299SOL     OW20365   3.834   9.115   2.445 -0.0812 -0.6939 -0.1638
 3299SOL    HW120366   3.793   9.102   2.355 -0.9036 -1.1298  0.2698
 3299SOL    HW220367   3.766   9.151   2.508  0.8807  1.0720 -0.0846
 3300SOL     OW20368   7.344   7.416   3.423  0.7354  0.3181 -0.8845
 3300SOL    HW120369   7.407   7.406   3.501 -1.2592 -1.0893  0.5923
 3300SOL    HW220370   7.317   7.512   3.415  0.3532  0.3554  0.6624
 3301SOL     OW20371   9.043   4.683   2.690  0.0535 -0.4601  0.0876
 3301SOL    HW120372   9.092   4.764   2.659  1.5216 -1.5885 -0.6282
 3301SOL    HW220373   9.012   4.696   2.784 -0.8278  1.4044 -0.4567
 3302SOL     OW20374   1.791   2.500   2.152 -0.3372  0.5875 -0.3083
 3302SOL    HW120375   1.785   2.576   2.216  0.4699 -1.2428  2.0155
 3302SOL    HW220376   1.887   2.484   2.128 -0.4199 -0.1373 -0.1919
 3303SOL     OW20377   3.892   2.324   1.594 -0.4438  0.3186 -0.4094
 3303SOL    HW120378   3.826   2.382   1.643  0.6389  0.0955  1.3429
 3303SOL    HW220379   3.853   2.297   1.506 -2.0187  1.5631 -0.1169
 3304SOL     OW20380   2.253   2.249   2.671 -0.0238  0.3474 -0.6851
 3304SOL    HW120381   2.288   2.174   2.728 -0.0582  0.5776 -0.3640
 3304SOL    HW220382   2.300   2.334   2.696  0.9965  0.1776 -1.9707
 3305SOL     OW20383   0.691   5.180   0.639  0.0622 -0.2875  1.0683
 3305SOL    HW120384   0.623   5.239   0.595  0.2011 -1.3307 -0.6041
 3305SOL    HW220385   0.782   5.217   0.623  0.1098 -0.6457  0.4758
 3306SOL     OW20386   2.461   6.870   0.595 -0.0884 -0.4039  0.1567
 3306SOL    HW120387   2.502   6.931   0.663  2.1169  0.2272 -1.7084
 3306SOL    HW220388   2.463   6.776   0.629  0.5284 -0.0244  1.1886
 3307SOL     OW20389   8.843   9.072   2.007 -0.0616  0.2003 -0.4556
 3307SOL    HW120390   8.829   8.996   1.944 -2.2119  0.2406 -0.0658
 3307SOL    HW220391   8.893   9.039   2.088 -1.3401 -0.9048 -0.0991
 3308SOL     OW20392   1.134   5.033   0.307  0.1462 -0.1825 -0.5044
 3308SOL    HW120393   1.099   4.983   0.228  1.0677 -0.1157 -0.9700
 3308SOL    HW220394   1.202   5.100   0.276  0.1944  0.1452  0.3000
 3309SOL     OW20395   2.006   7.499   1.786 -0.0882  0.7528  0.7618
 3309SOL    HW120396   2.074   7.431   1.813  0.6738  0.4199 -1.8547
 3309SOL    HW220397   1.914   7.465   1.807  0.3685 -0.3494  1.0004
 3310SOL     OW20398   7.583   9.799   2.898  0.0023 -0.2408  0.2038
 3310SOL    HW120399   7.558   9.749   2.981  1.4959 -1.7897 -0.2432
 3310SOL    HW220400   7.569   9.740   2.818  0.2212  0.6322 -0.4879
 3311SOL     OW20401   0.813   1.640   1.753 -0.3855 -0.3441  0.6448
 3311SOL    HW120402   0.843   1.675   1.664 -0.4756  0.4162  0.9060
 3311SOL    HW220403   0.823   1.541   1.755  2.7194 -0.0671  0.9506
 3312SOL     OW20404   2.582   2.741   1.517 -0.0813 -0.2319 -0.2818
 3312SOL    HW120405   2.670   2.771   1.554  0.4852 -1.1361 -0.8982
 3312SOL    HW220406   2.582   2.642   1.504 -1.4072 -0.3206  0.2852
 3313SOL     OW20407   9.985   6.630   2.262 -0.1068 -0.4704 -0.3689
 3313SOL    HW120408  10.034   6.574   2.328  1.2595  0.1489 -0.8445
 3313SOL    HW220409  10.033   6.629   2.174 -0.6127  0.6285 -0.6736
 3314SOL     OW20410   1.600   5.621   1.720 -0.0932 -0.1004 -0.0165
 3314SOL    HW120411   1.683   5.672   1.698 -0.1231 -0.4264 -0.9409
 3314SOL    HW220412   1.528   5.645   1.655 -1.1379  1.1579  1.5894
 3315SOL     OW20413   8.813   8.274   1.122  0.1917 -0.5971  0.1026
 3315SOL    HW120414   8.798   8.372   1.131  2.0160 -0.3199  0.3891
 3315SOL    HW220415   8.883   8.257   1.051 -1.8480 -1.8213 -1.6753
 3316SOL     OW20416   2.136   8.232   0.534 -0.2517 -0.6773  0.8424
 3316SOL    HW120417   2.167   8.263   0.624 -2.1818 -0.5164  1.4639
 3316SOL    HW220418   2.200   8.264   0.465  0.8453 -0.1461  2.0758
 3317SOL     OW20419   3.738   0.995   0.714 -0.4972 -0.1802 -0.1122
 3317SOL    HW120420   3.641   1.006   0.736 -0.6922 -0.6249 -0.7247
 3317SOL    HW220421   3.759   1.046   0.629 -0.2489 -0.2873 -0.1163
 3318SOL     OW20422   1.097   0.121   1.517 -0.0091 -0.4146 -0.7556
 3318SOL    HW120423   1.076   0.215   1.489  0.9892 -0.0426 -0.2749
 3318SOL    HW220424   1.186   0.119   1.562 -1.6648 -0.9004  2.6747
 3319SOL     OW20425   2.016   2.799   3.184  0.1337 -1.1091  0.0886
 3319SOL    HW120426   1.921   2.794   3.218  0.3555  1.0789  1.1358
 3319SOL    HW220427   2.079   2.788   3.261  0.7131 -1.1785 -0.3953
 3320SOL     OW20428   8.076   6.541   3.529  0.7088 -0.1850 -0.2188
 3320SOL    HW120429   8.124   6.458   3.501  0.7434  0.5475 -2.4375
 3320SOL    HW220430   7.988   6.546   3.481 -0.6237 -0.3912  2.1150
 3321SOL     OW20431   3.634   9.111   3.265  0.3558  0.5276 -0.1887
 3321SOL    HW120432   3.684   9.198   3.257  1.2010 -0.0755 -1.5584
 3321SOL    HW220433   3.696   9.035   3.245 -0.8622 -0.3005 -0.8861
 3322SOL     OW20434   2.916   9.637   1.298 -0.4939 -0.0811  0.1026
 3322SOL    HW120435   2.903   9.572   1.224 -1.7968  0.2049  0.0650
 3322SOL    HW220436   2.905   9.591   1.386 -0.0269 -0.1904  0.1076
 3323SOL     OW20437   3.441   5.551   2.674 -0.0595 -0.2613  0.1676
 3323SOL    HW120438   3.402   5.608   2.602  1.1864  0.4786  0.0455
 3323SOL    HW220439   3.368   5.516   2.733 -0.9182  0.7949 -0.2541
 3324SOL     OW20440   6.179   7.030   3.078 -0.5234 -0.0914 -0.1369
 3324SOL    HW120441   6.278   7.032   3.060 -0.2698 -1.2519  1.0717
 3324SOL    HW220442   6.137   6.959   3.022 -0.4858 -0.3843  0.2029
 3325SOL     OW20443   1.509   1.562   0.258  0.7212 -0.3308  0.1150
 3325SOL    HW120444   1.548   1.645   0.297 -0.4394  0.8291 -1.1705
 3325SOL    HW220445   1.432   1.532   0.315 -0.7521  1.1669 -1.0516
 3326SOL     OW20446   3.743   9.472   1.826  0.3169 -0.1562  0.7688
 3326SOL    HW120447   3.644   9.484   1.823  0.1297 -1.9261 -2.4557
 3326SOL    HW220448   3.788   9.561   1.816 -0.9642  0.4475  0.3219
 3327SOL     OW20449   8.571   8.984   3.856 -0.3931 -0.4737 -0.0043
 3327SOL    HW120450   8.548   8.992   3.759 -3.2930 -0.5042  0.6332
 3327SOL    HW220451   8.527   9.058   3.907  0.5764 -0.8331  1.3705
 3328SOL     OW20452   8.595   1.263   1.864 -0.7790  0.4277  0.1060
 3328SOL    HW120453   8.664   1.315   1.914  0.1519 -0.0915 -0.6130
 3328SOL    HW220454   8.504   1.296   1.888 -0.3355  0.5119  1.7704
 3329SOL     OW20455   3.376   3.289   0.942 -0.6021 -0.0504  0.7259
 3329SOL    HW120456   3.329   3.353   1.003 -1.3017  0.1737 -0.0425
 3329SOL    HW220457   3.312   3.256   0.873  0.1493 -0.4199  0.2032
 3330SOL     OW20458   1.514   0.265   3.740  0.2604 -0.1011  0.2830
 3330SOL    HW120459   1.442   0.268   3.810  0.4025 -1.0277  0.4835
 3330SOL    HW220460   1.579   0.193   3.763  0.2455 -0.4942 -0.8681
 3331SOL     OW20461   6.826   0.482   2.663 -0.4247  0.7457 -0.3178
 3331SOL    HW120462   6.727   0.478   2.646 -0.5596  0.2110  0.5411
 3331SOL    HW220463   6.865   0.391   2.652 -0.2458  0.7054  0.5874
 3332SOL     OW20464   9.336   2.667   3.543 -0.0151  0.3589 -0.5071
 3332SOL    HW120465   9.364   2.661   3.639  1.3652  0.8033 -0.8617
 3332SOL    HW220466   9.236   2.669   3.537 -0.1314 -0.8675  0.8423
 3333SOL     OW20467   0.319   5.250   3.563 -0.2741  0.7531  0.2155
 3333SOL    HW120468   0.261   5.245   3.481  0.6663  0.6589 -0.4483
 3333SOL    HW220469   0.304   5.336   3.610 -2.2443  0.0046  1.0064
 3334SOL     OW20470   0.479   2.650   2.467  0.3633  0.7004 -0.2932
 3334SOL    HW120471   0.510   2.556   2.454 -2.7078 -0.4085  0.0482
 3334SOL    HW220472   0.518   2.688   2.550 -1.2029 -1.5658  1.5348
 3335SOL     OW20473   9.792   2.861   1.557  0.7777 -0.1237 -0.3232
 3335SOL    HW120474   9.882   2.819   1.558  1.2316  0.7813 -1.8696
 3335SOL    HW220475   9.800   2.959   1.536 -0.4791  0.1767  0.4979
 3336SOL     OW20476   9.702   2.184   0.630  0.6008  0.7120  0.3717
 3336SOL    HW120477   9.614   2.189   0.583  1.9192 -0.9820 -2.3773
 3336SOL    HW220478   9.696   2.122   0.708 -0.5139  0.2882 -0.0575
 3337SOL     OW20479   3.292   5.722   4.036  0.8055  0.1247  0.4846
 3337SOL    HW120480   3.362   5.652   4.051  1.1023  0.3268  0.0522
 3337SOL    HW220481   3.301   5.758   3.944 -0.2005 -0.2046  0.2583
 3338SOL     OW20482   9.955   4.034   2.278 -0.0627 -0.1152 -0.2379
 3338SOL    HW120483  10.000   4.122   2.296  0.0602 -0.2109 -0.0706
 3338SOL    HW220484   9.962   4.012   2.181 -1.0872  0.6090 -0.4852
 3339SOL     OW20485   8.027   0.602   3.897  0.3829 -0.4103  0.4557
 3339SOL    HW120486   8.061   0.695   3.912 -0.8342  0.3603 -1.3916
 3339SOL    HW220487   7.953   0.583   3.962  0.1720  0.1693  0.3926
 3340SOL     OW20488   8.306   2.924   2.605 -0.8426 -0.0562 -0.1421
 3340SOL    HW120489   8.350   2.934   2.694 -0.0434  0.5054 -0.5896
 3340SOL    HW220490   8.230   2.860   2.612  0.2127 -1.2560  0.5837
 3341SOL     OW20491   0.302   6.007   0.967  0.1667  0.0055  0.0199
 3341SOL    HW120492   0.253   6.072   1.024 -1.7395 -1.1361 -0.2730
 3341SOL    HW220493   0.243   5.929   0.947  1.2372 -0.2170 -2.4417
 3342SOL     OW20494   2.013   1.028   3.538  0.2104  0.1938 -0.1705
 3342SOL    HW120495   2.012   0.977   3.452 -0.9471  1.2603 -0.8047
 3342SOL    HW220496   1.958   0.980   3.606  1.1930 -0.6923  0.0174
 3343SOL     OW20497   1.388   7.529   3.347 -0.2583  0.1635  0.3285
 3343SOL    HW120498   1.326   7.540   3.269 -0.0286 -1.5322 -0.1155
 3343SOL    HW220499   1.374   7.604   3.411 -1.3609  0.8855 -0.7248
 3344SOL     OW20500   9.507   7.431   1.711 -0.3344 -0.1542  0.0982
 3344SOL    HW120501   9.558   7.387   1.785  0.1827 -0.1014 -0.2180
 3344SOL    HW220502   9.548   7.406   1.623 -0.7739  0.0007 -0.1524
 3345SOL     OW20503   3.900   7.537   0.750  0.5577  0.6222  0.1151
 3345SOL    HW120504   3.835   7.494   0.813  1.3835 -0.6423  0.1245
 3345SOL    HW220505   3.963   7.596   0.801 -0.7621  2.1217  0.0675
 3346SOL     OW20506   0.387   5.184   0.475 -0.2719 -0.2316  0.5499
 3346SOL    HW120507   0.301   5.181   0.528 -0.6378 -1.5605 -0.0883
 3346SOL    HW220508   0.410   5.092   0.445  1.9818 -0.0563  1.6295
 3347SOL     OW20509   6.498   9.054   1.686 -0.0237  0.1658 -0.5541
 3347SOL    HW120510   6.424   9.047   1.619 -0.3393  1.8395 -0.4053
 3347SOL    HW220511   6.584   9.030   1.643 -0.5821 -1.3798 -0.8430
 3348SOL     OW20512   9.702   1.944   1.305  0.3020  0.7062 -0.6052
 3348SOL    HW120513   9.766   1.874   1.272  1.9848  1.5698  0.7294
 3348SOL    HW220514   9.704   2.023   1.244 -0.6616  0.0970 -1.4249
 3349SOL     OW20515   3.577   7.645   2.766  0.2177  0.4564  0.2770
 3349SOL    HW120516   3.600   7.733   2.809  1.3364 -0.0610  0.7796
 3349SOL    HW220517   3.656   7.583   2.774 -0.4067 -0.4443 -0.4560
 3350SOL     OW20518   4.646   5.366   2.626 -0.2355  0.2713 -0.4079
 3350SOL    HW120519   4.551   5.341   2.643  0.0202 -1.3631 -1.3116
 3350SOL    HW220520   4.677   5.324   2.541  2.0635 -1.3310  1.1659
 3351SOL     OW20521   3.422   5.234   2.109  0.1679  0.1459 -0.4030
 3351SOL    HW120522   3.358   5.203   2.180  2.5128 -1.1317  1.2495
 3351SOL    HW220523   3.393   5.323   2.074 -0.9585  0.9141  2.3442
 3352SOL     OW20524   8.540   4.255   1.122  0.1216 -0.3178  0.2766
 3352SOL    HW120525   8.622   4.242   1.178  0.0169 -0.8175  0.3174
 3352SOL    HW220526   8.520   4.352   1.116  1.8816 -0.0291 -1.4115
 3353SOL     OW20527   3.488   8.547   0.411  0.1199  0.0189 -0.0965
 3353SOL    HW120528   3.505   8.496   0.496 -0.7375 -1.0234 -0.5331
 3353SOL    HW220529   3.403   8.599   0.420  1.2415  1.7648  0.5186
 3354SOL     OW20530   0.720   6.424   1.917  0.1534  0.2935 -0.3987
 3354SOL    HW120531   0.695   6.455   2.008 -0.1120  0.9781 -0.7046
 3354SOL    HW220532   0.656   6.460   1.849 -0.3525 -1.1913 -0.7233
 3355SOL     OW20533   9.134   1.474   3.796  0.5103  0.1473  0.0627
 3355SOL    HW120534   9.048   1.426   3.778 -0.8708  2.2375  1.0011
 3355SOL    HW220535   9.158   1.465   3.892  1.3017 -0.3256 -0.1699
 3356SOL     OW20536   4.512   0.839   2.070 -0.2962 -0.1741 -0.1997
 3356SOL    HW120537   4.480   0.933   2.064 -0.9644 -0.4969 -2.3112
 3356SOL    HW220538   4.438   0.777   2.045  0.9911 -1.0844 -1.8921
 3357SOL     OW20539   9.705   1.691   1.594  0.3757  0.0492 -0.4519
 3357SOL    HW120540   9.726   1.760   1.664 -0.3691 -0.3121  0.1279
 3357SOL    HW220541   9.618   1.713   1.551  0.7402  0.1583 -1.1297
 3358SOL     OW20542   9.165   9.927   1.106 -0.4463 -0.5423 -0.1948
 3358SOL    HW120543   9.253   9.955   1.069 -1.4948  1.0081 -1.5911
 3358SOL    HW220544   9.114  10.008   1.136 -0.8208 -1.5336  1.9545
 3359SOL     OW20545   4.107   2.025   0.446 -0.4467  1.0069  0.0503
 3359SOL    HW120546   4.118   2.064   0.354 -0.9965  1.1332  0.0370
 3359SOL    HW220547   4.179   1.957   0.462 -1.5610 -0.4911 -1.2337
 3360SOL     OW20548   3.453   8.201   1.905 -0.0192 -0.1946  0.1029
 3360SOL    HW120549   3.472   8.173   1.999 -1.8406 -0.8366  0.3120
 3360SOL    HW220550   3.476   8.126   1.842  3.1320  0.9596 -0.2043
 3361SOL     OW20551   4.177   4.818   2.281 -0.4580  0.4976 -0.3226
 3361SOL    HW120552   4.160   4.914   2.262  0.6816  0.6251 -0.7644
 3361SOL    HW220553   4.117   4.787   2.355  0.1404  1.9315  0.7956
 3362SOL     OW20554   4.219   8.036   0.196  0.1475 -0.2701 -0.1348
 3362SOL    HW120555   4.121   8.019   0.191 -0.3686  2.5933 -0.2974
 3362SOL    HW220556   4.249   8.084   0.114  1.7702 -1.4638 -0.2648
 3363SOL     OW20557   7.877   6.343   3.709  0.3416  0.5770  0.3516
 3363SOL    HW120558   7.811   6.347   3.784 -1.0678 -0.0585 -0.8318
 3363SOL    HW220559   7.967   6.317   3.744 -0.1878  0.8073  1.8869
 3364SOL     OW20560   0.155   1.668   1.561  0.1604 -0.0915 -0.3975
 3364SOL    HW120561   0.210   1.585   1.573 -1.3595 -1.2919 -1.5782
 3364SOL    HW220562   0.081   1.650   1.496 -0.3266  2.1337 -0.4950
 3365SOL     OW20563   3.625   7.080   3.600  0.1908 -0.2905 -0.1814
 3365SOL    HW120564   3.671   7.114   3.682  1.3887 -0.8821 -0.6019
 3365SOL    HW220565   3.665   7.124   3.519  0.5483 -1.3798 -0.6050
 3366SOL     OW20566   3.756   4.088   3.362  0.2282  0.1223 -0.6955
 3366SOL    HW120567   3.713   3.998   3.348 -1.4601  0.7319  0.4066
 3366SOL    HW220568   3.701   4.141   3.426  1.8935  1.4869 -0.3688
 3367SOL     OW20569   3.192   5.070   0.340  0.1996 -0.5550 -0.0040
 3367SOL    HW120570   3.215   5.116   0.426  0.4708 -1.0549  0.1890
 3367SOL    HW220571   3.264   5.088   0.273  1.0138 -1.8572  0.5032
 3368SOL     OW20572   2.940   1.469   1.369  0.3173  0.3338 -0.2701
 3368SOL    HW120573   3.003   1.393   1.379 -0.5587 -0.6427 -1.9298
 3368SOL    HW220574   2.988   1.555   1.382  1.3278 -0.4911  1.5750
 3369SOL     OW20575   1.799   9.893   3.339  0.4453 -0.0275 -0.0628
 3369SOL    HW120576   1.791   9.984   3.298  1.1002  0.0461 -0.0242
 3369SOL    HW220577   1.894   9.864   3.338  0.4860  0.0117  1.4711
 3370SOL     OW20578   6.215   9.497   3.431 -0.1655  0.4456 -0.7101
 3370SOL    HW120579   6.120   9.472   3.452 -0.0177 -0.8691 -1.5451
 3370SOL    HW220580   6.233   9.479   3.334  1.6549 -1.6389 -0.0295
 3371SOL     OW20581   1.670   2.815   3.523  0.5634 -0.1780  0.1004
 3371SOL    HW120582   1.573   2.835   3.514  0.2472 -0.8262  1.9188
 3371SOL    HW220583   1.684   2.748   3.596  2.3410 -0.4160 -0.4236
 3372SOL     OW20584   1.171   5.776   2.787  0.2713 -0.4118  0.5877
 3372SOL    HW120585   1.180   5.709   2.860  2.9583  0.3038  0.9395
 3372SOL    HW220586   1.163   5.729   2.699 -2.8599 -1.2723  1.2645
 3373SOL     OW20587   1.269   2.636   2.798 -0.3968  0.8262  0.4804
 3373SOL    HW120588   1.258   2.639   2.897 -2.4025  0.3181  0.2776
 3373SOL    HW220589   1.356   2.592   2.776 -1.3714 -1.9440  1.9588
 3374SOL     OW20590   3.017   2.132   0.490 -0.5489 -0.4110 -0.3299
 3374SOL    HW120591   3.079   2.080   0.548 -0.0651 -0.3211 -0.7711
 3374SOL    HW220592   3.052   2.135   0.397 -1.7021 -1.1670 -0.7924
 3375SOL     OW20593   8.934   3.184   1.408 -0.2909  0.3130 -0.0089
 3375SOL    HW120594   8.853   3.148   1.361 -1.5230 -1.6193  3.4413
 3375SOL    HW220595   8.926   3.283   1.416 -2.3570  0.1481  0.2905
 3376SOL     OW20596   3.897   1.146   2.604 -0.3019 -0.0005  0.0783
 3376SOL    HW120597   3.920   1.107   2.693 -0.0414 -1.0211 -0.4371
 3376SOL    HW220598   3.920   1.244   2.605 -0.9616  0.1540  1.3613
 3377SOL     OW20599   3.321   6.561   2.116 -0.8644  0.1749 -0.0331
 3377SOL    HW120600   3.326   6.659   2.094  2.2379  0.3222  1.0177
 3377SOL    HW220601   3.275   6.549   2.204  0.0953  0.8478  0.5725
 3378SOL     OW20602   1.294   1.840   3.540 -0.1711  0.0774  0.3721
 3378SOL    HW120603   1.219   1.784   3.506  1.3069 -2.5190  1.2669
 3378SOL    HW220604   1.286   1.851   3.639  0.7206 -0.3980  0.5074
 3379SOL     OW20605   8.750   4.563   3.364 -0.2209 -0.2176 -0.0983
 3379SOL    HW120606   8.677   4.578   3.430  0.5066  2.2129  0.2000
 3379SOL    HW220607   8.838   4.590   3.404  0.4634 -0.4178 -1.4214
 3380SOL     OW20608   2.504   7.854   2.331 -0.3363  0.3521 -0.4244
 3380SOL    HW120609   2.507   7.954   2.324  1.2482  0.3429 -0.1464
 3380SOL    HW220610   2.539   7.826   2.420  1.6147 -0.5577 -1.4462
 3381SOL     OW20611   2.213   8.450   1.504 -0.4699  0.2726  0.1697
 3381SOL    HW120612   2.191   8.388   1.428 -1.9004 -0.5344  1.2301
 3381SOL    HW220613   2.220   8.543   1.469 -0.0599 -0.2277 -1.1405
 3382SOL     OW20614   3.715   3.350   2.660 -0.7451 -0.3076 -0.1449
 3382SOL    HW120615   3.617   3.343   2.642 -0.7577 -0.0294 -0.1843
 3382SOL    HW220616   3.751   3.432   2.616 -0.2622 -1.0503 -1.1494
 3383SOL     OW20617   4.248   2.149   2.104 -0.0497  0.0121 -0.1560
 3383SOL    HW120618   4.336   2.135   2.058  0.1088  0.0837  0.1290
 3383SOL    HW220619   4.261   2.207   2.184 -0.4988  0.7875 -0.6285
 3384SOL     OW20620   1.515   0.504   3.905 -0.5516 -0.3047  0.0952
 3384SOL    HW120621   1.502   0.417   3.857 -1.0288 -1.2291  1.8653
 3384SOL    HW220622   1.609   0.510   3.938 -0.5201 -0.1507 -0.0226
 3385SOL     OW20623   2.447   5.276   3.362  0.5835  0.0693 -0.0214
 3385SOL    HW120624   2.489   5.185   3.357  0.5121  0.0423 -0.1239
 3385SOL    HW220625   2.450   5.319   3.272 -1.3687 -0.7256 -0.5059
 3386SOL     OW20626   3.488   5.012   1.958  0.0037  0.4311 -0.4769
 3386SOL    HW120627   3.405   4.960   1.939 -0.1967  0.3387  0.6391
 3386SOL    HW220628   3.468   5.088   2.019  1.0458 -0.6436  1.2404
 3387SOL     OW20629   1.210   7.119   0.086  0.2846  0.7569  0.3984
 3387SOL    HW120630   1.216   7.027   0.047 -1.2819  1.6162 -1.9666
 3387SOL    HW220631   1.244   7.117   0.180  0.7564 -2.1230  0.2251
 3388SOL     OW20632   1.165   2.094   0.763  0.1727 -0.2866 -0.0706
 3388SOL    HW120633   1.168   2.141   0.675  0.8033 -0.8286 -0.3429
 3388SOL    HW220634   1.234   2.134   0.824 -0.9071  0.7266  0.5089
 3389SOL     OW20635   2.443   9.857   0.695  0.8605  0.4867 -0.4626
 3389SOL    HW120636   2.427   9.860   0.597 -0.0257 -0.3500 -0.3488
 3389SOL    HW220637   2.517   9.921   0.719 -0.2384  2.1615 -1.4042
 3390SOL     OW20638   7.232   0.045   2.992 -0.3898 -0.5351  0.1716
 3390SOL    HW120639   7.317   0.066   2.944 -0.0450 -0.2436  0.8971
 3390SOL    HW220640   7.174  -0.012   2.934  0.1866 -0.5175 -0.4304
 3391SOL     OW20641   9.678   3.298   3.616  0.2539  0.0498 -0.4411
 3391SOL    HW120642   9.758   3.294   3.675 -1.8007  0.8225  2.4994
 3391SOL    HW220643   9.648   3.205   3.594  0.7520 -0.2357  0.0919
 3392SOL     OW20644   1.130   1.115   1.378  0.4243  0.6655 -0.2666
 3392SOL    HW120645   1.150   1.078   1.468 -0.5711  1.4177  0.2746
 3392SOL    HW220646   1.213   1.118   1.323  1.1754  0.9066  0.8842
 3393SOL     OW20647   8.881   1.455   0.442  0.2467 -0.2997  0.0117
 3393SOL    HW120648   8.901   1.475   0.346 -0.0779  0.3963  0.0868
 3393SOL    HW220649   8.948   1.501   0.500  0.3730 -0.6287  0.1291
 3394SOL     OW20650   9.215   8.449   2.129 -0.0634 -0.1098 -0.2576
 3394SOL    HW120651   9.189   8.352   2.125  0.4722 -0.2722  0.1769
 3394SOL    HW220652   9.180   8.489   2.214  1.4556 -0.4379  0.5476
 3395SOL     OW20653   0.710   6.700   3.599 -1.0005 -0.1897  0.3517
 3395SOL    HW120654   0.669   6.648   3.524 -1.2974 -0.0041  0.3830
 3395SOL    HW220655   0.749   6.636   3.666  0.4148 -0.3231 -0.5947
 3396SOL     OW20656   0.911   2.975   3.999  0.2666 -0.2070  0.2530
 3396SOL    HW120657   0.987   3.036   3.975  0.1512  0.1296  0.7330
 3396SOL    HW220658   0.924   2.887   3.953  0.3008  0.2608 -0.6475
 3397SOL     OW20659   3.758   8.867   2.245 -0.0964  0.0075 -0.2491
 3397SOL    HW120660   3.818   8.806   2.192  0.7923  0.9432 -0.3322
 3397SOL    HW220661   3.756   8.837   2.340  0.9799  0.3220 -0.1253
 3398SOL     OW20662   1.198   5.976   3.346 -0.2960 -0.4187  0.4275
 3398SOL    HW120663   1.138   6.056   3.342 -0.0816 -0.3368 -1.4245
 3398SOL    HW220664   1.275   5.996   3.406  0.6997  1.4334 -1.4141
 3399SOL     OW20665   8.620   8.387   3.542 -0.2201  0.1165 -0.0904
 3399SOL    HW120666   8.611   8.478   3.582 -2.5828 -0.2809  0.3697
 3399SOL    HW220667   8.558   8.324   3.589 -0.1823 -1.2401 -1.8146
 3400SOL     OW20668   0.864   8.808   2.876  0.1380  0.1235  0.0119
 3400SOL    HW120669   0.812   8.891   2.899 -0.1008  0.3902 -1.4398
 3400SOL    HW220670   0.875   8.752   2.958  1.6689  2.3272  1.3687
 3401SOL     OW20671   1.008   5.496   1.266  0.4462 -0.7118  0.1284
 3401SOL    HW120672   1.059   5.467   1.185  1.1072 -2.1915  1.0564
 3401SOL    HW220673   1.056   5.467   1.349 -1.0669 -0.7026  1.0410
 3402SOL     OW20674   3.353   7.070   3.743  0.1761 -0.5654  0.6245
 3402SOL    HW120675   3.301   6.986   3.727  0.5434 -0.7798  0.5712
 3402SOL    HW220676   3.430   7.075   3.679  1.0001 -0.8837  1.5825
 3403SOL     OW20677   1.357   9.140   2.490 -0.6175 -0.4307  0.4547
 3403SOL    HW120678   1.279   9.197   2.518  0.4675  0.4152  1.8828
 3403SOL    HW220679   1.325   9.065   2.433 -2.2835  0.7650 -0.2306
 3404SOL     OW20680   1.627   6.654   1.428  0.0356  0.0432  0.7785
 3404SOL    HW120681   1.570   6.735   1.414  1.4848  0.7954 -1.1384
 3404SOL    HW220682   1.702   6.677   1.491 -0.1221 -0.0849  1.0107
 3405SOL     OW20683   2.281   4.177   1.715 -0.3103  0.3733  0.6709
 3405SOL    HW120684   2.271   4.277   1.721 -1.2562  0.4062 -1.0729
 3405SOL    HW220685   2.190   4.135   1.713 -0.0010 -0.2552 -2.1264
 3406SOL     OW20686   1.147   5.018   1.307  0.6477 -0.3136  0.0301
 3406SOL    HW120687   1.195   5.053   1.388  0.2081 -0.0379  0.1756
 3406SOL    HW220688   1.081   4.949   1.335  1.5882 -1.3456 -0.2703
 3407SOL     OW20689   1.607   1.352   2.298  0.2821  0.0011 -0.0864
 3407SOL    HW120690   1.536   1.355   2.369  0.8057  0.1522  0.4387
 3407SOL    HW220691   1.654   1.440   2.295 -0.4913  0.3879 -1.4163
 3408SOL     OW20692   3.748   1.550   3.438  0.1770  0.2145 -0.1361
 3408SOL    HW120693   3.845   1.532   3.459 -0.2256 -2.0630 -0.0856
 3408SOL    HW220694   3.706   1.600   3.514  1.2085  0.8854  0.0078
 3409SOL     OW20695   3.623   5.874   2.381 -0.6158 -0.5592  0.1870
 3409SOL    HW120696   3.704   5.920   2.418 -0.5455  0.7688 -1.5578
 3409SOL    HW220697   3.561   5.850   2.455  0.2203  0.6863  1.3021
 3410SOL     OW20698   9.879   3.127   2.731 -0.1548  0.0100 -0.0217
 3410SOL    HW120699   9.818   3.065   2.781  0.3592  0.2705  0.9351
 3410SOL    HW220700   9.883   3.215   2.778  1.0936 -0.0555  0.0089
 3411SOL     OW20701   3.615   3.406   0.886 -0.0299 -1.1241  0.3721
 3411SOL    HW120702   3.605   3.480   0.819  1.3263  2.4191  3.8533
 3411SOL    HW220703   3.527   3.360   0.898 -1.0256  0.1914 -1.5350
 3412SOL     OW20704   2.271   1.132   3.389  0.2463  0.2117 -0.0352
 3412SOL    HW120705   2.190   1.153   3.442 -0.7588 -0.9160 -1.0940
 3412SOL    HW220706   2.332   1.073   3.442 -0.0569  0.2991  0.4108
 3413SOL     OW20707   1.529   9.235   1.936 -0.2163  0.3855 -0.5378
 3413SOL    HW120708   1.546   9.331   1.958  1.3348 -0.2496  1.2406
 3413SOL    HW220709   1.498   9.188   2.019  0.8170 -1.0308 -0.9396
 3414SOL     OW20710   2.418   3.366   2.328 -0.5247 -1.0311 -0.0330
 3414SOL    HW120711   2.501   3.358   2.273 -0.0585 -0.6246  0.6069
 3414SOL    HW220712   2.377   3.456   2.313  0.7559 -0.0975  1.8770
 3415SOL     OW20713   2.715   6.502   0.057 -0.1902  0.1193 -0.2058
 3415SOL    HW120714   2.790   6.453   0.100  0.2571  0.5185 -0.5207
 3415SOL    HW220715   2.654   6.539   0.127 -0.8774 -1.4058  0.0215
 3416SOL     OW20716   9.802   3.167   2.444  0.1641 -0.2291  0.6748
 3416SOL    HW120717   9.813   3.079   2.399 -3.1228 -1.9025  2.8610
 3416SOL    HW220718   9.842   3.163   2.536  2.0388  1.3647 -0.0350
 3417SOL     OW20719   9.105   8.416   3.939  0.1398  0.0397  0.5909
 3417SOL    HW120720   9.112   8.515   3.951 -0.1780 -0.0623  1.6679
 3417SOL    HW220721   9.192   8.379   3.908 -0.3050  0.9262 -1.8383
 3418SOL     OW20722   1.406   0.850   3.917 -0.4386 -0.4138 -0.0591
 3418SOL    HW120723   1.335   0.879   3.853 -1.3483 -0.8210  0.7663
 3418SOL    HW220724   1.373   0.775   3.973  1.2899 -1.8645 -0.9342
 3419SOL     OW20725   4.631   9.340   2.583  0.2247 -0.0226  0.0386
 3419SOL    HW120726   4.713   9.389   2.553 -0.2107 -0.2958 -1.6759
 3419SOL    HW220727   4.615   9.358   2.680  1.3472  1.3951 -0.0168
 3420SOL     OW20728   2.737   6.734   3.706 -0.2501  0.8646 -0.1767
 3420SOL    HW120729   2.638   6.732   3.714 -0.1531 -1.1133  0.9100
 3420SOL    HW220730   2.768   6.652   3.657  0.9492  0.6092  0.9755
 3421SOL     OW20731   2.153   0.999   2.702  0.4240 -0.2838  0.2715
 3421SOL    HW120732   2.071   0.942   2.699  0.1749  0.0444  0.6712
 3421SOL    HW220733   2.209   0.982   2.621 -0.0723 -0.4680 -0.0365
 3422SOL     OW20734   8.598   7.810   0.291 -0.2510 -0.1829  0.1974
 3422SOL    HW120735   8.550   7.796   0.204 -0.4082  0.8771  0.1097
 3422SOL    HW220736   8.555   7.754   0.362 -1.5006  0.5938  0.0712
 3423SOL     OW20737   3.310   6.880   3.477 -0.0373  0.5063 -0.6640
 3423SOL    HW120738   3.257   6.881   3.393 -1.7740 -0.2308  0.3954
 3423SOL    HW220739   3.258   6.835   3.549  2.6060 -1.6100  0.0315
 3424SOL     OW20740   8.121   9.343   2.407 -0.0732 -0.1679  0.4097
 3424SOL    HW120741   8.066   9.262   2.426  0.2208  0.0721  2.4801
 3424SOL    HW220742   8.099   9.415   2.474 -0.3075  1.4569 -1.3641
 3425SOL     OW20743   2.453   1.582   1.662 -0.2783  0.0669  0.7492
 3425SOL    HW120744   2.543   1.558   1.699 -0.6649  0.0100  1.6592
 3425SOL    HW220745   2.422   1.668   1.703 -0.3651  0.4180 -0.0369
 3426SOL     OW20746   4.577   9.662   1.052  0.1863 -0.2727 -0.1319
 3426SOL    HW120747   4.627   9.630   1.132  0.8772  1.3978  0.1167
 3426SOL    HW220748   4.561   9.585   0.990  0.8100 -1.3144  0.9742
 3427SOL     OW20749   3.553   1.142   1.364 -0.1346  0.5110  0.5055
 3427SOL    HW120750   3.511   1.098   1.444  1.1219 -0.6313  0.5520
 3427SOL    HW220751   3.540   1.084   1.284  0.6982  0.5143  0.3701
 3428SOL     OW20752   3.389   2.486   0.722  0.2507  0.3069  0.0511
 3428SOL    HW120753   3.468   2.499   0.662  1.7684  0.2951  2.0093
 3428SOL    HW220754   3.305   2.485   0.667  1.3114  3.4022 -1.7444
 3429SOL     OW20755   9.070   0.188   1.035 -0.5473 -0.4990  0.5123
 3429SOL    HW120756   9.061   0.228   1.126 -0.3383  0.3651  0.1599
 3429SOL    HW220757   9.156   0.218   0.994 -1.1009 -0.0823 -0.3565
 3430SOL     OW20758   2.575   5.589   0.501  0.1982 -0.4681  0.0227
 3430SOL    HW120759   2.618   5.597   0.411 -2.7264  4.2566 -1.0929
 3430SOL    HW220760   2.507   5.515   0.498  1.6041 -1.7713 -0.9316
 3431SOL     OW20761   7.751   1.678   1.731 -0.0929 -0.3367 -0.3516
 3431SOL    HW120762   7.694   1.598   1.712 -0.1503 -0.3669 -0.0504
 3431SOL    HW220763   7.707   1.760   1.692 -0.4262 -0.3347  0.0268
 3432SOL     OW20764   7.593   0.179   0.358 -0.6342 -0.2073  0.2008
 3432SOL    HW120765   7.557   0.090   0.387 -0.2455 -0.5845 -0.4570
 3432SOL    HW220766   7.576   0.247   0.430 -0.2575 -0.9806  1.0326
 3433SOL     OW20767   3.569   6.506   2.256  0.6788  0.2611  0.5599
 3433SOL    HW120768   3.525   6.521   2.345 -0.2785 -2.3381  0.5557
 3433SOL    HW220769   3.502   6.470   2.192  1.5522  1.4324 -1.0298
 3434SOL     OW20770   9.183   0.161   2.365  0.3540  0.0783  0.2586
 3434SOL    HW120771   9.261   0.151   2.427 -0.4159 -0.5252  1.1412
 3434SOL    HW220772   9.197   0.105   2.283 -0.9553 -3.2572  2.2289
 3435SOL     OW20773   9.370   7.699   3.445 -0.5000 -0.0433  0.5610
 3435SOL    HW120774   9.402   7.733   3.357  0.1048  0.4929  0.9901
 3435SOL    HW220775   9.381   7.599   3.447  0.5649  0.0682  0.4728
 3436SOL     OW20776   4.193   7.283   3.821 -0.7008 -0.6937 -0.1853
 3436SOL    HW120777   4.194   7.233   3.908 -2.4591  1.1765  0.9611
 3436SOL    HW220778   4.280   7.270   3.774  1.5698  0.7828  3.3529
 3437SOL     OW20779   5.060   9.458   1.348  0.1809 -0.0491  1.1538
 3437SOL    HW120780   4.984   9.425   1.404  0.0467  0.3554  1.2109
 3437SOL    HW220781   5.146   9.443   1.396  0.2269 -1.4493  0.6509
 3438SOL     OW20782   4.319   0.064   0.133 -0.4597  0.1318  0.2751
 3438SOL    HW120783   4.280   0.152   0.107 -2.0183  0.2421  2.8852
 3438SOL    HW220784   4.273  -0.010   0.083 -0.6169  0.6335 -0.3208
 3439SOL     OW20785   3.878   9.206   3.514 -0.6119  0.1440  1.1953
 3439SOL    HW120786   3.873   9.221   3.415 -1.3285 -1.5956  0.9515
 3439SOL    HW220787   3.793   9.238   3.557 -1.1847 -1.0619  0.9705
 3440SOL     OW20788   2.360   4.472   1.456 -0.0519 -0.3524  0.2193
 3440SOL    HW120789   2.455   4.481   1.487 -0.0693  1.6957 -0.2142
 3440SOL    HW220790   2.359   4.427   1.367  0.8525  2.7728 -1.4403
 3441SOL     OW20791   0.232   1.994   3.700 -0.1445  0.1767  0.2245
 3441SOL    HW120792   0.136   1.968   3.686  0.4996 -2.5428  0.4667
 3441SOL    HW220793   0.275   2.012   3.611 -0.1841 -1.3845 -0.1357
 3442SOL     OW20794   0.221   2.176   1.264 -0.6481  0.4511 -0.1403
 3442SOL    HW120795   0.253   2.128   1.346  0.0226  0.0311 -0.6513
 3442SOL    HW220796   0.121   2.180   1.266 -0.7114 -1.0047 -0.1200
 3443SOL     OW20797   9.678   1.548   0.870  0.7914 -0.3492  0.1101
 3443SOL    HW120798   9.677   1.535   0.771 -2.6170 -2.0368  0.3041
 3443SOL    HW220799   9.698   1.460   0.914 -1.0479 -0.3503  0.9685
 3444SOL     OW20800   9.954   3.894   3.198 -0.6617  0.5693 -0.3996
 3444SOL    HW120801  10.051   3.914   3.211 -0.2849 -1.5700  0.3175
 3444SOL    HW220802   9.902   3.929   3.276 -0.2931  0.5517 -0.1434
 3445SOL     OW20803   0.450   1.664   4.032  0.5432  0.0507  0.6009
 3445SOL    HW120804   0.419   1.746   3.983  0.3306  0.9441  2.1992
 3445SOL    HW220805   0.545   1.645   4.008 -0.2155 -0.8062 -1.8305
 3446SOL     OW20806   7.732   9.076   0.436 -0.5537 -0.2094 -0.1547
 3446SOL    HW120807   7.789   9.156   0.453 -0.8193  0.2639 -1.4572
 3446SOL    HW220808   7.650   9.079   0.493 -0.6151  0.5025 -0.2835
 3447SOL     OW20809   3.094   8.361   0.160 -0.6844  0.0725 -0.2122
 3447SOL    HW120810   3.183   8.387   0.195 -1.5343  2.5660  0.2098
 3447SOL    HW220811   3.081   8.399   0.068 -0.9486 -1.0902 -0.6721
 3448SOL     OW20812   3.022   3.381   1.655  0.4731  0.2374 -0.4387
 3448SOL    HW120813   3.082   3.308   1.622 -0.4718 -0.6583 -0.2049
 3448SOL    HW220814   2.932   3.343   1.674  0.5419  1.0724  1.6120
 3449SOL     OW20815   2.502   6.400   3.900 -0.0498 -0.2735 -0.5122
 3449SOL    HW120816   2.562   6.451   3.962 -1.5329  0.1893  0.5961
 3449SOL    HW220817   2.424   6.458   3.874 -0.7270 -1.3039 -0.8280
 3450SOL     OW20818   1.429   4.894   1.737 -0.3030 -0.1034  0.3167
 3450SOL    HW120819   1.361   4.902   1.810 -0.0777  0.1889  0.4951
 3450SOL    HW220820   1.407   4.816   1.679 -1.1575  0.3892 -0.0149
 3451SOL     OW20821   0.575   9.058   2.065 -0.3257 -0.0937  0.3914
 3451SOL    HW120822   0.486   9.040   2.024  0.9855 -0.9108 -2.2272
 3451SOL    HW220823   0.638   8.983   2.043  0.9508  0.3775  2.3387
 3452SOL     OW20824   9.464   8.756   3.559 -0.1107 -0.2233  0.6078
 3452SOL    HW120825   9.476   8.763   3.658  1.2943 -0.3559  0.4618
 3452SOL    HW220826   9.554   8.746   3.516 -0.7422 -0.5069 -0.6511
 3453SOL     OW20827   2.473   6.648   3.475  0.2030 -0.0473 -0.1539
 3453SOL    HW120828   2.402   6.654   3.545  0.8417 -1.2127  0.6064
 3453SOL    HW220829   2.488   6.738   3.435 -1.3536  0.3058  0.0244
 3454SOL     OW20830   9.755   9.842   0.257  0.3253 -0.0116  0.3718
 3454SOL    HW120831   9.784   9.824   0.163  0.2977 -0.2709  0.4119
 3454SOL    HW220832   9.666   9.887   0.256  0.4119  0.1576  0.2681
 3455SOL     OW20833   1.967   3.946   2.262 -0.7938  0.0642 -0.1915
 3455SOL    HW120834   1.921   4.012   2.202 -1.1192 -0.6338 -0.7054
 3455SOL    HW220835   1.978   3.987   2.353 -1.3780  0.6700 -0.3882
 3456SOL     OW20836   2.748   4.004   2.658  0.3426 -0.6019 -1.2024
 3456SOL    HW120837   2.674   3.988   2.593 -0.6033  2.0547 -0.8405
 3456SOL    HW220838   2.718   3.979   2.750  0.3673 -0.7847 -1.2436
 3457SOL     OW20839   7.288   8.372   2.297  0.1670  0.0463  0.2892
 3457SOL    HW120840   7.265   8.424   2.379  3.5737  3.1106 -0.5855
 3457SOL    HW220841   7.254   8.419   2.216 -1.0177 -1.6759 -0.2377
 3458SOL     OW20842   7.850   3.145   1.579  0.4354 -0.0715 -0.3350
 3458SOL    HW120843   7.836   3.226   1.636  1.8471 -0.5680  0.7609
 3458SOL    HW220844   7.799   3.155   1.494  1.1631  2.2982 -0.5365
 3459SOL     OW20845   9.406   5.126   3.098  0.0275  0.5343  0.1048
 3459SOL    HW120846   9.481   5.060   3.086 -0.3539 -0.2510  1.7843
 3459SOL    HW220847   9.348   5.126   3.017  0.2240 -0.9637 -0.0644
 3460SOL     OW20848   2.061   3.785   0.506 -0.5918  0.2505  0.0132
 3460SOL    HW120849   2.109   3.735   0.434  1.4350 -0.2761  1.6801
 3460SOL    HW220850   2.022   3.720   0.571 -0.1486  0.7891  0.8131
 3461SOL     OW20851   5.693   8.257   1.896  0.0897  0.3510 -1.1684
 3461SOL    HW120852   5.596   8.281   1.898 -0.9001 -3.4027 -2.1137
 3461SOL    HW220853   5.734   8.291   1.812 -0.7987  0.4166 -1.5773
 3462SOL     OW20854   0.529   0.963   3.963 -0.0608  0.1802  0.0632
 3462SOL    HW120855   0.479   0.945   3.878  1.1757  2.4600 -1.2031
 3462SOL    HW220856   0.502   1.052   3.999  1.4008  0.4245  0.5886
 3463SOL     OW20857   3.778   2.537   3.476  0.0965 -0.3049 -0.2017
 3463SOL    HW120858   3.769   2.525   3.378 -1.2478  1.2506 -0.2906
 3463SOL    HW220859   3.869   2.573   3.497  0.8930 -1.9612 -0.7207
 3464SOL     OW20860   1.787   1.860   2.386  0.1129  0.3097 -0.7365
 3464SOL    HW120861   1.811   1.955   2.366 -1.6047  0.7827 -0.6978
 3464SOL    HW220862   1.701   1.838   2.340 -1.3090 -0.1490  2.0522
 3465SOL     OW20863   0.479   2.929   2.971 -0.6159 -0.2045  0.3783
 3465SOL    HW120864   0.535   2.887   3.043 -0.1519 -1.3206 -0.6220
 3465SOL    HW220865   0.426   2.858   2.925  0.3414  0.2546 -1.4858
 3466SOL     OW20866   8.473   7.341   1.649  0.2606 -0.1148  0.2177
 3466SOL    HW120867   8.403   7.396   1.693  0.2407 -1.9413  2.5612
 3466SOL    HW220868   8.551   7.399   1.625 -2.3038  2.1182 -3.2437
 3467SOL     OW20869   0.579   2.730   3.172  1.0635 -0.3029  0.2005
 3467SOL    HW120870   0.673   2.734   3.207  1.9020 -1.2753 -1.8406
 3467SOL    HW220871   0.516   2.765   3.242  2.7796 -0.9968  2.1674
 3468SOL     OW20872   2.479   2.616   0.445  0.1521  0.1616 -0.1004
 3468SOL    HW120873   2.424   2.643   0.524 -0.6322 -0.9581 -0.2554
 3468SOL    HW220874   2.456   2.675   0.367 -2.2746 -1.5390 -0.7143
 3469SOL     OW20875   3.966   5.491   1.957 -0.2223 -0.8184  0.2649
 3469SOL    HW120876   4.050   5.457   2.000 -0.6926 -1.6985  0.5236
 3469SOL    HW220877   3.907   5.531   2.028 -0.8126 -1.8802  0.3831
 3470SOL     OW20878   1.296   2.003   1.350 -0.0155  0.0700  0.0202
 3470SOL    HW120879   1.313   2.081   1.290  1.6609 -1.0433 -0.9871
 3470SOL    HW220880   1.274   1.922   1.295  0.2065 -0.6430  0.9634
 3471SOL     OW20881   0.228   5.247   3.190 -0.3340  0.0990 -0.1817
 3471SOL    HW120882   0.163   5.264   3.265  0.9582 -0.0000  0.9779
 3471SOL    HW220883   0.185   5.271   3.103 -1.3408  1.6648  0.7185
 3472SOL     OW20884   9.075   5.053   1.838 -0.2870 -0.0707  0.0201
 3472SOL    HW120885   9.058   5.099   1.925 -0.0777 -1.5407  0.8476
 3472SOL    HW220886   9.074   5.121   1.764 -2.9001  0.8736  0.8486
 3473SOL     OW20887   8.273   8.770   0.401 -0.8127  0.1924  0.4500
 3473SOL    HW120888   8.245   8.786   0.307  2.2015  1.0673 -0.3435
 3473SOL    HW220889   8.359   8.719   0.402 -0.8829  0.0750  2.7127
 3474SOL     OW20890   8.682   6.210   2.328 -0.4998 -0.1049 -0.1724
 3474SOL    HW120891   8.603   6.262   2.359  0.8949  1.3984  0.9122
 3474SOL    HW220892   8.730   6.262   2.257  0.0710 -0.5811 -0.1395
 3475SOL     OW20893   0.381   4.340   2.379  0.0125 -0.4681  0.1561
 3475SOL    HW120894   0.358   4.417   2.438  1.1115  1.0469 -1.3654
 3475SOL    HW220895   0.363   4.364   2.284  0.7242 -1.9596 -0.3650
 3476SOL     OW20896   8.626   4.274   0.441 -0.3054  0.0003 -0.0664
 3476SOL    HW120897   8.585   4.287   0.532 -0.7678 -0.1666 -0.2476
 3476SOL    HW220898   8.683   4.192   0.442 -0.3933 -0.0617  0.0474
 3477SOL     OW20899   9.294   9.599   1.439  0.3261 -0.2771 -0.3279
 3477SOL    HW120900   9.245   9.547   1.370 -2.9059  3.0230 -0.6762
 3477SOL    HW220901   9.253   9.582   1.529 -0.6214  1.4226 -0.4172
 3478SOL     OW20902   2.503   4.573   3.398 -0.5763  0.2925  0.2405
 3478SOL    HW120903   2.411   4.549   3.367  0.0907 -1.7144 -0.2251
 3478SOL    HW220904   2.569   4.559   3.324  0.4646 -0.7581  1.3332
 3479SOL     OW20905   9.519   1.572   2.435  0.5158 -0.3409  0.5018
 3479SOL    HW120906   9.421   1.569   2.414  0.4360  1.0284  0.6432
 3479SOL    HW220907   9.571   1.543   2.355  0.0902  1.6864 -0.5417
 3480SOL     OW20908   1.873   7.281   1.508 -0.1171 -0.0315 -0.7496
 3480SOL    HW120909   1.945   7.268   1.440  0.9163 -0.5316  0.4454
 3480SOL    HW220910   1.879   7.372   1.547  2.4215 -1.3957  2.2679
 3481SOL     OW20911   1.022   3.965   2.223  0.6110  0.1365  0.0700
 3481SOL    HW120912   0.985   4.058   2.221  0.5140  0.0845 -0.5557
 3481SOL    HW220913   1.077   3.953   2.306 -0.0880  0.4771  0.5859
 3482SOL     OW20914   0.620   8.112   0.851  0.0891  0.0908  0.5856
 3482SOL    HW120915   0.528   8.111   0.890  0.0259  0.9191  0.4686
 3482SOL    HW220916   0.666   8.197   0.876  0.3814  0.2259 -0.3893
 3483SOL     OW20917   7.957   9.662   3.972  0.1923  0.3103 -0.0107
 3483SOL    HW120918   7.893   9.619   3.910  0.1985  1.4483 -0.8193
 3483SOL    HW220919   7.927   9.649   4.067 -0.5798 -0.1919 -0.3293
 3484SOL     OW20920   4.553   8.377   2.361 -0.1137 -0.9152 -0.1833
 3484SOL    HW120921   4.454   8.374   2.345 -0.3112 -1.7793  1.1128
 3484SOL    HW220922   4.586   8.471   2.348 -0.9084 -0.8276 -1.6730
 3485SOL     OW20923   0.755   2.710   1.012  0.7040 -0.5561  0.2920
 3485SOL    HW120924   0.759   2.722   0.913  0.9007 -0.2951  0.3324
 3485SOL    HW220925   0.688   2.639   1.034  0.8539 -0.8051 -0.0431
 3486SOL     OW20926   7.995   0.868   0.548 -0.2670 -0.3353 -0.4420
 3486SOL    HW120927   8.029   0.774   0.542 -0.4406 -0.5627  1.6699
 3486SOL    HW220928   7.926   0.874   0.620  1.7774  1.9644  1.4247
 3487SOL     OW20929   4.993   8.635   0.006  0.2179 -0.0202 -0.0881
 3487SOL    HW120930   5.081   8.588   0.012 -0.3569 -1.5929 -3.0424
 3487SOL    HW220931   5.001   8.711  -0.057 -0.4568  0.0781 -0.0545
 3488SOL     OW20932   2.548   5.403   1.574 -0.2557 -0.0676  0.0217
 3488SOL    HW120933   2.600   5.326   1.536 -0.3976 -0.3559  0.4187
 3488SOL    HW220934   2.496   5.447   1.500  1.9057  1.3054 -0.7402
 3489SOL     OW20935   8.730   8.191   3.134 -0.4147  0.2663  0.1754
 3489SOL    HW120936   8.692   8.160   3.047 -3.3855 -2.5684  2.3751
 3489SOL    HW220937   8.817   8.145   3.151 -0.4107 -0.0600 -0.7456
 3490SOL     OW20938   9.230   6.303   3.715 -0.3289 -0.4217 -0.4545
 3490SOL    HW120939   9.197   6.361   3.789 -2.5813 -0.0771 -1.6580
 3490SOL    HW220940   9.329   6.304   3.712 -0.2791  1.2453  1.2132
 3491SOL     OW20941   3.382   4.094   0.095 -0.1371  0.1074  0.1783
 3491SOL    HW120942   3.438   4.068   0.016  1.5990  1.8495  0.8014
 3491SOL    HW220943   3.324   4.017   0.121  1.8398 -1.7048 -0.6013
 3492SOL     OW20944   4.963   1.042   1.503  0.0323  0.4714 -0.6163
 3492SOL    HW120945   5.004   0.984   1.574  0.7897  0.7606 -0.8149
 3492SOL    HW220946   4.885   1.091   1.542  0.1151  0.2244 -0.1289
 3493SOL     OW20947   9.834   4.559   3.834 -0.4492 -0.3092 -0.2052
 3493SOL    HW120948   9.901   4.527   3.902 -0.5720  2.4696  1.2592
 3493SOL    HW220949   9.744   4.567   3.877 -0.4000  2.0604 -0.5256
 3494SOL     OW20950   2.234   1.720   1.970  0.6852 -0.0172  1.0403
 3494SOL    HW120951   2.204   1.637   2.018  1.5416 -0.8033  0.2377
 3494SOL    HW220952   2.333   1.727   1.975  0.5322  1.6294  2.1622
 3495SOL     OW20953   8.214   9.447   1.860  0.1250  0.0706 -0.1056
 3495SOL    HW120954   8.227   9.455   1.959 -1.5513 -3.4507  0.4801
 3495SOL    HW220955   8.303   9.433   1.816  0.6494 -0.9172  1.2246
 3496SOL     OW20956   8.086   5.896   2.715 -0.0140 -0.2979  0.3614
 3496SOL    HW120957   7.987   5.911   2.726 -0.4313 -2.1955 -0.6303
 3496SOL    HW220958   8.121   5.954   2.643 -0.7983 -0.9972 -0.5985
 3497SOL     OW20959   8.445   9.132   2.324  0.5912  0.2653 -0.7911
 3497SOL    HW120960   8.545   9.131   2.315  0.8396  1.7614  1.2775
 3497SOL    HW220961   8.409   9.040   2.311  2.5533 -0.8459  1.2918
 3498SOL     OW20962   1.157   1.772   0.477 -0.4706  0.2957  0.1066
 3498SOL    HW120963   1.193   1.841   0.414  1.9584 -0.3721  0.7123
 3498SOL    HW220964   1.092   1.713   0.428  1.4550 -0.2935 -1.8450
 3499SOL     OW20965   4.614   8.100   0.133 -0.0432  0.0123  0.5930
 3499SOL    HW120966   4.568   8.063   0.053  1.6659  0.1647 -0.4892
 3499SOL    HW220967   4.569   8.185   0.161  0.3803  0.8699 -1.2602
 3500SOL     OW20968   9.891   7.528   3.427 -0.2583  0.4291 -0.0506
 3500SOL    HW120969   9.939   7.441   3.417  1.2109  0.8410  2.9071
 3500SOL    HW220970   9.945   7.601   3.387  0.4668  0.5317  1.0804
 3501SOL     OW20971   2.195   0.626   3.186  0.0248 -0.0473 -0.0296
 3501SOL    HW120972   2.172   0.529   3.187 -0.7229  0.1295  0.4457
 3501SOL    HW220973   2.184   0.662   3.093  0.0728 -0.3658 -0.1574
 3502SOL     OW20974   8.952   4.287   2.573  0.1522  0.7277  0.5300
 3502SOL    HW120975   8.939   4.190   2.557  1.9585  0.2962  1.5791
 3502SOL    HW220976   8.927   4.338   2.491 -1.4205 -0.5589  0.1962
 3503SOL     OW20977   3.351   2.834   2.820  0.2825  0.1277  0.6763
 3503SOL    HW120978   3.341   2.743   2.859  2.8672  0.3030  1.8286
 3503SOL    HW220979   3.268   2.887   2.836 -0.9333 -1.7408  0.6870
 3504SOL     OW20980   2.195   8.809   0.655 -0.0046  0.4646  0.0901
 3504SOL    HW120981   2.291   8.800   0.631  0.7463  1.1448  2.6766
 3504SOL    HW220982   2.153   8.881   0.600  1.1494  0.6792 -0.5190
 3505SOL     OW20983   1.416   5.514   3.852  1.1825 -0.2404  0.2612
 3505SOL    HW120984   1.507   5.535   3.889 -0.0507  4.1965  1.0470
 3505SOL    HW220985   1.353   5.497   3.928  0.2579  1.6619 -0.0715
 3506SOL     OW20986   0.832   1.386   1.799  0.1385  0.1558 -0.5601
 3506SOL    HW120987   0.758   1.404   1.864 -0.1502  1.1388 -1.1560
 3506SOL    HW220988   0.842   1.287   1.787  0.9301 -0.0985  1.8289
 3507SOL     OW20989   5.857   8.370   3.608 -0.4166  0.4364  0.2294
 3507SOL    HW120990   5.865   8.421   3.693  0.6134 -0.6093  0.7787
 3507SOL    HW220991   5.827   8.431   3.535  0.7487  1.7953  0.8672
 3508SOL     OW20992   5.286   8.041   2.561 -0.1189 -0.4343  0.3694
 3508SOL    HW120993   5.363   8.020   2.500  0.1926 -0.6796  0.8456
 3508SOL    HW220994   5.316   8.032   2.656 -0.5500  0.1485  0.5594
 3509SOL     OW20995   8.799   5.611   0.290  0.1733  0.3046  0.3873
 3509SOL    HW120996   8.782   5.538   0.356 -0.8673  0.5173  0.3657
 3509SOL    HW220997   8.881   5.590   0.236  0.4342 -0.3652  1.0433
 3510SOL     OW20998   2.143   3.035   3.416  0.0207 -0.2892 -0.2579
 3510SOL    HW120999   2.072   2.993   3.360 -0.1223 -0.3631 -0.0186
 3510SOL    HW221000   2.142   3.134   3.403  0.9020 -0.4282 -1.4662
 3511SOL     OW21001   1.216   4.969   3.023  0.0542  0.3463  0.7601
 3511SOL    HW121002   1.299   5.007   3.064  1.1220 -2.6881  1.4924
 3511SOL    HW221003   1.152   4.942   3.095 -0.9720  1.3080  0.2272
 3512SOL     OW21004   9.200   0.052   3.815 -0.4814 -0.1194  0.1962
 3512SOL    HW121005   9.144   0.089   3.741  0.2887 -1.3304 -0.9978
 3512SOL    HW221006   9.241  -0.035   3.787  1.7045  0.5480  1.1972
 3513SOL     OW21007   8.997   6.536   2.132  0.1266  0.2764 -0.3708
 3513SOL    HW121008   9.041   6.596   2.065  0.7284 -0.7287 -0.8943
 3513SOL    HW221009   9.047   6.450   2.137  0.1197  0.3731  1.4496
 3514SOL     OW21010   8.779   7.170   3.389  0.0957 -0.7854  0.2806
 3514SOL    HW121011   8.808   7.266   3.388  1.2710 -1.1336  0.1448
 3514SOL    HW221012   8.725   7.150   3.308 -2.1603  0.3567  1.4503
 3515SOL     OW21013   2.481   8.888   1.216 -0.2518 -0.0410 -0.2969
 3515SOL    HW121014   2.418   8.959   1.183 -0.9290 -0.3807  0.2651
 3515SOL    HW221015   2.561   8.884   1.155 -0.5614  0.6914 -0.7596
 3516SOL     OW21016   0.005   9.396   0.658 -0.1145 -0.2246  0.2135
 3516SOL    HW121017   0.088   9.341   0.651 -0.1519 -0.4435  1.3793
 3516SOL    HW221018  -0.064   9.345   0.710 -0.3421  0.7022  0.8259
 3517SOL     OW21019   3.393   9.704   3.105 -1.0782  0.5574  0.0987
 3517SOL    HW121020   3.389   9.720   3.204  1.3686 -0.3689  0.3667
 3517SOL    HW221021   3.371   9.790   3.058 -0.4594  1.4902  1.4515
 3518SOL     OW21022   8.903   9.654   1.849  0.3100 -0.7905 -0.6656
 3518SOL    HW121023   8.807   9.646   1.877 -0.3368 -1.3258 -2.9619
 3518SOL    HW221024   8.944   9.733   1.895 -0.9513 -1.1066  1.0640
 3519SOL     OW21025   1.340   8.589   1.777 -0.0597  0.1268  0.0932
 3519SOL    HW121026   1.261   8.562   1.722  0.7509 -0.6897 -0.6962
 3519SOL    HW221027   1.343   8.688   1.786  0.2470  0.3289 -2.0328
 3520SOL     OW21028   9.453   0.311   3.040 -0.2933  0.0965 -0.0923
 3520SOL    HW121029   9.491   0.397   3.075 -1.2536  0.4209  0.1657
 3520SOL    HW221030   9.364   0.294   3.082  0.9667 -2.2777  1.6850
 3521SOL     OW21031   4.681   0.808   0.472  0.0226  0.1744 -0.7043
 3521SOL    HW121032   4.720   0.717   0.485 -0.6517  0.1412  1.2825
 3521SOL    HW221033   4.684   0.832   0.375  1.5780 -1.3315 -1.0524
 3522SOL     OW21034   2.153   5.226   2.134 -0.2747  0.3214 -0.3261
 3522SOL    HW121035   2.197   5.149   2.088 -2.6347 -0.8777 -0.6669
 3522SOL    HW221036   2.082   5.192   2.196 -0.7340  2.1835  0.2166
 3523SOL     OW21037   4.051   1.040   3.803 -0.3843  0.2372  0.0221
 3523SOL    HW121038   4.027   1.126   3.848  0.8175  0.8089 -0.4081
 3523SOL    HW221039   4.122   0.994   3.856 -0.6984 -0.2752  0.0050
 3524SOL     OW21040   6.697   8.584   2.303 -0.2745  0.0327  0.4453
 3524SOL    HW121041   6.630   8.552   2.371  0.6945  1.0840  1.9191
 3524SOL    HW221042   6.679   8.681   2.282  0.3612  0.1253  0.3292
 3525SOL     OW21043   3.731   3.941   0.565 -0.5119 -0.2807 -0.1116
 3525SOL    HW121044   3.817   3.985   0.537 -0.3866 -2.0939 -2.7879
 3525SOL    HW221045   3.747   3.843   0.578 -2.3723 -0.8009 -1.5709
 3526SOL     OW21046   2.516   7.455   3.852  0.5216  0.3279 -0.1754
 3526SOL    HW121047   2.416   7.450   3.852  0.5724 -0.7993 -0.1944
 3526SOL    HW221048   2.544   7.549   3.837 -0.5502  0.9084  1.3428
 3527SOL     OW21049   8.828   7.197   0.647 -0.2851  0.0525 -0.2649
 3527SOL    HW121050   8.799   7.143   0.726 -2.0158  1.4083  0.0733
 3527SOL    HW221051   8.897   7.147   0.596 -1.3600 -2.1900  0.4106
 3528SOL     OW21052   2.955   1.976   1.786 -0.0389 -0.1101  0.1108
 3528SOL    HW121053   3.045   2.020   1.793 -0.1099  0.0774 -0.1566
 3528SOL    HW221054   2.948   1.905   1.857  1.1508 -1.6367 -1.2533
 3529SOL     OW21055   2.562   7.533   1.974 -0.2478  0.8617 -0.0094
 3529SOL    HW121056   2.653   7.495   1.960 -0.2807  0.2211  1.4263
 3529SOL    HW221057   2.570   7.621   2.021 -0.3350  1.0937 -0.4297
 3530SOL     OW21058   1.803   0.248   0.386 -0.1104  0.0833  0.4184
 3530SOL    HW121059   1.801   0.348   0.379 -0.4173  0.0399 -0.1989
 3530SOL    HW221060   1.885   0.213   0.340  0.6797  0.1312  1.7805
 3531SOL     OW21061   0.290   0.964   1.756  0.3255  0.1072  0.0422
 3531SOL    HW121062   0.330   0.944   1.667 -0.0519 -2.1489  0.3581
 3531SOL    HW221063   0.342   0.918   1.828 -1.5056 -1.0748  0.6462
 3532SOL     OW21064   2.162   8.792   1.689 -0.2816 -0.1254  0.5838
 3532SOL    HW121065   2.219   8.848   1.629  0.9057 -0.5757  1.2585
 3532SOL    HW221066   2.213   8.710   1.716 -1.3084 -0.6084  1.0929
 3533SOL     OW21067   0.605   4.105   0.327  0.7053 -0.0557  0.2038
 3533SOL    HW121068   0.537   4.046   0.283 -1.1616  0.8849  1.7348
 3533SOL    HW221069   0.636   4.174   0.262 -2.3887  1.6417  0.3982
 3534SOL     OW21070   3.312   8.442   2.194 -0.0179  0.2721 -0.0095
 3534SOL    HW121071   3.371   8.379   2.143 -1.5236  0.0019 -1.4852
 3534SOL    HW221072   3.350   8.534   2.189  2.7149 -0.6117  2.9722
 3535SOL     OW21073   7.677   1.887   2.169 -0.2817  0.1817 -0.1260
 3535SOL    HW121074   7.653   1.979   2.138 -0.4728  0.6339  1.3654
 3535SOL    HW221075   7.593   1.834   2.182 -0.4210  1.0649  2.9094
 3536SOL     OW21076   9.831   1.571   2.620  0.5363 -0.0877  0.0523
 3536SOL    HW121077   9.752   1.510   2.614  0.2905  0.1571  0.8080
 3536SOL    HW221078   9.901   1.541   2.555 -0.3560 -0.0419 -0.9515
 3537SOL     OW21079   7.739   7.705   2.100  0.7706  0.5055  0.1270
 3537SOL    HW121080   7.795   7.713   2.183 -0.2290  1.9016  0.6860
 3537SOL    HW221081   7.724   7.796   2.061  1.1469 -0.1287 -1.5479
 3538SOL     OW21082   7.925   6.895   3.194 -0.3617 -0.0248 -0.5089
 3538SOL    HW121083   7.934   6.994   3.188  0.7447 -0.2045 -2.1289
 3538SOL    HW221084   8.000   6.851   3.143 -0.3832 -1.6935  0.8364
 3539SOL     OW21085   0.992   6.345   1.987  0.2588 -0.3345  0.3182
 3539SOL    HW121086   1.055   6.281   1.945 -1.4491 -0.7741 -1.6181
 3539SOL    HW221087   0.927   6.379   1.919 -2.2656 -0.6770  2.4684
 3540SOL     OW21088   0.067   4.698   2.904  0.1313  0.4973  0.9690
 3540SOL    HW121089   0.096   4.676   2.997  0.0049  1.6616  1.2859
 3540SOL    HW221090   0.110   4.784   2.875 -0.1652  0.3595  0.1112
 3541SOL     OW21091   3.216   1.247   3.662  0.3097 -0.2156 -0.6780
 3541SOL    HW121092   3.237   1.198   3.747 -2.9727 -1.7955 -0.7150
 3541SOL    HW221093   3.288   1.229   3.595  3.4820  1.7955  1.9464
 3542SOL     OW21094   4.054   9.283   0.113 -0.3519 -0.4038 -0.6239
 3542SOL    HW121095   4.065   9.369   0.162  1.5427 -0.3850 -1.0201
 3542SOL    HW221096   4.039   9.209   0.179 -2.5354  0.2799 -0.3158
 3543SOL     OW21097   3.904   4.870   2.382  0.1971  0.0797 -0.2439
 3543SOL    HW121098   3.947   4.936   2.320  0.1058  0.5045  0.1350
 3543SOL    HW221099   3.844   4.809   2.331  1.0404 -0.3388 -0.7416
 3544SOL     OW21100   8.508   5.400   0.361  0.0551 -1.0351  0.5516
 3544SOL    HW121101   8.506   5.318   0.303  0.6583 -1.7319  1.4885
 3544SOL    HW221102   8.595   5.402   0.411  0.4769  0.7151 -0.2144
 3545SOL     OW21103   2.457   7.273   0.329  0.0579 -0.1901 -0.0726
 3545SOL    HW121104   2.457   7.294   0.231 -0.2600  1.2469  0.2128
 3545SOL    HW221105   2.470   7.175   0.343  3.2604 -0.0150 -1.4604
 3546SOL     OW21106   8.366   1.325   2.164  0.3719 -0.4207  0.4307
 3546SOL    HW121107   8.270   1.351   2.173  0.6842  0.7827  0.3515
 3546SOL    HW221108   8.396   1.339   2.070  1.2135  1.3158  0.9309
 3547SOL     OW21109   1.996   5.583   1.109 -0.0754  0.0952  0.2712
 3547SOL    HW121110   1.953   5.533   1.185  2.2802 -1.9880  0.3033
 3547SOL    HW221111   2.078   5.629   1.142  0.2083  0.3225 -0.7313
 3548SOL     OW21112   0.151   3.048   0.107 -0.1947  0.3952 -0.0986
 3548SOL    HW121113   0.206   3.113   0.054 -0.3194  1.4675  1.0616
 3548SOL    HW221114   0.209   3.004   0.176  0.0831 -1.3595 -1.4153
 3549SOL     OW21115   0.738   2.202   0.945  0.0111  0.7419 -0.3448
 3549SOL    HW121116   0.700   2.294   0.957  0.0694  0.8796 -1.1652
 3549SOL    HW221117   0.738   2.179   0.848 -0.7281 -0.4345 -0.0773
 3550SOL     OW21118   0.358   2.852   3.319 -0.2134  0.6107  0.1034
 3550SOL    HW121119   0.314   2.840   3.408 -0.2124 -0.6318 -0.0585
 3550SOL    HW221120   0.290   2.884   3.253 -0.5721  0.0280  0.1851
 3551SOL     OW21121   4.255   7.478   1.030  0.3115  0.9026 -0.4115
 3551SOL    HW121122   4.337   7.534   1.033  2.1253 -1.7142  0.2841
 3551SOL    HW221123   4.213   7.475   1.120 -0.0719  1.5008 -0.5626
 3552SOL     OW21124   3.933   8.982   0.838  0.1976  0.0547  0.8279
 3552SOL    HW121125   3.870   8.992   0.914  1.1603  1.1352  1.5115
 3552SOL    HW221126   4.023   8.956   0.872  0.2190 -1.1522 -0.1064
 3553SOL     OW21127   9.265   1.380   3.041 -0.4453 -0.3153  0.1080
 3553SOL    HW121128   9.304   1.446   3.106 -0.6875 -0.3731  0.3090
 3553SOL    HW221129   9.339   1.342   2.986 -0.2397 -0.2548  0.3380
 3554SOL     OW21130   0.337   7.660   0.400 -0.7073  0.0019 -0.5213
 3554SOL    HW121131   0.241   7.685   0.386 -1.3382 -1.5738  0.8504
 3554SOL    HW221132   0.343   7.583   0.463  1.5806  1.6702  1.4480
 3555SOL     OW21133   7.341   8.971   0.387  0.0571 -0.1107  0.1406
 3555SOL    HW121134   7.349   9.030   0.306 -3.4025 -2.2033 -1.8958
 3555SOL    HW221135   7.379   8.881   0.366 -0.4309 -0.5247  1.0111
 3556SOL     OW21136   4.905   9.648   0.458 -0.1607  0.1440 -0.2707
 3556SOL    HW121137   4.921   9.746   0.474  0.2779  0.0096  0.1091
 3556SOL    HW221138   4.901   9.631   0.360 -0.4095  0.5722 -0.3393
 3557SOL     OW21139   2.124   5.148   3.085 -0.6733 -0.2052  0.2456
 3557SOL    HW121140   2.116   5.108   2.994 -0.2513  0.6085 -0.1587
 3557SOL    HW221141   2.062   5.101   3.149 -0.8403 -0.8883 -0.4183
 3558SOL     OW21142   0.918   8.950   0.311 -0.0239  0.3824 -0.7246
 3558SOL    HW121143   0.953   8.857   0.299 -0.3155  0.3353 -1.2406
 3558SOL    HW221144   0.820   8.951   0.288 -0.2679  0.5897  0.3182
 3559SOL     OW21145   4.006   5.760   2.344 -0.5646  0.0283 -0.0922
 3559SOL    HW121146   4.008   5.860   2.336  0.8035 -0.0609 -0.9502
 3559SOL    HW221147   3.982   5.735   2.438  2.3092  1.1936  0.9858
 3560SOL     OW21148   3.779   5.206   2.639  0.3029 -0.0913  0.2221
 3560SOL    HW121149   3.679   5.208   2.646  0.3999  1.1853  1.5896
 3560SOL    HW221150   3.811   5.112   2.641 -0.6796 -0.4269  3.4944
 3561SOL     OW21151   9.051   9.422   1.993 -0.2408  0.3710  0.1154
 3561SOL    HW121152   9.024   9.501   1.939 -1.5169 -1.6733 -2.3227
 3561SOL    HW221153   9.151   9.413   1.991 -0.2147  0.9048 -1.0455
 3562SOL     OW21154   1.656   6.723   3.335  0.0736 -0.4142  0.5333
 3562SOL    HW121155   1.718   6.795   3.366  0.7566 -0.8573  0.2004
 3562SOL    HW221156   1.580   6.715   3.400  1.5565 -1.4071  2.1956
 3563SOL     OW21157   3.814   1.581   0.231 -0.4584 -0.1074 -0.3729
 3563SOL    HW121158   3.731   1.635   0.239 -1.1864 -0.8355 -2.5652
 3563SOL    HW221159   3.873   1.621   0.161  0.2333 -0.6008 -0.0777
 3564SOL     OW21160   0.942   9.348   3.971  0.1985  0.0927 -0.3362
 3564SOL    HW121161   1.021   9.336   3.911  1.5724  1.1661  1.2242
 3564SOL    HW221162   0.943   9.277   4.041 -1.2541 -0.9958 -1.3941
 3565SOL     OW21163   4.963   0.316   1.919  0.6611 -0.0363  0.3298
 3565SOL    HW121164   4.951   0.401   1.971 -0.9193  1.6403 -2.6357
 3565SOL    HW221165   4.968   0.337   1.822 -0.6497 -3.4512 -0.5379
 3566SOL     OW21166   1.721   1.741   0.986  0.4116 -0.5244 -0.0205
 3566SOL    HW121167   1.806   1.778   1.025  0.2998 -0.9345  0.6228
 3566SOL    HW221168   1.679   1.810   0.927  0.8716 -0.0935  0.1455
 3567SOL     OW21169   8.704   0.105   0.689  0.0424 -0.3242 -0.5819
 3567SOL    HW121170   8.753   0.111   0.776 -1.1004 -1.1323  0.1278
 3567SOL    HW221171   8.763   0.063   0.620  1.4747  1.6804 -0.6155
 3568SOL     OW21172   8.783   4.584   0.535 -0.0963  0.0380  0.0625
 3568SOL    HW121173   8.803   4.588   0.633  0.1699  0.2487 -0.0023
 3568SOL    HW221174   8.715   4.512   0.519  0.5878 -0.6679  0.2818
 3569SOL     OW21175   2.931   6.772   3.394  0.2907  0.1563 -0.4115
 3569SOL    HW121176   2.916   6.681   3.433  0.5729  0.1474 -0.3226
 3569SOL    HW221177   2.847   6.804   3.350 -0.5577  0.8898  1.6660
 3570SOL     OW21178   8.518   3.588   2.559  0.0332  0.2299  0.3615
 3570SOL    HW121179   8.441   3.530   2.585  0.5617 -1.0817 -0.8814
 3570SOL    HW221180   8.604   3.546   2.590  0.2576  1.7235  1.8147
 3571SOL     OW21181   9.307   0.486   3.840  0.1624 -0.1805 -0.1604
 3571SOL    HW121182   9.223   0.456   3.884  1.0922  1.0882  2.6601
 3571SOL    HW221183   9.357   0.407   3.805 -1.1483 -1.1541  0.1400
 3572SOL     OW21184   8.581   3.331   3.572 -0.0241 -0.4765 -0.1752
 3572SOL    HW121185   8.659   3.324   3.510 -0.5549  2.4415 -1.2397
 3572SOL    HW221186   8.508   3.269   3.541  0.6625 -0.8903 -0.9768
 3573SOL     OW21187   6.121   9.313   2.242  0.2640 -0.2133  0.1853
 3573SOL    HW121188   6.165   9.225   2.222 -0.0429 -0.2138 -0.4966
 3573SOL    HW221189   6.187   9.387   2.228 -0.1278 -0.1573 -1.5150
 3574SOL     OW21190   3.193   7.294   1.970 -0.3433 -0.3668  0.0016
 3574SOL    HW121191   3.248   7.301   2.053 -0.2555  0.7750 -0.1469
 3574SOL    HW221192   3.098   7.317   1.990 -0.2674  0.1913 -0.2698
 3575SOL     OW21193   3.579   8.921   0.541  0.1256 -0.0057 -0.0933
 3575SOL    HW121194   3.543   9.001   0.588 -0.1730  0.1388 -0.5760
 3575SOL    HW221195   3.525   8.903   0.459  1.3936  0.4455 -1.0323
 3576SOL     OW21196   4.996   8.185   3.212  0.0446 -0.2353  0.3971
 3576SOL    HW121197   5.004   8.198   3.113 -0.3221  1.0700  0.5278
 3576SOL    HW221198   5.029   8.094   3.236  0.7528 -0.3249 -0.8461
 3577SOL     OW21199   1.076   5.674   3.296 -0.3643 -0.5682  0.0138
 3577SOL    HW121200   1.082   5.746   3.366 -1.2516 -0.2746 -0.2111
 3577SOL    HW221201   1.165   5.628   3.288  0.4585  1.0637 -0.4334
 3578SOL     OW21202   2.776   5.474   3.359 -0.1454  0.1755 -0.5206
 3578SOL    HW121203   2.810   5.385   3.388  0.4182  0.1006 -1.3991
 3578SOL    HW221204   2.765   5.475   3.259  1.9901  1.8077 -0.7778
 3579SOL     OW21205   5.137   8.267   2.572  0.2158 -0.0764 -0.1175
 3579SOL    HW121206   5.196   8.186   2.568  0.0279 -0.1784 -0.8531
 3579SOL    HW221207   5.158   8.319   2.655  1.3504 -0.1048 -0.3784
 3580SOL     OW21208   0.130   8.838   2.272 -0.3795 -0.0982  0.7594
 3580SOL    HW121209   0.074   8.920   2.256 -3.0229 -2.0360 -0.3278
 3580SOL    HW221210   0.121   8.810   2.367 -0.0235  0.4775  0.9652
 3581SOL     OW21211   8.368   8.818   2.304  0.2601 -0.1759 -0.2823
 3581SOL    HW121212   8.452   8.815   2.249  0.0584  2.1914 -0.8094
 3581SOL    HW221213   8.289   8.827   2.243 -0.2741 -1.0818  0.2686
 3582SOL     OW21214   0.798   4.636   4.032  0.5553 -0.3391  0.1719
 3582SOL    HW121215   0.855   4.677   3.961 -0.5326 -0.7356 -0.9462
 3582SOL    HW221216   0.775   4.704   4.101  1.0257  0.2336 -0.2362
 3583SOL     OW21217   4.864   0.381   3.776 -0.1725  0.0595  0.3665
 3583SOL    HW121218   4.838   0.286   3.759 -1.6788  0.3288  1.0715
 3583SOL    HW221219   4.784   0.440   3.765  1.4131  1.6901 -3.2388
 3584SOL     OW21220   3.961   3.995   1.795  0.1459 -0.0422 -0.4148
 3584SOL    HW121221   3.952   3.914   1.737  0.1888  1.1704 -2.1308
 3584SOL    HW221222   3.902   4.068   1.761  0.0699  0.6524  1.1512
 3585SOL     OW21223   1.375   1.221   1.812  0.3569 -0.3217 -0.0983
 3585SOL    HW121224   1.401   1.216   1.715 -3.7606 -1.4681 -1.2451
 3585SOL    HW221225   1.332   1.310   1.830 -1.6458 -1.2625 -0.1189
 3586SOL     OW21226   3.932   7.130   2.581  0.0853 -0.1108  0.0652
 3586SOL    HW121227   3.879   7.068   2.524  1.0828 -0.1469 -0.8432
 3586SOL    HW221228   4.016   7.156   2.533  1.3588 -0.8090  1.8286
 3587SOL     OW21229   2.412   5.872   1.355  0.1346 -0.3877 -0.3613
 3587SOL    HW121230   2.349   5.949   1.354 -3.1666 -2.9709 -1.1413
 3587SOL    HW221231   2.425   5.840   1.449  2.2274  1.5946  0.0705
 3588SOL     OW21232   1.511   9.121   0.834  0.2584 -0.1178  0.0939
 3588SOL    HW121233   1.575   9.081   0.898 -0.1573 -0.2927  0.4011
 3588SOL    HW221234   1.552   9.202   0.791  1.7317 -1.7790 -1.7442
 3589SOL     OW21235   9.483   7.266   3.278  0.3859  0.0495  0.3766
 3589SOL    HW121236   9.485   7.272   3.178 -0.5030 -1.5143  0.2508
 3589SOL    HW221237   9.490   7.171   3.306 -0.4951  0.3787  1.7799
 3590SOL     OW21238   3.546   1.336   3.446  0.2598  0.4654 -0.3248
 3590SOL    HW121239   3.628   1.389   3.463 -0.8416  2.4014 -0.8810
 3590SOL    HW221240   3.571   1.246   3.411  2.1340  1.0011 -0.4057
 3591SOL     OW21241   1.686   9.388   3.215  0.0699  0.0499 -0.4620
 3591SOL    HW121242   1.646   9.347   3.133 -0.9151 -0.8556  0.4679
 3591SOL    HW221243   1.688   9.488   3.205 -2.6193  0.1199 -0.4267
 3592SOL     OW21244   1.484   6.582   1.737 -0.1932  0.1890 -0.1920
 3592SOL    HW121245   1.577   6.563   1.706 -0.0039  1.7386 -0.6148
 3592SOL    HW221246   1.474   6.680   1.755 -1.2882 -0.2035  1.4052
 3593SOL     OW21247   2.956   1.158   3.454  0.2427  0.6921  0.2420
 3593SOL    HW121248   3.002   1.210   3.382 -0.6687 -1.2679 -1.8119
 3593SOL    HW221249   2.879   1.211   3.490  0.0507  1.2663 -0.9858
 3594SOL     OW21250   4.915   9.098   2.081 -0.1588  0.1887 -0.7839
 3594SOL    HW121251   4.882   9.014   2.038 -1.6072  1.0951 -1.4624
 3594SOL    HW221252   4.933   9.081   2.178 -0.7085 -0.8317 -0.8535
 3595SOL     OW21253   1.567   5.099   1.259 -0.4053 -0.5311 -0.0010
 3595SOL    HW121254   1.532   5.054   1.340 -0.2699 -1.1050 -0.2558
 3595SOL    HW221255   1.666   5.086   1.254 -0.2220  0.6774  0.4698
 3596SOL     OW21256   0.388   8.087   0.988 -0.3150  0.1053  0.0466
 3596SOL    HW121257   0.313   8.054   0.929 -0.4219  0.0327  0.2219
 3596SOL    HW221258   0.373   8.054   1.081  0.4930 -0.7875 -0.1369
 3597SOL     OW21259   3.044   9.453   1.879 -0.0193 -0.1366 -0.5302
 3597SOL    HW121260   3.061   9.544   1.917  0.7683 -1.1701  1.6099
 3597SOL    HW221261   3.128   9.418   1.837  1.0817 -1.9059  3.0074
 3598SOL     OW21262   0.670   2.899   3.795 -0.1804 -0.4931  0.1287
 3598SOL    HW121263   0.599   2.828   3.801 -0.1456 -0.6624 -1.1809
 3598SOL    HW221264   0.760   2.856   3.799 -0.1555 -0.4063  0.5000
 3599SOL     OW21265   1.914   5.100   2.367  0.3137 -0.1664  0.4866
 3599SOL    HW121266   1.870   5.132   2.451  0.0408 -0.7587  0.5709
 3599SOL    HW221267   1.977   5.026   2.389  1.1201  0.4620  0.3237
 3600SOL     OW21268   2.968   6.520   1.278  0.5317  0.3874  0.2629
 3600SOL    HW121269   2.997   6.527   1.374  0.4522  0.8573  0.2539
 3600SOL    HW221270   3.011   6.440   1.236  0.0918 -0.1745  0.8605
 3601SOL     OW21271   4.930   0.106   2.360  0.1687 -0.2625  0.0168
 3601SOL    HW121272   4.979   0.147   2.437  0.4998  0.0660 -0.3657
 3601SOL    HW221273   4.847   0.159   2.342  0.1946 -0.2199  0.0219
 3602SOL     OW21274   3.131   3.133   1.503 -0.1331 -0.0343  0.3334
 3602SOL    HW121275   3.070   3.151   1.425  1.5740 -1.4252 -1.3798
 3602SOL    HW221276   3.226   3.138   1.472  0.6600  1.5571  2.8341
 3603SOL     OW21277   7.314   9.533   1.492  0.3586 -0.0821  0.0101
 3603SOL    HW121278   7.366   9.615   1.515 -0.7196  1.0723 -1.5134
 3603SOL    HW221279   7.348   9.455   1.545  3.4161  0.6952 -0.7029
 3604SOL     OW21280   3.164   8.352   3.534 -0.5082 -0.1264  0.0123
 3604SOL    HW121281   3.180   8.290   3.611  1.0108  0.3455  0.0880
 3604SOL    HW221282   3.136   8.299   3.454 -1.0851 -0.7173  0.5938
 3605SOL     OW21283   9.136   3.357   2.641 -1.0647  0.3367 -0.1448
 3605SOL    HW121284   9.219   3.302   2.655 -2.1495 -0.8980  1.6128
 3605SOL    HW221285   9.108   3.349   2.545 -1.7922 -3.1099  0.2731
 3606SOL     OW21286   7.870   9.640   0.200  0.0854  0.3485 -0.2182
 3606SOL    HW121287   7.909   9.686   0.280 -0.2340  0.4975 -0.1468
 3606SOL    HW221288   7.915   9.552   0.187  0.3289  0.4469 -0.0389
 3607SOL     OW21289   2.966   3.078   2.712 -0.4087 -0.2054 -0.0131
 3607SOL    HW121290   2.920   3.129   2.785 -2.4595 -0.6876 -0.9528
 3607SOL    HW221291   2.899   3.034   2.653  1.1868  0.5269 -2.4906
 3608SOL     OW21292   7.289   8.829   2.203 -0.2148 -0.1296  0.7480
 3608SOL    HW121293   7.211   8.892   2.209 -0.3322 -0.1130 -0.8421
 3608SOL    HW221294   7.373   8.880   2.220 -0.1241  0.9421 -2.6474
 3609SOL     OW21295   2.509   0.014   0.002 -0.2652  0.3047  0.0159
 3609SOL    HW121296   2.427  -0.037   0.031 -1.2169  1.5327 -0.4595
 3609SOL    HW221297   2.546   0.064   0.080 -1.3087  1.5500 -0.2747
 3610SOL     OW21298   0.683   9.027   1.714 -0.1170 -0.3124  0.4605
 3610SOL    HW121299   0.624   9.101   1.747 -0.8160 -1.1758  1.1616
 3610SOL    HW221300   0.740   9.061   1.639 -0.8673  0.7779  0.3732
 3611SOL     OW21301   8.053   2.067   0.880 -0.6202  0.0778  0.1170
 3611SOL    HW121302   8.148   2.073   0.911 -0.7292 -1.1188  0.7303
 3611SOL    HW221303   7.994   2.046   0.958 -1.1082 -1.3054 -0.5980
 3612SOL     OW21304   9.907   8.581   1.360 -0.4313 -0.0132 -0.9382
 3612SOL    HW121305   9.851   8.524   1.300 -0.1117 -0.5259 -0.7487
 3612SOL    HW221306   9.852   8.611   1.438 -0.4387 -0.5482 -0.7326
 3613SOL     OW21307   8.964   6.135   2.269 -0.4669 -0.1415  0.1303
 3613SOL    HW121308   9.015   6.115   2.185 -0.4192  1.2357 -0.1751
 3613SOL    HW221309   8.869   6.153   2.247 -0.6863 -0.8352  0.4958
 3614SOL     OW21310   9.924   5.958   0.449  0.4087 -0.2593 -0.2207
 3614SOL    HW121311   9.861   5.946   0.372 -0.2246 -0.6101  0.3488
 3614SOL    HW221312   9.942   6.055   0.463 -2.2654  0.0443  1.4168
 3615SOL     OW21313   2.168   0.364   3.777 -0.4835  0.0934  0.2421
 3615SOL    HW121314   2.166   0.322   3.686 -0.3911 -0.6365  0.5698
 3615SOL    HW221315   2.255   0.341   3.822 -0.9206 -0.3351  0.8795
 3616SOL     OW21316   0.945   7.108   3.000 -0.5658 -0.4586  0.1047
 3616SOL    HW121317   1.018   7.130   2.935 -0.6358  0.9712  0.5087
 3616SOL    HW221318   0.862   7.159   2.976 -1.1207 -1.2568  0.2960
 3617SOL     OW21319   4.398   0.743   2.824  0.1997  0.7453  0.2474
 3617SOL    HW121320   4.435   0.663   2.776 -1.8753 -0.9002  1.2896
 3617SOL    HW221321   4.435   0.827   2.783  1.4320 -0.7055 -1.7057
 3618SOL     OW21322   9.836   3.533   1.048 -0.2654 -0.4542 -0.2877
 3618SOL    HW121323   9.892   3.451   1.061  0.0905 -0.1905 -0.1293
 3618SOL    HW221324   9.740   3.511   1.063 -0.4734 -1.4615 -2.9106
 3619SOL     OW21325   0.818   3.682   2.585 -0.6059 -0.2254  0.4509
 3619SOL    HW121326   0.722   3.703   2.602 -0.6620  3.0688 -3.2060
 3619SOL    HW221327   0.837   3.691   2.487  3.9092  1.3521  1.3502
 3620SOL     OW21328   2.833   7.290   0.891  0.1227  0.3210 -0.1087
 3620SOL    HW121329   2.761   7.307   0.824  1.5746  0.7989 -1.5696
 3620SOL    HW221330   2.866   7.377   0.928  0.5904  0.1497 -0.1218
 3621SOL     OW21331   3.761   7.030   0.779  0.4569  0.0711 -0.2246
 3621SOL    HW121332   3.675   7.067   0.813  0.7071  0.2913  0.1734
 3621SOL    HW221333   3.822   7.010   0.856 -0.4008 -3.0424 -0.2737
 3622SOL     OW21334   1.221   7.528   0.588 -0.1945  0.2733 -0.4660
 3622SOL    HW121335   1.186   7.555   0.498 -2.2696 -0.2061  0.1759
 3622SOL    HW221336   1.182   7.440   0.614  0.2221  0.5165  1.0031
 3623SOL     OW21337   9.792   2.809   3.336 -0.4009  0.2030  0.1994
 3623SOL    HW121338   9.867   2.866   3.302 -0.0429  0.0315  0.7083
 3623SOL    HW221339   9.800   2.798   3.435 -1.3216  0.5157  0.3195
 3624SOL     OW21340   9.398   6.050   0.850  0.6443 -0.5794  0.2479
 3624SOL    HW121341   9.474   6.074   0.790  0.4342  0.4055  0.3726
 3624SOL    HW221342   9.425   6.061   0.946  0.3100 -0.1070  0.2914
 3625SOL     OW21343   4.264   0.277   2.043 -0.2212  0.2863  0.6783
 3625SOL    HW121344   4.305   0.309   1.957 -1.4370 -0.5256 -0.2274
 3625SOL    HW221345   4.180   0.327   2.060 -1.3848 -1.3844 -0.0134
 3626SOL     OW21346   1.162   3.253   0.568  0.4406 -0.1183 -0.1494
 3626SOL    HW121347   1.086   3.245   0.633 -0.1682 -0.0185 -0.8493
 3626SOL    HW221348   1.247   3.267   0.619 -0.0370 -0.0113  0.6331
 3627SOL     OW21349   8.691   7.019   1.389 -0.0012  0.0543 -0.1628
 3627SOL    HW121350   8.653   6.966   1.465 -0.8090  1.1378  0.2043
 3627SOL    HW221351   8.748   7.093   1.425 -1.0603  1.0898 -0.5562
 3628SOL     OW21352   2.181   6.042   3.691  0.5212  0.2758  0.4178
 3628SOL    HW121353   2.086   6.070   3.706  0.7295  0.7502  0.8424
 3628SOL    HW221354   2.228   6.111   3.637  0.1064 -0.8559 -1.4595
 3629SOL     OW21355   8.147   7.663   3.485  0.4525  0.1352  0.5334
 3629SOL    HW121356   8.220   7.625   3.428  0.3354  0.5352  0.1200
 3629SOL    HW221357   8.132   7.759   3.462 -2.0700 -0.6445 -1.3261
 3630SOL     OW21358   4.713   2.364   1.429 -0.2133  0.4517  0.3993
 3630SOL    HW121359   4.650   2.423   1.481 -1.0997  0.3340 -0.5327
 3630SOL    HW221360   4.710   2.271   1.466  0.3455  0.7315  1.1528
 3631SOL     OW21361   9.797   5.892   3.080 -0.2044  0.3881 -0.0231
 3631SOL    HW121362   9.760   5.800   3.095  1.8430 -0.4068  0.2666
 3631SOL    HW221363   9.846   5.895   2.993  2.2011  0.3762  1.2877
 3632SOL     OW21364   0.400   4.560   3.420 -0.1880 -0.2242  0.0572
 3632SOL    HW121365   0.431   4.620   3.346  0.8589 -1.3763 -0.4605
 3632SOL    HW221366   0.422   4.465   3.397  1.8627 -0.4293  2.6954
 3633SOL     OW21367   4.780   0.583   0.091 -0.2567  0.3221  0.1485
 3633SOL    HW121368   4.846   0.602   0.018 -0.2892  0.5038  0.1649
 3633SOL    HW221369   4.779   0.485   0.111 -1.7647 -0.0285 -1.5381
 3634SOL     OW21370   7.068   9.780   3.525 -0.1589 -0.2002 -1.0823
 3634SOL    HW121371   7.148   9.767   3.467  0.0777 -2.2011 -0.3501
 3634SOL    HW221372   6.998   9.713   3.502  0.1268 -1.3466  1.2244
 3635SOL     OW21373   8.513   2.775   1.726  0.0197  0.3516 -0.0053
 3635SOL    HW121374   8.550   2.817   1.809  2.0000 -0.3108 -0.5293
 3635SOL    HW221375   8.532   2.677   1.727 -1.9734 -0.0588 -0.1867
 3636SOL     OW21376   8.552   8.099   1.601  0.0922 -0.4081 -0.3201
 3636SOL    HW121377   8.590   8.179   1.647 -2.1275 -0.0656  0.9727
 3636SOL    HW221378   8.604   8.080   1.518  1.0985  1.9015 -0.2392
 3637SOL     OW21379   1.974   3.590   2.562 -0.1429 -0.3657  0.1543
 3637SOL    HW121380   1.966   3.653   2.639 -0.7356 -0.5350  0.2310
 3637SOL    HW221381   1.916   3.620   2.487  0.0734 -0.4610 -0.0535
 3638SOL     OW21382   2.674   6.338   1.311 -0.2884  0.5950 -0.2399
 3638SOL    HW121383   2.656   6.342   1.213 -1.6048 -0.2115 -0.0422
 3638SOL    HW221384   2.673   6.431   1.349  0.0406  0.8921 -0.9479
 3639SOL     OW21385   8.291   0.383   2.891  0.1692 -0.5375  0.4594
 3639SOL    HW121386   8.222   0.314   2.911 -0.0340 -0.2996  0.5808
 3639SOL    HW221387   8.377   0.357   2.934  0.4700 -1.4232 -0.6496
 3640SOL     OW21388   9.998   7.229   3.637  0.2606  0.2690  0.3783
 3640SOL    HW121389  10.021   7.237   3.540 -0.0105 -0.6757  0.2337
 3640SOL    HW221390  10.061   7.285   3.691  1.5483 -0.6391 -0.1850
 3641SOL     OW21391   2.973   3.633   1.440  0.1802  0.1861  0.2053
 3641SOL    HW121392   2.875   3.622   1.425  0.4408 -1.9310  0.0218
 3641SOL    HW221393   2.992   3.631   1.538  0.3168 -2.0355  0.1596
 3642SOL     OW21394   9.054   9.993   0.758 -0.1856 -0.3580  0.2105
 3642SOL    HW121395   9.041   9.903   0.799  1.9820  0.0965  2.0568
 3642SOL    HW221396   8.998  10.060   0.808 -1.8013 -0.6596 -1.1657
 3643SOL     OW21397   0.569   4.816   1.680 -0.3806  0.7212 -0.0597
 3643SOL    HW121398   0.606   4.827   1.588 -0.4682  2.1933  0.0689
 3643SOL    HW221399   0.543   4.906   1.716 -0.3345  0.1544  1.4022
 3644SOL     OW21400   2.311   1.814   1.696 -0.3734  0.1425  0.4208
 3644SOL    HW121401   2.296   1.870   1.614 -0.8022 -0.0058  0.3945
 3644SOL    HW221402   2.223   1.797   1.741 -0.2010 -0.2095  0.6266
 3645SOL     OW21403   0.868   2.490   2.957 -0.5060 -0.3220  0.3917
 3645SOL    HW121404   0.936   2.481   3.030 -0.0878 -1.0811 -0.0853
 3645SOL    HW221405   0.855   2.587   2.937  2.2972 -0.2077 -1.2022
 3646SOL     OW21406   2.708   3.311   1.687 -0.3411  0.6451  0.4564
 3646SOL    HW121407   2.724   3.234   1.626  1.2049  0.6414  0.8369
 3646SOL    HW221408   2.625   3.359   1.660 -0.1846  0.0783 -1.0467
 3647SOL     OW21409   3.545   6.747   3.395  0.1421  0.2562 -0.1490
 3647SOL    HW121410   3.559   6.662   3.346 -0.6365  0.5444 -0.8925
 3647SOL    HW221411   3.447   6.768   3.398  0.3788  1.4235 -0.4874
 3648SOL     OW21412   4.101   2.432   1.932  0.2611  0.0264  0.3164
 3648SOL    HW121413   4.065   2.350   1.888  0.1151 -0.2802  1.0086
 3648SOL    HW221414   4.106   2.418   2.030  0.5014  0.7488  0.4113
 3649SOL     OW21415   4.253   1.553   0.877  0.6392  0.5684  0.0684
 3649SOL    HW121416   4.303   1.506   0.804 -0.1021  0.2329 -0.2269
 3649SOL    HW221417   4.164   1.508   0.890  0.7532  0.6463  1.1473
 3650SOL     OW21418   8.290   9.637   1.187 -0.4266  0.1241  0.1366
 3650SOL    HW121419   8.212   9.633   1.250 -0.5633  1.7831  0.1039
 3650SOL    HW221420   8.375   9.638   1.239 -0.4215 -1.4281  0.1819
 3651SOL     OW21421   0.216   5.079   0.764 -0.4192 -0.4189 -0.3484
 3651SOL    HW121422   0.272   5.007   0.723  0.6727  0.1520  0.1216
 3651SOL    HW221423   0.274   5.156   0.789 -1.6044  0.6834 -0.9669
 3652SOL     OW21424   7.462   1.161   2.519  0.2138 -0.5534 -0.2221
 3652SOL    HW121425   7.396   1.095   2.554 -0.3652  0.1597  0.0561
 3652SOL    HW221426   7.555   1.129   2.537 -0.0727 -0.7498  0.9110
 3653SOL     OW21427   4.141   4.438   3.031 -0.0662  0.0325 -0.7141
 3653SOL    HW121428   4.168   4.360   2.975  3.3400 -0.3017  1.2742
 3653SOL    HW221429   4.113   4.406   3.121  0.3578  1.0338 -0.2230
 3654SOL     OW21430   7.519   8.551   2.416 -0.0295 -1.3010 -0.1902
 3654SOL    HW121431   7.495   8.640   2.377 -2.6451 -1.5246  0.8724
 3654SOL    HW221432   7.436   8.499   2.435  1.3849 -2.9956  1.5083
 3655SOL     OW21433   3.880   0.803   3.970  0.0224  0.8308 -0.3842
 3655SOL    HW121434   3.906   0.886   3.921 -0.1173  0.5134 -1.0093
 3655SOL    HW221435   3.795   0.819   4.021 -0.4759  0.8227 -1.1980
 3656SOL     OW21436   9.021   7.622   3.879 -0.2314 -0.2251 -0.4482
 3656SOL    HW121437   9.014   7.524   3.896 -0.8909 -0.3060 -1.1480
 3656SOL    HW221438   9.067   7.637   3.791 -1.6919  0.0389 -1.1863
 3657SOL     OW21439   4.114   0.239   3.838  0.2105 -0.8649 -0.1300
 3657SOL    HW121440   4.158   0.215   3.752  1.8571  0.7101  0.2182
 3657SOL    HW221441   4.031   0.292   3.820 -0.3288 -1.9140 -0.7593
 3658SOL     OW21442   0.045   9.385   3.012  0.2501  0.4517  0.2400
 3658SOL    HW121443   0.019   9.289   3.019 -1.0644  0.8209  0.5485
 3658SOL    HW221444  -0.010   9.429   2.941 -0.4219  1.3907  1.3236
 3659SOL     OW21445   4.453   0.440   0.363  0.3513  0.6134 -0.1034
 3659SOL    HW121446   4.452   0.512   0.433 -0.1618 -0.3499  0.8997
 3659SOL    HW221447   4.385   0.370   0.386  1.7943 -0.8903 -0.3086
 3660SOL     OW21448   0.244   8.372   1.932 -0.1411 -0.4453  0.2650
 3660SOL    HW121449   0.192   8.451   1.964  1.3615  0.0410  1.5817
 3660SOL    HW221450   0.306   8.341   2.004  0.2093 -2.0284 -0.6891
 3661SOL     OW21451   3.638   0.301   2.894 -0.0357  0.1931  0.4286
 3661SOL    HW121452   3.702   0.253   2.834 -0.7480 -0.9819  0.5986
 3661SOL    HW221453   3.678   0.389   2.922  0.9109  0.0872 -0.5758
 3662SOL     OW21454   8.403   6.085   1.800  0.1593  0.3118 -0.0446
 3662SOL    HW121455   8.433   5.999   1.842 -1.3401  0.5772  1.6308
 3662SOL    HW221456   8.319   6.068   1.747  1.3922  0.2126 -1.9929
 3663SOL     OW21457   3.948   7.996   0.191 -0.3573  0.8262  0.2079
 3663SOL    HW121458   3.861   8.026   0.150 -0.6475  0.5764  0.6381
 3663SOL    HW221459   3.931   7.918   0.251  0.4738 -0.5680 -1.3349
 3664SOL     OW21460   8.208   7.169   2.389 -0.3175  0.0329  0.3042
 3664SOL    HW121461   8.164   7.089   2.429 -0.9879  0.6746  0.8611
 3664SOL    HW221462   8.278   7.203   2.452 -0.4810  0.2772  0.3536
 3665SOL     OW21463   2.941   3.133   1.031  0.3574  0.1196  0.5709
 3665SOL    HW121464   3.016   3.098   0.974  1.6655  0.5724  1.9648
 3665SOL    HW221465   2.862   3.154   0.974  1.2072 -0.6126 -0.9023
 3666SOL     OW21466   1.369   2.224   1.196 -0.0774  0.0133  0.5403
 3666SOL    HW121467   1.376   2.304   1.256 -0.8699  0.9069 -0.5318
 3666SOL    HW221468   1.371   2.254   1.100  1.4898 -1.4167  0.0881
 3667SOL     OW21469   7.955   1.847   2.206 -0.6366  0.1921  0.4205
 3667SOL    HW121470   7.951   1.752   2.238  0.6316 -0.5938 -1.6364
 3667SOL    HW221471   7.865   1.875   2.174 -0.6938 -0.8190 -0.3301
 3668SOL     OW21472   2.431   4.070   1.529 -0.1580 -0.9572  0.1136
 3668SOL    HW121473   2.356   4.015   1.493 -0.2110  0.1417 -1.5119
 3668SOL    HW221474   2.398   4.129   1.602 -0.2876 -2.4153  1.2545
 3669SOL     OW21475   9.456   7.373   1.064  0.0687  1.0890 -0.0844
 3669SOL    HW121476   9.555   7.357   1.071  0.1991  0.6482 -2.4235
 3669SOL    HW221477   9.407   7.297   1.105  0.6560  2.3566  3.1404
 3670SOL     OW21478   9.031   0.533   1.073  0.1224  0.0801  0.5474
 3670SOL    HW121479   9.055   0.625   1.105 -1.0707  0.2232  1.0780
 3670SOL    HW221480   8.931   0.524   1.072  0.1665 -0.4944 -1.5454
 3671SOL     OW21481   0.042   2.205   2.179  0.0432  0.1898 -0.4489
 3671SOL    HW121482   0.093   2.172   2.099 -0.0961  1.8707 -1.2637
 3671SOL    HW221483   0.015   2.300   2.164 -0.8357  0.2216  1.2050
 3672SOL     OW21484   8.785   1.224   2.202 -0.5362 -0.3683  0.0219
 3672SOL    HW121485   8.765   1.167   2.121 -3.2426 -0.5098  0.7322
 3672SOL    HW221486   8.855   1.179   2.257 -0.5946 -1.6024 -0.8756
 3673SOL     OW21487   3.769   7.489   3.316 -0.1101 -0.5304  0.4043
 3673SOL    HW121488   3.827   7.571   3.320  0.0044 -0.5854 -0.1701
 3673SOL    HW221489   3.710   7.494   3.236 -0.7472 -0.5838  0.8660
 3674SOL     OW21490   9.719   2.256   1.763 -0.0462 -0.1519 -0.0300
 3674SOL    HW121491   9.783   2.210   1.701  0.2661  0.1480  0.0704
 3674SOL    HW221492   9.641   2.196   1.781  0.5646 -0.8158  0.4409
 3675SOL     OW21493   6.758   9.768   3.257  0.4013 -0.2235  0.2168
 3675SOL    HW121494   6.734   9.672   3.270 -0.7332  0.2050  1.3820
 3675SOL    HW221495   6.676   9.821   3.236  1.0849  0.4282 -0.8806
 3676SOL     OW21496   5.528   8.173   2.840 -0.2586  0.3160 -0.6760
 3676SOL    HW121497   5.583   8.124   2.907 -2.0343 -0.2621  0.4097
 3676SOL    HW221498   5.434   8.181   2.874 -0.5110  2.5765 -1.8153
 3677SOL     OW21499   1.116   6.023   0.112 -0.0127 -0.6266 -0.3204
 3677SOL    HW121500   1.149   5.929   0.103 -1.5876 -1.2672  0.4102
 3677SOL    HW221501   1.127   6.053   0.207 -1.1041 -0.6855 -0.1735
 3678SOL     OW21502   3.527   8.149   3.347  0.7198  0.0179 -0.2100
 3678SOL    HW121503   3.457   8.093   3.391 -0.1809  1.0988 -0.2489
 3678SOL    HW221504   3.573   8.206   3.416 -1.0926  2.1456 -0.7115
 3679SOL     OW21505   2.867   9.942   3.774 -0.3953 -0.0748  0.3925
 3679SOL    HW121506   2.787   9.918   3.830 -0.2543 -1.9023 -0.1679
 3679SOL    HW221507   2.945   9.958   3.834 -0.8849  0.5892  0.8730
 3680SOL     OW21508   8.582   2.491   0.130 -0.1782  0.1588 -0.0088
 3680SOL    HW121509   8.508   2.440   0.086 -1.8233  1.6544  0.9302
 3680SOL    HW221510   8.668   2.441   0.121 -1.1524 -1.2211 -1.8366
 3681SOL     OW21511   1.757   7.717   1.711 -0.8326  0.1590  0.0163
 3681SOL    HW121512   1.830   7.783   1.694 -1.4765  0.6311 -0.9433
 3681SOL    HW221513   1.745   7.705   1.809  2.3774 -1.9817  0.2015
 3682SOL     OW21514   0.871   7.467   0.033  0.1796  0.6736  0.7298
 3682SOL    HW121515   0.969   7.450   0.024 -0.0934 -0.5144 -0.2982
 3682SOL    HW221516   0.838   7.513  -0.050 -0.5782 -1.2799 -0.0899
 3683SOL     OW21517   9.712   3.188   1.895 -0.4204  0.0937  0.5182
 3683SOL    HW121518   9.663   3.163   1.811 -0.0384  2.7295 -0.5300
 3683SOL    HW221519   9.805   3.218   1.872 -0.5020  1.3932  1.8117
 3684SOL     OW21520   4.203   7.669   2.873  0.0367  0.3955 -0.1359
 3684SOL    HW121521   4.252   7.610   2.938  1.4402  1.3820 -0.2818
 3684SOL    HW221522   4.197   7.761   2.911 -0.0953  0.7156 -0.9391
 3685SOL     OW21523   7.933   4.996   3.587  0.0953 -0.4807  0.5465
 3685SOL    HW121524   8.024   4.979   3.550 -0.0455  0.2335 -0.1261
 3685SOL    HW221525   7.929   5.088   3.624 -0.2595 -0.6224  0.8584
 3686SOL     OW21526   1.835   0.547   0.946  0.2533 -0.1206 -0.1430
 3686SOL    HW121527   1.819   0.633   0.900  0.8297  0.3927  0.5982
 3686SOL    HW221528   1.765   0.532   1.016 -0.6879 -0.9534 -1.2421
 3687SOL     OW21529   8.775   1.565   0.726 -0.4166 -0.0044  0.7251
 3687SOL    HW121530   8.770   1.662   0.748  1.9129  0.5931 -1.1389
 3687SOL    HW221531   8.737   1.549   0.635 -0.6854 -0.8430  0.9769
 3688SOL     OW21532   3.834   1.223   1.428  0.1549  0.4244 -0.2377
 3688SOL    HW121533   3.735   1.214   1.418 -0.0551  2.0839  0.1218
 3688SOL    HW221534   3.856   1.243   1.523  0.6654  1.8988 -0.6503
 3689SOL     OW21535   7.099   8.008   2.904  0.0486  0.3005  0.1872
 3689SOL    HW121536   7.018   8.047   2.860  0.7990  0.2700 -1.2239
 3689SOL    HW221537   7.133   7.931   2.851  1.1680  0.4787  0.6315
 3690SOL     OW21538   9.625   6.986   3.927 -0.1012 -0.2206  0.2305
 3690SOL    HW121539   9.595   6.894   3.902  0.9053 -0.4263 -0.2247
 3690SOL    HW221540   9.668   7.030   3.849 -1.6478  1.1049  0.0856
 3691SOL     OW21541   0.204   1.095   1.399 -0.1043  0.7355  0.6614
 3691SOL    HW121542   0.206   1.012   1.343  0.7534  0.9976  0.3055
 3691SOL    HW221543   0.244   1.076   1.488  0.4361  0.8653  0.4466
 3692SOL     OW21544   2.617   1.268   1.157 -0.3650 -0.1438 -0.6116
 3692SOL    HW121545   2.553   1.232   1.226 -0.7285 -1.8377 -1.7962
 3692SOL    HW221546   2.672   1.193   1.121  1.1737  1.0478 -0.7928
 3693SOL     OW21547   0.217   5.444   0.713  0.2405  0.3792 -0.4678
 3693SOL    HW121548   0.185   5.454   0.808 -0.0053 -0.4390 -0.4625
 3693SOL    HW221549   0.144   5.474   0.651 -1.2153 -3.0820 -0.5001
 3694SOL     OW21550   2.279   7.619   0.834  0.2416  0.4225  0.0228
 3694SOL    HW121551   2.366   7.655   0.867  0.6889  0.1185 -0.8066
 3694SOL    HW221552   2.238   7.683   0.770  1.7736 -1.1588 -2.6339
 3695SOL     OW21553   4.285   2.421   2.286 -0.4907  0.4620 -0.0881
 3695SOL    HW121554   4.275   2.399   2.383  1.3725  3.0675  0.7401
 3695SOL    HW221555   4.198   2.455   2.250 -1.0146  0.1076  0.8310
 3696SOL     OW21556   3.372   4.695   0.164  0.3823 -0.4282  0.2284
 3696SOL    HW121557   3.355   4.637   0.244 -1.7072 -0.4453 -0.2130
 3696SOL    HW221558   3.400   4.638   0.087 -0.1016 -0.6883  0.2427
 3697SOL     OW21559   8.778   6.351   2.120  0.5807 -0.0090 -0.2151
 3697SOL    HW121560   8.703   6.360   2.054 -1.7292  1.8304  2.5789
 3697SOL    HW221561   8.822   6.440   2.133 -0.6015  0.2178  2.5412
 3698SOL     OW21562   1.791   5.225   2.562  0.3429 -0.4295  0.0564
 3698SOL    HW121563   1.695   5.253   2.563  0.5745  0.3959  2.5815
 3698SOL    HW221564   1.805   5.152   2.628  1.1574 -1.6784 -1.4742
 3699SOL     OW21565   1.034   9.614   4.028  0.5702 -0.0825  0.3334
 3699SOL    HW121566   1.051   9.658   3.940 -1.7977  1.1175  0.4398
 3699SOL    HW221567   0.975   9.535   4.015 -0.3939  0.5330  0.9282
 3700SOL     OW21568   1.986   1.430   0.706 -0.5398  0.2588  0.3531
 3700SOL    HW121569   1.891   1.426   0.674 -0.8384  0.5260  1.1708
 3700SOL    HW221570   1.996   1.508   0.769  0.1273  0.0087  0.5628
 3701SOL     OW21571   0.571   7.253   0.333 -0.2875  0.6287  0.1309
 3701SOL    HW121572   0.624   7.337   0.324 -0.7311  0.8536 -0.4254
 3701SOL    HW221573   0.576   7.201   0.247 -0.6393  0.4594  0.2098
 3702SOL     OW21574   1.033   4.727   0.653  0.0822 -0.2598  0.0302
 3702SOL    HW121575   0.967   4.734   0.727  0.5558  0.1338  0.4181
 3702SOL    HW221576   0.991   4.680   0.575 -0.6265 -0.0857  0.3015
 3703SOL     OW21577   8.088   1.043   2.861 -0.0491  0.3707 -0.2890
 3703SOL    HW121578   8.041   1.117   2.909 -0.4716  0.3385 -0.6539
 3703SOL    HW221579   8.172   1.079   2.820  0.7886  0.1985  1.2311
 3704SOL     OW21580   7.971   5.224   1.498 -0.3841  0.0666 -1.0208
 3704SOL    HW121581   8.020   5.162   1.559  0.6314  0.9947 -0.8739
 3704SOL    HW221582   7.990   5.199   1.403  0.8501  0.7760 -0.9680
 3705SOL     OW21583   1.344   4.529   4.007 -0.2989  0.1754 -0.4430
 3705SOL    HW121584   1.296   4.446   3.976  0.8598  0.4704 -3.1582
 3705SOL    HW221585   1.292   4.610   3.979 -0.9275  0.4120  1.3471
 3706SOL     OW21586   9.752   2.252   0.273  0.1026 -0.8477  0.2281
 3706SOL    HW121587   9.835   2.228   0.323  0.4556  1.4849  0.8255
 3706SOL    HW221588   9.702   2.323   0.324 -0.3149  0.4726 -1.9654
 3707SOL     OW21589   2.856   0.479   1.444 -0.2600 -0.0952  0.7876
 3707SOL    HW121590   2.824   0.426   1.365 -1.0275  1.9746 -0.3346
 3707SOL    HW221591   2.831   0.432   1.528  0.6944 -2.4285 -0.1654
 3708SOL     OW21592   4.446   8.149   1.362  0.1350 -0.7776 -0.0273
 3708SOL    HW121593   4.488   8.133   1.451  3.5822 -1.1673 -1.6254
 3708SOL    HW221594   4.435   8.061   1.315  2.5088 -0.2252 -1.7134
 3709SOL     OW21595   3.065   2.189   2.773  0.2857  0.3273 -0.5349
 3709SOL    HW121596   3.066   2.107   2.714 -1.7199  0.2220 -0.4573
 3709SOL    HW221597   2.980   2.190   2.826  0.0883  2.6950 -0.8590
 3710SOL     OW21598   7.519   9.094   0.598 -0.2357 -0.4080 -0.3412
 3710SOL    HW121599   7.485   9.079   0.691 -0.1660 -1.4310 -0.4775
 3710SOL    HW221600   7.467   9.037   0.534 -1.9157  2.0510 -1.2530
 3711SOL     OW21601   1.705   7.645   1.124 -0.1338 -0.0088 -0.3514
 3711SOL    HW121602   1.639   7.605   1.060 -0.2037  1.8721 -1.4909
 3711SOL    HW221603   1.663   7.724   1.168  0.0335 -1.0893  1.8073
 3712SOL     OW21604   1.786   0.569   2.966 -0.8620 -0.2177  0.2702
 3712SOL    HW121605   1.745   0.503   3.030 -1.8782 -0.0794 -0.2298
 3712SOL    HW221606   1.727   0.649   2.958 -0.3138  0.1450 -0.1882
 3713SOL     OW21607   3.161   3.749   3.953  0.3753  0.8070  0.2917
 3713SOL    HW121608   3.067   3.714   3.951  0.6195  0.0478  1.6591
 3713SOL    HW221609   3.173   3.807   4.033  1.5018 -0.3520  0.9715
 3714SOL     OW21610   0.145   3.317   0.841 -0.0429 -0.0632  0.4857
 3714SOL    HW121611   0.055   3.313   0.799 -0.7517  0.5800  1.8982
 3714SOL    HW221612   0.207   3.370   0.783 -0.2385 -1.4505 -1.0378
 3715SOL     OW21613   0.605   6.234   1.273  0.3229 -0.1375 -0.6446
 3715SOL    HW121614   0.538   6.308   1.266 -0.1905 -0.7098 -1.8422
 3715SOL    HW221615   0.608   6.183   1.187  1.2017 -1.0553 -0.0783
 3716SOL     OW21616   1.218   0.292   1.857 -0.2746  0.3793  0.2523
 3716SOL    HW121617   1.230   0.345   1.773 -0.6447  1.5337  0.9126
 3716SOL    HW221618   1.294   0.310   1.919  0.2775 -0.8872 -0.0431
 3717SOL     OW21619   7.165   7.891   3.196  0.9017 -0.0513  0.3893
 3717SOL    HW121620   7.129   7.874   3.105  0.2806  1.0843  0.3996
 3717SOL    HW221621   7.097   7.863   3.264 -0.3615  2.8229  0.3937
 3718SOL     OW21622   8.749   2.499   1.345  0.1983  0.1043 -0.0820
 3718SOL    HW121623   8.798   2.431   1.400  0.0834  0.8007  0.8987
 3718SOL    HW221624   8.812   2.571   1.316  0.0291  0.3026  0.0446
 3719SOL     OW21625   0.268   0.600   2.525 -0.0073 -0.0918 -0.3274
 3719SOL    HW121626   0.314   0.668   2.581 -0.8046 -0.2999  0.5916
 3719SOL    HW221627   0.178   0.634   2.498  0.7319  0.3879 -2.2634
 3720SOL     OW21628   8.315   7.777   1.307 -0.0329  0.4323  0.5985
 3720SOL    HW121629   8.360   7.781   1.218  2.2274  0.1424  1.7169
 3720SOL    HW221630   8.280   7.868   1.330 -0.2905  0.5954 -0.3754
 3721SOL     OW21631   8.780   8.952   3.026 -0.0730 -0.2788 -0.3268
 3721SOL    HW121632   8.720   8.936   3.104 -0.8423 -1.0910 -1.0644
 3721SOL    HW221633   8.729   9.003   2.955  0.6029  0.4202 -0.3132
 3722SOL     OW21634   2.183   4.879   3.955 -0.6177 -0.1224 -0.6117
 3722SOL    HW121635   2.177   4.886   3.855  0.2559  0.3329 -0.6324
 3722SOL    HW221636   2.201   4.969   3.994  1.0213 -0.6115 -0.1926
 3723SOL     OW21637   9.576   9.312   0.507  0.4459 -0.2367  0.7285
 3723SOL    HW121638   9.618   9.361   0.431 -0.6331 -0.8707 -0.2997
 3723SOL    HW221639   9.524   9.377   0.564  2.4179  0.4724  1.7661
 3724SOL     OW21640   2.764   4.167   3.347 -0.1063  0.4860 -0.1996
 3724SOL    HW121641   2.692   4.215   3.397  1.6220  0.9799  1.8593
 3724SOL    HW221642   2.802   4.229   3.277  0.0511  1.0946  0.4190
 3725SOL     OW21643   2.536   2.360   3.302 -0.2613  0.3232 -0.5983
 3725SOL    HW121644   2.540   2.308   3.217 -1.3515  1.1732 -1.1753
 3725SOL    HW221645   2.471   2.435   3.293 -0.8202  0.0812  1.1674
 3726SOL     OW21646   7.526   6.870   2.645  1.1327  0.1417  0.3369
 3726SOL    HW121647   7.474   6.937   2.697  0.4533 -0.9841  1.1296
 3726SOL    HW221648   7.520   6.781   2.690  1.6425 -0.5532 -0.9464
 3727SOL     OW21649   0.544   6.938   1.023 -0.1685  0.1761  0.4529
 3727SOL    HW121650   0.619   6.944   0.957  0.6840 -0.2324  1.3637
 3727SOL    HW221651   0.539   6.845   1.058  0.2829  0.7087  1.9789
 3728SOL     OW21652   8.261   6.619   1.645 -0.9102 -0.1759  0.2912
 3728SOL    HW121653   8.343   6.614   1.587 -1.1274 -0.7608  0.0303
 3728SOL    HW221654   8.199   6.545   1.620 -1.5996  0.3802  0.3719
 3729SOL     OW21655   6.748   9.863   2.172  0.4393  1.0350  0.3378
 3729SOL    HW121656   6.782   9.952   2.203  3.6163  0.5137 -1.5051
 3729SOL    HW221657   6.816   9.792   2.192 -1.4053 -0.7612  0.4100
 3730SOL     OW21658   2.868   3.086   3.452  0.3712 -0.6151 -0.1179
 3730SOL    HW121659   2.907   3.098   3.543 -0.3722 -1.4045  0.3040
 3730SOL    HW221660   2.837   2.992   3.440  2.8113 -1.2460 -2.1060
 3731SOL     OW21661   0.496   1.239   2.640 -0.3468 -0.1504 -0.0521
 3731SOL    HW121662   0.523   1.152   2.682 -2.4073 -0.3128  0.9846
 3731SOL    HW221663   0.439   1.220   2.560  0.4254  0.2414 -0.7032
 3732SOL     OW21664   1.059   0.332   1.121  0.2965 -0.1782 -0.1115
 3732SOL    HW121665   1.080   0.315   1.217 -0.5659  1.5425  0.4054
 3732SOL    HW221666   1.055   0.245   1.072  0.8327 -1.0688  1.3859
 3733SOL     OW21667   9.755   8.097   1.891  0.2997 -0.2198 -0.3501
 3733SOL    HW121668   9.735   8.010   1.935  1.3319 -0.4259 -0.2917
 3733SOL    HW221669   9.807   8.155   1.954  1.7234 -0.4870 -1.2536
 3734SOL     OW21670   5.668   7.615   2.933 -0.2092 -0.0585  0.2601
 3734SOL    HW121671   5.735   7.655   2.870  1.4830 -1.9418  0.7967
 3734SOL    HW221672   5.587   7.587   2.882  0.1215  0.6584 -0.6863
 3735SOL     OW21673   0.322   2.029   3.437 -0.7462 -0.0308  0.0331
 3735SOL    HW121674   0.339   1.974   3.356 -0.2088  1.6178 -1.0048
 3735SOL    HW221675   0.386   2.105   3.440 -1.3935  0.4892  1.4943
 3736SOL     OW21676   9.996   7.987   1.058 -0.2135  0.1345 -0.2673
 3736SOL    HW121677  10.078   8.004   1.003 -1.3703  1.5843 -1.5930
 3736SOL    HW221678   9.916   8.024   1.011 -1.2160  1.7191  2.5370
 3737SOL     OW21679   9.083   7.164   3.406  0.1873  0.5111  0.4589
 3737SOL    HW121680   9.133   7.123   3.329 -0.0654  1.4067 -0.1854
 3737SOL    HW221681   8.985   7.150   3.393  0.0534  1.9639 -0.1417
 3738SOL     OW21682   1.489   5.317   0.802 -0.5311  0.2780  0.0293
 3738SOL    HW121683   1.453   5.403   0.839  2.3959  0.7316  2.0424
 3738SOL    HW221684   1.450   5.240   0.853 -0.2959  0.6318  0.7542
 3739SOL     OW21685   9.642   5.988   3.866 -0.3640  0.4693  0.1975
 3739SOL    HW121686   9.717   6.048   3.838 -0.4580  1.4194  1.9012
 3739SOL    HW221687   9.678   5.897   3.888  0.2239  0.7811  0.5351
 3740SOL     OW21688   7.471   7.745   2.293 -1.0564 -0.4661  0.5187
 3740SOL    HW121689   7.377   7.737   2.258  0.0027 -0.0884 -2.5663
 3740SOL    HW221690   7.513   7.828   2.258  0.4671 -0.6495  1.8481
 3741SOL     OW21691   0.609   6.866   1.670 -0.3304  0.1341 -0.1587
 3741SOL    HW121692   0.587   6.906   1.759  1.1567  0.9758 -0.1570
 3741SOL    HW221693   0.619   6.767   1.680  1.5528  0.4243  0.9661
 3742SOL     OW21694   8.319   3.389   1.711  0.5276 -0.5810 -0.4284
 3742SOL    HW121695   8.264   3.429   1.637 -0.6086 -0.0523  0.6766
 3742SOL    HW221696   8.411   3.372   1.678  0.4450  1.0028 -1.5619
 3743SOL     OW21697   0.942   1.534   0.059  0.1154  0.0709  0.3164
 3743SOL    HW121698   1.014   1.472   0.029  0.2917 -0.0442  0.9725
 3743SOL    HW221699   0.983   1.616   0.100 -0.1088  0.7092 -0.7053
 3744SOL     OW21700   6.766   8.132   2.547 -0.3781  0.0891  0.3565
 3744SOL    HW121701   6.810   8.170   2.628 -0.7927 -0.0524  0.6500
 3744SOL    HW221702   6.834   8.120   2.474 -0.1148  0.7467  0.4886
 3745SOL     OW21703   2.699   5.532   2.356  0.3379  0.6115  0.4607
 3745SOL    HW121704   2.764   5.568   2.422  2.0043 -0.6416 -0.4567
 3745SOL    HW221705   2.742   5.528   2.265 -0.9656 -0.3417 -0.1313
 3746SOL     OW21706   8.660   1.146   0.057  0.3143 -0.0547 -0.4890
 3746SOL    HW121707   8.584   1.211   0.055 -0.4029 -0.8392  0.7383
 3746SOL    HW221708   8.745   1.195   0.078  0.5803  1.1858 -4.0714
 3747SOL     OW21709   6.822   8.723   1.974 -0.1913 -0.9150  0.4297
 3747SOL    HW121710   6.857   8.661   2.044 -0.3370 -0.1586  1.1825
 3747SOL    HW221711   6.723   8.730   1.982  0.0568  1.4165  2.0634
 3748SOL     OW21712   9.575   6.779   1.634  0.1083  0.6930  0.2447
 3748SOL    HW121713   9.631   6.697   1.619 -1.0014  0.1069 -0.7643
 3748SOL    HW221714   9.613   6.855   1.581 -2.2868 -0.7037 -3.7120
 3749SOL     OW21715   9.530   8.825   1.650  0.2908  0.1060  0.5374
 3749SOL    HW121716   9.495   8.882   1.725  0.0677  0.8353 -0.1221
 3749SOL    HW221717   9.539   8.880   1.567  0.9899 -0.5841  0.1434
 3750SOL     OW21718   4.716   3.441   0.403  0.3738 -0.5199 -0.1350
 3750SOL    HW121719   4.728   3.499   0.323 -0.9289  3.4871  2.4119
 3750SOL    HW221720   4.803   3.432   0.451  0.3147  0.3894  0.1451
 3751SOL     OW21721   0.308   1.134   3.099 -0.3451 -0.0571  0.5275
 3751SOL    HW121722   0.375   1.061   3.084 -0.6118 -0.5719  1.8146
 3751SOL    HW221723   0.356   1.220   3.115 -0.0216 -0.0593 -0.3871
 3752SOL     OW21724   2.655   3.369   2.199  0.1804  0.3590  1.0169
 3752SOL    HW121725   2.729   3.400   2.258  0.8323  0.6829  0.0239
 3752SOL    HW221726   2.682   3.375   2.103 -0.4054 -1.3843  0.7131
 3753SOL     OW21727   3.119   8.958   2.633  0.4295 -0.0533 -0.1306
 3753SOL    HW121728   3.106   8.993   2.726  1.0406 -1.6182  0.5497
 3753SOL    HW221729   3.203   8.997   2.594  0.7749 -0.2833  0.3865
 3754SOL     OW21730   8.705   6.804   3.772  0.0755  0.3617 -0.0657
 3754SOL    HW121731   8.621   6.780   3.821 -0.6613  2.2197 -0.3671
 3754SOL    HW221732   8.784   6.767   3.820 -0.9023 -1.3241  0.2760
 3755SOL     OW21733   8.849   3.100   3.479 -0.1864  0.1221 -0.1062
 3755SOL    HW121734   8.795   3.032   3.431 -2.2961  0.0137  2.2845
 3755SOL    HW221735   8.845   3.187   3.430 -0.6003 -0.4937 -1.1713
 3756SOL     OW21736   7.801   1.680   3.860  0.0359 -0.0648  0.1716
 3756SOL    HW121737   7.758   1.675   3.950 -2.4476  0.8326 -0.9261
 3756SOL    HW221738   7.774   1.601   3.806 -0.0332  0.3682 -0.4335
 3757SOL     OW21739   2.491   9.580   3.898  0.6725 -0.2358 -0.1259
 3757SOL    HW121740   2.445   9.643   3.835 -0.6943 -0.7588  0.3257
 3757SOL    HW221741   2.550   9.633   3.960 -1.4096  0.8000  1.0688
 3758SOL     OW21742   7.864   8.297   2.907  0.1001 -0.4965 -0.0506
 3758SOL    HW121743   7.816   8.232   2.849 -1.0293 -0.5373  0.9167
 3758SOL    HW221744   7.944   8.332   2.859 -0.6686 -0.7371 -1.5174
 3759SOL     OW21745   2.968   3.853   2.930  0.1355  0.5818 -0.1567
 3759SOL    HW121746   2.990   3.865   2.833 -2.2188  0.1831 -0.7722
 3759SOL    HW221747   3.052   3.846   2.982  1.4395  0.0178 -2.2708
 3760SOL     OW21748   4.140   4.077   2.700 -0.2148  0.4744 -0.4919
 3760SOL    HW121749   4.172   4.081   2.795  0.5558  1.8700 -0.7949
 3760SOL    HW221750   4.096   3.989   2.684 -0.5333  0.2996  1.2163
 3761SOL     OW21751   4.592   8.284   2.634  0.3985 -0.0576  0.5293
 3761SOL    HW121752   4.585   8.320   2.541  0.3904 -1.7145 -0.1264
 3761SOL    HW221753   4.685   8.299   2.668  1.0652 -1.4609 -0.6120
 3762SOL     OW21754   7.751   1.059   4.028  0.0111 -0.1564 -0.2310
 3762SOL    HW121755   7.727   1.087   4.121  1.0225 -0.0586  0.0082
 3762SOL    HW221756   7.761   1.140   3.971 -1.2341 -0.2476 -0.5853
 3763SOL     OW21757   1.533   5.232   3.378 -0.0352 -0.2670  0.2239
 3763SOL    HW121758   1.592   5.232   3.297  0.8507  1.2158  0.8428
 3763SOL    HW221759   1.589   5.229   3.460 -0.9128 -1.0904  0.8104
 3764SOL     OW21760   2.448   8.464   1.984  0.4975  0.3337  0.1929
 3764SOL    HW121761   2.394   8.416   2.053  1.4055 -0.1656  0.5571
 3764SOL    HW221762   2.532   8.414   1.966  0.7605  1.0113 -0.5202
 3765SOL     OW21763   2.843   1.475   3.202  0.2855 -0.2971  0.0743
 3765SOL    HW121764   2.941   1.496   3.198  0.0281  1.4003  1.6224
 3765SOL    HW221765   2.826   1.410   3.276  0.4561 -2.0939 -1.4370
 3766SOL     OW21766   3.906   4.315   2.007  0.0142 -0.6462  0.4051
 3766SOL    HW121767   3.885   4.309   1.910  1.0363 -0.4164  0.1627
 3766SOL    HW221768   3.826   4.348   2.057  0.1588  1.3410 -0.6348
 3767SOL     OW21769   2.395   4.963   0.281  0.4871  0.0244 -0.5211
 3767SOL    HW121770   2.312   4.912   0.260 -0.0193  0.4983  0.3019
 3767SOL    HW221771   2.468   4.935   0.219 -0.5885  0.4194 -1.9765
 3768SOL     OW21772   4.259   1.368   0.602  0.2543  0.1541  1.2808
 3768SOL    HW121773   4.192   1.295   0.589  1.5612 -1.0592  1.3948
 3768SOL    HW221774   4.339   1.333   0.649  2.4520  0.7739 -1.8445
 3769SOL     OW21775   7.104   9.681   2.501  0.1880  0.0656  0.5514
 3769SOL    HW121776   7.177   9.716   2.560  0.3895  0.8353 -0.1517
 3769SOL    HW221777   7.018   9.680   2.553  0.2135  1.4509  0.6342
 3770SOL     OW21778   1.861   1.764   2.630  0.4216 -0.4918 -0.6345
 3770SOL    HW121779   1.852   1.796   2.535  0.8425 -1.9570 -1.1911
 3770SOL    HW221780   1.771   1.755   2.671  0.1997 -0.5172 -1.1275
 3771SOL     OW21781   2.558   1.673   1.113  0.2683  0.1322  0.0441
 3771SOL    HW121782   2.647   1.629   1.124  1.0471  1.5219 -0.5179
 3771SOL    HW221783   2.521   1.698   1.203  0.6217 -0.0939  0.2504
 3772SOL     OW21784   9.230   3.264   2.150  0.0310 -0.4520  0.0743
 3772SOL    HW121785   9.139   3.256   2.110 -0.1553  0.2707  0.3636
 3772SOL    HW221786   9.289   3.193   2.111 -0.3866 -0.3077 -0.8437
 3773SOL     OW21787   1.197   4.234   2.021 -0.5819  0.2423 -0.2012
 3773SOL    HW121788   1.267   4.285   2.072 -1.1702 -0.5220  1.4166
 3773SOL    HW221789   1.109   4.283   2.027 -0.8907 -0.3729  0.4146
 3774SOL     OW21790   8.318   8.172   3.089 -0.2728  0.3351 -0.0933
 3774SOL    HW121791   8.386   8.114   3.045  0.1561  1.4009 -0.8426
 3774SOL    HW221792   8.333   8.171   3.188  0.0948 -0.3498 -0.1507
 3775SOL     OW21793   9.600   1.581   0.257  0.8932 -0.2656  0.3099
 3775SOL    HW121794   9.558   1.556   0.170  0.6773 -1.6988  0.8120
 3775SOL    HW221795   9.621   1.679   0.257 -1.5434  0.3041 -0.3338
 3776SOL     OW21796   7.751   2.661   0.829  0.3157  0.8092  0.5081
 3776SOL    HW121797   7.751   2.757   0.801  1.9877  0.5797 -0.3795
 3776SOL    HW221798   7.669   2.616   0.794 -0.4745  1.9171  0.9365
 3777SOL     OW21799   2.169   4.287   0.488 -0.3833  0.3381 -0.0136
 3777SOL    HW121800   2.236   4.242   0.546 -1.3910  0.5363  1.3372
 3777SOL    HW221801   2.153   4.380   0.521 -0.8422  0.5143 -0.7164
 3778SOL     OW21802   7.329   8.694   1.462 -0.6119 -0.0017 -0.2874
 3778SOL    HW121803   7.355   8.647   1.378 -1.3674 -1.1107  0.0774
 3778SOL    HW221804   7.321   8.792   1.445  1.1975  0.0405 -1.0109
 3779SOL     OW21805   9.685   8.876   0.418  0.6003  0.2097  0.1976
 3779SOL    HW121806   9.731   8.914   0.498  1.2124  1.1727 -0.5921
 3779SOL    HW221807   9.596   8.919   0.407  0.4009 -0.1193  0.5106
 3780SOL     OW21808   1.896   9.205   4.022  0.0757 -0.1305 -0.0148
 3780SOL    HW121809   1.865   9.280   4.080  0.0729  0.3385 -0.6155
 3780SOL    HW221810   1.963   9.240   3.956 -0.0959 -0.6048 -0.4441
 3781SOL     OW21811   9.847   0.086   0.385  0.0656 -0.1151 -0.1377
 3781SOL    HW121812   9.777   0.108   0.453  1.5684 -2.1280  2.1270
 3781SOL    HW221813   9.828  -0.004   0.346  0.6655 -0.0924 -0.4908
 3782SOL     OW21814   0.747   7.964   2.285  0.2734  0.0427  0.3558
 3782SOL    HW121815   0.667   7.927   2.333  0.4341 -0.2209  0.4227
 3782SOL    HW221816   0.788   8.036   2.340 -0.5743  0.9491 -0.1876
 3783SOL     OW21817   6.195   8.659   2.696 -0.1166  0.2233 -0.2616
 3783SOL    HW121818   6.212   8.751   2.661  0.0681  0.1942 -0.2491
 3783SOL    HW221819   6.117   8.661   2.759  0.5079  0.5456  0.5018
 3784SOL     OW21820   2.411   4.938   1.478 -0.3662  0.0032  0.1059
 3784SOL    HW121821   2.349   4.925   1.400 -0.5763  0.3542  0.2142
 3784SOL    HW221822   2.377   4.884   1.555 -1.7534  1.8770  0.8417
 3785SOL     OW21823   3.685   3.780   1.148  0.0971 -0.1088 -0.1946
 3785SOL    HW121824   3.675   3.782   1.049  0.3850 -1.1278 -0.2575
 3785SOL    HW221825   3.723   3.867   1.180  0.2413  0.1277 -1.0029
 3786SOL     OW21826   1.283   5.274   3.242  0.3700  0.4757 -0.4281
 3786SOL    HW121827   1.298   5.286   3.144  0.4886 -1.4370 -0.6583
 3786SOL    HW221828   1.370   5.259   3.288  0.1731 -0.0508 -0.2293
 3787SOL     OW21829   2.816   2.874   0.776 -0.2565  0.3510  0.7717
 3787SOL    HW121830   2.821   2.967   0.813  0.2670  0.6162  0.0370
 3787SOL    HW221831   2.721   2.853   0.752 -0.2624  0.9732  0.2389
 3788SOL     OW21832   1.354   5.874   0.341 -0.0132 -0.5089  0.1056
 3788SOL    HW121833   1.270   5.827   0.316 -1.0465  0.6367  1.3374
 3788SOL    HW221834   1.350   5.901   0.437  1.6252 -0.1286  0.0925
 3789SOL     OW21835   3.176   9.019   0.418 -0.2799 -0.0067 -0.0022
 3789SOL    HW121836   3.212   9.074   0.343 -0.7450  1.9509  1.1725
 3789SOL    HW221837   3.076   9.013   0.410 -0.9503  4.4943  3.1390
 3790SOL     OW21838   2.114   4.536   3.025 -0.3340 -0.0156  0.1723
 3790SOL    HW121839   2.038   4.496   2.974  1.9251 -0.1001 -3.3002
 3790SOL    HW221840   2.111   4.636   3.014  1.3686 -0.1643 -2.0517
 3791SOL     OW21841   2.852   6.611   2.470  0.5786 -0.0278  0.3923
 3791SOL    HW121842   2.892   6.675   2.404 -0.4536  0.7319  0.4980
 3791SOL    HW221843   2.760   6.642   2.495  0.1465 -1.4587  0.5840
 3792SOL     OW21844   1.893   5.395   3.264  0.7644  0.1431 -0.2874
 3792SOL    HW121845   1.809   5.448   3.249  0.6308  0.7269  2.3100
 3792SOL    HW221846   1.971   5.445   3.228  0.3440  0.9616 -0.0757
 3793SOL     OW21847   2.526   5.059   2.980  0.0161  0.1848  0.3904
 3793SOL    HW121848   2.620   5.079   2.954  0.0473  1.3831  1.4009
 3793SOL    HW221849   2.513   4.960   2.986  1.0308  0.0051 -0.3732
 3794SOL     OW21850   0.990   2.402   0.456  0.0399 -0.0636  0.4181
 3794SOL    HW121851   0.934   2.364   0.530  0.3662  0.4732  0.9380
 3794SOL    HW221852   1.031   2.327   0.404 -1.4438 -0.4883 -0.1975
 3795SOL     OW21853   8.926   3.110   3.766  0.1673 -0.3956  0.2548
 3795SOL    HW121854   8.892   3.022   3.801  0.6520 -0.7200 -0.0773
 3795SOL    HW221855   8.913   3.113   3.667  1.5930 -0.7502  0.0420
 3796SOL     OW21856   0.861   2.598   0.333 -0.2521  0.6459  0.0911
 3796SOL    HW121857   0.791   2.632   0.396 -0.7830 -1.6108  0.7719
 3796SOL    HW221858   0.903   2.516   0.372  1.0950  0.6082 -1.4210
 3797SOL     OW21859   2.518   9.460   0.373  0.2055  0.3982 -0.8667
 3797SOL    HW121860   2.524   9.465   0.473  0.8178 -1.7498 -0.7538
 3797SOL    HW221861   2.435   9.410   0.348  1.0102 -0.7151 -1.3523
 3798SOL     OW21862   1.977   2.846   1.810 -0.1229  0.0502  0.4744
 3798SOL    HW121863   1.962   2.942   1.835 -0.6928 -0.2316  1.2638
 3798SOL    HW221864   2.075   2.827   1.809  0.0793  1.0655 -1.3788
 3799SOL     OW21865   9.471   2.514   2.210  0.2234 -0.5196  0.1904
 3799SOL    HW121866   9.489   2.498   2.113  0.1909  0.5138  0.0143
 3799SOL    HW221867   9.492   2.431   2.262  0.3027 -1.0544 -0.6892
 3800SOL     OW21868   1.027   5.924   1.011  0.1510 -0.2829  0.2874
 3800SOL    HW121869   0.941   5.893   1.053 -0.3602 -1.4691 -1.5739
 3800SOL    HW221870   1.029   6.024   1.010 -0.8890 -0.2498  1.0237
 3801SOL     OW21871   3.896   2.201   3.164 -0.1561  0.3408  0.0583
 3801SOL    HW121872   3.833   2.277   3.155 -0.4405  0.0965 -0.0279
 3801SOL    HW221873   3.913   2.160   3.075 -0.8710 -0.3895  0.2555
 3802SOL     OW21874   9.842   0.976   0.822 -0.0714 -0.1313  0.4642
 3802SOL    HW121875   9.886   1.024   0.897  1.8711 -0.0840 -0.6727
 3802SOL    HW221876   9.752   1.016   0.805  0.4008  1.3357  1.3022
 3803SOL     OW21877   4.389   8.991   2.611 -0.3893  0.0549  0.2923
 3803SOL    HW121878   4.391   9.036   2.521  0.6707  1.5490  1.0490
 3803SOL    HW221879   4.300   8.947   2.624 -0.4281 -0.4774 -1.6326
 3804SOL     OW21880   3.839   7.954   2.802  0.1305  0.3834  0.0258
 3804SOL    HW121881   3.740   7.947   2.803  0.1282  0.5709  0.8853
 3804SOL    HW221882   3.876   7.893   2.731 -0.5535 -0.1199  0.1018
 3805SOL     OW21883   0.082   3.159   1.438  0.4986 -0.1368  0.0707
 3805SOL    HW121884   0.135   3.092   1.491  0.6986 -0.3653 -0.4128
 3805SOL    HW221885  -0.014   3.157   1.468  0.3588 -1.1355 -0.4109
 3806SOL     OW21886   6.740   8.681   2.816  0.1607  0.2523  0.9398
 3806SOL    HW121887   6.791   8.683   2.730  0.2113 -0.0884  0.9643
 3806SOL    HW221888   6.734   8.587   2.849 -0.8396  0.2430  0.7251
 3807SOL     OW21889   7.585   9.412   3.969 -0.2047 -0.4637  0.0728
 3807SOL    HW121890   7.522   9.397   4.046  0.1590 -1.2311  0.2203
 3807SOL    HW221891   7.636   9.328   3.951  1.9844  0.6398  1.0170
 3808SOL     OW21892   8.698   9.651   3.986  0.3504 -0.6171  0.8078
 3808SOL    HW121893   8.776   9.681   4.042  0.4299 -0.1727  0.4592
 3808SOL    HW221894   8.728   9.639   3.891 -0.0453 -0.3054  0.6466
 3809SOL     OW21895   1.715   2.054   1.834  0.0327 -0.3743 -0.6858
 3809SOL    HW121896   1.766   2.093   1.911 -2.2631  2.3076 -0.4561
 3809SOL    HW221897   1.758   2.083   1.748  1.1145 -1.2830 -0.4622
 3810SOL     OW21898   2.515   4.686   3.856 -0.2844  0.4606 -0.4146
 3810SOL    HW121899   2.430   4.655   3.898 -1.6372  3.9470 -0.4551
 3810SOL    HW221900   2.557   4.757   3.912  1.8100 -0.0904 -1.2134
 3811SOL     OW21901   2.970   4.128   3.868 -0.1087  0.2785 -0.7788
 3811SOL    HW121902   2.923   4.215   3.880  1.1954  0.7644  0.8814
 3811SOL    HW221903   3.059   4.144   3.826  0.2452 -0.2346 -0.2207
 3812SOL     OW21904   9.476   6.790   1.889  0.3916  0.0894 -0.6810
 3812SOL    HW121905   9.526   6.731   1.953  0.0878 -0.0671 -0.5905
 3812SOL    HW221906   9.503   6.766   1.795 -0.5660 -0.9651 -0.7040
 3813SOL     OW21907   5.832   9.499   2.378  0.0107 -0.5182  0.2551
 3813SOL    HW121908   5.891   9.575   2.406  0.1522  0.2448 -1.9784
 3813SOL    HW221909   5.830   9.494   2.278 -3.2268 -0.9216  0.2865
 3814SOL     OW21910   0.524   0.046   0.143  1.7644  0.0212 -0.9763
 3814SOL    HW121911   0.453   0.116   0.145  0.9346 -0.8243 -0.2284
 3814SOL    HW221912   0.526   0.003   0.053 -0.1313 -1.4074 -0.3643
 3815SOL     OW21913   3.908   7.792   0.387 -0.1581 -0.5786 -0.1288
 3815SOL    HW121914   3.933   7.699   0.362 -0.7005 -0.8537  0.3349
 3815SOL    HW221915   3.878   7.794   0.483 -1.6064 -0.2157 -0.5685
 3816SOL     OW21916   3.354   7.793   2.201  0.4523 -0.0462 -0.0912
 3816SOL    HW121917   3.259   7.770   2.219  0.5053 -0.1561  0.0543
 3816SOL    HW221918   3.383   7.750   2.115  0.2846  0.2366 -0.2875
 3817SOL     OW21919   0.991   3.475   2.280  0.3458  0.6646  0.6433
 3817SOL    HW121920   0.930   3.395   2.286  0.4295  0.4577 -1.0815
 3817SOL    HW221921   0.936   3.558   2.274  0.1983  0.4446 -1.3905
 3818SOL     OW21922   2.922   0.437   3.846 -0.3171  0.3622  0.2112
 3818SOL    HW121923   3.004   0.486   3.815 -0.1330 -1.3704 -2.1531
 3818SOL    HW221924   2.939   0.397   3.936  1.6584 -0.4392 -0.4923
 3819SOL     OW21925   3.745   0.186   0.148  0.4951 -0.7214 -0.2793
 3819SOL    HW121926   3.826   0.152   0.100  1.0867 -0.8237  0.7884
 3819SOL    HW221927   3.759   0.180   0.246  0.3226  1.9172 -0.0468
 3820SOL     OW21928   3.614   1.037   3.774 -0.1559 -0.4226  0.1446
 3820SOL    HW121929   3.578   1.125   3.805 -1.1297 -0.7503 -0.0425
 3820SOL    HW221930   3.539   0.974   3.758  0.5055 -1.1167 -0.2710
 3821SOL     OW21931   1.848   5.283   2.878 -0.6290  0.2361 -0.1459
 3821SOL    HW121932   1.927   5.223   2.866 -1.3562 -0.7555 -0.0298
 3821SOL    HW221933   1.879   5.376   2.893  0.5773 -0.4314  1.6454
 3822SOL     OW21934   1.468   8.514   2.125  0.1616 -0.7174  0.0610
 3822SOL    HW121935   1.561   8.495   2.093 -0.4804 -1.1200 -1.6503
 3822SOL    HW221936   1.469   8.531   2.223  1.8251 -2.1798  0.3258
 3823SOL     OW21937   3.369   7.317   2.743  0.4003  0.6868 -0.1302
 3823SOL    HW121938   3.316   7.296   2.825  0.9127 -3.0271 -0.6643
 3823SOL    HW221939   3.324   7.390   2.692 -1.6453  0.8251  1.8061
 3824SOL     OW21940   2.125   0.995   1.686  0.1058  0.1864  0.3960
 3824SOL    HW121941   2.057   1.044   1.632  0.3154 -0.8840 -0.8912
 3824SOL    HW221942   2.129   1.033   1.778 -1.9250  0.5259  0.3608
 3825SOL     OW21943   8.784   5.796   1.356  0.5342  0.3878  0.1241
 3825SOL    HW121944   8.832   5.883   1.358  0.2065  0.5759 -0.1034
 3825SOL    HW221945   8.715   5.794   1.429 -0.9888  1.2119 -1.2510
 3826SOL     OW21946   0.964   2.557   1.100  0.4550  0.1186 -0.0509
 3826SOL    HW121947   1.059   2.588   1.093  0.2160  0.9477  0.3213
 3826SOL    HW221948   0.903   2.631   1.073 -0.0659 -0.7460 -1.3239
 3827SOL     OW21949   4.322   3.040   1.553  0.3095  1.0650  0.7058
 3827SOL    HW121950   4.303   2.979   1.630  2.2311  1.6255  1.6672
 3827SOL    HW221951   4.344   3.131   1.588  1.4648  1.2595 -0.4831
 3828SOL     OW21952   1.402   4.936   0.595 -0.2846  0.5380  0.0478
 3828SOL    HW121953   1.309   4.970   0.581  0.3604  1.3549 -2.6058
 3828SOL    HW221954   1.414   4.909   0.690 -3.1699  0.6107  0.4739
 3829SOL     OW21955   4.422   0.636   0.176 -0.1197 -0.2927 -0.1639
 3829SOL    HW121956   4.428   0.561   0.243 -1.3600 -0.1417  0.1234
 3829SOL    HW221957   4.465   0.718   0.214 -3.5296  0.6932  1.7558
 3830SOL     OW21958   5.300   7.613   3.084  0.4466  0.1428  0.4907
 3830SOL    HW121959   5.333   7.529   3.041  0.3433  0.3161  0.0691
 3830SOL    HW221960   5.201   7.618   3.074  0.3236 -0.2120  1.4574
 3831SOL     OW21961   1.046   2.388   3.161  0.5042 -0.6296 -0.2583
 3831SOL    HW121962   1.037   2.380   3.260 -0.3706 -0.7979 -0.3501
 3831SOL    HW221963   1.044   2.297   3.119  1.0577 -0.5718 -0.4176
 3832SOL     OW21964   8.100   1.908   3.962  0.0084 -0.1732 -0.1785
 3832SOL    HW121965   8.015   1.958   3.975  0.2816 -0.4102  2.8477
 3832SOL    HW221966   8.173   1.953   4.014  1.0111 -1.7851 -0.1588
 3833SOL     OW21967   9.245   4.646   3.702  0.3202  0.1908 -0.5308
 3833SOL    HW121968   9.220   4.587   3.779  2.2248  0.4062  0.3011
 3833SOL    HW221969   9.229   4.597   3.616  1.8506 -1.5910  0.1472
 3834SOL     OW21970   1.939   5.603   1.860  0.3664 -0.0148 -0.6746
 3834SOL    HW121971   1.850   5.619   1.902  0.8017  1.0428 -0.1236
 3834SOL    HW221972   1.988   5.531   1.909 -0.3861 -0.9471 -1.2888
 3835SOL     OW21973   1.962   9.488   0.593 -0.0374 -0.4385  0.5399
 3835SOL    HW121974   1.885   9.451   0.540  0.0058  0.5507 -0.2324
 3835SOL    HW221975   2.019   9.412   0.625 -2.1712 -1.2842  2.4565
 3836SOL     OW21976   0.675   6.691   2.145  0.5225 -0.1752 -0.4885
 3836SOL    HW121977   0.607   6.749   2.190  1.6908  0.9771 -0.1885
 3836SOL    HW221978   0.661   6.596   2.173 -1.4158 -0.0624 -0.9985
 3837SOL     OW21979   3.207   9.168   0.186 -0.2009 -0.1778 -0.0178
 3837SOL    HW121980   3.301   9.184   0.158 -0.5959  2.3408  0.0243
 3837SOL    HW221981   3.159   9.118   0.114  1.3812 -2.3559  0.3694
 3838SOL     OW21982   6.218   8.887   3.369  0.2114  0.3902  0.1986
 3838SOL    HW121983   6.312   8.875   3.338  0.2339 -0.5630  0.6116
 3838SOL    HW221984   6.214   8.964   3.433  0.5907  0.8463 -0.3275
 3839SOL     OW21985   1.714   6.000   1.548  0.3837  0.4872  0.2795
 3839SOL    HW121986   1.689   5.941   1.471  0.8697 -0.7221  1.0183
 3839SOL    HW221987   1.785   6.064   1.519  0.9059 -0.2773 -0.1647
 3840SOL     OW21988   3.297   2.528   2.850  0.3275  0.3332 -0.2688
 3840SOL    HW121989   3.333   2.466   2.920  1.8184 -0.5796 -1.8081
 3840SOL    HW221990   3.199   2.540   2.864  0.6791  0.5474  2.2582
 3841SOL     OW21991   1.157   8.909   3.432 -0.2269  0.2346 -0.0054
 3841SOL    HW121992   1.126   8.946   3.344 -2.5364  2.2844  1.5917
 3841SOL    HW221993   1.208   8.979   3.481  1.1581 -0.9447  0.2696
 3842SOL     OW21994   2.484   6.904   3.355 -0.0331 -0.6590  0.3038
 3842SOL    HW121995   2.401   6.902   3.300 -0.4190 -1.2958  0.8986
 3842SOL    HW221996   2.502   6.998   3.385 -0.0853 -0.3923 -0.5044
 3843SOL     OW21997   0.052   7.077   0.756  0.6283 -0.6435 -0.1287
 3843SOL    HW121998  -0.038   7.043   0.727 -0.1082  1.0947  0.0658
 3843SOL    HW221999   0.040   7.145   0.828  2.0598  0.1356 -0.6093
 3844SOL     OW22000   3.356   2.013   2.060  0.1353 -0.1657  0.4790
 3844SOL    HW122001   3.436   1.964   2.025 -0.2703  0.3620 -1.1962
 3844SOL    HW222002   3.323   1.966   2.142  1.4104 -1.1037  0.4796
 3845SOL     OW22003   2.198   8.727   3.839 -0.4899 -0.4140 -0.6101
 3845SOL    HW122004   2.169   8.689   3.751 -1.0976  1.2700 -1.1696
 3845SOL    HW222005   2.121   8.777   3.880  0.7654  1.7204 -0.7818
 3846SOL     OW22006   1.520   0.918   1.259 -0.5989 -0.7240 -0.5172
 3846SOL    HW122007   1.489   0.907   1.164  0.6744  0.6676 -1.1101
 3846SOL    HW222008   1.617   0.896   1.265 -0.3193  0.6108  0.1515
 3847SOL     OW22009   0.085   2.822   0.945 -0.5286 -0.1877  0.6084
 3847SOL    HW122010   0.007   2.863   0.992 -1.2648 -1.4033  0.4611
 3847SOL    HW222011   0.053   2.778   0.861  0.2315 -1.1885  0.8443
 3848SOL     OW22012   2.242   8.368   1.191 -0.2084  0.0326  0.1109
 3848SOL    HW122013   2.294   8.293   1.232  1.2442  1.7473  1.4996
 3848SOL    HW222014   2.298   8.413   1.122 -1.6207 -1.0648 -1.7824
 3849SOL     OW22015   7.913   8.312   2.169 -0.0886 -0.2801 -0.6470
 3849SOL    HW122016   7.881   8.398   2.207 -0.0295 -1.8242  3.1117
 3849SOL    HW222017   7.840   8.269   2.117 -0.7337  1.1047 -0.9037
 3850SOL     OW22018   0.109   7.209   2.766  0.0929 -0.1123  0.2413
 3850SOL    HW122019   0.194   7.156   2.765 -0.8323 -1.6057 -0.3362
 3850SOL    HW222020   0.043   7.168   2.703 -0.8058  1.4669  0.1275
 3851SOL     OW22021   4.460   6.514   3.113 -0.1237  0.6162  0.1457
 3851SOL    HW122022   4.463   6.419   3.145 -0.2486 -0.0662 -1.7693
 3851SOL    HW222023   4.369   6.533   3.075 -0.2293  1.6375  0.9076
 3852SOL     OW22024   0.123   3.573   0.296 -0.4024 -0.2466  0.0024
 3852SOL    HW122025   0.065   3.549   0.375 -0.2998 -0.2199  0.0862
 3852SOL    HW222026   0.103   3.667   0.268 -1.1684 -0.6030 -0.6472
 3853SOL     OW22027   1.437   4.460   0.251  0.0632  0.0358  0.2701
 3853SOL    HW122028   1.459   4.398   0.326 -0.7323  0.2705  0.7067
 3853SOL    HW222029   1.387   4.409   0.180 -1.4047  0.3815  1.0493
 3854SOL     OW22030   3.544   5.221   2.737 -0.4891  0.1545  0.3237
 3854SOL    HW122031   3.558   5.318   2.753  0.8408 -0.1082  0.8299
 3854SOL    HW222032   3.451   5.196   2.764 -0.6489  1.1719  0.7364
 3855SOL     OW22033   9.107   4.341   0.273  0.5948 -0.2570 -0.7977
 3855SOL    HW122034   9.007   4.347   0.274  0.5250 -1.4598 -0.7696
 3855SOL    HW222035   9.138   4.291   0.192  1.1641 -0.0784 -0.6962
 3856SOL     OW22036   1.578   5.778   2.018 -0.4004  0.4157  0.2184
 3856SOL    HW122037   1.652   5.842   2.040  0.8374 -0.2275 -1.8688
 3856SOL    HW222038   1.525   5.814   1.941 -0.2211 -0.6431 -0.4145
 3857SOL     OW22039   8.440   3.323   2.666 -0.3786 -0.4236 -0.3878
 3857SOL    HW122040   8.432   3.350   2.762 -0.7369  1.5695 -0.9665
 3857SOL    HW222041   8.527   3.274   2.654 -0.0407 -0.1676  0.8294
 3858SOL     OW22042   8.824   1.674   2.206 -0.0940  0.6226 -0.0908
 3858SOL    HW122043   8.758   1.729   2.258 -0.0522  1.3203 -0.7707
 3858SOL    HW222044   8.862   1.729   2.132  1.5886  0.3672  0.5666
 3859SOL     OW22045   8.311   5.743   2.943 -0.1197  0.2787  0.7767
 3859SOL    HW122046   8.260   5.663   2.974  0.0105 -0.2376 -0.3088
 3859SOL    HW222047   8.256   5.795   2.878  0.7114 -0.2765 -0.3937
 3860SOL     OW22048   1.923   8.115   0.321 -0.5882  0.6033 -0.1478
 3860SOL    HW122049   1.999   8.162   0.365  0.4577 -1.8141  0.6978
 3860SOL    HW222050   1.871   8.063   0.389 -1.3003 -0.0207 -1.1409
 3861SOL     OW22051   2.787   1.504   1.163  0.5083 -0.1386  0.1163
 3861SOL    HW122052   2.716   1.434   1.152 -0.0647  0.0772  2.1351
 3861SOL    HW222053   2.848   1.477   1.237  1.8991  0.2114 -0.8839
 3862SOL     OW22054   8.241   7.022   1.455  0.0254  0.3730 -0.4231
 3862SOL    HW122055   8.236   7.076   1.539 -0.2143 -1.0176  0.4711
 3862SOL    HW222056   8.316   7.055   1.399  1.3980  0.1289  1.2146
 3863SOL     OW22057   8.810   1.356   3.249 -0.7850  0.2615  0.0008
 3863SOL    HW122058   8.753   1.305   3.185 -0.0304  0.2058 -0.6391
 3863SOL    HW222059   8.864   1.424   3.199  1.0892 -0.9458  0.3189
 3864SOL     OW22060   0.494   0.283   3.759 -0.0747  0.2650 -0.2534
 3864SOL    HW122061   0.491   0.183   3.750 -2.1649  0.3867 -1.1034
 3864SOL    HW222062   0.550   0.307   3.839  2.0030 -1.4991 -1.1377
 3865SOL     OW22063   8.684   8.118   2.878 -0.5674 -0.1937  0.2746
 3865SOL    HW122064   8.686   8.129   2.779  1.7326  2.6651  0.5757
 3865SOL    HW222065   8.615   8.049   2.903 -0.8673 -1.2689 -3.2927
 3866SOL     OW22066   1.148   8.183   3.331  0.1222  0.2042 -0.5696
 3866SOL    HW122067   1.197   8.236   3.400 -0.1828  2.7278 -2.2429
 3866SOL    HW222068   1.102   8.245   3.268 -1.7397 -2.0973 -1.5265
 3867SOL     OW22069   4.437   4.317   1.675  0.2069  0.3048  0.2494
 3867SOL    HW122070   4.488   4.402   1.665 -0.8209  0.7734 -1.2244
 3867SOL    HW222071   4.373   4.326   1.751  0.6722  0.5510  0.6145
 3868SOL     OW22072   2.674   3.843   2.065 -0.4028 -0.1211 -0.6921
 3868SOL    HW122073   2.578   3.824   2.042 -0.0821 -1.3118 -1.1160
 3868SOL    HW222074   2.730   3.765   2.036  0.6007  0.2882  0.1515
 3869SOL     OW22075   9.917   8.650   0.790 -0.0977 -0.4988 -0.0778
 3869SOL    HW122076   9.820   8.652   0.769  0.0999 -0.3396 -1.0056
 3869SOL    HW222077   9.934   8.591   0.869 -0.9245 -0.6560 -0.0221
 3870SOL     OW22078   9.621   2.137   3.473  0.2857  0.1210 -0.0537
 3870SOL    HW122079   9.688   2.211   3.479 -0.1723  0.7000 -1.6980
 3870SOL    HW222080   9.659   2.063   3.417  0.4239 -0.5280  0.9022
 3871SOL     OW22081   1.779   6.036   3.080 -0.1334  0.1630  0.3017
 3871SOL    HW122082   1.870   6.038   3.038 -0.3216 -1.4220 -0.2012
 3871SOL    HW222083   1.788   6.016   3.178  0.0711  0.1699  0.2839
 3872SOL     OW22084   1.401   4.660   2.680  0.3656  0.0094 -0.0252
 3872SOL    HW122085   1.460   4.579   2.682 -0.2128 -0.4200  3.3317
 3872SOL    HW222086   1.313   4.636   2.640 -0.0312 -1.2258  1.5363
 3873SOL     OW22087   5.252   8.367   4.004 -0.0671  0.6081  0.3151
 3873SOL    HW122088   5.198   8.326   4.077  0.5204 -1.0996 -0.1837
 3873SOL    HW222089   5.334   8.312   3.989  0.4504  1.6667 -0.7562
 3874SOL     OW22090   1.328   0.095   2.783 -0.1042  0.0872 -0.1619
 3874SOL    HW122091   1.364   0.110   2.691  0.2963  0.6273  0.0797
 3874SOL    HW222092   1.401   0.108   2.850 -0.0942 -1.5577  0.1527
 3875SOL     OW22093   8.645   8.825   2.473 -0.2167  0.5365 -0.2217
 3875SOL    HW122094   8.562   8.854   2.426  0.0873  1.0447 -0.4592
 3875SOL    HW222095   8.622   8.791   2.564 -0.7739 -0.1377 -0.6097
 3876SOL     OW22096   8.109   0.226   1.342 -0.1444  0.5760  0.3358
 3876SOL    HW122097   8.096   0.258   1.248 -0.8057  0.0047  0.2314
 3876SOL    HW222098   8.149   0.300   1.397  0.2028  0.9240 -0.3836
 3877SOL     OW22099   7.987   9.983   1.862 -0.4846  0.5696  0.0269
 3877SOL    HW122100   7.979  10.082   1.875  2.2140  0.9229 -0.6684
 3877SOL    HW222101   8.051   9.945   1.929 -1.0325 -0.6092 -0.0974
 3878SOL     OW22102   9.503   2.060   1.854  0.0685 -0.5189  0.0946
 3878SOL    HW122103   9.502   2.103   1.944  1.7880 -1.2372  0.4862
 3878SOL    HW222104   9.433   2.101   1.796 -0.5313  0.4880  1.5116
 3879SOL     OW22105   0.043   7.448   0.448 -0.0628  0.0234 -0.5417
 3879SOL    HW122106   0.129   7.470   0.494 -0.0655 -1.0354 -0.0088
 3879SOL    HW222107  -0.033   7.486   0.501 -0.0971 -1.6104  0.6193
 3880SOL     OW22108   6.921   8.533   2.154 -0.4534 -0.0555  1.0190
 3880SOL    HW122109   6.835   8.541   2.204 -0.6892  0.9124  0.4718
 3880SOL    HW222110   6.993   8.581   2.203 -0.0949 -1.3375  1.7604
 3881SOL     OW22111   9.953   7.193   0.420 -0.3552  0.7737 -0.0496
 3881SOL    HW122112   9.864   7.209   0.378 -1.1543 -1.3114  0.7616
 3881SOL    HW222113   9.990   7.279   0.455 -2.5713  1.4782  0.6071
 3882SOL     OW22114   7.054   8.235   2.213 -0.1612  0.0702  0.2927
 3882SOL    HW122115   7.071   8.301   2.140  0.7846  0.5309  0.9286
 3882SOL    HW222116   7.140   8.194   2.242 -0.3229  1.1465  2.3328
 3883SOL     OW22117   9.128   2.316   0.205  0.1239 -0.4606  0.0404
 3883SOL    HW122118   9.145   2.369   0.288 -0.8106 -1.3484  0.8063
 3883SOL    HW222119   9.170   2.362   0.127 -1.9484  2.2134  0.4369
 3884SOL     OW22120   8.672   1.487   2.992 -0.0026 -0.1710  0.4510
 3884SOL    HW122121   8.642   1.392   2.984 -0.3260 -0.0853  0.6285
 3884SOL    HW222122   8.771   1.491   2.991 -0.0016 -0.2895 -2.0145
 3885SOL     OW22123   9.360   2.119   3.444 -0.2679  0.4219 -0.0216
 3885SOL    HW122124   9.459   2.116   3.457 -0.5147  0.5395  2.0747
 3885SOL    HW222125   9.320   2.181   3.512 -1.9320 -0.7708  0.1087
 3886SOL     OW22126   0.119   5.679   3.871 -0.2784 -0.5443  0.6281
 3886SOL    HW122127   0.211   5.708   3.843 -0.4757  0.4704  0.9999
 3886SOL    HW222128   0.115   5.675   3.971 -0.8757  0.1834  0.6293
 3887SOL     OW22129   2.714   9.474   3.804 -0.2664 -0.4780 -0.1790
 3887SOL    HW122130   2.626   9.520   3.813 -1.1479 -1.9217 -1.2614
 3887SOL    HW222131   2.763   9.510   3.725 -0.9757 -1.3798 -1.0519
 3888SOL     OW22132   9.978   2.250   3.623 -0.3992 -0.4414 -0.0781
 3888SOL    HW122133   9.914   2.323   3.599  0.4223 -0.2152 -1.5851
 3888SOL    HW222134  10.071   2.286   3.622 -0.0404 -1.3778 -0.2697
 3889SOL     OW22135   1.875   8.747   0.521 -0.9528 -0.4997  0.3085
 3889SOL    HW122136   1.777   8.755   0.538 -0.5443  0.8266  2.1576
 3889SOL    HW222137   1.914   8.676   0.581 -0.4843  0.2191  0.8614
 3890SOL     OW22138   3.743   0.932   1.762 -0.0945  0.2564  0.1525
 3890SOL    HW122139   3.724   0.893   1.852  2.0133 -2.2955 -0.4310
 3890SOL    HW222140   3.776   0.860   1.701  0.8965  2.4092 -1.9396
 3891SOL     OW22141   3.144   4.835   0.831  0.6037  0.5287 -0.2503
 3891SOL    HW122142   3.075   4.859   0.763 -0.4971 -1.1715  0.2525
 3891SOL    HW222143   3.137   4.896   0.909 -0.6372  0.0780 -0.0062
 3892SOL     OW22144   0.144   8.840   4.030 -0.4093  0.8408 -0.6197
 3892SOL    HW122145   0.064   8.781   4.035 -0.2341  0.6648  0.0889
 3892SOL    HW222146   0.116   8.935   4.033 -0.5363  0.7710  0.3530
 3893SOL     OW22147   9.677   4.619   2.755 -0.3645 -0.2058 -0.0181
 3893SOL    HW122148   9.659   4.524   2.780  0.8991 -0.3360  0.4398
 3893SOL    HW222149   9.677   4.628   2.655 -1.4433 -0.4914 -0.0415
 3894SOL     OW22150   4.161   2.321   2.975 -0.4519 -0.0690 -0.1549
 3894SOL    HW122151   4.167   2.319   3.074 -1.3807 -0.4034 -0.0997
 3894SOL    HW222152   4.246   2.357   2.937 -0.6881  1.5537  0.8115
 3895SOL     OW22153   8.476   6.753   3.303  0.3404 -0.0084 -0.2476
 3895SOL    HW122154   8.524   6.712   3.381  1.9543  1.3060 -0.5256
 3895SOL    HW222155   8.449   6.682   3.239  0.4399 -0.9287  0.7224
 3896SOL     OW22156   7.963   9.014   3.078  0.0330  0.3153 -0.2429
 3896SOL    HW122157   7.989   9.014   3.174  1.5601  2.9138 -0.6100
 3896SOL    HW222158   7.864   9.028   3.070  0.0074  0.7929  0.9223
 3897SOL     OW22159   0.043   7.868   2.888  0.4652 -0.2545  0.0011
 3897SOL    HW122160   0.069   7.853   2.793  2.3422 -0.9271  0.6034
 3897SOL    HW222161   0.049   7.782   2.939  0.0688  0.2201  0.8669
 3898SOL     OW22162   9.013   0.436   4.016 -0.7237 -0.2709  0.2416
 3898SOL    HW122163   9.065   0.513   4.054 -0.8108  1.4077 -2.9136
 3898SOL    HW222164   8.988   0.456   3.921  0.4523 -4.7836 -1.1281
 3899SOL     OW22165   0.519   3.357   0.816 -0.4140  0.1567 -0.5652
 3899SOL    HW122166   0.531   3.434   0.878 -0.8136 -0.0008 -0.2882
 3899SOL    HW222167   0.498   3.274   0.868  3.4409 -0.9178 -0.6299
 3900SOL     OW22168   0.818   5.619   3.142  0.3881 -0.0589  0.2461
 3900SOL    HW122169   0.780   5.677   3.069 -0.2331 -1.1661 -0.3204
 3900SOL    HW222170   0.897   5.665   3.183 -1.0139  1.8653  0.8407
 3901SOL     OW22171   2.268   3.866   0.278 -0.3804 -0.1394  0.4891
 3901SOL    HW122172   2.350   3.839   0.227 -1.5042  0.4573 -1.7103
 3901SOL    HW222173   2.295   3.918   0.359  1.4269  0.0688 -0.2205
 3902SOL     OW22174   1.585   8.732   2.843 -0.7212  0.4225 -0.0860
 3902SOL    HW122175   1.650   8.705   2.772 -0.6477 -1.2045  0.5826
 3902SOL    HW222176   1.580   8.831   2.848  0.7924  0.5510 -0.9892
 3903SOL     OW22177   0.433   6.714   2.259 -0.4597 -0.2716 -0.3408
 3903SOL    HW122178   0.369   6.641   2.281 -0.8365 -0.2238 -1.2912
 3903SOL    HW222179   0.460   6.761   2.344 -1.7908 -0.1841  0.0400
 3904SOL     OW22180   7.019   9.456   2.054 -0.1308 -0.5137 -0.6593
 3904SOL    HW122181   7.096   9.393   2.044 -0.4795 -0.6742 -2.5637
 3904SOL    HW222182   6.943   9.426   1.997 -0.2277  1.7400 -1.7774
 3905SOL     OW22183   5.208   7.138   3.265  0.1711 -0.4163 -0.2413
 3905SOL    HW122184   5.170   7.060   3.316 -1.8625  1.4440  1.1973
 3905SOL    HW222185   5.263   7.195   3.326 -1.7318  1.4662 -0.2038
 3906SOL     OW22186   1.263   6.427   1.678  0.4416 -0.4732  0.0844
 3906SOL    HW122187   1.324   6.499   1.712 -0.5569 -0.1246  1.1695
 3906SOL    HW222188   1.264   6.350   1.743 -0.6203 -0.2758  0.3314
 3907SOL     OW22189   8.555   1.783   1.024 -0.2355 -0.4099  0.3805
 3907SOL    HW122190   8.606   1.701   1.051 -1.2470 -1.1176  0.1505
 3907SOL    HW222191   8.461   1.759   1.002 -1.2959  1.2234  2.9380
 3908SOL     OW22192   9.720   6.237   1.000 -0.6071 -0.2856  0.0461
 3908SOL    HW122193   9.678   6.208   0.914  0.6753  0.8821 -0.9798
 3908SOL    HW222194   9.722   6.337   1.004  2.4980 -0.3153 -0.1299
 3909SOL     OW22195   8.527   5.536   3.236 -0.3032 -0.0567  0.1572
 3909SOL    HW122196   8.433   5.567   3.245 -0.4484 -0.4082 -0.1308
 3909SOL    HW222197   8.548   5.519   3.140  0.0141 -0.0969  0.2318
 3910SOL     OW22198   7.693   3.165   0.450  0.2414 -1.3146 -0.2953
 3910SOL    HW122199   7.630   3.187   0.375  0.8219  0.6903 -0.2361
 3910SOL    HW222200   7.650   3.185   0.538 -0.1340 -2.8588 -0.1192
 3911SOL     OW22201   2.743   1.888   2.168 -0.2825  0.3914 -0.3647
 3911SOL    HW122202   2.644   1.878   2.177 -0.1627 -0.3794  0.2386
 3911SOL    HW222203   2.785   1.886   2.259  0.2770  0.7780 -0.6112
 3912SOL     OW22204   8.223   9.537   3.003 -0.1340 -0.4601  0.0694
 3912SOL    HW122205   8.228   9.626   2.958  0.6798 -1.7455 -2.4693
 3912SOL    HW222206   8.201   9.466   2.936  2.0264 -2.5912  1.4844
 3913SOL     OW22207   5.764   8.222   2.158  1.1112  0.2530  0.0727
 3913SOL    HW122208   5.684   8.210   2.217  1.5178  0.1828  0.6223
 3913SOL    HW222209   5.735   8.247   2.066  0.4443 -0.2383  0.1473
 3914SOL     OW22210   3.602   8.721   1.175 -0.6735 -0.1315  0.2762
 3914SOL    HW122211   3.669   8.648   1.188  0.2991  0.4245 -1.4452
 3914SOL    HW222212   3.521   8.684   1.131 -0.3701 -0.2543 -0.1766
 3915SOL     OW22213   8.704   6.764   0.328 -0.1131  0.0134  0.2902
 3915SOL    HW122214   8.760   6.837   0.290  0.3028  0.4963  1.7910
 3915SOL    HW222215   8.611   6.771   0.293  0.5778 -0.3617 -1.6590
 3916SOL     OW22216   3.526   9.737   2.313  0.6998  0.2212  0.7095
 3916SOL    HW122217   3.497   9.648   2.279  1.5828 -0.0105  0.5473
 3916SOL    HW222218   3.623   9.733   2.339  0.5501  0.9314  1.3932
 3917SOL     OW22219   1.177   5.632   3.022 -0.4360 -0.1775 -0.4744
 3917SOL    HW122220   1.174   5.708   3.087  0.2084 -0.0257 -0.6163
 3917SOL    HW222221   1.270   5.596   3.017 -0.1104  0.8065 -2.4401
 3918SOL     OW22222   9.985   9.016   1.989 -0.3832  0.2126  0.6249
 3918SOL    HW122223   9.891   8.988   2.009 -0.5100 -0.5976 -1.0723
 3918SOL    HW222224   9.993   9.116   1.999 -1.3507  0.2521  1.0305
 3919SOL     OW22225   2.732   6.424   3.736  0.1093  0.0672  0.0448
 3919SOL    HW122226   2.644   6.384   3.760 -0.1057 -1.8525 -3.4900
 3919SOL    HW222227   2.801   6.398   3.804 -1.4471 -0.8728  1.2761
 3920SOL     OW22228   2.498   0.091   3.790 -0.2014  0.1788 -0.7339
 3920SOL    HW122229   2.499   0.088   3.890  0.6393  0.9582 -0.7011
 3920SOL    HW222230   2.495  -0.002   3.753  1.8650 -0.2149  0.0268
 3921SOL     OW22231   8.744   5.085   0.712 -0.7499 -0.2104  0.2023
 3921SOL    HW122232   8.813   5.021   0.747 -0.1700  0.5201  0.4058
 3921SOL    HW222233   8.768   5.178   0.740  0.3323  0.5569 -3.0439
 3922SOL     OW22234   1.931   3.153   0.548  0.3637 -0.2653  0.3845
 3922SOL    HW122235   1.992   3.226   0.519 -0.6342  0.7503  0.8037
 3922SOL    HW222236   1.851   3.150   0.487  0.5394 -1.1918  0.1940
 3923SOL     OW22237   1.525   9.028   3.709  0.5911 -0.6187  0.3850
 3923SOL    HW122238   1.460   9.068   3.645  0.9440 -1.0287 -0.2349
 3923SOL    HW222239   1.616   9.065   3.692 -0.0146  2.4836  3.4105
 3924SOL     OW22240   4.928   2.421   1.298  0.0039 -0.4893 -0.2932
 3924SOL    HW122241   4.922   2.513   1.259  0.3077 -0.5251 -0.4268
 3924SOL    HW222242   4.840   2.396   1.339 -0.1072 -0.1767 -0.3406
 3925SOL     OW22243   2.627   3.877   0.916  0.0292  0.5564  0.2316
 3925SOL    HW122244   2.558   3.860   0.986  1.7704 -1.1895  1.5922
 3925SOL    HW222245   2.717   3.880   0.959  0.9369  1.4319 -1.6911
 3926SOL     OW22246   4.712   7.805   3.046  0.1553 -0.0574  0.1529
 3926SOL    HW122247   4.807   7.810   3.078 -0.0395  0.8821  0.6015
 3926SOL    HW222248   4.705   7.735   2.975  1.3519  0.3986 -0.4413
 3927SOL     OW22249   7.025   8.339   2.473 -0.2878 -1.3632 -0.3813
 3927SOL    HW122250   7.102   8.331   2.535 -0.3839 -1.4285 -0.2692
 3927SOL    HW222251   7.048   8.298   2.384  0.3980  0.1269 -0.8967
 3928SOL     OW22252   1.225   5.463   0.293  0.5060 -0.3529  0.1876
 3928SOL    HW122253   1.263   5.371   0.279  0.8358 -0.2214  0.2135
 3928SOL    HW222254   1.209   5.506   0.205 -1.1317 -1.0375  0.1402
 3929SOL     OW22255   1.233   8.397   1.451 -0.2685  0.2084  0.3623
 3929SOL    HW122256   1.179   8.403   1.534 -1.3837 -0.6253 -0.2799
 3929SOL    HW222257   1.177   8.427   1.373  0.6190  0.5727 -0.1365
 3930SOL     OW22258   0.390   4.749   0.439  0.0714  0.1922 -0.2861
 3930SOL    HW122259   0.428   4.830   0.395 -0.0027 -0.7809 -2.1996
 3930SOL    HW222260   0.465   4.689   0.467  0.1314  0.9384  1.2323
 3931SOL     OW22261   9.952   0.373   0.930  0.6593 -0.2777  0.0306
 3931SOL    HW122262   9.996   0.298   0.881 -0.9371 -1.4892  0.3889
 3931SOL    HW222263   9.997   0.459   0.908  2.4818 -1.3229 -0.4547
 3932SOL     OW22264   8.453   1.850   3.336  0.0199 -0.0781 -0.9419
 3932SOL    HW122265   8.397   1.842   3.254 -0.8183  0.5367 -0.4364
 3932SOL    HW222266   8.543   1.808   3.320 -0.1866 -0.0747 -2.1221
 3933SOL     OW22267   0.209   1.757   0.226  0.4996 -0.2474  0.6445
 3933SOL    HW122268   0.297   1.794   0.255  1.1480 -1.1599 -0.1345
 3933SOL    HW222269   0.210   1.658   0.235 -0.2574 -0.3094  0.1023
 3934SOL     OW22270   3.129   8.611   3.117  0.5159 -0.2498 -0.2165
 3934SOL    HW122271   3.198   8.663   3.066  0.3181 -0.3021 -0.5440
 3934SOL    HW222272   3.154   8.515   3.118  0.6017 -0.2258 -0.0825
 3935SOL     OW22273   0.099   1.178   3.725  0.1026  0.4094  0.9894
 3935SOL    HW122274   0.012   1.131   3.710 -0.8370  1.6717  2.3518
 3935SOL    HW222275   0.105   1.257   3.664  0.3278  0.2822  0.8462
 3936SOL     OW22276   3.573   1.894   2.872 -0.3184 -0.1213  0.6142
 3936SOL    HW122277   3.587   1.993   2.863 -0.8400  0.0413  1.5927
 3936SOL    HW222278   3.487   1.876   2.918 -0.9949 -1.0665 -0.9620
 3937SOL     OW22279   2.603   8.944   0.902  0.0320 -0.0227 -0.1297
 3937SOL    HW122280   2.612   8.977   0.808 -1.8490  0.2564 -0.2436
 3937SOL    HW222281   2.668   8.870   0.918  0.5387  0.0969 -1.5786
 3938SOL     OW22282   3.456   8.296   0.974 -0.4418 -0.1436 -0.4805
 3938SOL    HW122283   3.404   8.226   0.926 -1.1468  0.4075 -0.5185
 3938SOL    HW222284   3.447   8.383   0.927  1.2912 -0.2430 -1.0289
 3939SOL     OW22285   2.516   0.370   1.708 -0.4538  0.4340  0.3598
 3939SOL    HW122286   2.481   0.344   1.618 -0.8356  0.2568  0.5605
 3939SOL    HW222287   2.576   0.449   1.698  0.3152 -0.1991 -0.1891
 3940SOL     OW22288   1.071   3.081   2.288 -0.4729  0.2815  0.1075
 3940SOL    HW122289   1.032   2.989   2.286 -1.7933  0.8207  0.3684
 3940SOL    HW222290   0.997   3.148   2.298  0.5996  1.2847  1.3978
 3941SOL     OW22291   2.105   7.979   2.433  0.1237 -0.2982 -0.3954
 3941SOL    HW122292   2.152   7.902   2.475 -2.2032 -0.9789  1.0839
 3941SOL    HW222293   2.133   8.064   2.478 -0.2216 -0.7232  0.6431
 3942SOL     OW22294   2.896   0.549   0.749  0.1430 -0.1114  0.2699
 3942SOL    HW122295   2.978   0.571   0.801  0.6254 -2.2925  0.4640
 3942SOL    HW222296   2.904   0.585   0.656  0.2698  1.7712  0.9985
 3943SOL     OW22297   2.045   0.359   3.541 -0.3140 -0.0911 -0.5304
 3943SOL    HW122298   2.001   0.420   3.476  1.6943  2.2176  0.2155
 3943SOL    HW222299   1.986   0.280   3.558 -2.3262  0.9336 -2.5851
 3944SOL     OW22300   9.377   7.662   0.149  0.5147  0.2567 -0.1727
 3944SOL    HW122301   9.404   7.584   0.092  1.8878 -0.5863  1.5922
 3944SOL    HW222302   9.306   7.715   0.101 -0.0203 -1.7216 -1.6411
 3945SOL     OW22303   8.059   6.745   2.800 -0.0060 -0.1260  0.3384
 3945SOL    HW122304   8.090   6.719   2.891  1.4153  1.7468  0.4133
 3945SOL    HW222305   8.014   6.834   2.805  2.9817  1.5471 -1.2804
 3946SOL     OW22306   3.992   0.208   3.035 -0.5037  0.5274 -0.0230
 3946SOL    HW122307   4.079   0.231   3.079 -0.5219  2.0994 -0.7810
 3946SOL    HW222308   4.003   0.123   2.983  0.8440  1.2207 -0.8911
 3947SOL     OW22309   2.456   9.686   2.307  0.1944 -0.3059  0.0336
 3947SOL    HW122310   2.553   9.689   2.332  0.5488  0.1512 -1.3573
 3947SOL    HW222311   2.426   9.592   2.296  0.6777 -0.4208 -0.2770
 3948SOL     OW22312   2.156   3.315   3.424  0.0185 -0.8898 -0.0834
 3948SOL    HW122313   2.223   3.384   3.451 -0.0668 -0.4672 -0.9318
 3948SOL    HW222314   2.138   3.323   3.326  0.1998 -2.2944 -0.2347
 3949SOL     OW22315   1.045   1.693   1.225  0.0825  0.1440  0.3181
 3949SOL    HW122316   0.981   1.701   1.301 -0.9750  1.5818 -0.6981
 3949SOL    HW222317   1.060   1.783   1.184  0.7959 -0.5774 -1.0624
 3950SOL     OW22318   2.223   3.693   2.494  0.2633  0.3061  0.2653
 3950SOL    HW122319   2.153   3.623   2.512 -0.3874  1.0517  0.6637
 3950SOL    HW222320   2.237   3.701   2.396 -1.8392  1.7302  0.0690
 3951SOL     OW22321   8.039   2.968   1.254 -0.5135  0.3873  0.1834
 3951SOL    HW122322   7.980   2.897   1.291  0.9116  0.2434  2.2619
 3951SOL    HW222323   8.129   2.930   1.234 -0.6177  0.9600 -1.4969
 3952SOL     OW22324   3.758   1.702   0.947 -0.6140 -0.0170  0.0481
 3952SOL    HW122325   3.798   1.733   1.033 -1.6824  0.3021  0.4393
 3952SOL    HW222326   3.810   1.740   0.870 -0.2407  0.4767  0.5438
 3953SOL     OW22327   9.129   7.883   2.899  0.5800 -0.6702  0.2291
 3953SOL    HW122328   9.132   7.797   2.849  1.1633 -1.1214  1.0277
 3953SOL    HW222329   9.083   7.870   2.987  0.7643 -0.2015  0.4008
 3954SOL     OW22330   8.195   4.331   1.380 -0.6116  0.8850 -0.4219
 3954SOL    HW122331   8.201   4.390   1.300 -1.9684  0.4880 -0.8432
 3954SOL    HW222332   8.132   4.372   1.446 -1.3109  0.0754 -0.5790
 3955SOL     OW22333   3.151   0.014   1.589 -0.0818 -0.1599 -0.0804
 3955SOL    HW122334   3.234   0.044   1.636  0.5489 -0.8954 -0.7127
 3955SOL    HW222335   3.072   0.060   1.629  0.4508 -0.7206  1.6453
 3956SOL     OW22336   8.592   8.853   2.152  0.2664  0.3124 -0.2662
 3956SOL    HW122337   8.689   8.844   2.174  0.6371  1.7908 -1.2556
 3956SOL    HW222338   8.580   8.853   2.053 -0.6791  0.8916 -0.1542
 3957SOL     OW22339   6.738   9.563   2.849  0.2499  0.2904  0.2824
 3957SOL    HW122340   6.683   9.646   2.853 -0.6984 -0.1417 -2.7445
 3957SOL    HW222341   6.690   9.489   2.897 -0.1214  0.8051  0.7137
 3958SOL     OW22342   1.820   0.147   0.021  0.0923  0.7747  0.4483
 3958SOL    HW122343   1.789   0.235   0.057  2.2525  2.1533 -0.9153
 3958SOL    HW222344   1.868   0.097   0.093  0.6489  1.6228  0.6785
 3959SOL     OW22345   1.241   9.011   0.810 -0.3369  0.4276 -0.3883
 3959SOL    HW122346   1.327   9.058   0.828 -0.4014  1.1642 -1.9206
 3959SOL    HW222347   1.206   9.038   0.720 -2.0971  0.0260  0.1526
 3960SOL     OW22348   1.935   8.626   1.408  0.0342 -0.1691 -0.4894
 3960SOL    HW122349   2.029   8.659   1.401 -0.1393  0.5424  0.4635
 3960SOL    HW222350   1.898   8.648   1.498 -0.3074 -2.4310 -0.0546
 3961SOL     OW22351   6.578   9.795   2.903  0.1335 -0.5241  0.0899
 3961SOL    HW122352   6.556   9.800   3.000 -4.0446  0.3911 -0.7826
 3961SOL    HW222353   6.578   9.888   2.864  0.0617 -0.9984 -1.0684
 3962SOL     OW22354   8.704   0.133   2.785  0.0122  0.2097  0.2714
 3962SOL    HW122355   8.775   0.102   2.722 -1.0832  0.8551 -1.3293
 3962SOL    HW222356   8.683   0.229   2.766 -0.2935  0.4318  1.6767
 3963SOL     OW22357   5.516   8.155   2.341  0.0391 -0.0540  0.4337
 3963SOL    HW122358   5.559   8.142   2.431  1.5079  1.0495 -0.0750
 3963SOL    HW222359   5.543   8.080   2.281  0.1447 -0.0875  0.5225
 3964SOL     OW22360   4.408   8.532   0.602 -0.6533  0.5048  0.0768
 3964SOL    HW122361   4.410   8.510   0.699  1.0164  1.6365  0.3240
 3964SOL    HW222362   4.416   8.447   0.549  0.1688  0.0184  0.9472
 3965SOL     OW22363   3.109   0.540   3.566 -0.3008 -0.0221 -0.3806
 3965SOL    HW122364   3.125   0.443   3.549  3.6981  0.5079 -0.0376
 3965SOL    HW222365   3.053   0.577   3.491  0.6923 -1.9345 -2.1402
 3966SOL     OW22366   9.590   8.001   2.343  0.1337  0.5027 -0.3321
 3966SOL    HW122367   9.625   7.972   2.254  1.1090 -3.4756  1.2205
 3966SOL    HW222368   9.494   8.027   2.334 -0.5521 -2.3850 -2.1836
 3967SOL     OW22369   8.303   0.979   1.002  0.0930  0.0394 -0.2140
 3967SOL    HW122370   8.381   1.006   0.946  0.2116  0.1210 -0.0108
 3967SOL    HW222371   8.230   1.047   0.993  0.3301  0.3521  0.1760
 3968SOL     OW22372   3.770   9.126   2.168  0.7865  0.0000  0.0872
 3968SOL    HW122373   3.755   9.145   2.071  1.5052  0.8479  0.1358
 3968SOL    HW222374   3.781   9.027   2.181 -0.6450 -0.2542 -0.4947
 3969SOL     OW22375   8.848   5.530   2.462  0.7393  0.1431  0.1681
 3969SOL    HW122376   8.791   5.542   2.381 -0.5755  1.6773  1.2989
 3969SOL    HW222377   8.929   5.589   2.455 -0.8408  2.4928  1.2776
 3970SOL     OW22378   1.140   9.210   1.799  0.1507 -0.2594  0.4674
 3970SOL    HW122379   1.091   9.128   1.827  0.3148 -0.5533 -0.0891
 3970SOL    HW222380   1.087   9.257   1.727 -0.3092  0.5256  1.3113
 3971SOL     OW22381   2.809   2.883   0.396 -0.1100  0.3994  0.6471
 3971SOL    HW122382   2.888   2.867   0.454  0.8132  0.6731 -0.5131
 3971SOL    HW222383   2.791   2.800   0.342  0.5139  0.9560 -0.4230
 3972SOL     OW22384   8.622   5.790   1.602  0.0801  0.5698  0.1200
 3972SOL    HW122385   8.684   5.757   1.673 -0.4986 -0.7417  0.0202
 3972SOL    HW222386   8.534   5.814   1.643  0.3399  1.5713  0.1178
 3973SOL     OW22387   8.854   4.376   3.696  0.1418 -0.4035 -0.2469
 3973SOL    HW122388   8.761   4.409   3.685 -0.6057 -2.3702 -0.0777
 3973SOL    HW222389   8.911   4.448   3.736 -1.4849  0.5460  0.3889
 3974SOL     OW22390   1.842   4.289   0.700 -0.1235  0.3142  0.2028
 3974SOL    HW122391   1.840   4.387   0.682 -1.3449  0.2663  0.0288
 3974SOL    HW222392   1.937   4.256   0.699  0.3926  1.7094  1.4979
 3975SOL     OW22393   4.155   7.546   3.849 -0.1878  0.1226  0.1101
 3975SOL    HW122394   4.243   7.577   3.812  0.5484 -0.2207  1.5399
 3975SOL    HW222395   4.153   7.446   3.850  0.5857  0.0942  2.7462
 3976SOL     OW22396   9.582   2.161   2.087  0.4361  0.3121 -0.1329
 3976SOL    HW122397   9.622   2.216   2.161 -1.9555 -0.3604  1.7081
 3976SOL    HW222398   9.586   2.064   2.112 -1.4971  0.1755 -0.3442
 3977SOL     OW22399   8.999   9.771   0.245 -0.1018  0.1912  0.1608
 3977SOL    HW122400   8.975   9.817   0.160  1.0935  0.5324 -0.0101
 3977SOL    HW222401   8.916   9.748   0.296 -0.7801  0.8358 -0.6457
 3978SOL     OW22402   3.540   8.403   0.643 -0.4581 -0.0761 -0.4796
 3978SOL    HW122403   3.639   8.396   0.657 -0.6704 -0.6006  0.8009
 3978SOL    HW222404   3.499   8.448   0.722 -1.2616  0.0786 -0.9836
 3979SOL     OW22405   4.128   9.251   3.552  0.2574 -0.1504 -0.3702
 3979SOL    HW122406   4.030   9.231   3.546  0.4193 -1.4280  1.0582
 3979SOL    HW222407   4.141   9.345   3.585 -0.4791  0.4208 -1.6622
 3980SOL     OW22408   9.209   4.390   0.889 -0.5510  0.2159 -0.2544
 3980SOL    HW122409   9.129   4.394   0.829  0.9122  1.2134 -2.1827
 3980SOL    HW222410   9.275   4.324   0.853 -1.1797 -1.8417  2.2261
 3981SOL     OW22411   0.231   8.936   0.616 -0.1341 -0.1150  0.7192
 3981SOL    HW122412   0.302   8.938   0.545  0.5216  1.0441  1.3961
 3981SOL    HW222413   0.164   8.865   0.594  1.6074 -1.7176  0.4485
 3982SOL     OW22414   4.540   7.615   2.042 -0.3379 -0.4626 -0.3926
 3982SOL    HW122415   4.583   7.635   2.130  1.4313  0.1004 -1.3685
 3982SOL    HW222416   4.443   7.596   2.056 -0.1697  0.0741  1.6165
 3983SOL     OW22417   0.886   5.077   2.043 -0.1661 -0.3602  0.2130
 3983SOL    HW122418   0.961   5.143   2.051 -0.2569 -0.4141  1.4934
 3983SOL    HW222419   0.914   5.004   1.981  1.3658 -1.0849  1.7228
 3984SOL     OW22420   0.089   6.497   1.718 -0.0672 -0.2271 -0.0624
 3984SOL    HW122421   0.087   6.581   1.664 -0.1163 -0.1737  0.0227
 3984SOL    HW222422   0.007   6.443   1.699  0.2059 -0.4988 -0.5021
 3985SOL     OW22423   2.129   1.702   2.558  0.0489 -0.4555 -0.0213
 3985SOL    HW122424   2.031   1.705   2.576  0.3147  1.6404  1.1467
 3985SOL    HW222425   2.179   1.689   2.644  0.8368 -1.0249 -0.5469
 3986SOL     OW22426   9.160   0.847   0.664 -0.2258  0.2849 -0.2190
 3986SOL    HW122427   9.084   0.783   0.655  0.1317 -0.2245  0.3468
 3986SOL    HW222428   9.159   0.912   0.587  0.4318 -1.4796 -1.7471
 3987SOL     OW22429   3.956   0.730   0.322 -0.6556 -0.0522  0.0416
 3987SOL    HW122430   3.895   0.807   0.303  0.4397  1.0142  0.8516
 3987SOL    HW222431   4.043   0.763   0.356  0.9743 -1.4902 -2.5456
 3988SOL     OW22432   3.978   4.109   0.517 -0.1214  0.0803  0.0336
 3988SOL    HW122433   4.048   4.127   0.448  1.6049  1.0464  1.9571
 3988SOL    HW222434   3.992   4.171   0.595 -1.8395 -1.1490  1.3456
 3989SOL     OW22435   2.751   4.688   1.258 -0.1421 -0.1830  0.1402
 3989SOL    HW122436   2.702   4.621   1.314 -0.3131  0.6600  1.0192
 3989SOL    HW222437   2.692   4.767   1.242  0.4504  0.2415  0.0477
 3990SOL     OW22438   8.031   2.204   1.756 -0.1511  0.2929  0.2022
 3990SOL    HW122439   8.008   2.146   1.835  0.2955 -0.5570 -0.2899
 3990SOL    HW222440   7.977   2.289   1.761 -1.4795 -0.5433  0.4474
 3991SOL     OW22441   8.504   9.702   1.738 -0.4691 -0.3098 -0.5062
 3991SOL    HW122442   8.459   9.629   1.686 -1.1933  0.7152 -1.3344
 3991SOL    HW222443   8.552   9.763   1.675  0.2472 -0.1563  0.1935
 3992SOL     OW22444   8.714   0.850   2.316  0.2837  0.4823 -0.1499
 3992SOL    HW122445   8.723   0.751   2.319 -0.1210  0.4316 -0.5078
 3992SOL    HW222446   8.785   0.892   2.373 -0.9525 -0.0680  1.8226
 3993SOL     OW22447   0.600   1.810   0.863  0.5749  0.0085 -0.1926
 3993SOL    HW122448   0.631   1.825   0.769 -1.5466 -2.5366 -1.3441
 3993SOL    HW222449   0.668   1.756   0.912  1.0449  0.1687 -0.6557
 3994SOL     OW22450   1.576   1.791   1.746  0.4527 -0.2702 -0.1410
 3994SOL    HW122451   1.585   1.884   1.782  1.2123 -0.2236 -0.4458
 3994SOL    HW222452   1.518   1.792   1.665 -2.4813 -0.5770  1.8507
 3995SOL     OW22453   9.140   0.393   2.745  0.0375 -0.1998  0.1456
 3995SOL    HW122454   9.073   0.402   2.671  0.6622 -0.4541 -0.4537
 3995SOL    HW222455   9.183   0.482   2.761  0.8199 -0.4259 -0.6729
 3996SOL     OW22456   4.524   8.707   2.651 -0.0377  0.2284  0.1769
 3996SOL    HW122457   4.496   8.652   2.730 -2.5082 -1.3099 -1.7382
 3996SOL    HW222458   4.466   8.788   2.645 -2.1384 -1.3612 -1.9482
 3997SOL     OW22459   0.728   0.279   1.532  0.6793  0.0909  0.1728
 3997SOL    HW122460   0.700   0.215   1.603  1.0290  0.4296  0.6158
 3997SOL    HW222461   0.662   0.354   1.527  0.6868  0.0981  0.1819
 3998SOL     OW22462   3.588   7.901   3.113 -0.2343  0.4297 -0.0380
 3998SOL    HW122463   3.657   7.892   3.185  0.3466  2.1400 -0.3688
 3998SOL    HW222464   3.624   7.862   3.028  0.0417  0.6839 -0.0369
 3999SOL     OW22465   0.754   4.371   1.866  0.3541 -0.1987  0.3050
 3999SOL    HW122466   0.690   4.432   1.818 -0.1471  0.3849  1.6843
 3999SOL    HW222467   0.741   4.277   1.834  0.1783  0.2117 -0.8497
 4000SOL     OW22468   8.395   5.858   3.294 -0.0721 -0.5307 -0.2814
 4000SOL    HW122469   8.359   5.950   3.309 -0.2671 -0.6482 -0.0275
 4000SOL    HW222470   8.483   5.864   3.247  1.0348 -0.1144  1.7800
 4001SOL     OW22471   0.072   2.799   0.030  0.4547 -0.5911  0.4414
 4001SOL    HW122472   0.117   2.888   0.021  0.2834 -0.4645  0.8346
 4001SOL    HW222473   0.141   2.727   0.027  0.7760 -0.3583  1.8358
 4002SOL     OW22474   8.904   4.825   0.289  0.2302 -0.0156  0.9988
 4002SOL    HW122475   8.971   4.877   0.236 -0.9421  3.4430  2.7776
 4002SOL    HW222476   8.952   4.758   0.346  1.8922  0.0967 -0.2081
 4003SOL     OW22477   8.268   7.014   0.411  0.0427  0.6170 -0.3184
 4003SOL    HW122478   8.280   7.111   0.387  1.3760  0.3195 -0.8873
 4003SOL    HW222479   8.341   6.960   0.368 -1.0237 -0.7162 -0.4574
 4004SOL     OW22480   8.105   0.624   3.632 -0.0358 -0.3978 -0.0954
 4004SOL    HW122481   8.046   0.623   3.712  2.6391 -1.9834  1.9474
 4004SOL    HW222482   8.097   0.537   3.584 -1.2427  0.3554 -1.3033
 4005SOL     OW22483   2.989   0.313   1.930 -0.1301 -0.4041 -0.4194
 4005SOL    HW122484   2.989   0.243   2.002 -3.2083  0.7214  0.7575
 4005SOL    HW222485   3.036   0.395   1.964 -1.9664  0.2829  0.4971
 4006SOL     OW22486   4.276   0.931   3.233 -0.4283 -0.5290  0.1797
 4006SOL    HW122487   4.231   0.890   3.153 -1.5566  0.6582  0.1945
 4006SOL    HW222488   4.208   0.947   3.305  0.2825 -0.0415  0.7517
 4007SOL     OW22489   9.285   7.879   2.292 -0.2001 -0.6871  0.4839
 4007SOL    HW122490   9.276   7.972   2.328  0.0027 -0.8953  1.0740
 4007SOL    HW222491   9.201   7.828   2.307 -1.5931  0.4713 -2.9669
 4008SOL     OW22492   4.866   8.562   2.698 -0.3407  0.6632  0.2742
 4008SOL    HW122493   4.880   8.463   2.695 -0.4324  0.6112  1.5310
 4008SOL    HW222494   4.892   8.597   2.787 -0.4154  1.7671 -0.1287
 4009SOL     OW22495   3.032   5.008   2.918 -0.0694 -0.1490 -0.5076
 4009SOL    HW122496   2.988   4.927   2.880 -1.1691  0.3199 -0.2377
 4009SOL    HW222497   3.052   4.993   3.015  1.9529 -1.0167 -1.0305
 4010SOL     OW22498   3.094   5.782   0.625  0.3288  0.6083 -0.2807
 4010SOL    HW122499   3.131   5.704   0.575  0.1343  0.5290 -0.3033
 4010SOL    HW222500   3.120   5.776   0.721 -2.4413 -1.2627  0.4220
 4011SOL     OW22501   0.743   1.665   0.209 -0.1979 -0.1974  0.1441
 4011SOL    HW122502   0.779   1.632   0.296 -0.3559  0.8519  0.6094
 4011SOL    HW222503   0.783   1.612   0.134 -0.7086 -1.6735  0.8938
 4012SOL     OW22504   3.686   1.483   0.756  0.0799 -0.2982 -0.2999
 4012SOL    HW122505   3.599   1.531   0.764  0.5100  0.7945 -1.8209
 4012SOL    HW222506   3.761   1.549   0.767  0.7214 -1.2832  1.3099
 4013SOL     OW22507   8.214   4.911   2.387 -0.2072  0.1747  0.2207
 4013SOL    HW122508   8.272   4.838   2.424 -0.8545  0.3079  1.5196
 4013SOL    HW222509   8.227   4.917   2.288  0.3993 -1.2123  0.2073
 4014SOL     OW22510   8.115   6.702   3.091  0.1842  0.3667  0.3154
 4014SOL    HW122511   8.142   6.719   3.186 -2.1289  0.3071  0.9996
 4014SOL    HW222512   8.125   6.605   3.070  0.6182  0.3673  0.5058
 4015SOL     OW22513   0.616   0.201   2.224 -0.0281  0.5052 -0.1167
 4015SOL    HW122514   0.604   0.299   2.209 -1.0179  0.3467 -0.3831
 4015SOL    HW222515   0.689   0.167   2.165  0.7252  1.1915  0.4066
 4016SOL     OW22516   2.761   7.995   0.738  0.7594 -0.3947  0.2851
 4016SOL    HW122517   2.694   7.953   0.800 -1.0828  0.8030 -0.8342
 4016SOL    HW222518   2.794   8.081   0.776  0.1503 -0.0045 -0.0482
 4017SOL     OW22519   7.661   0.235   2.824 -0.5341 -0.2302  0.3517
 4017SOL    HW122520   7.742   0.287   2.852 -0.0774 -0.6184 -0.2482
 4017SOL    HW222521   7.604   0.293   2.765  0.0132 -0.4353 -0.3798
 4018SOL     OW22522   1.225   4.746   3.888 -0.4848  0.1087  0.8387
 4018SOL    HW122523   1.268   4.736   3.799 -1.5669 -0.0540  0.3384
 4018SOL    HW222524   1.291   4.787   3.952  0.6755 -0.8863  0.2947
 4019SOL     OW22525   2.136   1.535   1.161  0.1151  0.0226 -0.4390
 4019SOL    HW122526   2.166   1.624   1.125  1.4336 -0.6985 -1.1586
 4019SOL    HW222527   2.128   1.470   1.086 -0.0308 -0.6903  0.1948
 4020SOL     OW22528   9.205   0.293   3.164 -0.3568 -0.2237  0.2604
 4020SOL    HW122529   9.181   0.285   3.261  0.0668 -2.1306  0.2304
 4020SOL    HW222530   9.132   0.255   3.108 -0.0687 -0.2228 -0.1191
 4021SOL     OW22531   0.472   8.579   2.234  0.3295 -0.5353 -0.3615
 4021SOL    HW122532   0.464   8.484   2.204  1.4225 -0.8373  0.2828
 4021SOL    HW222533   0.492   8.581   2.332 -0.6087  0.3800 -0.1824
 4022SOL     OW22534   9.851   7.230   1.327 -0.4014 -0.3002  0.0267
 4022SOL    HW122535   9.787   7.246   1.252  1.5703  0.6184 -1.5312
 4022SOL    HW222536   9.847   7.133   1.354 -0.9914 -0.6983 -1.4104
 4023SOL     OW22537   1.842   0.018   0.964  0.3527  0.9423  0.9015
 4023SOL    HW122538   1.920  -0.032   1.002  0.6144 -1.5768 -2.6036
 4023SOL    HW222539   1.757  -0.024   0.996  0.5320  0.7555  1.1353
 4024SOL     OW22540   8.337   2.276   1.476 -0.5699 -0.5459 -0.1906
 4024SOL    HW122541   8.241   2.306   1.473 -1.0115 -1.7584  0.8383
 4024SOL    HW222542   8.391   2.328   1.411 -1.9053  0.2861 -0.6527
 4025SOL     OW22543   8.861   7.992   0.732  0.2331 -0.3766 -0.1597
 4025SOL    HW122544   8.920   7.923   0.775 -0.1085 -0.3713  0.3213
 4025SOL    HW222545   8.884   7.999   0.635  2.3449  0.9969  0.4099
 4026SOL     OW22546   2.202   3.727   3.514 -0.0797 -0.1903  0.3835
 4026SOL    HW122547   2.151   3.813   3.514 -1.5659 -1.0432  1.5690
 4026SOL    HW222548   2.148   3.656   3.560  0.1110 -2.3602 -2.6309
 4027SOL     OW22549   0.397   5.473   3.680  0.2195 -0.7218  0.0552
 4027SOL    HW122550   0.416   5.544   3.612  0.3662  0.0169  0.8578
 4027SOL    HW222551   0.398   5.514   3.771  0.2253 -1.7449  0.5146
 4028SOL     OW22552   0.800   4.987   4.040  0.9984 -0.6121 -0.4032
 4028SOL    HW122553   0.727   4.959   3.978  0.5175 -0.8576  0.2621
 4028SOL    HW222554   0.875   5.029   3.988 -0.3033  1.1144 -0.9269
 4029SOL     OW22555   7.840   6.357   0.186 -0.8794 -0.2141 -1.1048
 4029SOL    HW122556   7.904   6.408   0.127 -1.4593  1.0091 -0.7021
 4029SOL    HW222557   7.753   6.346   0.138 -0.6692 -1.0735 -1.2943
 4030SOL     OW22558   1.344   0.107   1.618  0.4069  0.5998  0.0270
 4030SOL    HW122559   1.417   0.071   1.676  1.6963  0.4170 -1.6751
 4030SOL    HW222560   1.355   0.206   1.607 -0.6529  0.8694  1.2011
 4031SOL     OW22561   4.288   1.860   2.670  0.1764 -0.7205 -0.4739
 4031SOL    HW122562   4.225   1.793   2.708 -1.3436 -0.9664 -3.3279
 4031SOL    HW222563   4.283   1.945   2.723 -0.7521 -1.5316  0.7630
 4032SOL     OW22564   7.996   2.579   3.937 -0.1901  0.2713 -0.5520
 4032SOL    HW122565   8.094   2.559   3.950 -0.5015 -1.2675 -0.4234
 4032SOL    HW222566   7.968   2.546   3.846 -0.8443 -0.3338 -0.1345
 4033SOL     OW22567   1.061   2.115   2.742 -0.0005 -0.0404  0.0292
 4033SOL    HW122568   1.112   2.201   2.740 -0.4502  0.2104 -1.4201
 4033SOL    HW222569   0.965   2.133   2.720 -0.8867 -0.4163  3.3553
 4034SOL     OW22570   0.803   3.180   1.080 -0.6558 -0.2615 -0.2224
 4034SOL    HW122571   0.817   3.276   1.103 -0.7033  0.3461 -2.5440
 4034SOL    HW222572   0.714   3.169   1.035 -0.1216 -1.1492 -1.0914
 4035SOL     OW22573   2.112   9.259   0.651  0.0314 -0.1987  0.6788
 4035SOL    HW122574   2.042   9.211   0.703 -1.0397  0.7166  0.1012
 4035SOL    HW222575   2.176   9.304   0.714 -0.1659 -0.6546  1.2052
 4036SOL     OW22576   2.521   7.137   3.833  0.1865  0.1235  0.1700
 4036SOL    HW122577   2.529   7.226   3.878 -0.7781  0.2818  0.0346
 4036SOL    HW222578   2.606   7.117   3.784  0.1284  1.3243 -0.4423
 4037SOL     OW22579   2.967   2.755   0.584 -0.4449  0.2952  0.4353
 4037SOL    HW122580   2.917   2.795   0.661  0.7953  0.7202  1.0294
 4037SOL    HW222581   3.063   2.742   0.609 -0.6735 -2.3977 -0.0153
 4038SOL     OW22582   5.605   8.726   2.511  0.0555  0.5560 -0.1486
 4038SOL    HW122583   5.625   8.783   2.432 -0.5515  2.4276  1.0326
 4038SOL    HW222584   5.624   8.630   2.488 -0.4202  1.0269 -2.6435
 4039SOL     OW22585   9.320   1.766   2.663  0.1796  0.1588 -0.2617
 4039SOL    HW122586   9.277   1.678   2.679 -0.0762  0.3475  0.0920
 4039SOL    HW222587   9.416   1.753   2.636  0.8457 -0.1211  2.1858
 4040SOL     OW22588   1.732   5.184   3.186  0.3652  0.0848  0.1681
 4040SOL    HW122589   1.793   5.263   3.193  0.3366  0.0465  0.8920
 4040SOL    HW222590   1.698   5.176   3.092  0.2729  0.9993  0.1226
 4041SOL     OW22591   4.633   9.528   3.193 -0.0085  0.2115 -0.4946
 4041SOL    HW122592   4.708   9.530   3.259 -0.4625 -0.0419  0.0386
 4041SOL    HW222593   4.551   9.568   3.235 -0.5446 -0.7818 -0.5853
 4042SOL     OW22594   8.256   6.857   3.699 -0.4084  0.0508  0.5465
 4042SOL    HW122595   8.306   6.801   3.633 -0.7345  1.2032 -0.7107
 4042SOL    HW222596   8.308   6.863   3.784  1.4114  0.9014 -0.6040
 4043SOL     OW22597   0.583   6.487   3.342  0.0412 -0.0288 -0.1545
 4043SOL    HW122598   0.515   6.482   3.416 -0.1650 -1.3431 -0.4192
 4043SOL    HW222599   0.623   6.397   3.327  1.7175  0.7019 -0.1418
 4044SOL     OW22600   8.857   7.726   2.335  0.0760 -0.0008  0.2461
 4044SOL    HW122601   8.933   7.743   2.272 -0.4824  0.6373 -0.2724
 4044SOL    HW222602   8.797   7.656   2.296 -0.3228  0.4651  0.0154
 4045SOL     OW22603   9.649   0.430   3.813  0.4575 -0.6458 -0.1443
 4045SOL    HW122604   9.573   0.394   3.759  0.9167 -0.3297 -1.0228
 4045SOL    HW222605   9.621   0.513   3.860 -0.0512 -1.1157  0.3976
 4046SOL     OW22606   7.942   9.650   2.988 -0.4270 -0.0422 -0.0336
 4046SOL    HW122607   7.958   9.707   2.907  2.0868 -0.0882  0.4037
 4046SOL    HW222608   8.020   9.590   3.003 -1.2385 -0.6479  1.9393
 4047SOL     OW22609   3.015   2.551   0.006  0.7708  0.1041  0.8667
 4047SOL    HW122610   3.083   2.541  -0.067  3.1681 -0.5756  3.0716
 4047SOL    HW222611   2.985   2.460   0.036 -0.0292  0.3668  0.8740
 4048SOL     OW22612   9.844   8.560   1.813  0.0342  0.0313  0.0632
 4048SOL    HW122613   9.832   8.547   1.911  0.9725 -0.5815  0.0948
 4048SOL    HW222614   9.798   8.645   1.785 -1.5144 -0.5663  0.7615
 4049SOL     OW22615   9.655   9.663   3.609  0.8833  0.1310  0.1060
 4049SOL    HW122616   9.671   9.761   3.598  0.1765  0.2347 -0.0391
 4049SOL    HW222617   9.714   9.628   3.681 -0.0917  1.0056  1.3462
 4050SOL     OW22618   1.054   4.644   3.132 -0.8435 -0.7102 -0.2866
 4050SOL    HW122619   1.032   4.593   3.049 -0.1306 -0.2700 -0.7542
 4050SOL    HW222620   1.154   4.651   3.140 -0.9226 -0.3820  0.3828
 4051SOL     OW22621   9.837   7.359   2.589  0.2939 -0.3800 -0.5245
 4051SOL    HW122622   9.871   7.266   2.575  0.1171 -0.2356 -1.9492
 4051SOL    HW222623   9.746   7.356   2.629 -0.4056 -0.8380 -2.1504
 4052SOL     OW22624   9.112   0.352   2.156 -0.6092 -0.2782 -0.5648
 4052SOL    HW122625   9.157   0.302   2.229 -1.4543 -0.6971 -0.3170
 4052SOL    HW222626   9.105   0.448   2.180 -0.6702 -0.3729 -0.1986
 4053SOL     OW22627   8.107   8.420   2.809 -0.0501  0.3305  0.2104
 4053SOL    HW122628   8.151   8.380   2.729  2.2003 -0.4835  1.7850
 4053SOL    HW222629   8.174   8.428   2.883 -1.4917  3.1518  1.3045
 4054SOL     OW22630   8.473   4.774   1.451  0.1323  0.0869  0.4995
 4054SOL    HW122631   8.570   4.757   1.469  0.7116 -0.6000 -2.8860
 4054SOL    HW222632   8.462   4.866   1.413 -0.4702 -0.0531  0.3313
 4055SOL     OW22633   4.796   2.684   2.269 -0.4454 -0.3568 -0.1898
 4055SOL    HW122634   4.826   2.660   2.177 -1.8419 -0.4663 -0.6256
 4055SOL    HW222635   4.749   2.605   2.311 -0.1642 -0.1822  0.4679
 4056SOL     OW22636   2.265   2.815   2.392 -0.2056  0.1260 -0.5708
 4056SOL    HW122637   2.215   2.796   2.477  0.1507 -1.8726 -0.7913
 4056SOL    HW222638   2.237   2.749   2.322  0.2653  1.1220 -1.7091
 4057SOL     OW22639   9.133   6.671   2.765 -0.1447 -0.0063  0.4374
 4057SOL    HW122640   9.046   6.718   2.765  0.1712  0.6513 -2.7658
 4057SOL    HW222641   9.201   6.726   2.813 -0.6998  1.0211  0.0583
 4058SOL     OW22642   9.577   9.446   1.354  0.5783 -0.0129  0.1527
 4058SOL    HW122643   9.514   9.376   1.388  0.1962  0.1045 -0.3014
 4058SOL    HW222644   9.536   9.536   1.365  0.3237  0.0109 -0.8527
 4059SOL     OW22645   4.533   9.800   3.311  0.0336 -0.7807 -0.2954
 4059SOL    HW122646   4.580   9.867   3.252 -0.1597 -1.1340 -0.8564
 4059SOL    HW222647   4.441   9.783   3.276 -0.9013  0.6615  1.3757
 4060SOL     OW22648   1.397   5.414   1.391 -0.2681 -0.3108 -0.4880
 4060SOL    HW122649   1.458   5.386   1.316  0.8491  0.6622  0.0529
 4060SOL    HW222650   1.433   5.380   1.478  1.3564  3.0701  0.2468
 4061SOL     OW22651   6.063   7.501   2.664 -0.2210 -0.1095 -0.4874
 4061SOL    HW122652   6.113   7.587   2.678 -1.4885  0.8013 -1.3774
 4061SOL    HW222653   6.107   7.449   2.591 -0.0060  0.2595 -0.6248
 4062SOL     OW22654   8.311   6.712   1.934 -0.4480 -0.2844  0.0191
 4062SOL    HW122655   8.324   6.695   1.836  0.0386  0.2744 -0.0179
 4062SOL    HW222656   8.213   6.721   1.954 -0.5561 -0.5645 -0.3867
 4063SOL     OW22657   2.635   4.458   1.552  0.5175  0.3541 -0.1330
 4063SOL    HW122658   2.702   4.398   1.507  0.9918  1.8064 -1.4265
 4063SOL    HW222659   2.680   4.544   1.577 -0.4565  0.6656  0.5474
 4064SOL     OW22660   1.214   5.800   0.855  0.0416 -0.0690  0.0801
 4064SOL    HW122661   1.143   5.836   0.916  0.1688  0.3772 -0.0374
 4064SOL    HW222662   1.177   5.722   0.804  0.0964 -0.7938  1.1216
 4065SOL     OW22663   4.606   9.869   1.546 -0.2917  0.1369  0.1449
 4065SOL    HW122664   4.539   9.799   1.573  0.6879 -1.7558 -2.1404
 4065SOL    HW222665   4.693   9.850   1.591  0.3046 -0.8449 -1.3824
 4066SOL     OW22666   4.845   0.009   1.862 -0.8131  0.2580 -0.3797
 4066SOL    HW122667   4.902   0.078   1.906 -1.3702  0.5629 -0.1254
 4066SOL    HW222668   4.856  -0.079   1.908  0.0570  0.1261 -0.8348
 4067SOL     OW22669   4.030   8.842   0.414  0.4016 -0.2772 -0.6763
 4067SOL    HW122670   3.989   8.896   0.488  0.4644  1.3539 -1.8096
 4067SOL    HW222671   4.119   8.808   0.444 -1.0845 -2.6122  1.2616
 4068SOL     OW22672   8.094   4.970   2.635 -0.0617 -0.6725 -0.0140
 4068SOL    HW122673   8.086   5.069   2.653 -1.3052 -0.7961  0.1549
 4068SOL    HW222674   8.139   4.956   2.547 -0.5086  0.0639 -0.3648
 4069SOL     OW22675   9.047   8.315   1.533  0.2492  0.3645  0.1879
 4069SOL    HW122676   9.111   8.340   1.606 -0.1909  0.4171  0.5629
 4069SOL    HW222677   9.097   8.275   1.457  0.7444  0.5321  0.4202
 4070SOL     OW22678   4.038   4.783   3.544 -0.7804 -0.3654 -0.0593
 4070SOL    HW122679   4.110   4.762   3.610 -1.0061  0.2442  0.3818
 4070SOL    HW222680   3.994   4.697   3.515  0.1802 -0.7436 -0.4030
 4071SOL     OW22681   3.625   1.088   2.601  0.0589  0.2472 -0.3134
 4071SOL    HW122682   3.595   0.992   2.597 -0.2498  0.3455 -0.3449
 4071SOL    HW222683   3.725   1.092   2.590 -0.0369  0.0047 -1.3466
 4072SOL     OW22684   3.062   6.738   2.758  0.1966  0.0631  0.1776
 4072SOL    HW122685   3.085   6.739   2.855 -0.7675  0.6493  0.4012
 4072SOL    HW222686   3.044   6.644   2.729  1.2333 -0.2040  0.3814
 4073SOL     OW22687   1.727   3.347   1.911  0.4031  0.5247  0.8976
 4073SOL    HW122688   1.722   3.262   1.963  1.3457 -0.6330 -0.8484
 4073SOL    HW222689   1.650   3.406   1.936  0.4107 -0.3305  2.9959
 4074SOL     OW22690   1.749   3.859   0.516 -0.0249  0.2706 -0.0614
 4074SOL    HW122691   1.663   3.905   0.537 -0.3700  0.2269 -1.3750
 4074SOL    HW222692   1.812   3.924   0.473  0.1080 -0.0376 -0.3356
 4075SOL     OW22693   9.046   9.167   1.705  0.6311  0.1172  0.0802
 4075SOL    HW122694   8.973   9.197   1.767  1.4573  1.9019  0.2262
 4075SOL    HW222695   9.005   9.128   1.623 -0.4791 -0.6830  1.0020
 4076SOL     OW22696   4.999   8.886   1.574 -0.3372  0.0335  0.0039
 4076SOL    HW122697   4.971   8.876   1.479  0.5136  0.9488 -0.3527
 4076SOL    HW222698   4.926   8.930   1.627 -0.3685  0.5612 -0.4759
 4077SOL     OW22699   7.405   7.961   2.931  0.6200 -0.2825  0.1536
 4077SOL    HW122700   7.426   7.948   2.834  1.3499  2.5380 -0.1294
 4077SOL    HW222701   7.308   7.984   2.941  1.2000  2.5984 -0.3139
 4078SOL     OW22702   1.849   3.859   0.877 -0.6075 -0.2535 -0.6270
 4078SOL    HW122703   1.849   3.760   0.887  1.0133 -0.1456  0.5738
 4078SOL    HW222704   1.757   3.890   0.851 -1.6919 -1.8357  1.2003
 4079SOL     OW22705   9.562   6.231   1.514  0.3300 -0.2356  0.4552
 4079SOL    HW122706   9.651   6.198   1.481  0.3173  1.4591 -1.3351
 4079SOL    HW222707   9.521   6.292   1.446 -2.4212 -1.3216  1.0735
 4080SOL     OW22708   1.455   9.538   0.088  0.2615 -0.1149 -0.0673
 4080SOL    HW122709   1.437   9.500  -0.003  0.2618  2.3687 -1.1675
 4080SOL    HW222710   1.374   9.589   0.119  1.1670  1.1785  0.1894
 4081SOL     OW22711   3.106   1.638   1.115  0.2275  0.0054 -0.1725
 4081SOL    HW122712   3.091   1.547   1.076 -0.2987 -0.7100  1.6175
 4081SOL    HW222713   3.199   1.644   1.150 -0.0468 -0.1938  0.5956
 4082SOL     OW22714   2.464   8.379   2.807  0.0907  0.2867  0.5947
 4082SOL    HW122715   2.447   8.285   2.837 -3.1326  0.2563 -1.1409
 4082SOL    HW222716   2.398   8.440   2.851  0.1199  1.2745 -0.7254
 4083SOL     OW22717   3.556   4.971   3.124  0.0842  0.6741  0.6589
 4083SOL    HW122718   3.631   4.992   3.186  1.6810 -1.3712 -0.5093
 4083SOL    HW222719   3.589   4.973   3.030 -1.4831  0.3651  0.0923
 4084SOL     OW22720   2.733   3.977   1.334 -0.1475 -0.1424 -0.0797
 4084SOL    HW122721   2.676   3.897   1.350 -2.5974  1.3111 -1.3568
 4084SOL    HW222722   2.678   4.060   1.341  2.1996  1.4318  0.5244
 4085SOL     OW22723   9.913   0.204   1.938 -0.1767  0.6938 -0.0270
 4085SOL    HW122724   9.971   0.225   2.016 -1.4181 -0.0383  1.1151
 4085SOL    HW222725   9.964   0.219   1.853  1.1871  1.4821  0.9132
 4086SOL     OW22726   1.961   2.909   3.996 -0.4397  0.2003  0.0023
 4086SOL    HW122727   1.974   2.998   4.040 -1.7579  0.8236 -0.8327
 4086SOL    HW222728   1.971   2.919   3.897 -0.9568 -0.5058 -0.1244
 4087SOL     OW22729   3.892   4.102   2.884 -0.4109 -0.0599  0.0064
 4087SOL    HW122730   3.912   4.111   2.786 -1.1955 -0.5612 -0.2111
 4087SOL    HW222731   3.931   4.017   2.918  0.3802  0.4110  0.2669
 4088SOL     OW22732   3.168   2.200   3.887  0.1107  0.0750  0.5470
 4088SOL    HW122733   3.244   2.262   3.904  1.5254 -0.7384 -2.5022
 4088SOL    HW222734   3.202   2.106   3.882 -0.4599 -0.0271 -3.9188
 4089SOL     OW22735   1.516   0.360   2.664 -0.1179  0.0496  0.0645
 4089SOL    HW122736   1.453   0.305   2.610 -0.4567 -0.2111  0.7204
 4089SOL    HW222737   1.609   0.323   2.654 -0.2407 -0.2366 -0.0229
 4090SOL     OW22738   1.530   3.999   0.548  0.9407  0.1063  0.1418
 4090SOL    HW122739   1.476   4.061   0.492 -0.3541  0.7290  2.0291
 4090SOL    HW222740   1.531   4.031   0.643  0.3895 -2.6344  1.1238
 4091SOL     OW22741   3.483   9.716   1.436 -0.2865 -0.3128 -0.0792
 4091SOL    HW122742   3.518   9.726   1.343 -0.5385  2.3895  0.0744
 4091SOL    HW222743   3.553   9.747   1.501 -1.3961  1.2191  0.4286
 4092SOL     OW22744   1.747   1.253   1.833 -0.1623  0.5769  0.5151
 4092SOL    HW122745   1.833   1.289   1.797  0.2737 -1.6740 -0.8068
 4092SOL    HW222746   1.671   1.300   1.788  0.3794 -1.5820 -2.8625
 4093SOL     OW22747   2.926   6.972   2.008 -0.1739  0.7100 -0.1371
 4093SOL    HW122748   2.968   6.887   2.039 -1.1283  0.9282  1.8220
 4093SOL    HW222749   2.989   7.020   1.946  0.9434 -0.7082 -0.1173
 4094SOL     OW22750   8.355   7.488   2.078  0.2300 -0.6379 -0.0490
 4094SOL    HW122751   8.373   7.391   2.096 -0.0384 -1.2504 -2.8537
 4094SOL    HW222752   8.427   7.525   2.020 -0.3875  0.4842 -0.1046
 4095SOL     OW22753   1.813   9.580   3.969 -0.1677  0.2447 -0.0636
 4095SOL    HW122754   1.833   9.539   4.058  0.8875 -0.7627 -0.7421
 4095SOL    HW222755   1.884   9.553   3.904 -0.5556  1.5331 -1.0379
 4096SOL     OW22756   2.013   0.576   0.560  0.2884 -0.0710  0.0302
 4096SOL    HW122757   2.102   0.588   0.516 -0.2343 -0.5633 -1.2021
 4096SOL    HW222758   1.940   0.590   0.492 -0.5796  0.4670  1.0520
 4097SOL     OW22759   3.284   3.046   3.967  0.3944 -0.0713  0.3149
 4097SOL    HW122760   3.338   2.982   4.022 -1.0830 -0.8911  0.8358
 4097SOL    HW222761   3.203   2.999   3.931 -0.5077  1.3998  0.3756
 4098SOL     OW22762   8.326   5.812   1.670  0.1897 -0.9587  0.3141
 4098SOL    HW122763   8.313   5.807   1.769 -0.9146 -1.7236  0.1359
 4098SOL    HW222764   8.240   5.792   1.624  0.1812  1.4971 -0.7775
 4099SOL     OW22765   9.984   3.845   2.706  0.1059  0.5383  0.6894
 4099SOL    HW122766   9.899   3.852   2.759  0.0624  1.7435  0.4624
 4099SOL    HW222767   9.965   3.796   2.621 -0.5808  1.6147  0.2084
 4100SOL     OW22768   3.570   4.018   2.605 -0.7311  0.2691 -0.2311
 4100SOL    HW122769   3.571   4.039   2.703 -0.3070 -0.9764  0.0430
 4100SOL    HW222770   3.638   3.948   2.585  0.0373  1.3790 -1.6276
 4101SOL     OW22771   9.472   3.701   2.022 -0.3129  0.3018  0.1815
 4101SOL    HW122772   9.533   3.638   1.973  1.3349  0.3321  2.1275
 4101SOL    HW222773   9.443   3.659   2.108  1.0561  2.2698  1.6646
 4102SOL     OW22774   3.340   5.602   3.157 -0.5786  0.2817  0.0927
 4102SOL    HW122775   3.273   5.529   3.167  0.5322 -1.0333 -1.7620
 4102SOL    HW222776   3.426   5.564   3.123 -0.0185  2.4604 -1.0391
 4103SOL     OW22777   4.166   8.556   2.633  0.3562  1.2892  0.2796
 4103SOL    HW122778   4.078   8.515   2.657 -0.2807  3.0400  1.0115
 4103SOL    HW222779   4.240   8.496   2.662 -0.5841 -0.6433 -1.1402
 4104SOL     OW22780   8.675   2.494   0.528 -0.3690 -0.6154  0.3297
 4104SOL    HW122781   8.623   2.417   0.490 -1.6321 -0.5025  1.7895
 4104SOL    HW222782   8.708   2.470   0.619  0.1095  0.2026  0.3761
 4105SOL     OW22783   5.975   9.451   2.843  0.6271  0.0979 -0.3395
 4105SOL    HW122784   6.065   9.451   2.799  0.8657 -1.3359  0.1339
 4105SOL    HW222785   5.986   9.452   2.942  0.1288 -0.9248 -0.2723
 4106SOL     OW22786   3.751   0.812   3.191  0.2055 -0.5742 -0.2476
 4106SOL    HW122787   3.655   0.839   3.192  0.0066 -1.2564 -0.9755
 4106SOL    HW222788   3.773   0.767   3.278  0.0812  0.2851  0.2421
 4107SOL     OW22789   7.735   1.122   0.326  0.0592  0.5327  0.2282
 4107SOL    HW122790   7.676   1.090   0.400 -0.6960  0.2978 -0.4741
 4107SOL    HW222791   7.831   1.103   0.350 -0.1394  0.9306  1.3673
 4108SOL     OW22792   2.245   9.727   3.744  0.1851 -1.0703  0.3839
 4108SOL    HW122793   2.315   9.795   3.727 -0.9654  0.4296  1.4516
 4108SOL    HW222794   2.179   9.726   3.669  0.0692 -0.8140  0.4803
 4109SOL     OW22795   9.780   4.391   0.098  0.2099  0.3779 -0.3038
 4109SOL    HW122796   9.748   4.372   0.191  0.5587  2.9110  0.3972
 4109SOL    HW222797   9.707   4.435   0.046  0.1989 -0.5244 -1.0434
 4110SOL     OW22798   8.308   1.157   2.759  0.2577 -0.0625 -0.2816
 4110SOL    HW122799   8.354   1.215   2.826  2.5815  1.2924 -2.9169
 4110SOL    HW222800   8.292   1.209   2.675 -2.9321 -1.5930 -0.6820
 4111SOL     OW22801   8.988   6.467   3.696 -0.6220 -0.5838 -0.1889
 4111SOL    HW122802   8.937   6.509   3.622 -0.8067  1.3567  1.0142
 4111SOL    HW222803   9.077   6.437   3.663 -1.4972 -1.6263 -1.6749
 4112SOL     OW22804   0.148   0.814   0.628  0.2755 -0.3865  0.1165
 4112SOL    HW122805   0.162   0.891   0.691  0.6833 -0.9957  0.7796
 4112SOL    HW222806   0.051   0.792   0.622  0.1606  0.1488 -0.0450
 4113SOL     OW22807   2.218   8.275   3.641  0.0888 -0.1609  0.3588
 4113SOL    HW122808   2.136   8.332   3.647  0.8084  0.9485  0.0338
 4113SOL    HW222809   2.198   8.183   3.673 -1.6840 -0.3309 -1.1229
 4114SOL     OW22810   5.569   7.959   2.168  0.3833 -0.3014 -0.3973
 4114SOL    HW122811   5.515   7.876   2.180  0.9591 -0.7861 -1.1453
 4114SOL    HW222812   5.651   7.938   2.115 -0.5642  1.1836 -2.5297
 4115SOL     OW22813   8.415   5.940   1.370 -0.0256  0.5814  0.1699
 4115SOL    HW122814   8.369   5.999   1.436 -2.0443  0.0852 -0.7564
 4115SOL    HW222815   8.509   5.972   1.357  0.0928  1.2908  2.4987
 4116SOL     OW22816   1.606   9.738   2.275  0.8684 -0.6217 -0.1081
 4116SOL    HW122817   1.633   9.807   2.208 -1.7709  0.5832  0.0139
 4116SOL    HW222818   1.623   9.773   2.367 -0.7302  0.0149 -0.0389
 4117SOL     OW22819   4.794   7.260   2.868  0.7361 -0.0662 -0.0387
 4117SOL    HW122820   4.831   7.196   2.801  0.9368  2.1402 -2.1086
 4117SOL    HW222821   4.823   7.234   2.959  3.1806 -1.2704 -1.1285
 4118SOL     OW22822   8.522   0.336   1.142 -0.1239  0.5436  0.2719
 4118SOL    HW122823   8.547   0.316   1.237  0.0554 -0.4202  0.0295
 4118SOL    HW222824   8.451   0.406   1.140 -2.0934 -1.3384  1.2633
 4119SOL     OW22825   0.396   4.530   2.839  0.5025 -0.0513  0.4135
 4119SOL    HW122826   0.414   4.625   2.815  0.6628  0.2744  1.8048
 4119SOL    HW222827   0.335   4.526   2.918  0.5309 -1.1007  0.3944
 4120SOL     OW22828   4.823   9.925   0.490  0.3195  0.1455 -0.0878
 4120SOL    HW122829   4.840  10.023   0.488  0.7050  0.1921  2.9631
 4120SOL    HW222830   4.748   9.905   0.553  2.2934 -1.7422  1.7471
 4121SOL     OW22831   0.997   7.754   3.050  0.0326 -0.2602  0.4538
 4121SOL    HW122832   0.951   7.842   3.061 -1.1154 -1.1031  2.6615
 4121SOL    HW222833   1.064   7.742   3.124  1.0236 -0.7377 -0.5118
 4122SOL     OW22834   9.687   4.392   0.630 -0.2225 -0.4863  0.0029
 4122SOL    HW122835   9.623   4.418   0.702  0.6356  2.2967 -0.1800
 4122SOL    HW222836   9.642   4.328   0.567 -2.9716  1.6195 -0.2778
 4123SOL     OW22837   9.329   1.759   0.337  0.3732  0.3368  0.3353
 4123SOL    HW122838   9.410   1.750   0.279 -0.0734  2.0005 -0.5735
 4123SOL    HW222839   9.292   1.852   0.329 -1.7445 -0.4565  0.5644
 4124SOL     OW22840   1.309   5.234   0.162  0.4894  0.1911 -0.4311
 4124SOL    HW122841   1.386   5.289   0.132  0.4352  0.3019 -0.3686
 4124SOL    HW222842   1.261   5.197   0.083  1.5131 -1.1472 -0.4464
 4125SOL     OW22843   8.893   3.108   2.428  0.4655 -0.4665 -0.4120
 4125SOL    HW122844   8.964   3.059   2.377  1.0341 -0.5006  0.3982
 4125SOL    HW222845   8.936   3.166   2.498 -0.3580 -1.7265  1.1725
 4126SOL     OW22846   2.002   8.729   3.103 -0.1975 -0.2376  0.2571
 4126SOL    HW122847   2.020   8.738   3.005  0.5025  2.2290  0.5835
 4126SOL    HW222848   2.081   8.762   3.154 -1.9730  2.0151  1.6575
 4127SOL     OW22849   9.106   2.915   2.567  0.2402  0.0981  0.7443
 4127SOL    HW122850   9.179   2.917   2.499 -0.1244 -0.8871  0.3048
 4127SOL    HW222851   9.106   2.826   2.613 -0.8528 -0.0239  0.5355
 4128SOL     OW22852   4.748   1.018   2.903 -0.3853  0.1112 -0.1009
 4128SOL    HW122853   4.679   1.003   2.832 -1.0814 -0.5521  0.7060
 4128SOL    HW222854   4.789   0.931   2.928  0.7529  0.5092 -0.5784
 4129SOL     OW22855   2.443   4.295   3.103 -0.0596  0.1506  0.2235
 4129SOL    HW122856   2.527   4.267   3.151 -0.2703 -0.3247  0.3243
 4129SOL    HW222857   2.379   4.334   3.169 -0.3619 -0.5316  0.3359
 4130SOL     OW22858   1.390   9.592   2.358  0.3995  0.6043  0.4608
 4130SOL    HW122859   1.470   9.638   2.320  0.8876  0.4361  1.2726
 4130SOL    HW222860   1.315   9.595   2.292  0.3514  2.7761  0.5790
 4131SOL     OW22861   3.278   7.247   2.235 -0.3440 -0.3594  0.1138
 4131SOL    HW122862   3.240   7.171   2.288 -0.6548  0.6171  1.3118
 4131SOL    HW222863   3.378   7.244   2.240 -0.3595 -0.5979  0.3142
 4132SOL     OW22864   8.716   3.603   3.487  0.2292 -0.2037 -0.2940
 4132SOL    HW122865   8.732   3.506   3.469 -1.0838 -0.4492 -0.2170
 4132SOL    HW222866   8.621   3.626   3.465  0.7215  1.2354 -1.0142
 4133SOL     OW22867   1.213   6.744   0.547  0.7776  0.3957  0.3295
 4133SOL    HW122868   1.154   6.771   0.471  1.4950 -0.5428 -0.5783
 4133SOL    HW222869   1.308   6.739   0.515  1.2011  0.8130  1.5030
 4134SOL     OW22870   1.120   2.825   3.142  0.2197  0.2538 -0.3149
 4134SOL    HW122871   1.190   2.881   3.188 -0.4404  1.0356 -0.2544
 4134SOL    HW222872   1.030   2.865   3.158 -0.5386 -2.0711  1.6425
 4135SOL     OW22873   5.263   7.673   3.579  0.9219 -0.2962  0.1432
 4135SOL    HW122874   5.262   7.617   3.662 -0.0988 -1.4809 -0.6434
 4135SOL    HW222875   5.183   7.650   3.523  0.9583  1.3498 -0.6043
 4136SOL     OW22876   1.996   2.409   0.783  0.9821 -0.3578  0.5545
 4136SOL    HW122877   1.922   2.427   0.718  1.1427 -1.9354 -0.0936
 4136SOL    HW222878   1.994   2.313   0.811  2.7644 -0.4326  0.5335
 4137SOL     OW22879   9.445   4.986   2.444 -0.2085  0.6227 -0.4687
 4137SOL    HW122880   9.394   5.003   2.360  0.5320  1.7110 -0.7043
 4137SOL    HW222881   9.539   5.019   2.434  0.2885 -0.5290  0.2872
 4138SOL     OW22882   9.965   2.667   0.479  0.3543 -0.1567 -0.1048
 4138SOL    HW122883  10.005   2.581   0.448  0.1249 -0.8341  1.4153
 4138SOL    HW222884   9.948   2.726   0.400  2.1848 -0.7712 -0.9852
 4139SOL     OW22885   1.266   3.995   0.980  0.0545 -0.2268  0.0036
 4139SOL    HW122886   1.287   4.085   1.018 -1.2880  0.1237 -0.0587
 4139SOL    HW222887   1.186   4.002   0.921  0.5216 -1.2846 -0.7692
 4140SOL     OW22888   3.678   2.019   1.559  0.4365  0.7492 -0.9038
 4140SOL    HW122889   3.633   1.937   1.594 -0.6876  1.3091 -1.0168
 4140SOL    HW222890   3.609   2.084   1.527  1.2041  2.6176  1.1049
 4141SOL     OW22891   8.294   3.777   0.373 -0.3075 -0.8457 -0.0106
 4141SOL    HW122892   8.227   3.725   0.427 -0.0480 -0.7679  0.3856
 4141SOL    HW222893   8.254   3.800   0.284 -0.9794 -0.4099  0.3927
 4142SOL     OW22894   3.741   7.435   0.937  0.0246  0.5657  0.0979
 4142SOL    HW122895   3.668   7.368   0.926 -0.2958  0.6983  1.3860
 4142SOL    HW222896   3.767   7.441   1.033  2.1126  0.1320 -0.4042
 4143SOL     OW22897   0.432   1.382   3.859  0.3544  0.2496  0.1556
 4143SOL    HW122898   0.367   1.451   3.890  2.2503  0.7445  3.2134
 4143SOL    HW222899   0.448   1.316   3.933  2.9768 -0.1050 -0.6844
 4144SOL     OW22900   2.789   6.740   1.737 -0.1902 -0.5295 -0.1900
 4144SOL    HW122901   2.738   6.790   1.667 -0.4511 -1.6364 -0.8173
 4144SOL    HW222902   2.789   6.792   1.822  0.6818  1.1420 -1.1896
 4145SOL     OW22903   1.420   4.650   3.661  0.0596 -0.2465 -0.0293
 4145SOL    HW122904   1.438   4.561   3.703  0.3989  0.3683  1.1366
 4145SOL    HW222905   1.487   4.666   3.588  0.7506 -0.4222  0.5614
 4146SOL     OW22906   1.249   3.831   2.746 -0.1626  0.4727  0.2174
 4146SOL    HW122907   1.282   3.743   2.713 -0.3736  0.3235  0.3944
 4146SOL    HW222908   1.326   3.892   2.764 -0.1101  1.0910 -2.0156
 4147SOL     OW22909   1.345   4.231   1.695 -0.0091 -0.0901  0.9313
 4147SOL    HW122910   1.339   4.198   1.789 -0.1826 -0.8937  0.6432
 4147SOL    HW222911   1.383   4.159   1.636  1.4811  0.9085  0.6368
 4148SOL     OW22912   8.909   5.223   0.420  0.0482  0.3846 -0.3222
 4148SOL    HW122913   9.004   5.228   0.391 -0.0871  1.0635 -0.6612
 4148SOL    HW222914   8.864   5.145   0.376  0.6953 -0.5084  0.5818
 4149SOL     OW22915   1.949   2.005   1.367  0.2207  0.4547 -0.4342
 4149SOL    HW122916   1.900   1.918   1.355  0.3456  0.4998 -1.2784
 4149SOL    HW222917   1.893   2.080   1.332 -0.3385  0.8541  1.2377
 4150SOL     OW22918   3.870   2.796   3.852 -0.0712  0.7061 -0.1667
 4150SOL    HW122919   3.824   2.707   3.855 -0.2084  0.7595 -0.8069
 4150SOL    HW222920   3.874   2.833   3.945 -2.2719  1.2016 -0.2418
 4151SOL     OW22921   3.062   8.066   1.395 -0.2504 -0.2748  0.1530
 4151SOL    HW122922   2.979   8.039   1.443 -0.7037 -1.2996 -1.1463
 4151SOL    HW222923   3.080   8.000   1.322  1.0303  0.6126 -0.3468
 4152SOL     OW22924   2.923   4.507   0.043  0.0378  0.0356 -0.3285
 4152SOL    HW122925   3.012   4.468   0.023  0.3015  0.6459 -0.3704
 4152SOL    HW222926   2.853   4.465  -0.015  0.3495 -0.2139 -0.5185
 4153SOL     OW22927   9.663   4.798   1.067 -0.0401  0.3088  0.0787
 4153SOL    HW122928   9.705   4.816   0.978  0.5440  1.4465  0.5827
 4153SOL    HW222929   9.700   4.861   1.135 -1.7104  0.5629  0.7815
 4154SOL     OW22930   0.431   1.526   2.327 -0.6278  0.0050  0.3515
 4154SOL    HW122931   0.506   1.581   2.290  1.2440 -2.8335 -0.2673
 4154SOL    HW222932   0.355   1.525   2.262  0.3959 -0.2977 -0.8662
 4155SOL     OW22933   1.724   9.151   2.984 -0.3229  0.0347  0.1996
 4155SOL    HW122934   1.747   9.066   3.033 -0.0514 -0.8237 -1.3909
 4155SOL    HW222935   1.808   9.202   2.966 -0.3847  0.1702  0.2958
 4156SOL     OW22936   8.204   1.312   1.124 -0.2087  0.1349  0.4539
 4156SOL    HW122937   8.152   1.248   1.181 -2.5346  0.6793 -0.9824
 4156SOL    HW222938   8.210   1.276   1.031 -1.0708  1.7222 -0.2376
 4157SOL     OW22939   8.635   9.841   1.545  0.5144 -0.5126  0.5141
 4157SOL    HW122940   8.596   9.931   1.568 -0.2979 -1.2570  2.0862
 4157SOL    HW222941   8.717   9.855   1.489 -0.4579  1.1577 -0.5895
 4158SOL     OW22942   2.190   5.299   1.095  0.4827 -0.3598  0.1485
 4158SOL    HW122943   2.279   5.296   1.050  0.0118  0.2091 -0.8344
 4158SOL    HW222944   2.134   5.371   1.055 -0.9192 -1.6021 -0.1826
 4159SOL     OW22945   2.972   8.537   3.526 -0.3322  0.5418  0.1407
 4159SOL    HW122946   3.049   8.478   3.548  0.2294  1.0285 -0.5078
 4159SOL    HW222947   2.986   8.579   3.436 -1.5907  0.2405 -0.2046
 4160SOL     OW22948   9.697   5.475   2.505  0.2921  0.1101  0.7548
 4160SOL    HW122949   9.657   5.548   2.560  0.8147  0.1347  1.1131
 4160SOL    HW222950   9.746   5.516   2.428  0.2008  0.1166  0.7006
 4161SOL     OW22951   0.056   7.729   0.269 -0.4505 -0.0902 -0.4599
 4161SOL    HW122952   0.035   7.760   0.361 -0.2339 -1.4377  0.0452
 4161SOL    HW222953   0.062   7.808   0.208  0.8821  0.9145  0.9625
 4162SOL     OW22954   3.585   2.253   3.260 -0.1092 -0.2848  0.5100
 4162SOL    HW122955   3.615   2.264   3.354 -1.3942  1.1213  0.7741
 4162SOL    HW222956   3.542   2.164   3.249  1.2976 -1.0300  0.8903
 4163SOL     OW22957   3.190   1.159   0.735  0.1906 -0.2097 -0.2914
 4163SOL    HW122958   3.104   1.129   0.776  0.1557  0.0948 -0.1395
 4163SOL    HW222959   3.190   1.136   0.637 -0.8699  1.4678 -0.7102
 4164SOL     OW22960   7.170   0.485   3.244  0.3914  0.2091  0.2067
 4164SOL    HW122961   7.160   0.400   3.194 -3.5488  1.7596 -1.8507
 4164SOL    HW222962   7.260   0.525   3.225  0.7669 -1.5507 -1.8361
 4165SOL     OW22963   9.865   8.250   2.075  0.1550 -0.2291 -0.1403
 4165SOL    HW122964   9.925   8.227   2.152  3.0793  1.3849 -1.8628
 4165SOL    HW222965   9.833   8.344   2.085 -2.4985 -1.1757  0.9454
 4166SOL     OW22966   1.598   9.815   0.588 -0.5141 -0.3321 -0.1634
 4166SOL    HW122967   1.695   9.839   0.589 -0.5762  0.0232 -1.2204
 4166SOL    HW222968   1.564   9.822   0.494 -1.7401  0.2553  0.3232
 4167SOL     OW22969   8.453   5.305   2.696  0.0446 -0.7752 -0.0328
 4167SOL    HW122970   8.524   5.372   2.675 -0.7690 -0.7010 -2.7441
 4167SOL    HW222971   8.427   5.256   2.612 -3.5024 -0.3777  0.7523
 4168SOL     OW22972   4.606   3.750   1.331  0.4973 -0.5031  0.3256
 4168SOL    HW122973   4.541   3.792   1.268  0.1523 -1.0138  0.3386
 4168SOL    HW222974   4.610   3.803   1.416 -0.9474 -1.2386  0.8795
 4169SOL     OW22975   8.457   9.268   0.645 -0.3501 -0.3603 -0.1161
 4169SOL    HW122976   8.506   9.345   0.685 -1.0323 -0.4187  0.8217
 4169SOL    HW222977   8.521   9.192   0.630  0.5456  0.7194 -1.9989
 4170SOL     OW22978   8.185   0.657   0.913  0.0413 -0.0760 -0.3444
 4170SOL    HW122979   8.181   0.756   0.928  1.1343  0.0495 -0.8339
 4170SOL    HW222980   8.269   0.621   0.951 -0.0933 -0.7323 -0.6655
 4171SOL     OW22981   4.005   0.665   2.672  0.3455 -0.2073 -0.2687
 4171SOL    HW122982   4.050   0.637   2.588 -0.9072 -0.0827 -0.9892
 4171SOL    HW222983   4.029   0.601   2.745 -1.1041 -2.2184 -1.4927
 4172SOL     OW22984   2.933   0.844   3.131  0.0086 -0.2330  0.2558
 4172SOL    HW122985   2.921   0.822   3.034  0.7160  0.8415 -0.0884
 4172SOL    HW222986   2.848   0.825   3.180 -0.7977  0.5019 -0.8260
 4173SOL     OW22987   0.104   9.637   2.388 -0.5001 -0.0919 -0.2159
 4173SOL    HW122988   0.096   9.698   2.309 -0.2275  0.3715  0.1109
 4173SOL    HW222989   0.027   9.573   2.389 -0.5186 -0.0836 -0.8418
 4174SOL     OW22990   2.131   3.835   2.958 -0.0557 -0.3510 -0.1868
 4174SOL    HW122991   2.176   3.881   2.881  0.9373 -0.5967  0.2330
 4174SOL    HW222992   2.128   3.896   3.037 -1.2878 -0.0166 -0.4924
 4175SOL     OW22993   3.492   3.005   3.501  0.0173 -0.4812 -0.1319
 4175SOL    HW122994   3.455   3.043   3.416 -0.0225 -0.4467 -0.0986
 4175SOL    HW222995   3.524   2.912   3.484 -0.7046 -0.7504  0.0082
 4176SOL     OW22996   9.463   0.557   3.440  0.0025 -0.6310  0.0095
 4176SOL    HW122997   9.482   0.642   3.490 -0.7413 -0.4583  0.0019
 4176SOL    HW222998   9.463   0.480   3.505 -1.4128 -0.3473  0.3519
 4177SOL     OW22999   0.186   9.562   3.160  0.4428  0.3446  1.0925
 4177SOL    HW123000   0.125   9.505   3.107  0.3549  0.5833  0.9340
 4177SOL    HW223001   0.240   9.506   3.223  2.5926 -0.2880 -1.2393
 4178SOL     OW23002   0.762   0.112   0.980  0.2767 -0.3960 -0.8551
 4178SOL    HW123003   0.673   0.148   1.009  0.3123 -1.1287  0.1672
 4178SOL    HW223004   0.782   0.145   0.888 -1.0451 -0.1949 -1.0849
 4179SOL     OW23005   5.233   9.607   3.139 -0.3967  0.1503 -0.7380
 4179SOL    HW123006   5.285   9.666   3.078  0.3399  0.5297  0.2273
 4179SOL    HW223007   5.178   9.663   3.201  1.2086 -0.0814  0.9759
 4180SOL     OW23008   2.344   7.681   0.471 -0.1518  0.2716  0.2095
 4180SOL    HW123009   2.409   7.623   0.520 -0.7899  0.3644  1.1736
 4180SOL    HW223010   2.346   7.773   0.510 -1.4481  0.0662  0.8006
 4181SOL     OW23011   0.270   7.526   3.862  0.3905  0.1376 -0.3941
 4181SOL    HW123012   0.224   7.438   3.852  0.1970  0.2648 -0.6616
 4181SOL    HW223013   0.328   7.526   3.943  0.1933 -0.1495 -0.2562
 4182SOL     OW23014   4.408   0.255   0.752  0.5666 -0.0239 -0.2550
 4182SOL    HW123015   4.502   0.225   0.742  0.5596 -0.0166 -0.3486
 4182SOL    HW223016   4.356   0.231   0.670  0.7059  0.7854 -0.5891
 4183SOL     OW23017   8.553   9.834   0.805 -0.2648  0.4976 -0.0402
 4183SOL    HW123018   8.620   9.884   0.750 -0.3599  0.9008  0.2144
 4183SOL    HW223019   8.461   9.863   0.781 -0.5003 -1.6223 -1.9810
 4184SOL     OW23020   4.353   2.648   3.655 -0.0898 -0.5804 -0.2469
 4184SOL    HW123021   4.281   2.610   3.712  1.2567 -1.6564  0.7557
 4184SOL    HW223022   4.350   2.604   3.565 -0.1608 -1.2272  0.0659
 4185SOL     OW23023   9.500   9.883   1.782 -0.4202 -0.9234  0.1219
 4185SOL    HW123024   9.537   9.918   1.696 -0.8351  0.6143  0.5488
 4185SOL    HW223025   9.532   9.940   1.857 -0.6665 -1.8151  0.9034
 4186SOL     OW23026   2.270   8.429   2.582 -0.1758 -0.1080 -0.1934
 4186SOL    HW123027   2.192   8.402   2.639 -0.9022  2.7340  0.2572
 4186SOL    HW223028   2.355   8.411   2.631 -0.5770 -2.2076 -0.2327
 4187SOL     OW23029   2.006   0.067   2.754  0.5945  0.7423  0.0126
 4187SOL    HW123030   1.966   0.059   2.663  1.4218  0.0999 -0.3030
 4187SOL    HW223031   2.082   0.132   2.751 -0.0196  1.4952  0.4734
 4188SOL     OW23032   0.959   7.555   3.560 -0.2846 -0.4958 -0.3873
 4188SOL    HW123033   1.056   7.545   3.583 -0.6969 -1.8295  0.7736
 4188SOL    HW223034   0.945   7.529   3.464  0.0503 -3.0812  0.2341
 4189SOL     OW23035   0.408   7.434   1.526  0.2339  0.1336 -0.1541
 4189SOL    HW123036   0.504   7.451   1.548 -0.0389  1.1224  0.2972
 4189SOL    HW223037   0.399   7.420   1.427  0.7072  1.0890 -0.3434
 4190SOL     OW23038   9.977   7.605   2.991 -0.0848  0.0530 -0.4937
 4190SOL    HW123039   9.897   7.621   2.932  0.4764  1.6881 -0.8248
 4190SOL    HW223040   9.992   7.507   2.999 -1.8119 -0.2658 -0.8626
 4191SOL     OW23041   2.336   8.933   1.495 -0.0067  0.0414  0.8284
 4191SOL    HW123042   2.337   9.021   1.542  1.4147  0.5703 -0.1865
 4191SOL    HW223043   2.379   8.942   1.406 -0.3464 -1.5655  0.4916
 4192SOL     OW23044   9.284   5.105   3.596  0.7838 -0.1496  0.0273
 4192SOL    HW123045   9.295   5.059   3.508  0.6011  0.7892 -0.4941
 4192SOL    HW223046   9.367   5.156   3.618  0.7296 -0.1648  0.2774
 4193SOL     OW23047   4.579   9.184   3.189  0.3463 -0.0128 -0.4267
 4193SOL    HW123048   4.672   9.188   3.152  1.0133 -1.3707  1.0695
 4193SOL    HW223049   4.543   9.092   3.180 -0.0523  0.0007  0.8859
 4194SOL     OW23050   0.487   4.454   0.084 -0.0708  0.1325  0.5584
 4194SOL    HW123051   0.584   4.436   0.066  0.0168  0.5964  0.5735
 4194SOL    HW223052   0.476   4.545   0.122 -0.3991 -0.3759  1.6839
 4195SOL     OW23053   1.464   6.940   3.032  0.3394 -0.4250  0.0012
 4195SOL    HW123054   1.526   6.864   3.011  1.1020  0.8354 -2.5616
 4195SOL    HW223055   1.371   6.915   3.005  0.6813 -0.2809 -1.3858
 4196SOL     OW23056   7.877   2.387   0.323  0.0416 -0.1507 -0.5574
 4196SOL    HW123057   7.916   2.457   0.383 -1.1579 -1.5593  1.9154
 4196SOL    HW223058   7.792   2.420   0.283 -0.0048  0.1875 -0.1803
 4197SOL     OW23059   8.226   5.027   3.634  0.4755  0.2663 -1.0113
 4197SOL    HW123060   8.165   5.067   3.703 -0.3858 -0.6622 -1.2277
 4197SOL    HW223061   8.288   4.962   3.678  1.0001  0.8533 -0.8690
 4198SOL     OW23062   1.759   0.436   3.204  0.4418 -0.6501 -1.0061
 4198SOL    HW123063   1.768   0.337   3.215 -2.1361 -0.6246  1.8209
 4198SOL    HW223064   1.788   0.482   3.287  0.0421  0.8747 -1.6873
 4199SOL     OW23065   4.353   2.869   0.805  0.7629 -0.6224  0.2769
 4199SOL    HW123066   4.254   2.857   0.800  0.7261 -0.0038 -0.5522
 4199SOL    HW223067   4.375   2.955   0.850  0.9571 -1.5685  2.0139
 4200SOL     OW23068   1.913   0.134   3.594 -0.4249  0.5864 -0.1229
 4200SOL    HW123069   1.834   0.074   3.579 -1.4138  1.6062  0.8874
 4200SOL    HW223070   1.926   0.150   3.692  1.5063 -0.1609 -0.2352
 4201SOL     OW23071   8.908   9.503   3.301  0.1012  0.0722 -0.5314
 4201SOL    HW123072   8.895   9.405   3.311  1.8235 -0.2187 -0.9842
 4201SOL    HW223073   8.970   9.536   3.371 -0.6896  0.9040 -0.2041
 4202SOL     OW23074   0.654   8.559   1.784 -0.4048 -0.1563 -0.1038
 4202SOL    HW123075   0.620   8.487   1.724 -0.4533  0.7188 -1.1389
 4202SOL    HW223076   0.580   8.623   1.804  0.0225  0.4419 -0.4237
 4203SOL     OW23077   9.775   4.656   3.578 -0.6577 -0.0830  0.5070
 4203SOL    HW123078   9.792   4.634   3.674  0.2255 -1.5108  0.0430
 4203SOL    HW223079   9.861   4.684   3.534 -0.9835  0.1941  0.0364
 4204SOL     OW23080   8.896   0.916   2.535  0.2433  0.1123 -0.2740
 4204SOL    HW123081   8.976   0.975   2.547  0.4248 -0.0806 -0.5302
 4204SOL    HW223082   8.912   0.829   2.582 -0.5307  0.7251  1.1569
 4205SOL     OW23083   0.109   1.488   1.136 -0.2910  0.7101  0.0781
 4205SOL    HW123084   0.187   1.443   1.181  1.5638  0.8797 -2.8646
 4205SOL    HW223085   0.024   1.441   1.162  1.0296 -1.0077  1.4250
 4206SOL     OW23086   0.705   7.248   2.613  0.0179 -0.2853  0.1766
 4206SOL    HW123087   0.612   7.277   2.636  0.2331 -0.3856  1.1956
 4206SOL    HW223088   0.702   7.180   2.540 -0.7670 -0.8739  0.7544
 4207SOL     OW23089   9.891   2.717   2.734 -0.1885  0.8963  0.0596
 4207SOL    HW123090   9.873   2.812   2.758 -0.7727  0.4904  1.2406
 4207SOL    HW223091   9.853   2.657   2.803  0.2176 -0.2071 -0.6568
 4208SOL     OW23092   0.196   9.330   2.367 -0.3440  0.0094  0.3015
 4208SOL    HW123093   0.256   9.371   2.299 -1.4754 -0.5329 -1.0699
 4208SOL    HW223094   0.241   9.329   2.456  0.6247  2.0149 -0.1384
 4209SOL     OW23095   1.958   8.423   0.422 -0.0059 -0.0921 -0.5775
 4209SOL    HW123096   1.967   8.515   0.459 -2.1523  0.3159 -1.0430
 4209SOL    HW223097   1.999   8.357   0.486  1.0797  1.1238 -0.0099
 4210SOL     OW23098   6.958   0.042   2.092  0.3502  0.0894 -0.1050
 4210SOL    HW123099   6.998  -0.029   2.034 -0.7617  0.1829 -0.9960
 4210SOL    HW223100   7.026   0.072   2.159  1.2130 -0.9655 -0.4932
 4211SOL     OW23101   8.140   6.249   3.800  0.2340 -0.5428 -0.4265
 4211SOL    HW123102   8.190   6.164   3.786 -1.3758 -1.5958  0.0170
 4211SOL    HW223103   8.163   6.287   3.889 -1.1416 -2.0352  0.6066
 4212SOL     OW23104   8.121   3.347   3.568 -0.0018 -0.4057  0.1992
 4212SOL    HW123105   8.092   3.372   3.475 -0.9998 -0.4130  0.5057
 4212SOL    HW223106   8.149   3.430   3.617  2.9038 -0.6699 -0.8919
 4213SOL     OW23107   9.689   2.352   3.965  0.0442 -0.4564  0.2458
 4213SOL    HW123108   9.686   2.295   3.883  1.5088 -1.1818  0.6831
 4213SOL    HW223109   9.689   2.293   4.046 -1.8227  0.2593  0.7959
 4214SOL     OW23110   4.720   3.530   1.869  0.2522  0.1102 -0.0674
 4214SOL    HW123111   4.770   3.592   1.808  1.2178 -0.2210  0.3737
 4214SOL    HW223112   4.781   3.456   1.898 -0.0648  0.4875  1.6153
 4215SOL     OW23113   1.682   5.987   3.919 -0.0012  0.4937  0.5027
 4215SOL    HW123114   1.624   5.905   3.927  0.3579  0.2367  0.4892
 4215SOL    HW223115   1.776   5.959   3.902  0.1182  0.9154  0.4715
 4216SOL     OW23116   3.246   2.131   2.403  0.5112 -0.4442  0.5129
 4216SOL    HW123117   3.226   2.210   2.462  0.8586  1.0101 -1.2717
 4216SOL    HW223118   3.343   2.107   2.412  0.6110 -0.0940  0.3615
 4217SOL     OW23119   4.282   9.276   3.970  0.5463  0.4687  0.3456
 4217SOL    HW123120   4.191   9.289   4.008  0.5157 -0.2220  0.5098
 4217SOL    HW223121   4.320   9.189   4.002  0.3622 -0.3141 -1.5062
 4218SOL     OW23122   2.151   7.967   0.466 -0.0417 -0.7049 -0.0913
 4218SOL    HW123123   2.111   8.057   0.484  0.2782 -0.6515  0.3689
 4218SOL    HW223124   2.107   7.926   0.387 -0.2829 -0.1984 -0.2206
 4219SOL     OW23125   0.907   4.647   0.447  0.1029  0.6433  0.0920
 4219SOL    HW123126   0.885   4.744   0.448 -0.4403  0.6357 -4.0382
 4219SOL    HW223127   0.977   4.629   0.378  0.1757 -1.9374  0.7813
 4220SOL     OW23128   1.220   7.071   1.707 -0.2304 -0.5649 -0.1355
 4220SOL    HW123129   1.188   7.100   1.797  0.8967 -0.6188  0.2905
 4220SOL    HW223130   1.142   7.065   1.644 -0.8396  0.7175  0.4889
 4221SOL     OW23131   0.424   6.217   3.374  0.3097 -0.1562 -0.1371
 4221SOL    HW123132   0.521   6.200   3.357  0.6212  0.8186  0.6225
 4221SOL    HW223133   0.413   6.270   3.458 -0.9774 -1.6334  0.6528
 4222SOL     OW23134   0.532   2.341   2.522 -0.0468 -0.3320 -0.1304
 4222SOL    HW123135   0.475   2.343   2.604  1.5282  0.8815  0.9617
 4222SOL    HW223136   0.628   2.354   2.547  0.6720 -1.6919 -1.9999
 4223SOL     OW23137   8.577   4.634   2.114 -0.4362 -0.1417  0.1017
 4223SOL    HW123138   8.596   4.714   2.172  0.0122 -0.0859 -0.1219
 4223SOL    HW223139   8.490   4.593   2.142  0.3448 -0.8249  1.5929
 4224SOL     OW23140   4.114   8.569   0.793  0.9705  0.2109 -0.3672
 4224SOL    HW123141   4.105   8.473   0.767  0.9447  0.2501 -0.5013
 4224SOL    HW223142   4.023   8.609   0.806  0.9974 -0.1025  0.8652
 4225SOL     OW23143   1.157   4.585   2.145  0.0376 -0.0677  0.7690
 4225SOL    HW123144   1.095   4.542   2.080  1.0670 -0.6273  0.1462
 4225SOL    HW223145   1.108   4.654   2.198 -0.9667 -0.0949 -0.1302
 4226SOL     OW23146   9.153   4.726   2.066  0.3908 -0.6390  0.2491
 4226SOL    HW123147   9.196   4.797   2.011  0.9405 -0.5000  0.8534
 4226SOL    HW223148   9.073   4.690   2.018 -0.4329  1.0210  0.3459
 4227SOL     OW23149   8.210   8.738   0.125 -0.5037  0.1080 -0.7626
 4227SOL    HW123150   8.154   8.657   0.141 -0.3557  0.1176 -0.1791
 4227SOL    HW223151   8.209   8.761   0.028 -2.3127  0.6727 -0.6415
 4228SOL     OW23152   1.825   7.159   3.109 -0.8062 -0.4392 -0.3868
 4228SOL    HW123153   1.760   7.208   3.051  0.0298 -0.1951 -1.1233
 4228SOL    HW223154   1.775   7.109   3.179 -1.7585  0.2113 -0.5887
 4229SOL     OW23155   9.917   3.789   1.491 -0.0018 -0.3155 -0.0958
 4229SOL    HW123156  10.001   3.751   1.451 -0.5789 -1.3401 -0.3752
 4229SOL    HW223157   9.915   3.772   1.589  0.5959  0.6342  0.0860
 4230SOL     OW23158   6.975   9.302   3.608  0.3250  0.5658  0.0862
 4230SOL    HW123159   6.949   9.377   3.668 -0.8332 -0.9108  1.4821
 4230SOL    HW223160   7.040   9.242   3.655 -1.5024 -1.2601  0.3628
 4231SOL     OW23161   9.690   0.070   1.159  0.0012  0.2244  0.6170
 4231SOL    HW123162   9.655   0.158   1.128 -2.2367 -0.1412  2.0353
 4231SOL    HW223163   9.631   0.034   1.230  0.6124 -2.6900 -0.3065
 4232SOL     OW23164   5.076   0.206   3.337  0.0566  0.5116  0.1410
 4232SOL    HW123165   5.048   0.279   3.400  0.2375  0.5123  0.2202
 4232SOL    HW223166   5.043   0.118   3.372  1.1728  0.3648  0.8621
 4233SOL     OW23167   9.750   0.156   2.445 -0.3434 -0.1791 -0.3179
 4233SOL    HW123168   9.693   0.085   2.486  2.1258 -0.9823  1.8357
 4233SOL    HW223169   9.839   0.119   2.420  0.4428  1.7783 -0.5716
 4234SOL     OW23170   8.930   8.857   3.641  0.1147 -0.5827 -0.6555
 4234SOL    HW123171   8.925   8.814   3.551 -1.5679  1.6927 -1.6969
 4234SOL    HW223172   8.990   8.937   3.635 -1.8235  0.9161 -0.3500
 4235SOL     OW23173   2.668   2.230   2.237 -0.3392 -0.1207 -0.0836
 4235SOL    HW123174   2.742   2.210   2.173 -1.6007 -1.2282 -1.2317
 4235SOL    HW223175   2.705   2.247   2.328  1.3639  0.0002 -0.7928
 4236SOL     OW23176   3.834   4.384   3.722  0.5586 -0.1496  0.3759
 4236SOL    HW123177   3.852   4.448   3.647  0.3070 -0.6319 -0.0992
 4236SOL    HW223178   3.911   4.320   3.730  0.6183 -0.0539  0.5802
 4237SOL     OW23179   8.717   8.737   2.844  0.0104  0.8282 -0.1255
 4237SOL    HW123180   8.719   8.828   2.885  0.5168  1.7232 -2.0729
 4237SOL    HW223181   8.636   8.688   2.876 -0.6518  2.2301  0.3811
 4238SOL     OW23182   4.050   9.099   1.821 -0.0490  0.1389 -0.3892
 4238SOL    HW123183   4.133   9.133   1.865 -0.2117  0.0269  0.0113
 4238SOL    HW223184   3.999   9.176   1.782  1.3430 -0.0142 -2.5997
 4239SOL     OW23185   0.322   0.346   3.199  0.1939  0.4646  0.6113
 4239SOL    HW123186   0.415   0.368   3.169 -0.2120 -0.8441 -1.7613
 4239SOL    HW223187   0.258   0.367   3.125 -0.8595 -2.8539  0.4660
 4240SOL     OW23188   7.160   9.705   4.012  0.0526  0.0940 -0.0604
 4240SOL    HW123189   7.178   9.743   3.921 -0.0906  2.4883  0.8862
 4240SOL    HW223190   7.063   9.713   4.033 -0.0937 -1.4174 -0.0935
 4241SOL     OW23191   4.353   7.697   3.763  0.4044 -0.0102 -0.6919
 4241SOL    HW123192   4.357   7.786   3.718 -1.4586  1.0828  1.1797
 4241SOL    HW223193   4.428   7.689   3.828  1.9826 -0.8208 -2.5628
 4242SOL     OW23194   8.854   0.443   3.081  0.0170  0.0734 -0.1326
 4242SOL    HW123195   8.952   0.431   3.090 -0.0554 -0.4803 -0.0646
 4242SOL    HW223196   8.829   0.537   3.107  0.4904  0.1399  0.0835
 4243SOL     OW23197   4.370   9.370   3.071 -0.2361  0.8991 -0.2021
 4243SOL    HW123198   4.363   9.437   3.146 -1.4612  0.8105 -0.2199
 4243SOL    HW223199   4.459   9.324   3.075 -0.1048  1.2352  0.9152
 4244SOL     OW23200   8.911   7.599   2.646  0.1625  0.4288 -0.1388
 4244SOL    HW123201   8.911   7.539   2.566  0.4245 -0.5463  0.5765
 4244SOL    HW223202   8.826   7.652   2.649 -1.3763 -2.0139  0.7695
 4245SOL     OW23203   1.574   4.155   2.304 -0.7115 -0.0804 -0.7242
 4245SOL    HW123204   1.477   4.137   2.318 -0.5824  0.2326  0.7010
 4245SOL    HW223205   1.623   4.135   2.389  0.5450 -0.7612 -1.5972
 4246SOL     OW23206   1.633   8.116   3.722 -0.2300  0.6535 -0.3404
 4246SOL    HW123207   1.661   8.024   3.748 -2.0047 -0.0602 -0.8352
 4246SOL    HW223208   1.653   8.179   3.797  2.4949  0.1898 -0.6325
 4247SOL     OW23209   3.492   2.961   2.424  0.0350  0.3807  0.2980
 4247SOL    HW123210   3.537   2.874   2.408  0.2977  0.6953 -0.7326
 4247SOL    HW223211   3.414   2.970   2.362  0.1904  1.0041  0.1900
 4248SOL     OW23212   0.018   3.067   3.921  0.0670  0.1252  0.4767
 4248SOL    HW123213   0.041   3.039   4.015 -0.1039  1.5090  0.9395
 4248SOL    HW223214   0.056   3.001   3.857  2.1103  0.3450  1.4216
 4249SOL     OW23215   8.996   2.549   2.441  0.2814  0.1163  0.0142
 4249SOL    HW123216   9.059   2.602   2.497  1.8852  0.2719 -1.8701
 4249SOL    HW223217   8.931   2.610   2.396  0.0132  0.1538  0.4560
 4250SOL     OW23218   1.875   8.577   1.879  0.4120  0.4105  0.6072
 4250SOL    HW123219   1.968   8.566   1.846  0.3802 -2.2810  1.3006
 4250SOL    HW223220   1.835   8.487   1.899 -1.4036  1.6454  2.8400
 4251SOL     OW23221   2.793   9.119   0.227  0.3104  0.2127 -0.7176
 4251SOL    HW123222   2.836   9.031   0.246 -1.7450 -0.1013  2.8036
 4251SOL    HW223223   2.719   9.106   0.161  0.3079 -0.6076 -0.5558
 4252SOL     OW23224   0.330   0.368   2.828  0.8467  0.2151  0.2252
 4252SOL    HW123225   0.356   0.273   2.811  0.9803  0.1444  0.8119
 4252SOL    HW223226   0.342   0.421   2.744 -1.1955 -0.7145 -0.6895
 4253SOL     OW23227   0.635   6.136   2.601 -0.0404  0.1224 -0.2725
 4253SOL    HW123228   0.605   6.229   2.580 -1.4074 -0.6367 -1.8270
 4253SOL    HW223229   0.564   6.089   2.653  0.8540  0.0951  0.9355
 4254SOL     OW23230   1.099   9.427   3.204 -0.2583 -0.1145 -0.3452
 4254SOL    HW123231   1.194   9.438   3.173 -0.5228 -1.0440 -1.5200
 4254SOL    HW223232   1.057   9.517   3.212  0.7490  0.3100  0.2542
 4255SOL     OW23233   9.193   9.893   2.583 -0.9618 -0.1800 -0.5041
 4255SOL    HW123234   9.222   9.807   2.542 -1.1321 -0.7580  0.5782
 4255SOL    HW223235   9.223   9.969   2.525  0.3520 -0.8916 -0.7749
 4256SOL     OW23236   3.800   6.519   2.130 -0.3466  0.0674 -0.3825
 4256SOL    HW123237   3.722   6.483   2.182  0.0444  0.3319  0.4026
 4256SOL    HW223238   3.770   6.547   2.039 -1.5981  2.1043  0.6126
 4257SOL     OW23239   8.035   6.606   2.239 -0.0912 -0.6570  0.2899
 4257SOL    HW123240   8.006   6.579   2.147  1.8689  1.0228 -0.8777
 4257SOL    HW223241   7.999   6.698   2.259 -0.1126 -0.8235  0.9973
 4258SOL     OW23242   7.903   2.088   1.326 -0.7811 -0.1237 -0.4442
 4258SOL    HW123243   7.981   2.093   1.263 -1.2580 -0.8834 -1.1097
 4258SOL    HW223244   7.936   2.092   1.420  0.2146 -2.0630 -0.6807
 4259SOL     OW23245   1.989   4.110   2.497  0.0148 -0.3191 -0.5943
 4259SOL    HW123246   2.008   4.202   2.462 -0.9735 -0.0324 -0.3679
 4259SOL    HW223247   2.074   4.069   2.531  0.3596  0.7070 -0.2198
 4260SOL     OW23248   9.090   2.161   2.866  0.0125  0.2179 -0.0833
 4260SOL    HW123249   8.999   2.121   2.864 -0.0334  0.0077  3.5210
 4260SOL    HW223250   9.158   2.090   2.850 -0.2997 -0.3605  1.1282
 4261SOL     OW23251   3.886   2.131   2.160  0.4684  0.0489 -0.1665
 4261SOL    HW123252   3.952   2.089   2.098  2.0546  0.6758  1.0619
 4261SOL    HW223253   3.814   2.065   2.182  0.4492 -0.5144 -1.8178
 4262SOL     OW23254   1.529   9.355   2.460  0.1958  0.2175  0.1514
 4262SOL    HW123255   1.483   9.437   2.427  0.9251  0.3988 -0.4191
 4262SOL    HW223256   1.461   9.285   2.481 -0.4600  1.1310  1.1013
 4263SOL     OW23257   7.924   7.373   0.146  0.6357 -0.4318  0.1596
 4263SOL    HW123258   7.896   7.429   0.068 -0.6168 -1.3617 -0.0697
 4263SOL    HW223259   7.897   7.418   0.231 -0.7747 -0.8827 -0.0378
 4264SOL     OW23260   8.296   6.111   3.181 -0.1436 -0.1507  0.1836
 4264SOL    HW123261   8.209   6.074   3.149  1.1999 -3.3798  0.1022
 4264SOL    HW223262   8.339   6.162   3.107 -0.6042 -1.0734 -0.7446
 4265SOL     OW23263   9.273   2.316   2.082  0.0691  0.2573  0.2393
 4265SOL    HW123264   9.366   2.323   2.045  0.2101 -2.3989  0.0380
 4265SOL    HW223265   9.277   2.284   2.176 -0.7146 -1.5599 -0.3321
 4266SOL     OW23266   3.948   3.236   2.527 -0.1392  0.0064 -0.0647
 4266SOL    HW123267   3.993   3.313   2.483 -1.0939 -0.3621 -1.7487
 4266SOL    HW223268   3.871   3.268   2.582 -1.0342  0.2131 -1.4128
 4267SOL     OW23269   3.696   0.806   1.994 -0.5515  0.3861 -0.7130
 4267SOL    HW123270   3.739   0.868   2.060  0.5906  0.0945 -1.1735
 4267SOL    HW223271   3.671   0.721   2.039 -0.5775  0.5254 -0.4619
 4268SOL     OW23272   3.934   8.490   1.935 -0.3609  0.2183 -0.1995
 4268SOL    HW123273   3.979   8.497   1.846 -1.1519  2.8098 -0.4259
 4268SOL    HW223274   3.856   8.428   1.929  0.5575 -0.8796 -0.8887
 4269SOL     OW23275   9.199   5.608   1.477  0.4812 -0.0381 -0.2648
 4269SOL    HW123276   9.150   5.676   1.424 -0.9946 -0.4996  0.4811
 4269SOL    HW223277   9.209   5.524   1.422 -0.5127 -0.3069 -0.0541
 4270SOL     OW23278   5.017   7.578   3.406 -0.1677 -0.9538  0.0927
 4270SOL    HW123279   5.009   7.532   3.318 -1.9623 -0.4988 -0.0063
 4270SOL    HW223280   4.925   7.591   3.445  0.3719  1.6353  0.5727
 4271SOL     OW23281   0.753   8.834   3.304  0.6082 -0.2254 -0.5419
 4271SOL    HW123282   0.769   8.790   3.392  1.3733  1.9827  0.4656
 4271SOL    HW223283   0.655   8.837   3.286  0.3317  0.7417  1.0109
 4272SOL     OW23284   8.592   5.531   1.499 -0.4879 -0.1893 -0.5678
 4272SOL    HW123285   8.588   5.630   1.510 -0.7336 -0.4513  1.9809
 4272SOL    HW223286   8.535   5.487   1.568  0.0108 -2.1305 -1.3503
 4273SOL     OW23287   2.261   1.802   1.066  0.0281  0.1295 -0.0762
 4273SOL    HW123288   2.308   1.856   1.135 -0.1871 -0.8758  0.8862
 4273SOL    HW223289   2.323   1.783   0.990  0.2393  1.3202 -0.2067
 4274SOL     OW23290   5.549   8.315   3.257  0.4759 -0.6812  0.1468
 4274SOL    HW123291   5.571   8.244   3.324  1.6075 -0.7700 -0.3166
 4274SOL    HW223292   5.454   8.344   3.269 -0.2121 -2.7781 -0.1299
 4275SOL     OW23293   7.986   3.935   0.662  0.1389  0.2514 -0.4644
 4275SOL    HW123294   7.946   3.850   0.627  0.4780  0.3427 -1.0991
 4275SOL    HW223295   8.070   3.914   0.712 -0.5006  0.0927  0.5574
 4276SOL     OW23296   4.348   3.462   2.075 -0.0151  1.1801 -0.1018
 4276SOL    HW123297   4.416   3.521   2.119 -0.2071  0.0646  1.7279
 4276SOL    HW223298   4.257   3.487   2.107 -0.0912 -0.1536  0.7027
 4277SOL     OW23299   0.241   1.072   1.046 -0.3553  0.2379  0.4223
 4277SOL    HW123300   0.336   1.089   1.018 -0.2833  0.7826  1.0024
 4277SOL    HW223301   0.240   1.004   1.119 -0.2038  2.1828  2.2856
 4278SOL     OW23302   4.940   8.383   0.687 -0.2392 -0.1264  0.0897
 4278SOL    HW123303   4.977   8.314   0.748  0.9517 -0.2462 -0.7549
 4278SOL    HW223304   4.972   8.474   0.716 -1.2402  0.0202  0.7806
 4279SOL     OW23305   9.641   4.091   1.189  0.8449 -0.0878 -0.7072
 4279SOL    HW123306   9.667   4.094   1.093 -0.7574  1.5692 -1.1205
 4279SOL    HW223307   9.666   4.178   1.233 -2.5500  1.0225 -0.7927
 4280SOL     OW23308   1.030   2.972   1.946  0.2262  0.3242  0.5415
 4280SOL    HW123309   0.958   3.040   1.934 -1.8785 -1.5152  2.3431
 4280SOL    HW223310   1.031   2.910   1.868  0.5366  0.9671  0.0353
 4281SOL     OW23311   0.601   3.128   2.594  0.0094  0.0600 -0.1756
 4281SOL    HW123312   0.590   3.227   2.582 -1.0165 -0.1953 -1.5676
 4281SOL    HW223313   0.520   3.082   2.560  0.9518 -1.3305 -0.5786
 4282SOL     OW23314   0.431   0.780   2.651 -0.0229 -0.0590  0.2803
 4282SOL    HW123315   0.450   0.850   2.720 -0.3028  1.3913 -1.0888
 4282SOL    HW223316   0.517   0.735   2.626  0.2866  0.3809  0.5396
 4283SOL     OW23317   0.063   5.319   2.984 -0.0422  0.1704 -0.5060
 4283SOL    HW123318   0.087   5.406   2.940  0.2332  0.3151 -0.0758
 4283SOL    HW223319  -0.033   5.298   2.965 -0.5201  1.2807  0.5488
 4284SOL     OW23320   8.845   5.883   2.690  0.1704  0.5938 -0.2407
 4284SOL    HW123321   8.929   5.843   2.654 -0.3056 -0.7287  0.1014
 4284SOL    HW223322   8.780   5.899   2.616 -0.9557 -2.4750  0.0505
 4285SOL     OW23323   2.821   1.101   2.108  1.0627 -0.0502 -0.0133
 4285SOL    HW123324   2.842   1.004   2.097  0.1079 -0.4947  1.8191
 4285SOL    HW223325   2.730   1.111   2.150  1.6313  1.5952  0.8724
 4286SOL     OW23326   9.124   1.759   2.991  0.5525 -0.0346 -0.1616
 4286SOL    HW123327   9.142   1.857   3.005  0.9060 -0.1701  0.3832
 4286SOL    HW223328   9.206   1.707   3.017 -0.3080 -0.6052  1.5115
 4287SOL     OW23329   2.115   7.080   0.627 -0.6829 -0.2524  0.1373
 4287SOL    HW123330   2.074   6.989   0.630  1.0448 -1.0986 -1.2294
 4287SOL    HW223331   2.169   7.095   0.710 -1.0283 -0.4456  0.3964
 4288SOL     OW23332   3.019   9.720   0.237  0.5450 -0.4623 -0.2021
 4288SOL    HW123333   3.033   9.621   0.227  3.0551 -0.1052 -0.6034
 4288SOL    HW223334   3.099   9.760   0.282 -0.5931  1.3362  0.2321
 4289SOL     OW23335   1.609   0.529   3.473  0.8762  0.0226  0.8789
 4289SOL    HW123336   1.583   0.433   3.477 -1.2106  0.4907 -0.2487
 4289SOL    HW223337   1.544   0.583   3.526  2.3600  0.7629  1.9688
 4290SOL     OW23338   0.587   5.638   1.515  0.0669 -0.2611  0.3742
 4290SOL    HW123339   0.664   5.626   1.452 -0.4732 -0.4062 -0.2618
 4290SOL    HW223340   0.501   5.632   1.464 -0.3361  3.4642  0.4463
 4291SOL     OW23341   3.774   3.159   3.957  0.3165 -0.3006  0.2644
 4291SOL    HW123342   3.776   3.132   3.861 -0.9547 -0.4215  0.2638
 4291SOL    HW223343   3.817   3.248   3.968  2.1634 -1.1251 -0.1346
 4292SOL     OW23344   0.731   5.141   1.404 -0.1561 -0.4699  0.0471
 4292SOL    HW123345   0.799   5.137   1.477  0.1874  1.8441 -0.0957
 4292SOL    HW223346   0.657   5.204   1.431  0.1724  0.7086 -1.7244
 4293SOL     OW23347   8.204   2.824   1.622  0.4953  0.1656 -0.1581
 4293SOL    HW123348   8.303   2.822   1.637  0.2778  1.5626  1.6137
 4293SOL    HW223349   8.161   2.748   1.669  0.2948  2.0279  2.7774
 4294SOL     OW23350   7.884   1.947   0.099 -0.1587 -0.0682 -0.7724
 4294SOL    HW123351   7.849   1.877   0.037 -1.4980  0.5744 -0.7593
 4294SOL    HW223352   7.845   1.934   0.190 -0.6777  0.8867 -0.8494
 4295SOL     OW23353   3.423   3.451   1.488  0.3473  0.0417  0.8274
 4295SOL    HW123354   3.386   3.543   1.497  0.8100  0.4377 -1.1572
 4295SOL    HW223355   3.506   3.453   1.433 -1.8044 -2.0382 -2.7125
 4296SOL     OW23356   8.303   5.343   0.123  0.0861 -0.2237  0.3736
 4296SOL    HW123357   8.394   5.302   0.130 -0.7682 -1.7667  3.5138
 4296SOL    HW223358   8.237   5.283   0.168 -2.2556  1.6476 -0.4845
 4297SOL     OW23359   9.735   6.641   0.169  0.0812  0.0624 -0.6073
 4297SOL    HW123360   9.806   6.575   0.194  2.5268  2.6465 -0.3733
 4297SOL    HW223361   9.697   6.617   0.079  1.8722 -0.9138 -1.1287
 4298SOL     OW23362   1.382   5.954   0.621 -0.1650  0.2556  0.5957
 4298SOL    HW123363   1.299   5.945   0.677 -0.5536 -1.3945 -0.1911
 4298SOL    HW223364   1.414   6.048   0.624 -0.9958  0.5077  2.4334
 4299SOL     OW23365   4.068   9.182   1.418  0.3263  0.2434  0.1414
 4299SOL    HW123366   4.053   9.277   1.446  0.7130  0.3695 -0.0704
 4299SOL    HW223367   4.165   9.169   1.394  0.5738 -0.5586  1.5147
 4300SOL     OW23368   0.525   6.382   2.588  0.1682 -0.1470 -0.0067
 4300SOL    HW123369   0.482   6.426   2.510  0.6594 -0.3036 -0.3717
 4300SOL    HW223370   0.461   6.378   2.664 -0.5958 -0.7522 -0.6768
 4301SOL     OW23371   1.749   6.626   1.698 -0.0903  0.0748  0.1157
 4301SOL    HW123372   1.805   6.590   1.773  0.5332  0.2545 -0.2594
 4301SOL    HW223373   1.775   6.721   1.680 -0.0781 -0.0385 -0.4751
 4302SOL     OW23374   9.683   1.778   3.653 -0.1161 -0.1820 -0.1853
 4302SOL    HW123375   9.661   1.756   3.558  0.4322 -0.6718 -0.1997
 4302SOL    HW223376   9.606   1.826   3.695 -0.0971  0.6255 -1.0764
 4303SOL     OW23377   9.424   5.921   0.513 -0.6342  0.4242  0.4875
 4303SOL    HW123378   9.358   5.871   0.569 -0.1258  1.1375  1.7371
 4303SOL    HW223379   9.517   5.898   0.542 -0.2162 -1.8265 -2.3074
 4304SOL     OW23380   0.831   1.134   1.665  0.5015 -0.6554 -0.1280
 4304SOL    HW123381   0.738   1.102   1.644  0.3929 -0.8564  0.6689
 4304SOL    HW223382   0.895   1.094   1.600  0.0218 -0.4657 -0.7260
 4305SOL     OW23383   7.931   3.407   1.341 -0.8354  0.2633  0.4407
 4305SOL    HW123384   7.865   3.482   1.338 -1.9904 -0.7772 -0.7010
 4305SOL    HW223385   7.883   3.320   1.330  0.8346 -0.4447 -1.4121
 4306SOL     OW23386   2.520   5.386   1.251  0.3623 -0.0804  0.0110
 4306SOL    HW123387   2.566   5.456   1.196  0.3462 -0.7348 -0.8382
 4306SOL    HW223388   2.446   5.429   1.304 -1.5551  0.1052 -2.6836
 4307SOL     OW23389   1.455   7.602   2.908 -0.0501 -0.3977 -0.0228
 4307SOL    HW123390   1.435   7.696   2.937 -2.3525 -1.2496  1.3026
 4307SOL    HW223391   1.459   7.598   2.808  1.8420  1.4229 -0.0616
 4308SOL     OW23392   1.070   0.613   1.292  0.1736 -0.1022  0.1472
 4308SOL    HW123393   1.155   0.582   1.335  0.2949  0.4337  0.2998
 4308SOL    HW223394   1.085   0.626   1.194  0.1124 -0.5482  0.0748
 4309SOL     OW23395   8.388   1.103   3.728 -0.4834  0.4987  0.0742
 4309SOL    HW123396   8.474   1.056   3.749 -1.6946 -0.7605  2.4436
 4309SOL    HW223397   8.350   1.067   3.643  0.1826 -0.5536  0.2141
 4310SOL     OW23398   3.115   1.818   2.908 -0.4151 -0.3930 -0.1805
 4310SOL    HW123399   3.053   1.744   2.884 -0.5993 -0.0013 -0.9453
 4310SOL    HW223400   3.153   1.859   2.825  0.8611 -0.6155  0.2779
 4311SOL     OW23401   0.212   9.148   3.934  0.2989  0.2908 -0.2655
 4311SOL    HW123402   0.144   9.182   3.870 -0.1706 -2.3927 -1.2458
 4311SOL    HW223403   0.249   9.224   3.987 -1.2401  2.1782 -1.8470
 4312SOL     OW23404   8.101   3.286   1.817 -0.1340  0.4197 -0.7355
 4312SOL    HW123405   8.097   3.203   1.761 -0.1494  1.2451 -1.9815
 4312SOL    HW223406   8.180   3.340   1.790  1.0123 -0.1230  1.4276
 4313SOL     OW23407   4.360   7.935   0.423 -0.3158  0.0345 -0.3599
 4313SOL    HW123408   4.302   7.986   0.360 -0.3258  0.1739 -0.2386
 4313SOL    HW223409   4.426   7.881   0.371 -2.3774 -2.3358 -0.5973
 4314SOL     OW23410   1.717   0.177   3.216 -0.0302 -0.0887 -0.2801
 4314SOL    HW123411   1.788   0.132   3.161 -1.0523 -2.0380 -0.0632
 4314SOL    HW223412   1.627   0.159   3.175 -0.5296  1.1500  0.2432
 4315SOL     OW23413   4.268   1.984   1.615  0.0183  0.6379 -0.8345
 4315SOL    HW123414   4.247   1.889   1.641 -0.4643  0.8610 -0.3946
 4315SOL    HW223415   4.198   2.018   1.552  1.9323 -0.3721 -3.6466
 4316SOL     OW23416   3.746   8.780   2.538 -0.2898  0.0415 -0.1713
 4316SOL    HW123417   3.703   8.695   2.568  0.0708 -0.0343  0.1344
 4316SOL    HW223418   3.776   8.832   2.618 -1.9949  1.2397 -0.2826
 4317SOL     OW23419   8.157   6.320   2.680  0.3020 -0.1324  0.0132
 4317SOL    HW123420   8.094   6.348   2.608 -0.2485  0.5726  0.7619
 4317SOL    HW223421   8.222   6.253   2.643  0.1163  0.3210 -1.1641
 4318SOL     OW23422   1.727   5.564   2.032 -0.2798  0.4584 -0.4015
 4318SOL    HW123423   1.689   5.489   1.977  1.2492 -0.1864 -0.5939
 4318SOL    HW223424   1.667   5.644   2.025 -1.7798 -0.6420 -0.4256
 4319SOL     OW23425   0.393   2.657   2.833 -0.0242 -0.7248 -0.0479
 4319SOL    HW123426   0.321   2.687   2.771 -0.0131 -1.0769 -0.2306
 4319SOL    HW223427   0.413   2.560   2.818 -0.1708 -0.8649  0.6500
 4320SOL     OW23428   0.761   6.695   2.923  0.4301 -0.3045  0.4997
 4320SOL    HW123429   0.750   6.701   3.022 -0.6668 -1.5428  0.4589
 4320SOL    HW223430   0.693   6.633   2.885  0.3298  0.7539 -1.1312
 4321SOL     OW23431   2.158   7.916   1.291 -0.3452  0.0175  0.0183
 4321SOL    HW123432   2.174   7.818   1.280 -0.0351  0.1867 -1.1016
 4321SOL    HW223433   2.062   7.931   1.316  0.2246 -0.7368  2.8930
 4322SOL     OW23434   2.407   2.132   2.270 -0.5404  0.3440  1.0219
 4322SOL    HW123435   2.500   2.168   2.269 -1.1262  1.8704  0.8052
 4322SOL    HW223436   2.409   2.033   2.254  0.8770  0.7090 -1.1446
 4323SOL     OW23437   0.279   0.118   2.489 -0.1934  0.5358 -0.1029
 4323SOL    HW123438   0.359   0.073   2.450 -0.4309 -0.6891  0.8040
 4323SOL    HW223439   0.203   0.114   2.424  0.4977  1.7774 -0.9993
 4324SOL     OW23440   1.856   3.016   2.293 -0.1517 -0.2747  0.5314
 4324SOL    HW123441   1.770   3.019   2.345 -0.7112 -1.7870 -0.2948
 4324SOL    HW223442   1.844   3.066   2.207 -0.4638 -1.2001  0.0363
 4325SOL     OW23443   7.184   8.517   3.259 -0.2326 -0.3142  0.0388
 4325SOL    HW123444   7.273   8.562   3.266  0.0092 -0.6132 -1.1680
 4325SOL    HW223445   7.174   8.475   3.169 -1.8348  0.2355 -0.0567
 4326SOL     OW23446   0.757   7.073   0.631 -0.0889 -0.3309 -0.9002
 4326SOL    HW123447   0.790   7.142   0.566  0.4567 -1.7957 -2.1982
 4326SOL    HW223448   0.658   7.084   0.643 -0.0702  0.4353 -1.3788
 4327SOL     OW23449   9.841   1.957   3.029  0.1913  0.8480  0.2922
 4327SOL    HW123450   9.917   2.001   2.981  1.0720 -1.4834 -0.5723
 4327SOL    HW223451   9.758   1.965   2.976  0.6856  0.1890 -0.6053
 4328SOL     OW23452   9.897   1.809   0.158 -0.2340  0.4515  0.3367
 4328SOL    HW123453   9.997   1.809   0.153 -0.0784 -1.5237  2.7434
 4328SOL    HW223454   9.862   1.887   0.106  2.6066  2.1037  0.7501
 4329SOL     OW23455   4.783   1.064   3.399 -0.3833  0.1254 -0.3840
 4329SOL    HW123456   4.823   1.081   3.308  0.2270  2.1326  0.2296
 4329SOL    HW223457   4.693   1.107   3.403  0.8272  2.6288  0.9194
 4330SOL     OW23458   8.957   0.662   0.638 -0.0563 -0.6755 -0.4388
 4330SOL    HW123459   8.922   0.625   0.552 -1.3752  1.6950 -0.9611
 4330SOL    HW223460   8.882   0.673   0.703 -0.0557  2.7409 -0.9302
 4331SOL     OW23461   2.030   2.105   0.862  0.4869  0.2476 -0.0906
 4331SOL    HW123462   2.084   2.151   0.933  1.3156  0.7772 -1.0450
 4331SOL    HW223463   2.091   2.067   0.793 -0.3985  1.9389 -1.8423
 4332SOL     OW23464   0.965   4.039   1.819 -1.0390  0.1407  0.5130
 4332SOL    HW123465   0.999   3.971   1.754 -0.8613  1.1236 -0.4286
 4332SOL    HW223466   1.038   4.063   1.883 -0.8420  0.0813  0.3129
 4333SOL     OW23467   0.268   3.698   3.214 -0.3795 -0.3943 -0.0976
 4333SOL    HW123468   0.368   3.699   3.207 -0.4607  0.3712 -1.2650
 4333SOL    HW223469   0.233   3.616   3.169 -0.3019 -0.5080  0.0463
 4334SOL     OW23470   9.846   5.968   0.171  0.6240  0.0322 -0.3089
 4334SOL    HW123471   9.846   5.870   0.150  0.3062  0.0846 -0.5557
 4334SOL    HW223472   9.845   6.020   0.085  3.3338  0.2560 -0.2514
 4335SOL     OW23473   3.073   5.100   1.476 -0.5592  0.5045 -0.2851
 4335SOL    HW123474   3.166   5.134   1.462 -0.2254 -0.4341 -0.3955
 4335SOL    HW223475   3.060   5.075   1.571 -0.1768 -0.8750 -0.5860
 4336SOL     OW23476   8.157   8.001   1.399  0.2864  0.1489  0.0642
 4336SOL    HW123477   8.139   8.100   1.403  1.8400  0.3882  1.6350
 4336SOL    HW223478   8.111   7.956   1.475  0.2399 -0.2405 -0.1967
 4337SOL     OW23479   8.373   1.254   3.126 -0.1415  0.0480  0.5419
 4337SOL    HW123480   8.275   1.277   3.118  0.1863  1.8811  1.3394
 4337SOL    HW223481   8.419   1.326   3.178  2.0992  0.4093 -1.8608
 4338SOL     OW23482   3.456   0.610   0.800 -0.1657  0.0311  0.2347
 4338SOL    HW123483   3.429   0.624   0.705  1.8250  0.6751 -0.2794
 4338SOL    HW223484   3.552   0.636   0.810  0.2537 -2.1079  1.9429
 4339SOL     OW23485   1.228   8.577   0.118  0.8478 -0.0525  0.0915
 4339SOL    HW123486   1.283   8.578   0.202 -1.5845 -1.8829  1.7935
 4339SOL    HW223487   1.135   8.610   0.139 -0.2504 -2.0062 -1.4908
 4340SOL     OW23488   1.506   0.331   1.573 -0.2837 -0.4612  0.1818
 4340SOL    HW123489   1.578   0.329   1.643 -0.4893 -0.4415  0.3951
 4340SOL    HW223490   1.548   0.343   1.483 -0.2833  3.8709  0.6865
 4341SOL     OW23491   8.742   2.463   3.651 -0.9881  0.3855  0.3731
 4341SOL    HW123492   8.703   2.538   3.597 -0.1962  1.4052  1.1944
 4341SOL    HW223493   8.785   2.500   3.733  0.7036 -0.8228  0.0572
 4342SOL     OW23494   4.988   9.555   2.191 -0.0438  0.1207  0.3547
 4342SOL    HW123495   4.907   9.530   2.138  1.1167 -2.0297 -0.4701
 4342SOL    HW223496   4.985   9.510   2.280  0.7071 -0.7742 -0.0631
 4343SOL     OW23497   2.485   8.133   2.354 -0.1251 -0.2532 -0.0959
 4343SOL    HW123498   2.416   8.110   2.423 -0.9331  1.2360 -0.3838
 4343SOL    HW223499   2.569   8.164   2.400 -0.7904  1.0990  0.2337
 4344SOL     OW23500   0.295   4.937   2.505  0.6609 -0.0459  0.4319
 4344SOL    HW123501   0.215   4.898   2.550  0.0205 -0.3080 -0.8996
 4344SOL    HW223502   0.338   5.005   2.565 -1.4653  1.2401  0.5583
 4345SOL     OW23503   3.135   6.502   0.236  0.0220 -0.7412  0.5800
 4345SOL    HW123504   3.171   6.595   0.228 -0.0005 -0.7556  0.3092
 4345SOL    HW223505   3.158   6.450   0.154 -3.6747  0.2815 -1.2085
 4346SOL     OW23506   2.631   4.711   2.536  0.4228 -0.2907 -0.0902
 4346SOL    HW123507   2.678   4.627   2.562  0.5714 -0.7448 -1.7480
 4346SOL    HW223508   2.639   4.724   2.437  0.4768  1.7252  0.1613
 4347SOL     OW23509   0.060   9.111   0.427 -0.5453  0.1529 -0.4014
 4347SOL    HW123510   0.128   9.061   0.481  0.2979  1.4389 -0.2258
 4347SOL    HW223511   0.107   9.173   0.365 -1.5620  0.8694 -0.4664
 4348SOL     OW23512   8.674   4.508   1.382  0.6807  0.1527 -0.1016
 4348SOL    HW123513   8.608   4.486   1.454  1.9850  0.3759  1.1950
 4348SOL    HW223514   8.719   4.594   1.403  0.7803  0.4366 -1.4247
 4349SOL     OW23515   5.920   8.591   2.747  0.1610 -0.2439 -0.8539
 4349SOL    HW123516   5.913   8.512   2.687  1.2907 -0.4664 -0.6980
 4349SOL    HW223517   5.908   8.561   2.842  0.9652 -0.2853 -0.7654
 4350SOL     OW23518   1.355   4.140   3.875  0.0548  0.3567 -0.1498
 4350SOL    HW123519   1.423   4.162   3.805  0.4585 -0.1645  0.0665
 4350SOL    HW223520   1.387   4.061   3.928 -0.9057 -0.1555 -0.3066
 4351SOL     OW23521   1.927   0.545   2.476 -0.4794 -0.2903  0.1909
 4351SOL    HW123522   1.962   0.484   2.547  2.4568  0.0074 -0.9435
 4351SOL    HW223523   1.956   0.512   2.387 -0.4824  1.7267 -0.5713
 4352SOL     OW23524   8.880   7.628   3.248  0.1448 -0.1928 -0.4760
 4352SOL    HW123525   8.848   7.586   3.333 -2.6129  1.3465 -0.6950
 4352SOL    HW223526   8.933   7.561   3.196 -0.6478 -2.0774  1.0743
 4353SOL     OW23527   2.124   8.481   1.777 -0.6186 -0.1250  0.4145
 4353SOL    HW123528   2.165   8.487   1.686 -0.1354 -0.9469  0.5672
 4353SOL    HW223529   2.184   8.527   1.843 -0.2042 -0.8307  0.5453
 4354SOL     OW23530   3.825   2.574   2.459  0.9059  0.0093 -0.0620
 4354SOL    HW123531   3.899   2.641   2.452  0.9760 -0.2859 -2.3580
 4354SOL    HW223532   3.755   2.594   2.391  1.1937 -2.5695 -1.1630
 4355SOL     OW23533   6.564   9.170   3.469  0.7360  0.4252  0.4283
 4355SOL    HW123534   6.572   9.245   3.536 -0.0629  2.0435 -1.2397
 4355SOL    HW223535   6.468   9.148   3.455  0.9660 -0.8504  0.8117
 4356SOL     OW23536   1.961   5.774   2.464 -0.0593 -0.5558 -0.4613
 4356SOL    HW123537   1.966   5.674   2.455  0.2335 -0.5065 -0.8820
 4356SOL    HW223538   2.046   5.814   2.430  0.5204 -0.2593  1.2969
 4357SOL     OW23539   1.067   7.545   0.328  0.0093 -0.0319 -0.5807
 4357SOL    HW123540   0.993   7.521   0.391 -0.1347  0.3698 -0.5973
 4357SOL    HW223541   1.047   7.505   0.238 -0.2720  0.2212 -0.6301
 4358SOL     OW23542   1.761   3.932   1.669  0.6085 -0.6304 -0.0212
 4358SOL    HW123543   1.663   3.944   1.653  0.8562 -1.6522 -2.4067
 4358SOL    HW223544   1.774   3.871   1.748 -0.7059 -2.0083 -0.8304
 4359SOL     OW23545   9.692   2.453   0.728  0.0005 -0.1061  0.4099
 4359SOL    HW123546   9.677   2.449   0.827  0.6146  0.2714  0.5231
 4359SOL    HW223547   9.730   2.367   0.696 -0.9272 -0.5062  0.3752
 4360SOL     OW23548   3.358   6.107   2.517  0.1613 -0.5125 -0.2060
 4360SOL    HW123549   3.350   6.140   2.423 -0.3305 -0.3655 -0.1130
 4360SOL    HW223550   3.455   6.096   2.540  0.3454  0.9490 -0.2118
 4361SOL     OW23551   9.004   2.828   3.234  1.4825 -0.1977  0.0835
 4361SOL    HW123552   8.976   2.762   3.164  0.2594 -0.5705  0.8992
 4361SOL    HW223553   9.006   2.920   3.194  0.1214 -0.3103 -0.2790
 4362SOL     OW23554   0.799   2.707   3.348  0.1533 -0.4416 -0.3470
 4362SOL    HW123555   0.782   2.613   3.379  1.1684 -0.7424 -0.6766
 4362SOL    HW223556   0.879   2.743   3.394  0.6063 -0.2448 -1.2840
 4363SOL     OW23557   0.426   1.199   0.026 -0.1587 -1.1132 -0.0756
 4363SOL    HW123558   0.359   1.143   0.073 -0.0900 -0.6924  0.5252
 4363SOL    HW223559   0.464   1.267   0.089 -0.5159 -0.1371 -0.8956
 4364SOL     OW23560   1.875   4.858   1.882  0.3697 -0.0918 -0.6017
 4364SOL    HW123561   1.937   4.936   1.891 -0.1235  0.4398 -1.7379
 4364SOL    HW223562   1.781   4.887   1.901  0.4291 -0.8536  0.9311
 4365SOL     OW23563   4.041   2.816   1.119  0.2487  0.3683 -0.0327
 4365SOL    HW123564   4.105   2.834   1.194  0.8001  1.4238 -0.7470
 4365SOL    HW223565   3.954   2.861   1.138 -0.2753 -0.9853  0.8922
 4366SOL     OW23566   0.781   6.262   3.960  0.4021 -0.3019  0.3893
 4366SOL    HW123567   0.836   6.306   4.031 -1.2636  0.0571  1.5000
 4366SOL    HW223568   0.815   6.169   3.944  1.3985 -0.0423  0.9607
 4367SOL     OW23569   4.953   7.862   0.705 -0.3701  0.1311  0.6260
 4367SOL    HW123570   4.938   7.943   0.648 -2.2520 -1.1839 -0.8164
 4367SOL    HW223571   4.946   7.780   0.648 -0.7155 -1.1359  2.4740
 4368SOL     OW23572   0.301   9.778   3.265 -0.8437  0.2573  0.2934
 4368SOL    HW123573   0.242   9.711   3.221 -1.7858  0.1867  1.6410
 4368SOL    HW223574   0.331   9.743   3.354 -0.3038  1.0770  0.4435
 4369SOL     OW23575   9.179   0.845   2.431  0.3841  0.1354 -0.0605
 4369SOL    HW123576   9.185   0.897   2.516  1.4155  1.1873 -0.7612
 4369SOL    HW223577   9.271   0.832   2.394  0.0623 -1.4848 -0.3290
 4370SOL     OW23578   4.669   9.931   2.642  0.3652  0.0990 -0.2584
 4370SOL    HW123579   4.655  10.028   2.662  1.2918 -0.3559  2.9214
 4370SOL    HW223580   4.761   9.917   2.607  0.5866  0.2625  0.2456
 4371SOL     OW23581   1.551   1.572   4.027  0.0001 -0.2813 -0.3176
 4371SOL    HW123582   1.472   1.546   3.970 -0.6392  0.8314  0.0472
 4371SOL    HW223583   1.523   1.577   4.123 -0.1430  2.5283 -0.4484
 4372SOL     OW23584   2.149   7.220   2.058  0.2307  0.8012 -0.0695
 4372SOL    HW123585   2.204   7.293   2.100  1.3246  0.1677 -0.3817
 4372SOL    HW223586   2.167   7.218   1.960  3.2656 -2.4263  0.4544
 4373SOL     OW23587   1.810   4.288   0.385 -0.8153 -0.6081  0.3528
 4373SOL    HW123588   1.858   4.217   0.435 -1.3059 -0.3030  1.2709
 4373SOL    HW223589   1.753   4.341   0.448  0.1065  1.0616 -0.1844
 4374SOL     OW23590   4.786   3.085   4.040 -0.3926  0.5771 -0.1679
 4374SOL    HW123591   4.771   3.174   3.997  2.0772  0.4850 -1.3401
 4374SOL    HW223592   4.699   3.045   4.067 -1.6125  2.8303 -0.6918
 4375SOL     OW23593   0.430   8.551   4.015 -0.0900 -0.0624 -0.4186
 4375SOL    HW123594   0.440   8.648   3.990  0.9008 -0.3032 -0.9936
 4375SOL    HW223595   0.336   8.535   4.047  0.5962  1.7631  2.7716
 4376SOL     OW23596   0.599   2.418   1.018 -0.2033 -0.1063  0.3527
 4376SOL    HW123597   0.559   2.416   1.110 -1.3721 -0.1027 -0.1486
 4376SOL    HW223598   0.528   2.442   0.952  0.1714 -2.1481 -0.8031
 4377SOL     OW23599   0.587   5.959   3.157 -0.4000  0.2494 -0.2038
 4377SOL    HW123600   0.490   5.933   3.160 -0.9318  2.0770 -1.0416
 4377SOL    HW223601   0.633   5.905   3.086 -0.9851 -0.0156 -0.3924
 4378SOL     OW23602   2.330   8.366   2.230  0.8003  0.2180  0.1177
 4378SOL    HW123603   2.400   8.409   2.287  0.2924  0.5058  0.5309
 4378SOL    HW223604   2.338   8.266   2.236  0.8901  0.2486  0.5220
 4379SOL     OW23605   0.060   4.264   1.561 -0.3503 -0.4371  0.2102
 4379SOL    HW123606   0.060   4.364   1.568  0.0961 -0.3370 -1.0662
 4379SOL    HW223607   0.153   4.232   1.541 -0.4193 -1.1458  0.9949
 4380SOL     OW23608   3.446   5.242   3.057  0.2346 -0.1130  0.1020
 4380SOL    HW123609   3.386   5.258   3.136  3.1735 -0.4425  2.4894
 4380SOL    HW223610   3.419   5.157   3.011 -0.4182 -0.8571  1.8274
 4381SOL     OW23611   3.901   8.600   2.748 -0.4947 -0.0500  0.2545
 4381SOL    HW123612   3.844   8.563   2.676  0.5106 -1.1159 -0.0035
 4381SOL    HW223613   3.924   8.695   2.727 -0.7320 -0.1565 -0.5046
 4382SOL     OW23614   3.011   8.672   1.077 -0.8698  0.1864  0.1009
 4382SOL    HW123615   3.088   8.720   1.035 -0.0680 -1.2854 -0.1821
 4382SOL    HW223616   3.045   8.615   1.152 -2.0046  1.2171  1.4132
 4383SOL     OW23617   2.404   9.239   1.097 -0.2704  0.0469 -0.0320
 4383SOL    HW123618   2.335   9.255   1.168  0.0026  1.1275 -0.0098
 4383SOL    HW223619   2.459   9.321   1.085  0.8504 -0.7283 -0.2409
 4384SOL     OW23620   0.280   5.463   0.205 -0.2076  0.1951  0.9661
 4384SOL    HW123621   0.371   5.423   0.210 -0.9466 -1.3566  2.2975
 4384SOL    HW223622   0.213   5.392   0.182 -0.9603  1.5220 -1.1393
 4385SOL     OW23623   2.894   1.236   3.751 -0.0795 -0.2207  0.8187
 4385SOL    HW123624   2.968   1.207   3.812 -0.3890  1.8489  2.2202
 4385SOL    HW223625   2.931   1.250   3.659  0.5236 -2.7397  0.6418
 4386SOL     OW23626   1.062   1.131   0.985  0.0324  0.5113 -0.1430
 4386SOL    HW123627   0.976   1.151   1.032 -0.1088  0.5159 -0.4050
 4386SOL    HW223628   1.133   1.193   1.018  0.0361  0.2439  0.3695
 4387SOL     OW23629   2.408   3.216   3.703 -0.4576 -0.1368  0.0347
 4387SOL    HW123630   2.416   3.171   3.614 -1.8050  0.2899 -0.3131
 4387SOL    HW223631   2.313   3.212   3.734 -0.1501  0.4385  1.0710
 4388SOL     OW23632   2.975   6.106   0.191  0.3787 -0.1954  0.2239
 4388SOL    HW123633   2.882   6.075   0.169  0.5962  0.2570 -1.3861
 4388SOL    HW223634   3.037   6.028   0.190  0.4155 -0.1537 -0.9601
 4389SOL     OW23635   3.117   5.009   3.199  0.2309 -0.5042 -0.9413
 4389SOL    HW123636   3.198   4.990   3.254 -0.3699  0.3963  0.2760
 4389SOL    HW223637   3.042   4.949   3.228 -0.6076  1.1899  0.4441
 4390SOL     OW23638   9.069   5.044   0.181 -0.3138  0.1626 -0.4247
 4390SOL    HW123639   9.026   5.134   0.167  0.2913  0.1211 -2.7975
 4390SOL    HW223640   9.168   5.054   0.179 -0.2302 -0.3387  0.9255
 4391SOL     OW23641   1.998   2.354   2.739  0.4302  0.4926  0.3208
 4391SOL    HW123642   2.096   2.334   2.737  0.6512  1.5256  0.7551
 4391SOL    HW223643   1.964   2.342   2.832 -0.4187 -2.4650 -0.3136
 4392SOL     OW23644   3.396   7.741   1.144 -0.0727  0.1075 -0.0705
 4392SOL    HW123645   3.464   7.751   1.070 -2.2200 -0.8820 -2.2290
 4392SOL    HW223646   3.365   7.832   1.172  0.6261  0.4982 -0.5297
 4393SOL     OW23647   3.754   4.995   3.310  0.5198  0.1809  0.0363
 4393SOL    HW123648   3.838   5.042   3.336  1.0485 -0.6637 -0.1066
 4393SOL    HW223649   3.777   4.910   3.262 -0.4196  0.2371 -0.5277
 4394SOL     OW23650   2.911   5.263   3.053 -0.3496 -0.8090  0.4793
 4394SOL    HW123651   2.894   5.235   3.147 -1.3570 -0.8137  0.3070
 4394SOL    HW223652   2.872   5.195   2.990  1.4913 -1.4874  0.0521
 4395SOL     OW23653   0.087   1.288   0.786 -0.3400  0.6531  0.1142
 4395SOL    HW123654   0.041   1.321   0.869  1.0459 -0.3807  1.3259
 4395SOL    HW223655   0.102   1.364   0.723 -1.6434  1.4052  0.6887
 4396SOL     OW23656   3.214   2.381   0.164  0.0237  0.6370  0.1169
 4396SOL    HW123657   3.134   2.335   0.125  2.0835 -2.7609 -0.3244
 4396SOL    HW223658   3.227   2.351   0.258 -0.2595  2.5999  0.7911
 4397SOL     OW23659   2.022   2.794   3.749  0.4631  0.2851  0.3234
 4397SOL    HW123660   2.108   2.753   3.720 -0.6710 -0.0233 -2.8205
 4397SOL    HW223661   1.997   2.868   3.687 -1.3300  0.6687  1.4415
 4398SOL     OW23662   2.443   9.633   0.856  0.2796 -0.0491 -0.0952
 4398SOL    HW123663   2.421   9.720   0.812  0.0334 -0.4808 -0.8429
 4398SOL    HW223664   2.537   9.635   0.889  0.3413  0.4271 -0.2928
 4399SOL     OW23665   0.028   5.260   3.380 -0.7044 -0.6715  0.3059
 4399SOL    HW123666  -0.004   5.166   3.369 -0.0802 -0.9526  0.8698
 4399SOL    HW223667  -0.009   5.299   3.464  1.8026 -1.5975  1.9013
 4400SOL     OW23668   1.012   8.137   1.519  0.4755 -0.4709 -0.0667
 4400SOL    HW123669   0.950   8.090   1.582 -2.7115 -0.2107 -2.8572
 4400SOL    HW223670   0.966   8.217   1.481  3.1542  0.6752 -1.0213
 4401SOL     OW23671   2.381   0.034   1.951  0.4396  0.1909  0.2259
 4401SOL    HW123672   2.394   0.005   2.045  2.9318 -1.1568 -0.4895
 4401SOL    HW223673   2.425   0.123   1.937 -2.3459  1.7552  0.9899
 4402SOL     OW23674   3.406   0.866   3.758  0.4435 -0.0276  0.6039
 4402SOL    HW123675   3.392   0.833   3.665  1.8594 -0.9052  0.6722
 4402SOL    HW223676   3.411   0.788   3.821  0.5378  0.4967  1.2614
 4403SOL     OW23677   8.080   5.235   0.815 -0.6605  0.0642 -0.1495
 4403SOL    HW123678   8.107   5.159   0.756 -0.7330  0.8858 -1.2564
 4403SOL    HW223679   8.009   5.289   0.770 -2.0404 -0.3406  1.4642
 4404SOL     OW23680   3.862   4.329   1.482  0.2702  0.2955  0.0437
 4404SOL    HW123681   3.877   4.231   1.470  2.1677  0.4035  1.4131
 4404SOL    HW223682   3.936   4.380   1.439 -0.6161  1.1340 -0.5093
 4405SOL     OW23683   4.022   9.929   3.696 -0.2904 -0.5363 -0.4064
 4405SOL    HW123684   3.959   9.900   3.768 -0.9333  1.5890 -0.0763
 4405SOL    HW223685   4.111   9.885   3.710 -0.6735 -0.8381  1.1895
 4406SOL     OW23686   2.600   9.628   2.885  0.3698  0.1746  0.1441
 4406SOL    HW123687   2.527   9.688   2.851 -0.5728 -0.8369  0.3580
 4406SOL    HW223688   2.618   9.650   2.981  0.9333  0.9882 -0.1407
 4407SOL     OW23689   8.460   5.907   0.673 -0.0314 -0.3258  0.2603
 4407SOL    HW123690   8.419   5.868   0.590 -0.2652  0.3567  0.0519
 4407SOL    HW223691   8.549   5.946   0.651 -0.3772  0.4425  0.1816
 4408SOL     OW23692   8.030   6.022   3.127 -0.6870  0.2453  0.2217
 4408SOL    HW123693   8.023   6.008   3.028  0.0978  0.5111  0.1283
 4408SOL    HW223694   7.960   5.967   3.173 -0.3400 -0.7331 -0.4121
 4409SOL     OW23695   8.138   2.077   1.164  0.0427  0.3653 -0.2911
 4409SOL    HW123696   8.203   2.062   1.089 -0.0796 -2.0600  0.0371
 4409SOL    HW223697   8.188   2.076   1.251  0.0654  2.3168 -0.2601
 4410SOL     OW23698   1.679   2.152   2.798  0.2814 -0.0493 -0.0877
 4410SOL    HW123699   1.739   2.224   2.834  0.8569 -0.5105 -0.1065
 4410SOL    HW223700   1.666   2.165   2.700  0.9762 -0.3783 -0.2283
 4411SOL     OW23701   0.173   6.334   0.363 -0.2813 -0.2742  0.0875
 4411SOL    HW123702   0.211   6.351   0.272  0.3047 -0.2272  0.3354
 4411SOL    HW223703   0.216   6.395   0.429 -0.2160 -0.7653  0.5080
 4412SOL     OW23704   2.081   4.805   3.027  0.0578 -0.1726 -0.2963
 4412SOL    HW123705   2.168   4.817   3.075 -0.3160 -0.8289  0.5498
 4412SOL    HW223706   2.014   4.870   3.062  0.3366  0.6382 -1.2628
 4413SOL     OW23707   9.220   9.449   3.996 -0.5107 -0.1064 -0.2666
 4413SOL    HW123708   9.178   9.467   4.085  0.5146  0.1479  0.1819
 4413SOL    HW223709   9.308   9.404   4.010 -0.8930 -1.1565 -1.2039
 4414SOL     OW23710   0.583   4.353   2.071 -0.4052 -0.3348  0.1345
 4414SOL    HW123711   0.664   4.339   2.013 -0.8928  0.1888 -0.6772
 4414SOL    HW223712   0.599   4.431   2.131 -0.4143 -0.0710 -0.2076
 4415SOL     OW23713   2.354   1.710   0.415 -0.7865 -0.4703  0.2695
 4415SOL    HW123714   2.451   1.723   0.432 -0.7796  0.7823 -0.6836
 4415SOL    HW223715   2.339   1.619   0.375  0.4520  0.6925 -3.0506
 4416SOL     OW23716   1.819   5.702   0.314 -0.0119 -0.5190 -0.3650
 4416SOL    HW123717   1.864   5.648   0.386 -1.0638  1.4206  1.8075
 4416SOL    HW223718   1.887   5.730   0.246  1.4514 -0.5484  1.0520
 4417SOL     OW23719   2.356   6.197   1.900  0.0283 -0.3133 -0.0853
 4417SOL    HW123720   2.271   6.168   1.856  0.4367 -0.3396 -0.8534
 4417SOL    HW223721   2.362   6.156   1.991  0.0262 -1.6604 -0.6822
 4418SOL     OW23722   1.334   5.549   3.385 -0.6029  0.0804 -0.1641
 4418SOL    HW123723   1.341   5.463   3.335 -1.7331 -0.3324  0.3649
 4418SOL    HW223724   1.422   5.597   3.383 -0.2900 -0.5423 -1.4364
 4419SOL     OW23725   1.921   5.519   1.581 -0.1648 -0.3513  0.6592
 4419SOL    HW123726   1.980   5.510   1.661 -0.0617 -0.9861  0.5136
 4419SOL    HW223727   1.899   5.616   1.567  1.1521 -0.0568  0.4915
 4420SOL     OW23728   3.959   4.426   2.782 -0.5611 -0.1674  0.1991
 4420SOL    HW123729   3.906   4.509   2.766  0.0870  0.5632  1.6905
 4420SOL    HW223730   3.988   4.423   2.878  2.3429 -0.3701 -0.6370
 4421SOL     OW23731   1.061   8.184   2.718  0.1750 -0.0828 -0.2658
 4421SOL    HW123732   1.029   8.147   2.631  0.3358 -0.8397  0.0008
 4421SOL    HW223733   1.155   8.153   2.735 -0.6336 -1.7488  1.2466
 4422SOL     OW23734   1.851   6.460   0.162  0.1370 -0.3289 -0.2178
 4422SOL    HW123735   1.808   6.380   0.121  0.8538 -0.6052 -0.4370
 4422SOL    HW223736   1.918   6.499   0.099  2.0143 -1.3903  1.0671
 4423SOL     OW23737   7.613   2.911   3.848  0.5883 -0.0590 -0.1860
 4423SOL    HW123738   7.529   2.859   3.834  0.3419  0.0390  0.8296
 4423SOL    HW223739   7.677   2.856   3.902  0.5455  0.4727  0.4110
 4424SOL     OW23740   2.263   0.353   2.472 -0.7160  0.5039  0.0799
 4424SOL    HW123741   2.272   0.260   2.438  0.8447  0.6463  0.0954
 4424SOL    HW223742   2.205   0.352   2.554  0.8965 -0.7380  1.2356
 4425SOL     OW23743   7.812   9.761   3.396 -0.6620  0.3328 -0.8396
 4425SOL    HW123744   7.839   9.820   3.320 -2.3524  0.5905 -1.2606
 4425SOL    HW223745   7.801   9.816   3.479  0.5856  0.1468 -0.5460
 4426SOL     OW23746   4.216   4.142   0.713 -0.2502 -0.1039 -0.8062
 4426SOL    HW123747   4.141   4.208   0.712 -0.4073 -0.2484  0.2981
 4426SOL    HW223748   4.268   4.148   0.628 -1.2380  0.3174 -1.3810
 4427SOL     OW23749   3.258   3.497   3.895  0.2103 -0.0258  0.4566
 4427SOL    HW123750   3.210   3.483   3.809 -0.6872  0.7628  0.8264
 4427SOL    HW223751   3.244   3.590   3.927  1.2368 -0.0581  1.0362
 4428SOL     OW23752   3.853   7.490   0.171 -0.2301  0.0017 -0.2526
 4428SOL    HW123753   3.755   7.500   0.192  0.3225  2.1343  1.5062
 4428SOL    HW223754   3.879   7.559   0.103  0.4913  0.8690  0.8889
 4429SOL     OW23755   8.434   6.801   0.275  0.9035  0.0897 -0.6352
 4429SOL    HW123756   8.358   6.794   0.210 -0.2936  0.1799  0.7061
 4429SOL    HW223757   8.407   6.758   0.362  2.6103 -0.3798 -0.3303
 4430SOL     OW23758   3.624   9.382   3.915 -0.0002 -0.2194 -0.9029
 4430SOL    HW123759   3.585   9.424   3.997  0.2621  0.9803 -1.3973
 4430SOL    HW223760   3.700   9.322   3.942  0.2254  0.3335 -0.2917
 4431SOL     OW23761   0.023   3.178   3.481 -0.1949 -0.1229  0.0908
 4431SOL    HW123762   0.085   3.255   3.485  0.4349 -0.6851  1.2273
 4431SOL    HW223763  -0.063   3.206   3.438 -0.3729  1.4778  1.4562
 4432SOL     OW23764   9.138   1.815   0.814  0.4367  0.2832 -0.3068
 4432SOL    HW123765   9.110   1.815   0.718  1.6241  0.1385 -0.6646
 4432SOL    HW223766   9.234   1.841   0.820  0.2808  0.6082  0.8750
 4433SOL     OW23767   2.939   7.694   2.091 -0.2074  0.0483 -0.3570
 4433SOL    HW123768   2.912   7.606   2.053  0.5802  0.1972 -1.2968
 4433SOL    HW223769   2.881   7.766   2.052 -1.0353 -0.0715  0.6218
 4434SOL     OW23770   2.947   4.750   2.823 -0.1871 -0.7997  0.0153
 4434SOL    HW123771   2.889   4.744   2.904  0.5239 -0.7199  0.5417
 4434SOL    HW223772   2.896   4.719   2.743 -1.5411  0.9882  0.1575
 4435SOL     OW23773   1.435   8.317   1.809 -0.3644 -0.3186 -0.0397
 4435SOL    HW123774   1.520   8.287   1.853 -0.8593 -0.9620  0.5076
 4435SOL    HW223775   1.426   8.416   1.817  1.1454 -0.0502 -1.5833
 4436SOL     OW23776   4.148   4.394   1.717  0.6695  0.0220  0.1022
 4436SOL    HW123777   4.148   4.328   1.642 -0.3556 -0.3057  0.3781
 4436SOL    HW223778   4.149   4.346   1.804  0.5074  0.3820  0.3058
 4437SOL     OW23779   3.104   0.712   3.908  0.1987  0.5903  0.2177
 4437SOL    HW123780   3.079   0.795   3.858  1.4977 -0.1770 -1.7681
 4437SOL    HW223781   3.188   0.673   3.869  1.8349  0.5041  3.6953
 4438SOL     OW23782   4.704   3.123   3.114 -0.0238 -0.0804 -0.0680
 4438SOL    HW123783   4.646   3.109   3.195 -0.1291 -1.8785 -0.4391
 4438SOL    HW223784   4.798   3.139   3.143  0.0355 -1.2527  0.4034
 4439SOL     OW23785   4.707   1.324   3.585 -0.2075 -0.1015 -0.0461
 4439SOL    HW123786   4.671   1.387   3.653  1.4032  0.8998 -0.0819
 4439SOL    HW223787   4.735   1.239   3.629  0.3230  0.3340  0.4686
 4440SOL     OW23788   8.003   9.026   0.238 -0.0479  0.0714  0.4913
 4440SOL    HW123789   8.038   8.933   0.236 -1.0314 -0.3683  2.6073
 4440SOL    HW223790   7.909   9.027   0.204  0.2117  0.4090 -0.2224
 4441SOL     OW23791   9.029   2.720   1.585 -0.0093 -0.1102 -0.3733
 4441SOL    HW123792   9.063   2.629   1.562  0.2205  0.3757 -1.9512
 4441SOL    HW223793   8.932   2.727   1.561  0.7145  1.0405 -3.0844
 4442SOL     OW23794   2.947   4.112   2.015 -0.4519  0.3232 -0.0733
 4442SOL    HW123795   2.887   4.160   1.951 -1.3456  0.9697  1.2207
 4442SOL    HW223796   3.017   4.061   1.964 -1.3967  0.4875 -1.5550
 4443SOL     OW23797   0.753   3.844   0.511 -0.5760 -0.0772  0.1572
 4443SOL    HW123798   0.821   3.917   0.498  1.2521 -1.7411  0.1819
 4443SOL    HW223799   0.663   3.877   0.482  0.5339  1.6186 -1.4695
 4444SOL     OW23800   4.123   2.160   1.390  0.0303  0.0584 -0.8664
 4444SOL    HW123801   4.065   2.241   1.385  2.9277  2.2432  0.0615
 4444SOL    HW223802   4.217   2.183   1.364  1.3185 -2.5669  1.1220
 4445SOL     OW23803   2.474   5.575   3.887 -0.4029 -0.4023  0.1170
 4445SOL    HW123804   2.451   5.605   3.980 -0.9871  1.6636 -0.6636
 4445SOL    HW223805   2.553   5.627   3.855 -0.4975 -0.7750 -0.7258
 4446SOL     OW23806   8.883   5.846   3.412 -0.0492  0.1447 -0.7065
 4446SOL    HW123807   8.806   5.873   3.470  0.2961 -0.2215 -0.0742
 4446SOL    HW223808   8.855   5.770   3.354  0.3511 -1.1677  0.7863
 4447SOL     OW23809   9.877   1.586   1.866 -0.4457  0.7830 -0.2614
 4447SOL    HW123810   9.948   1.637   1.818 -1.3439  0.3321 -2.1211
 4447SOL    HW223811   9.916   1.501   1.902 -0.2508 -0.0095 -2.2540
 4448SOL     OW23812   3.265   0.985   1.732  0.3179  0.5831  0.2236
 4448SOL    HW123813   3.285   0.941   1.819 -1.1991  0.5294  0.5603
 4448SOL    HW223814   3.177   1.032   1.738  0.1817  0.5432 -1.2881
 4449SOL     OW23815   8.947   2.334   1.086  0.7726  0.5637  0.3462
 4449SOL    HW123816   8.898   2.394   1.150  1.7092  0.7904  0.8540
 4449SOL    HW223817   8.980   2.253   1.134 -1.0801 -0.7243 -0.4792
 4450SOL     OW23818   0.932   0.569   2.147  0.0715  0.6940 -0.1969
 4450SOL    HW123819   1.022   0.565   2.190  0.1785 -1.1409 -0.5766
 4450SOL    HW223820   0.896   0.662   2.155  1.6512  1.2533  0.6484
 4451SOL     OW23821   9.818   6.891   2.416  0.5295 -0.7353 -0.1410
 4451SOL    HW123822   9.719   6.905   2.422  1.0429  2.2791  2.8580
 4451SOL    HW223823   9.854   6.938   2.336 -0.0198  1.4662  0.8624
 4452SOL     OW23824   3.981   7.331   3.652 -0.2756 -0.3398 -0.8863
 4452SOL    HW123825   3.911   7.395   3.682  2.9982  3.1980 -0.4284
 4452SOL    HW223826   4.036   7.303   3.731  0.0226 -1.5988 -1.5282
 4453SOL     OW23827   3.383   4.393   2.748 -0.1202 -0.8006  0.4847
 4453SOL    HW123828   3.315   4.458   2.784  0.9508 -0.0049  1.0894
 4453SOL    HW223829   3.344   4.345   2.670 -0.7012  1.0894 -0.4250
 4454SOL     OW23830   4.667   3.173   1.721  0.0775 -0.2262 -0.5362
 4454SOL    HW123831   4.639   3.267   1.700 -1.8892 -0.3121  1.5117
 4454SOL    HW223832   4.671   3.120   1.637  1.4840  1.7570 -1.7605
 4455SOL     OW23833   9.368   5.850   1.223 -0.2003 -0.2830 -0.0521
 4455SOL    HW123834   9.306   5.802   1.161  0.3238 -0.7039 -0.2566
 4455SOL    HW223835   9.443   5.789   1.249  0.0912  0.1991  0.2479
 4456SOL     OW23836   9.394   6.927   3.080  0.0916 -0.5301  0.3322
 4456SOL    HW123837   9.429   6.928   3.173 -2.0861 -1.3800  1.1870
 4456SOL    HW223838   9.424   7.009   3.032  0.0041  0.6429  2.2435
 4457SOL     OW23839   0.652   7.520   1.245  0.0662  0.3651 -0.2044
 4457SOL    HW123840   0.631   7.578   1.166 -1.3408 -3.0226 -2.4107
 4457SOL    HW223841   0.748   7.492   1.241 -0.1990 -0.4320 -1.1817
 4458SOL     OW23842   9.326   1.593   3.221  0.2677  0.1394  0.0642
 4458SOL    HW123843   9.332   1.693   3.217  0.1262  0.3549  3.9190
 4458SOL    HW223844   9.358   1.561   3.309  1.0659 -3.3397 -1.4082
 4459SOL     OW23845   9.581   5.122   0.328 -0.2029 -0.9565  0.0731
 4459SOL    HW123846   9.564   5.217   0.301 -1.0325 -0.8054  1.0865
 4459SOL    HW223847   9.592   5.066   0.246 -3.1051 -0.5811 -0.6288
 4460SOL     OW23848   0.645   0.453   0.407  0.1200  0.3072 -0.0786
 4460SOL    HW123849   0.561   0.413   0.446 -0.0042  0.0423 -0.6128
 4460SOL    HW223850   0.693   0.383   0.355  1.6684 -0.0651  1.7879
 4461SOL     OW23851   2.557   6.477   1.646 -0.1584 -0.5419  0.0509
 4461SOL    HW123852   2.527   6.503   1.738  0.7016  0.2050  0.1275
 4461SOL    HW223853   2.526   6.384   1.626 -0.4175 -0.6801  1.0614
 4462SOL     OW23854   3.427   5.304   3.403 -0.0456  0.7450 -0.1419
 4462SOL    HW123855   3.459   5.275   3.493 -1.7005  1.0321  0.5640
 4462SOL    HW223856   3.494   5.364   3.361  1.9665 -1.4941 -0.2426
 4463SOL     OW23857   2.546   3.624   0.799  0.0800  0.1726 -0.2618
 4463SOL    HW123858   2.545   3.717   0.833 -0.8561  0.3810 -0.8359
 4463SOL    HW223859   2.541   3.625   0.699  0.2471 -0.4836 -0.2809
 4464SOL     OW23860   8.282   1.793   2.880 -0.1160 -0.4608 -0.4350
 4464SOL    HW123861   8.206   1.788   2.815  1.0339 -0.4293 -1.7980
 4464SOL    HW223862   8.364   1.826   2.833  0.3815  0.9188  1.3389
 4465SOL     OW23863   5.073   8.506   3.020  0.1878 -0.0043  0.3319
 4465SOL    HW123864   4.997   8.559   2.983 -0.7844 -0.6053  1.4549
 4465SOL    HW223865   5.110   8.554   3.100  1.2442  0.4758 -0.4338
 4466SOL     OW23866   9.679   8.541   3.232 -0.0402 -0.2721 -0.3167
 4466SOL    HW123867   9.631   8.526   3.145 -1.9229 -1.9257  0.9555
 4466SOL    HW223868   9.657   8.632   3.267 -0.4455 -0.1598 -0.8533
 4467SOL     OW23869   3.321   2.162   2.837 -0.1865 -0.5294 -0.4169
 4467SOL    HW123870   3.223   2.176   2.826  0.0641 -0.4226 -2.8321
 4467SOL    HW223871   3.355   2.104   2.763  1.4459 -1.2482  0.8474
 4468SOL     OW23872   1.570   2.053   1.150  0.4353 -0.4944  0.0858
 4468SOL    HW123873   1.649   2.062   1.211 -0.0441  0.0124  0.6387
 4468SOL    HW223874   1.511   2.133   1.159 -0.9975 -1.6126  0.9045
 4469SOL     OW23875   2.210   0.469   0.822 -0.0148  0.6024 -0.3777
 4469SOL    HW123876   2.128   0.465   0.765 -0.6321 -1.8443  0.6054
 4469SOL    HW223877   2.237   0.376   0.848  0.6680  1.5842  2.7053
 4470SOL     OW23878   4.152   9.521   1.234  0.0832  0.3397  0.7832
 4470SOL    HW123879   4.070   9.465   1.241  0.2573 -0.0229 -0.0309
 4470SOL    HW223880   4.224   9.470   1.187  0.2663  1.2086  0.0893
 4471SOL     OW23881   3.257   9.964   2.652  0.6283 -0.4595  0.0473
 4471SOL    HW123882   3.190  10.027   2.690  0.3704 -0.5757 -0.2081
 4471SOL    HW223883   3.215   9.913   2.576  0.5538 -1.5578  0.8145
 4472SOL     OW23884   2.440   6.724   2.164 -0.1303 -0.0080  0.3958
 4472SOL    HW123885   2.457   6.820   2.186  0.6858 -0.3703  1.4340
 4472SOL    HW223886   2.373   6.717   2.090  0.9115  1.3826 -0.6934
 4473SOL     OW23887   2.993   8.495   2.547  0.1228 -0.6039  0.1510
 4473SOL    HW123888   3.016   8.428   2.617 -0.7522 -0.5990  0.4453
 4473SOL    HW223889   3.059   8.570   2.550  1.0547 -1.3998 -0.1232
 4474SOL     OW23890   2.487   5.895   1.711  0.1199  0.3287  0.4119
 4474SOL    HW123891   2.572   5.887   1.660 -0.4748  0.4677 -0.6105
 4474SOL    HW223892   2.491   5.975   1.771  0.4615  0.6852 -0.0879
 4475SOL     OW23893   0.519   5.463   1.251 -0.0938 -0.5950 -0.4988
 4475SOL    HW123894   0.540   5.554   1.214  0.2940 -0.6830 -0.4969
 4475SOL    HW223895   0.588   5.398   1.219 -0.1679 -0.8181 -0.2036
 4476SOL     OW23896   9.726   0.830   2.494 -0.0192 -0.0851 -0.1021
 4476SOL    HW123897   9.649   0.836   2.557  2.0498  1.1742  2.3999
 4476SOL    HW223898   9.783   0.751   2.519 -0.1196 -0.6175 -1.5162
 4477SOL     OW23899   8.770   6.507   0.424 -0.3937  0.3373 -0.1841
 4477SOL    HW123900   8.790   6.489   0.520  1.7011  0.3987 -0.5640
 4477SOL    HW223901   8.748   6.603   0.411 -1.1062  0.2380  0.2955
 4478SOL     OW23902   8.479   7.760   1.908 -0.0030 -0.2470  0.0173
 4478SOL    HW123903   8.434   7.811   1.834  1.3033  0.9760  0.0463
 4478SOL    HW223904   8.464   7.808   1.995 -1.7935 -1.8416  0.6122
 4479SOL     OW23905   0.516   4.555   1.294  0.0286 -0.0164 -0.3538
 4479SOL    HW123906   0.425   4.514   1.298 -1.3462  2.9059 -0.3273
 4479SOL    HW223907   0.570   4.525   1.372 -0.3895 -2.8850 -1.1056
 4480SOL     OW23908   2.774   0.323   3.094 -0.0896  0.0830 -0.4305
 4480SOL    HW123909   2.805   0.412   3.062  0.6909 -0.3277 -0.8385
 4480SOL    HW223910   2.800   0.310   3.189 -0.7566  0.5440 -0.1849
 4481SOL     OW23911   4.284   9.937   1.182 -0.1172 -0.1831 -0.1674
 4481SOL    HW123912   4.307   9.999   1.257 -0.1427  0.4501 -0.6717
 4481SOL    HW223913   4.332   9.967   1.099 -1.3261  0.0592 -0.7849
 4482SOL     OW23914   9.817   2.171   2.336  0.5580  0.4703  0.1082
 4482SOL    HW123915   9.880   2.179   2.413  0.0549  1.3327  0.4389
 4482SOL    HW223916   9.869   2.168   2.250  1.0885  0.1315  0.4373
 4483SOL     OW23917   6.275   9.101   2.131 -0.4087 -0.4058  0.2480
 4483SOL    HW123918   6.355   9.093   2.071 -0.1346  0.4377  0.4982
 4483SOL    HW223919   6.206   9.034   2.104  0.9055 -2.0420  0.8412
 4484SOL     OW23920   7.509   6.458   3.731 -0.1747 -0.0709  0.3246
 4484SOL    HW123921   7.418   6.486   3.762  0.7855  1.2377  1.9701
 4484SOL    HW223922   7.534   6.511   3.650 -0.8290 -0.3758 -0.0822
 4485SOL     OW23923   3.134   1.494   2.103 -0.6050 -0.2138  0.4777
 4485SOL    HW123924   3.043   1.463   2.079 -1.5306  0.9971  2.2548
 4485SOL    HW223925   3.170   1.439   2.179  0.0280 -0.5103 -0.0315
 4486SOL     OW23926   4.004   8.767   3.832 -0.0270  0.6293  0.0988
 4486SOL    HW123927   3.994   8.669   3.844 -0.1371  0.5654 -0.5033
 4486SOL    HW223928   4.001   8.789   3.734 -1.5219  1.3832  0.2900
 4487SOL     OW23929   4.142   3.837   2.373  0.7476  0.4178 -0.4117
 4487SOL    HW123930   4.162   3.773   2.447 -0.2146 -0.2515 -0.7262
 4487SOL    HW223931   4.047   3.868   2.380  1.0968  1.5447 -0.4708
 4488SOL     OW23932   9.164   2.539   3.778 -0.2317 -0.3770 -0.4588
 4488SOL    HW123933   9.146   2.635   3.758  0.7740 -0.4100 -1.6292
 4488SOL    HW223934   9.079   2.493   3.802 -0.6921  0.8398  0.2792
 4489SOL     OW23935   2.200   3.841   1.853 -0.0627 -0.1949 -0.3572
 4489SOL    HW123936   2.140   3.907   1.807 -1.1071 -2.6124 -2.5738
 4489SOL    HW223937   2.294   3.855   1.823  0.2621  2.2817  1.5933
 4490SOL     OW23938   8.693   3.145   2.251  0.2868 -0.4477 -0.1789
 4490SOL    HW123939   8.751   3.148   2.333  0.9741 -1.0928 -0.6330
 4490SOL    HW223940   8.751   3.130   2.170 -0.5233 -1.1434 -0.6289
 4491SOL     OW23941   9.540   3.482   1.119  0.6581  0.1693  0.3535
 4491SOL    HW123942   9.481   3.519   1.191  2.8181  0.1909  2.1853
 4491SOL    HW223943   9.498   3.401   1.079 -0.5312  0.1056  1.7058
 4492SOL     OW23944   0.428   5.173   0.923 -0.0594 -0.3460  0.4484
 4492SOL    HW123945   0.480   5.230   0.859 -1.5121  0.5242  0.0318
 4492SOL    HW223946   0.489   5.105   0.963  1.1544 -0.0920 -0.9137
 4493SOL     OW23947   0.703   4.357   1.426 -0.0114 -0.1054  0.7988
 4493SOL    HW123948   0.737   4.293   1.357 -0.6088  0.2082  0.2057
 4493SOL    HW223949   0.670   4.306   1.505  0.8713 -0.4578  0.9444
 4494SOL     OW23950   1.187   2.487   2.368 -0.1898 -0.2188  0.3659
 4494SOL    HW123951   1.270   2.448   2.328  0.2710  2.1593 -1.0631
 4494SOL    HW223952   1.109   2.429   2.344  0.3797  0.0452 -2.3518
 4495SOL     OW23953   6.208   9.625   2.515  0.4048 -0.6201 -0.0307
 4495SOL    HW123954   6.134   9.675   2.471 -0.6041 -0.9850  1.2473
 4495SOL    HW223955   6.248   9.561   2.448 -1.0610 -1.1186 -0.4641
 4496SOL     OW23956   9.465   3.089   1.728 -0.2428  0.5819  0.0113
 4496SOL    HW123957   9.386   3.149   1.717  0.1432  0.8494 -1.4559
 4496SOL    HW223958   9.434   2.995   1.744 -0.8568  0.6922 -0.5095
 4497SOL     OW23959   3.023   3.434   3.179 -0.0407  0.7074  0.3439
 4497SOL    HW123960   3.035   3.388   3.091  0.1288 -1.8044  1.6279
 4497SOL    HW223961   2.926   3.453   3.195 -0.1815  0.2262  0.0644
 4498SOL     OW23962   0.765   2.217   1.236 -0.3413  0.1946 -0.0817
 4498SOL    HW123963   0.858   2.232   1.269 -0.1469 -1.8486  0.3985
 4498SOL    HW223964   0.765   2.210   1.137  0.0610  0.0076 -0.0698
 4499SOL     OW23965   0.616   4.953   0.975 -0.8158 -0.2175 -0.5399
 4499SOL    HW123966   0.620   4.913   0.883  0.6910  0.8517 -0.9699
 4499SOL    HW223967   0.617   4.881   1.043  1.4239 -0.9486 -1.3056
 4500SOL     OW23968   0.175   1.389   3.507  0.3610  0.6909  0.0855
 4500SOL    HW123969   0.160   1.426   3.415  1.3457  3.4861  0.9703
 4500SOL    HW223970   0.272   1.400   3.531 -0.0566  0.7501  1.7646
 4501SOL     OW23971   1.881   7.520   3.700  0.2196  0.4152 -0.1885
 4501SOL    HW123972   1.922   7.428   3.698 -1.5980 -0.4661  1.5159
 4501SOL    HW223973   1.909   7.567   3.784 -0.6096  0.5712  0.0051
 4502SOL     OW23974   8.631   7.824   3.341 -0.4660  0.0167 -0.0071
 4502SOL    HW123975   8.667   7.818   3.248 -0.8425  1.4895 -0.2572
 4502SOL    HW223976   8.550   7.766   3.349 -0.2891 -0.3066 -0.5235
 4503SOL     OW23977   1.488   4.399   0.938 -0.2272  0.7382  0.0773
 4503SOL    HW123978   1.548   4.414   1.017  0.1395 -0.6750  0.0692
 4503SOL    HW223979   1.493   4.479   0.877  1.7856  0.5608 -0.0293
 4504SOL     OW23980   7.510   9.926   0.425  0.0598  0.4105  0.3730
 4504SOL    HW123981   7.453   9.929   0.343 -0.4238  0.1385  0.6959
 4504SOL    HW223982   7.573   9.849   0.419  1.3462  1.5068 -0.6008
 4505SOL     OW23983   9.645   7.438   1.473  0.3056  0.3527  0.2907
 4505SOL    HW123984   9.666   7.536   1.474 -1.5234  0.8258 -2.4427
 4505SOL    HW223985   9.728   7.386   1.493  1.5930  2.4153  0.4769
 4506SOL     OW23986   1.410   5.253   3.670  0.0205 -0.4295  0.6112
 4506SOL    HW123987   1.409   5.333   3.730 -0.1854 -0.2682  0.3957
 4506SOL    HW223988   1.480   5.265   3.600  1.3127 -1.2982  1.7250
 4507SOL     OW23989   3.317   7.625   1.412  0.5575 -0.2097  0.1841
 4507SOL    HW123990   3.248   7.679   1.461 -1.4117 -1.8283 -0.7072
 4507SOL    HW223991   3.338   7.669   1.324 -0.8941 -0.7554 -0.4523
 4508SOL     OW23992   3.345   2.423   3.491 -0.4748 -0.0212  0.1725
 4508SOL    HW123993   3.278   2.375   3.547 -0.5254 -0.7495 -0.5047
 4508SOL    HW223994   3.437   2.408   3.528 -0.1734 -2.9217 -1.5655
 4509SOL     OW23995   4.200   8.052   3.847  0.1380  0.0152  0.5721
 4509SOL    HW123996   4.114   8.001   3.859 -0.3649  0.8637  0.5918
 4509SOL    HW223997   4.261   8.001   3.787  0.0519 -1.1149  1.4279
 4510SOL     OW23998   8.993   0.407   3.732  0.2569 -0.2898  0.2692
 4510SOL    HW123999   8.951   0.480   3.678  2.4384  0.0426 -1.0328
 4510SOL    HW224000   8.997   0.323   3.678  1.8824 -0.1322  0.1349
 4511SOL     OW24001   9.964   7.071   3.054  0.1952 -0.1372  0.0173
 4511SOL    HW124002  10.005   7.161   3.044 -0.7265  0.3431  0.4497
 4511SOL    HW224003  10.013   7.020   3.125  1.6161 -0.5222 -1.2263
 4512SOL     OW24004   2.054   4.712   3.666 -0.6766 -0.2350 -0.1013
 4512SOL    HW124005   1.956   4.721   3.685 -0.4727  1.0428  0.3884
 4512SOL    HW224006   2.093   4.802   3.644 -0.0063 -1.0313 -2.2696
 4513SOL     OW24007   9.736   7.713   1.500  0.3176  0.1341  0.3616
 4513SOL    HW124008   9.736   7.809   1.472  0.0658 -0.2704 -1.0866
 4513SOL    HW224009   9.789   7.703   1.584  1.7845  1.2790 -0.3996
 4514SOL     OW24010   7.780   7.567   3.232 -0.4204  0.0233 -0.0679
 4514SOL    HW124011   7.873   7.556   3.197  0.1784  1.2431  1.1009
 4514SOL    HW224012   7.751   7.482   3.276  0.5892  0.0235  0.6032
 4515SOL     OW24013   7.981   5.298   3.953  0.3953 -0.2512 -0.2553
 4515SOL    HW124014   8.021   5.388   3.972  1.9229 -1.1013  0.7137
 4515SOL    HW224015   7.892   5.291   3.998  1.4290 -0.1557  1.8671
 4516SOL     OW24016   2.973   0.540   0.194 -0.1393 -0.5330  0.1686
 4516SOL    HW124017   2.974   0.460   0.134 -2.2847 -0.5511  0.0980
 4516SOL    HW224018   2.930   0.616   0.146  2.4434  0.8810  0.0094
 4517SOL     OW24019   0.978   4.908   1.791  0.2720 -0.0443 -0.5836
 4517SOL    HW124020   1.068   4.867   1.801  0.3390  0.1759 -0.2816
 4517SOL    HW224021   0.913   4.839   1.760  0.5862 -0.1562 -1.0016
 4518SOL     OW24022   1.034   4.238   3.456 -0.4082 -0.2075  0.2736
 4518SOL    HW124023   0.957   4.212   3.513  0.4288  0.6763  1.8194
 4518SOL    HW224024   1.006   4.311   3.393 -0.9422 -0.1875  0.5336
 4519SOL     OW24025   3.343   7.915   1.514  0.1827  0.0690 -0.0842
 4519SOL    HW124026   3.317   8.011   1.506 -1.7500 -0.5039 -0.9090
 4519SOL    HW224027   3.266   7.862   1.550  1.6220 -0.9963  1.5783
 4520SOL     OW24028   9.390   0.948   2.948 -0.4106 -0.4266  0.1068
 4520SOL    HW124029   9.486   0.931   2.926 -0.5328 -0.3407 -0.4976
 4520SOL    HW224030   9.332   0.897   2.885 -0.7686  0.6443 -0.4435
 4521SOL     OW24031   2.755   9.192   3.863  0.1443 -0.1175 -0.5635
 4521SOL    HW124032   2.757   9.292   3.866  0.7058 -0.0852 -1.8541
 4521SOL    HW224033   2.742   9.161   3.769 -1.7761 -1.2558  0.0495
 4522SOL     OW24034   1.992   1.080   3.255 -0.6855 -0.1372 -0.1371
 4522SOL    HW124035   2.090   1.099   3.248 -0.6283 -0.6330 -0.6708
 4522SOL    HW224036   1.976   0.982   3.259 -1.0488 -0.0229  1.8192
 4523SOL     OW24037   0.915   9.667   1.988 -0.1521 -0.2762  0.4657
 4523SOL    HW124038   0.843   9.612   1.944 -1.5150  1.0938  0.9161
 4523SOL    HW224039   0.872   9.740   2.042  1.5476 -0.5559  2.2407
 4524SOL     OW24040   9.949   7.821   3.564  0.1688 -0.9250 -0.4030
 4524SOL    HW124041   9.917   7.828   3.470 -3.0543 -1.8921  0.5599
 4524SOL    HW224042  10.013   7.745   3.572  0.5895 -0.7351 -1.8291
 4525SOL     OW24043   7.779   7.919   3.219 -0.0185 -0.1348  0.4273
 4525SOL    HW124044   7.697   7.870   3.190  0.8321 -1.5746  0.3793
 4525SOL    HW224045   7.777   8.012   3.182 -0.7209 -0.7596 -1.1585
 4526SOL     OW24046   9.565   6.793   3.706  0.1330  0.2715  0.5191
 4526SOL    HW124047   9.623   6.831   3.633  0.7062 -0.2859  0.6695
 4526SOL    HW224048   9.471   6.784   3.673  0.6809 -1.3363 -0.6553
 4527SOL     OW24049   0.703   1.384   3.866  0.4609  0.7326 -0.3197
 4527SOL    HW124050   0.603   1.389   3.870  0.5051  0.0824  4.9166
 4527SOL    HW224051   0.740   1.476   3.867 -0.0989  0.9708  1.7279
 4528SOL     OW24052   2.849   5.243   1.374  0.2572 -0.3627 -0.1474
 4528SOL    HW124053   2.768   5.198   1.413 -0.2322 -0.8142 -1.6368
 4528SOL    HW224054   2.929   5.185   1.385  0.1233 -0.4873  0.1690
 4529SOL     OW24055   9.810   8.011   2.940 -0.0296 -0.6753 -0.1431
 4529SOL    HW124056   9.890   7.954   2.927  0.1133 -0.5431  0.1586
 4529SOL    HW224057   9.826   8.075   3.015  0.0758  0.2436 -0.9314
 4530SOL     OW24058   7.957   6.873   2.309 -0.2616  0.3999 -0.0865
 4530SOL    HW124059   7.938   6.908   2.217  0.8115  0.4071 -0.3024
 4530SOL    HW224060   7.871   6.868   2.360 -0.7218  1.3831 -0.7388
 4531SOL     OW24061   9.963   8.197   2.333  0.4620 -0.2310 -0.4344
 4531SOL    HW124062   9.928   8.267   2.395  1.2187 -0.1985 -0.0378
 4531SOL    HW224063  10.050   8.163   2.367  0.1161 -1.3448 -0.6412
 4532SOL     OW24064   4.741   0.484   1.534  0.7634 -0.8885 -0.1271
 4532SOL    HW124065   4.709   0.579   1.538 -3.0760 -1.9901 -2.0905
 4532SOL    HW224066   4.700   0.432   1.609  1.5971 -1.3547  0.0096
 4533SOL     OW24067   9.907   2.270   3.202 -0.2938  0.3818  0.5266
 4533SOL    HW124068   9.954   2.212   3.268 -1.4137  0.7260  1.6445
 4533SOL    HW224069   9.836   2.217   3.156  1.5887 -0.3426 -1.6842
 4534SOL     OW24070   1.851   9.867   0.621  0.0938 -0.4231 -0.6072
 4534SOL    HW124071   1.907   9.848   0.540 -1.7985 -1.2912 -1.7561
 4534SOL    HW224072   1.851   9.965   0.640 -1.3591  0.0803 -3.0933
 4535SOL     OW24073   3.705   8.359   1.858  0.1980 -0.2393  0.3918
 4535SOL    HW124074   3.637   8.402   1.799  0.8930  0.2941 -0.0305
 4535SOL    HW224075   3.709   8.261   1.839  0.4830 -0.0519 -0.5066
 4536SOL     OW24076   0.486   0.007   1.263 -0.2622 -0.2049  0.1219
 4536SOL    HW124077   0.571   0.014   1.315 -0.2026  1.7297 -0.2072
 4536SOL    HW224078   0.408   0.010   1.326 -0.1503  0.5509  0.2270
 4537SOL     OW24079   1.867   0.860   0.560  0.3587 -0.2500  0.2217
 4537SOL    HW124080   1.782   0.826   0.602  0.8967 -0.8516  0.8333
 4537SOL    HW224081   1.898   0.794   0.491  0.5017 -0.1891  0.2286
 4538SOL     OW24082   8.285   0.135   3.823 -0.7151 -0.4789  0.1135
 4538SOL    HW124083   8.221   0.201   3.862 -0.1610 -1.5818  3.0282
 4538SOL    HW224084   8.374   0.179   3.809 -0.6822 -0.2851  0.9151
 4539SOL     OW24085   2.788   0.800   1.764  0.1282 -0.5701  0.4377
 4539SOL    HW124086   2.875   0.792   1.715  1.1029  0.4765  1.9780
 4539SOL    HW224087   2.723   0.851   1.708  0.4756 -1.3653 -0.7246
 4540SOL     OW24088   7.560   0.864   2.767 -0.3848 -0.2814 -0.1227
 4540SOL    HW124089   7.501   0.811   2.706 -1.9836 -1.5591  2.4289
 4540SOL    HW224090   7.600   0.941   2.717  0.9886 -3.1192 -3.6040
 4541SOL     OW24091   2.738   8.996   0.621  0.2567 -0.3020 -0.1869
 4541SOL    HW124092   2.649   9.028   0.591 -1.0428 -2.6254  0.9947
 4541SOL    HW224093   2.795   9.074   0.647 -0.8940  1.2973 -2.3152
 4542SOL     OW24094   8.280   1.200   1.702 -0.4016  0.2418  0.3048
 4542SOL    HW124095   8.187   1.196   1.665 -0.2274  0.3701 -0.1516
 4542SOL    HW224096   8.335   1.127   1.661 -0.7000 -0.7853  1.7099
 4543SOL     OW24097   3.897   0.740   1.015  0.1676  0.4630 -0.2021
 4543SOL    HW124098   3.916   0.683   1.095  0.2338  0.3852 -0.2743
 4543SOL    HW224099   3.959   0.818   1.014  0.3222  0.3395 -0.3049
 4544SOL     OW24100   1.952   6.821   2.513  0.1475  0.6138  0.1908
 4544SOL    HW124101   1.872   6.875   2.488  0.4200  1.4884  1.1967
 4544SOL    HW224102   1.925   6.749   2.577  0.0715  0.5466  0.0844
 4545SOL     OW24103   0.269   1.610   0.824 -0.0625  0.7711 -0.4535
 4545SOL    HW124104   0.198   1.565   0.770  0.3921  0.0414 -0.4612
 4545SOL    HW224105   0.343   1.545   0.841  0.4323  1.4151 -0.1355
 4546SOL     OW24106   0.566   8.082   3.653  0.0881 -0.1692 -0.3978
 4546SOL    HW124107   0.647   8.133   3.624 -0.0748 -0.2515 -1.0221
 4546SOL    HW224108   0.495   8.145   3.683  0.2157 -0.0709 -0.3039
 4547SOL     OW24109   4.214   4.387   2.349 -0.0462 -0.3765 -0.4909
 4547SOL    HW124110   4.202   4.353   2.442  1.1815 -0.8966 -0.5174
 4547SOL    HW224111   4.167   4.327   2.285 -1.4486  0.3498 -0.1489
 4548SOL     OW24112   1.782   1.254   2.668  0.3994 -0.2355 -0.2489
 4548SOL    HW124113   1.733   1.185   2.614  2.2948 -1.5376 -0.3969
 4548SOL    HW224114   1.844   1.305   2.607  0.0418  0.6313  0.1137
 4549SOL     OW24115   8.681   2.740   0.814  0.2504 -0.4329 -0.2085
 4549SOL    HW124116   8.629   2.657   0.796  2.1784 -1.9117  0.7719
 4549SOL    HW224117   8.673   2.764   0.910 -0.0054  0.3203 -0.4149
 4550SOL     OW24118   9.526   3.019   3.676  0.3954  0.2073  0.2732
 4550SOL    HW124119   9.544   3.003   3.579 -1.4718 -2.3947  0.2939
 4550SOL    HW224120   9.604   2.988   3.730  1.7327  2.3079 -0.4005
 4551SOL     OW24121   2.447   3.938   2.802  0.4921 -0.2107 -0.5589
 4551SOL    HW124122   2.469   3.963   2.708  1.2563  2.3718  0.2768
 4551SOL    HW224123   2.529   3.903   2.847  0.6716  0.7080 -0.1739
 4552SOL     OW24124   2.749   4.622   0.412 -0.3841  0.0016  0.1388
 4552SOL    HW124125   2.733   4.646   0.316 -0.9596 -1.2153 -0.0844
 4552SOL    HW224126   2.785   4.529   0.417 -1.1649 -0.2567  1.1461
 4553SOL     OW24127   1.890   8.520   2.504  0.1332 -0.0902  0.1128
 4553SOL    HW124128   1.864   8.541   2.409  0.3313 -0.6488 -0.0712
 4553SOL    HW224129   1.871   8.599   2.562 -0.0648  0.2306 -0.3793
 4554SOL     OW24130   2.089   4.234   1.959  0.4672 -0.4315  0.4213
 4554SOL    HW124131   2.096   4.311   1.896  0.5697  0.3686  1.4026
 4554SOL    HW224132   2.003   4.185   1.943 -0.6596  1.2356  1.3226
 4555SOL     OW24133   2.919   1.195   1.207 -0.0624  0.3268 -0.1723
 4555SOL    HW124134   2.857   1.161   1.277  1.7192 -0.0284  1.2782
 4555SOL    HW224135   3.013   1.172   1.232  0.7311  1.5456 -1.9185
 4556SOL     OW24136   1.082   2.131   3.861  0.2106  0.1699 -0.1573
 4556SOL    HW124137   1.161   2.136   3.922 -0.4076  1.4100  0.5376
 4556SOL    HW224138   1.106   2.173   3.773  0.4296  0.2368 -0.0671
 4557SOL     OW24139   2.361   7.359   3.277 -0.4022  0.5089  0.2203
 4557SOL    HW124140   2.277   7.346   3.224 -0.6367 -1.8275  1.1047
 4557SOL    HW224141   2.338   7.392   3.368 -0.2153  1.5351 -0.0946
 4558SOL     OW24142   4.104   5.390   2.892  0.5466  0.0954  0.3214
 4558SOL    HW124143   4.156   5.470   2.862 -0.0035  0.6170  0.7515
 4558SOL    HW224144   4.163   5.309   2.890  0.5693  0.1421 -1.9790
 4559SOL     OW24145   0.798   0.408   2.831  0.4940  0.4390  0.9159
 4559SOL    HW124146   0.764   0.500   2.853 -0.1204  0.6422 -0.7392
 4559SOL    HW224147   0.736   0.366   2.765  1.2067 -0.8637  1.0723
 4560SOL     OW24148   7.779   1.452   3.667  0.5134  0.1792 -0.6641
 4560SOL    HW124149   7.815   1.362   3.641 -1.7042 -0.9147 -0.0599
 4560SOL    HW224150   7.793   1.516   3.591  3.6654 -0.1854 -0.4470
 4561SOL     OW24151   1.893   6.523   3.436  0.0982 -0.0985  0.3942
 4561SOL    HW124152   1.927   6.429   3.427  1.6663  0.4064  0.9319
 4561SOL    HW224153   1.798   6.527   3.407  0.0754 -1.8276  0.2027
 4562SOL     OW24154   8.787   3.921   3.082  0.1240 -0.1975 -0.0667
 4562SOL    HW124155   8.876   3.896   3.046 -0.9354 -1.6001 -1.7764
 4562SOL    HW224156   8.773   3.877   3.171  0.6227 -0.9861 -0.3813
 4563SOL     OW24157   5.078   0.282   2.547 -0.2335  0.1364 -0.2046
 4563SOL    HW124158   5.056   0.372   2.509 -0.7922 -0.5057 -1.4022
 4563SOL    HW224159   5.163   0.248   2.506 -0.1797 -0.0126  0.0307
 4564SOL     OW24160   8.759   7.515   0.869 -0.7239  0.3093  0.3178
 4564SOL    HW124161   8.722   7.600   0.907  0.2638  0.4321  1.0159
 4564SOL    HW224162   8.710   7.493   0.785  0.0370  2.3859 -0.6971
 4565SOL     OW24163   1.692   9.904   1.490 -0.5618  0.5379 -0.7571
 4565SOL    HW124164   1.672   9.939   1.582 -0.7537 -0.3423 -0.4578
 4565SOL    HW224165   1.764   9.960   1.448  0.1140  0.4507  0.2570
 4566SOL     OW24166   0.310   5.880   1.922 -0.9541  0.1115  0.3976
 4566SOL    HW124167   0.324   5.823   1.840 -2.4589  0.9708 -0.4848
 4566SOL    HW224168   0.221   5.858   1.962 -1.0222  1.0039  0.7359
 4567SOL     OW24169   0.627   6.116   0.272  0.0222 -0.0264  0.1577
 4567SOL    HW124170   0.629   6.171   0.188  0.2168 -0.8345 -0.3749
 4567SOL    HW224171   0.533   6.085   0.289 -0.1793  0.8785  0.7342
 4568SOL     OW24172   8.294   0.045   0.790 -0.0426  0.4633 -0.2969
 4568SOL    HW124173   8.235   0.117   0.753 -0.4603  0.3956  0.2341
 4568SOL    HW224174   8.326   0.072   0.881  1.8903  1.1344 -1.1414
 4569SOL     OW24175   8.694   0.629   0.747 -0.1415 -0.0358  0.4675
 4569SOL    HW124176   8.605   0.597   0.713  0.7614 -0.9071 -1.1699
 4569SOL    HW224177   8.748   0.551   0.778  0.9458  0.2125 -0.7567
 4570SOL     OW24178   9.303   9.352   1.675 -1.0322  0.2516  0.0737
 4570SOL    HW124179   9.210   9.315   1.686 -0.0923 -2.5948 -1.0401
 4570SOL    HW224180   9.349   9.353   1.764 -1.4463 -0.2911  0.2959
 4571SOL     OW24181   8.681   8.135   2.614 -0.3164  0.7644 -0.2170
 4571SOL    HW124182   8.766   8.096   2.578 -0.6521  0.0839 -0.2912
 4571SOL    HW224183   8.655   8.215   2.560  0.6331  1.3818  0.2321
 4572SOL     OW24184   0.024   2.749   1.549  0.0529  0.4415  0.2547
 4572SOL    HW124185   0.102   2.809   1.530 -0.0329  0.1381 -1.0831
 4572SOL    HW224186   0.052   2.675   1.610  0.2178  1.6946  1.7212
 4573SOL     OW24187   9.537   7.393   0.435 -0.0064 -0.1052  0.1736
 4573SOL    HW124188   9.525   7.328   0.510 -0.7863  0.5312  0.6030
 4573SOL    HW224189   9.610   7.361   0.375  0.0682 -1.0364  0.7521
 4574SOL     OW24190   8.821   9.537   0.786  0.2381  0.0088 -0.1207
 4574SOL    HW124191   8.790   9.456   0.836 -1.3162  0.2752 -0.6099
 4574SOL    HW224192   8.920   9.533   0.774 -0.0100 -2.9273 -1.9880
 4575SOL     OW24193   8.896   1.369   1.056  0.4319  0.2751 -0.2063
 4575SOL    HW124194   8.981   1.317   1.065  0.5451  0.3416 -0.8459
 4575SOL    HW224195   8.916   1.460   1.019  0.2583  0.8436  1.0530
 4576SOL     OW24196   4.555   2.760   1.673 -0.1532 -0.1391  0.2454
 4576SOL    HW124197   4.616   2.786   1.747 -0.3774 -0.8541  0.6830
 4576SOL    HW224198   4.465   2.802   1.688 -0.3275 -0.6478  0.6104
 4577SOL     OW24199   1.928   3.307   2.483  0.3711  0.5006  0.0856
 4577SOL    HW124200   1.984   3.227   2.464 -0.2729  0.5381 -2.1194
 4577SOL    HW224201   1.987   3.384   2.506  1.2633  0.4675 -1.9598
 4578SOL     OW24202   1.145   9.167   1.034  0.5491  0.1256 -0.4204
 4578SOL    HW124203   1.068   9.128   1.085 -0.3361  1.0327 -1.0413
 4578SOL    HW224204   1.164   9.111   0.954  0.8521 -0.3683 -0.0066
 4579SOL     OW24205   2.069   2.256   1.634  0.4252 -0.2703  0.4342
 4579SOL    HW124206   1.980   2.296   1.656  0.0768 -0.7956  0.0156
 4579SOL    HW224207   2.063   2.157   1.641  0.7279 -0.3590 -0.4716
 4580SOL     OW24208   0.357   8.579   0.657  0.2463  0.3576 -0.2764
 4580SOL    HW124209   0.387   8.666   0.696  3.7112 -0.2332 -1.4924
 4580SOL    HW224210   0.381   8.505   0.719 -1.6111  0.1079  0.1862
 4581SOL     OW24211   7.647   9.484   2.539 -0.6710 -0.1235  0.4867
 4581SOL    HW124212   7.601   9.409   2.493 -1.9541  0.6124  0.5541
 4581SOL    HW224213   7.594   9.512   2.619 -0.9617  1.8171 -0.3700
 4582SOL     OW24214   3.897   9.009   1.283 -0.2542 -0.0415  0.3944
 4582SOL    HW124215   3.849   8.943   1.342 -0.2253  0.6784  1.2299
 4582SOL    HW224216   3.958   9.065   1.339 -2.3607  2.5901  0.1411
 4583SOL     OW24217   3.509   1.267   3.883 -0.0335  0.3220 -0.3650
 4583SOL    HW124218   3.427   1.210   3.893 -0.7261  1.1297 -1.3801
 4583SOL    HW224219   3.546   1.287   3.974 -0.3461 -0.9191  0.0587
 4584SOL     OW24220   8.658   9.066   1.708  0.3792  0.4938 -0.1951
 4584SOL    HW124221   8.748   9.026   1.693  1.1601  0.8986  3.1302
 4584SOL    HW224222   8.666   9.165   1.717 -0.3611  0.5118  0.3565
 4585SOL     OW24223   9.533   6.447   3.646 -0.0987 -0.7129  0.0895
 4585SOL    HW124224   9.510   6.389   3.723  0.0859 -2.5318 -1.1964
 4585SOL    HW224225   9.610   6.506   3.671 -1.4111  0.2594  1.9734
 4586SOL     OW24226   4.381   9.507   0.077 -0.0478  0.2069 -0.5448
 4586SOL    HW124227   4.367   9.420   0.031  0.7323  0.8563 -2.0661
 4586SOL    HW224228   4.376   9.495   0.176  1.7893 -1.8614 -0.6933
 4587SOL     OW24229   0.479   3.304   1.758  0.2024  0.2523 -0.9651
 4587SOL    HW124230   0.393   3.351   1.777  1.3689  2.8431 -1.8995
 4587SOL    HW224231   0.483   3.278   1.662 -0.0519 -0.9873 -0.6478
 4588SOL     OW24232   7.619   1.916   0.647 -0.0538  0.0343 -0.4752
 4588SOL    HW124233   7.601   1.847   0.578  0.5254  1.1527 -1.7779
 4588SOL    HW224234   7.628   1.873   0.737  0.0961 -1.5312 -1.2315
 4589SOL     OW24235   8.467   5.539   0.716 -0.1857  0.5742 -0.2777
 4589SOL    HW124236   8.441   5.526   0.620  0.6661  1.8401 -0.6909
 4589SOL    HW224237   8.396   5.590   0.764 -0.0604  0.9755 -0.5261
 4590SOL     OW24238   9.824   3.739   1.732  0.5934 -0.4627  0.2741
 4590SOL    HW124239   9.730   3.774   1.735 -0.0793 -2.0715 -0.9744
 4590SOL    HW224240   9.866   3.749   1.822 -0.6139  0.7234  0.7220
 4591SOL     OW24241   9.253   6.108   0.102 -0.1708 -0.1676 -0.8246
 4591SOL    HW124242   9.164   6.063   0.108 -1.4550  2.5454  1.5670
 4591SOL    HW224243   9.303   6.071   0.023 -2.5538 -3.1625 -1.0472
 4592SOL     OW24244   8.653   6.059   1.376  0.0337  0.9560  0.5504
 4592SOL    HW124245   8.753   6.056   1.375  0.0170 -0.3200  1.2372
 4592SOL    HW224246   8.622   6.093   1.465 -0.1365  1.1423  0.4174
 4593SOL     OW24247   8.141   3.379   1.111  0.3068  0.3907 -0.3112
 4593SOL    HW124248   8.058   3.366   1.166  0.2397  0.4610 -0.3945
 4593SOL    HW224249   8.116   3.419   1.023  0.1100 -2.1045 -1.4205
 4594SOL     OW24250   1.689   6.745   3.066 -0.5237 -0.7577 -0.2658
 4594SOL    HW124251   1.684   6.738   3.165  1.5551  1.1032 -0.0056
 4594SOL    HW224252   1.687   6.653   3.026  0.5034 -1.5990  1.5960
 4595SOL     OW24253   8.054   8.296   2.423  0.1390  0.3917 -0.2760
 4595SOL    HW124254   8.023   8.276   2.330 -0.0484 -2.4496  0.3631
 4595SOL    HW224255   7.985   8.351   2.470 -0.8387 -0.1523 -1.0624
 4596SOL     OW24256   0.818   0.880   2.744  0.1283  0.6670 -0.7351
 4596SOL    HW124257   0.874   0.865   2.663  0.0466  1.2338 -0.8998
 4596SOL    HW224258   0.877   0.884   2.825  0.3412  1.3609 -0.9198
 4597SOL     OW24259   4.253   9.782   3.743  0.3926  0.4025 -0.1511
 4597SOL    HW124260   4.249   9.697   3.796  0.3322  0.6206  0.1924
 4597SOL    HW224261   4.342   9.825   3.757  0.7360 -0.0159 -0.9651
 4598SOL     OW24262   9.346   8.278   2.968  0.2140  0.4390  0.0509
 4598SOL    HW124263   9.384   8.207   2.909  1.4078  1.0846  0.0192
 4598SOL    HW224264   9.272   8.325   2.920 -0.9911 -1.1820  0.3093
 4599SOL     OW24265   1.950   2.715   2.552  0.6155 -0.2711  0.2864
 4599SOL    HW124266   1.855   2.698   2.577 -0.4599  1.3774 -2.4567
 4599SOL    HW224267   1.976   2.654   2.477  2.0263 -1.3141  1.5837
 4600SOL     OW24268   3.747   0.693   1.630 -0.1076  0.0886  0.2879
 4600SOL    HW124269   3.767   0.697   1.532  0.3079  2.7335  0.4465
 4600SOL    HW224270   3.792   0.613   1.670 -1.5471 -1.8763 -1.9285
 4601SOL     OW24271   9.630   1.796   3.971  0.1008 -0.3042  0.3166
 4601SOL    HW124272   9.543   1.834   4.003 -1.0198 -0.1780 -2.7415
 4601SOL    HW224273   9.684   1.868   3.927  1.6828 -0.4331  1.9977
 4602SOL     OW24274   8.269   5.066   1.007 -0.0314  0.2965  0.1264
 4602SOL    HW124275   8.363   5.054   0.974  0.8591  2.9875  1.5037
 4602SOL    HW224276   8.216   5.117   0.938 -0.2199 -0.3981 -0.2449
 4603SOL     OW24277   9.651   5.807   0.969 -0.0622  0.0252  0.4544
 4603SOL    HW124278   9.744   5.812   1.005  0.1732 -2.1498  0.1983
 4603SOL    HW224279   9.651   5.831   0.872 -0.0403  1.6011  0.8258
 4604SOL     OW24280   7.681   7.923   1.932 -0.0484 -0.2731 -0.0718
 4604SOL    HW124281   7.637   7.971   2.007  0.4719 -0.2416  0.2164
 4604SOL    HW224282   7.620   7.922   1.852 -0.0508  0.9096 -0.0974
 4605SOL     OW24283   0.973   4.346   3.748  0.1136 -0.5163  0.0812
 4605SOL    HW124284   1.020   4.376   3.665  1.8448 -0.7071  0.9644
 4605SOL    HW224285   0.928   4.259   3.731  2.5009 -1.7661  0.0091
 4606SOL     OW24286   9.431   2.703   3.092  0.0690  1.0169 -0.2071
 4606SOL    HW124287   9.359   2.743   3.035  0.2828 -0.8904 -1.8855
 4606SOL    HW224288   9.417   2.604   3.100  3.1066  0.4062 -1.5529
 4607SOL     OW24289   9.487   0.567   4.024  0.0382 -0.1093  0.1953
 4607SOL    HW124290   9.502   0.472   4.052 -1.5124 -0.3479  0.2600
 4607SOL    HW224291   9.422   0.569   3.948  0.4510  0.8718 -0.1319
 4608SOL     OW24292   1.483   2.644   1.938 -0.0909  0.5060  0.1327
 4608SOL    HW124293   1.570   2.683   1.907  0.0355  0.4155  0.3758
 4608SOL    HW224294   1.457   2.684   2.026  1.4763 -2.0091  1.8028
 4609SOL     OW24295   1.571   9.300   0.158 -0.3810  0.0550 -0.2055
 4609SOL    HW124296   1.573   9.230   0.086 -1.5035 -0.1867 -0.0014
 4609SOL    HW224297   1.517   9.378   0.127  0.9650  0.8971 -0.4787
 4610SOL     OW24298   9.073   2.110   1.200 -0.4060 -1.0690 -0.0161
 4610SOL    HW124299   9.083   2.073   1.292 -0.0931  0.0105  0.3903
 4610SOL    HW224300   9.151   2.084   1.144 -0.0626 -0.8130  0.3425
 4611SOL     OW24301   8.604   0.269   1.398 -0.4385  0.5146 -0.8763
 4611SOL    HW124302   8.687   0.235   1.441  0.0025 -0.5542 -2.5308
 4611SOL    HW224303   8.566   0.343   1.453  1.3090  0.6542  0.1787
 4612SOL     OW24304   3.224   9.712   1.119  0.0071 -0.3039  0.0115
 4612SOL    HW124305   3.242   9.718   1.217 -1.8948  0.3198  0.3552
 4612SOL    HW224306   3.199   9.619   1.095 -0.7463 -0.1984  0.3617
 4613SOL     OW24307   8.492   8.646   1.182 -0.3046  0.0592  0.2105
 4613SOL    HW124308   8.443   8.646   1.095 -1.4089 -1.5770  0.8121
 4613SOL    HW224309   8.589   8.634   1.166 -0.3255  1.2040 -0.8669
 4614SOL     OW24310   1.764   4.503   3.305 -0.6119 -0.2491  0.2438
 4614SOL    HW124311   1.780   4.510   3.207 -1.1965 -0.3905  0.1372
 4614SOL    HW224312   1.702   4.426   3.324  0.9149 -1.3567  0.8783
 4615SOL     OW24313   4.034   7.459   1.658  0.2056  0.2285  0.7560
 4615SOL    HW124314   4.070   7.404   1.734 -0.6296 -0.0024  0.9886
 4615SOL    HW224315   4.023   7.401   1.578  0.9639  0.4451  0.4944
 4616SOL     OW24316   5.368   9.715   2.935  0.3214 -1.4451  1.0928
 4616SOL    HW124317   5.390   9.629   2.889  0.4553  0.1847 -1.9601
 4616SOL    HW224318   5.431   9.786   2.905 -1.7999  0.4957  1.1334
 4617SOL     OW24319   7.803   6.193   3.480  0.5524  0.1474  0.5377
 4617SOL    HW124320   7.875   6.124   3.466  1.1256  0.9913 -0.7882
 4617SOL    HW224321   7.830   6.253   3.556  0.6171 -0.3444  0.9099
 4618SOL     OW24322   3.119   0.341   0.981  0.5710 -0.1074  0.0400
 4618SOL    HW124323   3.104   0.248   0.947  0.9088 -0.8441  1.8259
 4618SOL    HW224324   3.082   0.407   0.917 -0.0576 -1.4992 -1.0470
 4619SOL     OW24325   8.589   1.386   2.344 -0.3004 -0.1625  0.2362
 4619SOL    HW124326   8.503   1.377   2.294 -0.6804  2.1634  0.4306
 4619SOL    HW224327   8.659   1.329   2.301 -2.3783 -3.6602  1.2074
 4620SOL     OW24328   0.790   7.037   2.177 -0.1652 -0.2722  0.3526
 4620SOL    HW124329   0.808   7.136   2.184 -0.0218 -0.1852 -1.0775
 4620SOL    HW224330   0.755   7.016   2.086 -1.5889 -1.3463  1.1108
 4621SOL     OW24331   1.758   1.511   3.094 -0.5264 -0.5486  0.8361
 4621SOL    HW124332   1.724   1.439   3.154 -0.3738 -1.2918  0.0425
 4621SOL    HW224333   1.717   1.500   3.003 -0.5096  0.3727  0.7183
 4622SOL     OW24334   8.183   7.118   1.749  0.3031 -0.0617 -0.2940
 4622SOL    HW124335   8.240   7.116   1.832  2.3456  0.6625 -1.6248
 4622SOL    HW224336   8.178   7.211   1.715 -0.3975 -0.3829 -1.0786
 4623SOL     OW24337   0.624   2.936   1.816 -0.2505 -0.0282  0.6716
 4623SOL    HW124338   0.532   2.975   1.815  0.2191  1.1389 -2.0964
 4623SOL    HW224339   0.666   2.951   1.905 -1.9678  1.2656  1.2854
 4624SOL     OW24340   5.495   9.776   2.506 -0.5518  0.3385 -0.2109
 4624SOL    HW124341   5.528   9.702   2.447 -0.3242 -0.0715  0.4188
 4624SOL    HW224342   5.405   9.806   2.475 -0.1837  0.5204 -1.1118
 4625SOL     OW24343   7.007   8.999   2.013  0.0427  0.3405  0.1034
 4625SOL    HW124344   7.022   8.936   1.937  0.0449  1.2803 -0.6877
 4625SOL    HW224345   6.940   8.961   2.076 -0.6324 -0.0363 -0.8401
 4626SOL     OW24346   4.224   2.738   2.175  0.3479 -0.3402 -0.2068
 4626SOL    HW124347   4.288   2.670   2.139  0.2244  0.8580 -2.8067
 4626SOL    HW224348   4.275   2.816   2.211  0.4032 -0.6434  0.3898
 4627SOL     OW24349   8.028   9.479   0.422 -0.0769 -0.5316 -0.5205
 4627SOL    HW124350   8.034   9.578   0.412  0.2802 -0.3420  1.3680
 4627SOL    HW224351   8.117   9.442   0.450 -0.4474 -1.2620 -0.2753
 4628SOL     OW24352   7.725   1.111   1.161  0.2721 -0.2080 -0.3768
 4628SOL    HW124353   7.659   1.038   1.144 -0.0119 -0.1625  0.5318
 4628SOL    HW224354   7.754   1.109   1.257 -0.8288  1.7777  0.0256
 4629SOL     OW24355   2.265   1.076   3.122  0.1462  0.7289  0.4441
 4629SOL    HW124356   2.299   1.085   3.216 -1.0360  1.5266  0.8055
 4629SOL    HW224357   2.235   1.165   3.089 -0.3117  0.2771 -0.3630
 4630SOL     OW24358   7.029   9.116   2.761  0.3467 -0.0407 -0.2157
 4630SOL    HW124359   6.983   9.150   2.843 -1.8783 -2.1297 -0.5360
 4630SOL    HW224360   7.052   9.193   2.701 -2.0354  1.1435  0.3379
 4631SOL     OW24361   3.223   5.339   3.187  0.0007 -0.1035  0.5586
 4631SOL    HW124362   3.135   5.292   3.199 -0.2299  0.2282  0.2100
 4631SOL    HW224363   3.269   5.348   3.275  0.2409 -1.3491  0.5659
 4632SOL     OW24364   0.634   4.775   1.178 -0.3643 -0.0545  0.3084
 4632SOL    HW124365   0.578   4.699   1.214 -0.3147 -1.4894 -2.5359
 4632SOL    HW224366   0.729   4.745   1.168 -0.0474  0.8554  0.5258
 4633SOL     OW24367   8.851   9.281   3.667  0.1672  0.0360  0.3885
 4633SOL    HW124368   8.817   9.373   3.650  0.1523 -0.2656 -1.2694
 4633SOL    HW224369   8.790   9.214   3.626  0.8301 -0.6629  0.5195
 4634SOL     OW24370   1.825   9.414   0.169 -0.5422  0.4821  0.3916
 4634SOL    HW124371   1.831   9.477   0.247  0.5788 -0.6983  1.2945
 4634SOL    HW224372   1.735   9.372   0.167  1.1265 -3.8216  4.6044
 4635SOL     OW24373   9.030   5.192   2.588  0.5293 -0.5519  0.5104
 4635SOL    HW124374   8.998   5.206   2.494 -0.1199 -0.3115  0.7702
 4635SOL    HW224375   8.974   5.122   2.633  1.1061 -0.9711  0.5827
 4636SOL     OW24376   9.897   1.378   3.535 -0.1475 -0.1480  0.4199
 4636SOL    HW124377   9.833   1.448   3.566 -0.5476 -0.8963  1.3275
 4636SOL    HW224378   9.989   1.416   3.529 -0.2408  0.2641  1.6129
 4637SOL     OW24379   8.294   4.838   2.101 -0.0523  0.1183  1.0128
 4637SOL    HW124380   8.290   4.753   2.154 -0.2367 -1.5471 -1.5954
 4637SOL    HW224381   8.234   4.831   2.022  0.4161  2.4540  0.4181
 4638SOL     OW24382   3.236   9.109   0.656  0.0582 -0.0696  0.0572
 4638SOL    HW124383   3.335   9.121   0.662  0.2321 -0.4345 -1.6792
 4638SOL    HW224384   3.211   9.089   0.561 -1.6504 -0.2510  0.5301
 4639SOL     OW24385   1.684   0.778   1.876  0.4860 -0.2474 -0.6710
 4639SOL    HW124386   1.610   0.764   1.810  1.9094  0.0714 -2.3541
 4639SOL    HW224387   1.728   0.866   1.858  1.3489 -0.4807  0.2723
 4640SOL     OW24388   3.938   8.348   3.011  0.2184 -0.0719  0.9009
 4640SOL    HW124389   3.875   8.346   2.933  0.0348 -1.3018  1.0569
 4640SOL    HW224390   3.936   8.438   3.053  1.3431  1.0423 -1.3382
 4641SOL     OW24391   6.542   8.749   2.027 -0.2013 -0.3352  0.2383
 4641SOL    HW124392   6.494   8.743   2.115  0.1511  0.3874  0.4809
 4641SOL    HW224393   6.536   8.660   1.980  0.2781 -0.9595  1.3341
 4642SOL     OW24394   7.775   9.953   0.646  0.5676 -0.4580 -0.3073
 4642SOL    HW124395   7.842   9.894   0.691  0.4285  0.2075  0.7837
 4642SOL    HW224396   7.690   9.953   0.699  1.1944  2.2261  0.7838
 4643SOL     OW24397   8.863   2.685   0.436  0.3375 -0.5509 -0.0493
 4643SOL    HW124398   8.792   2.718   0.373  1.1402 -1.5371 -1.4945
 4643SOL    HW224399   8.821   2.625   0.504 -0.7122  1.3546  1.0446
 4644SOL     OW24400   9.937   8.688   0.022  0.3616 -0.2095 -0.0928
 4644SOL    HW124401   9.953   8.593  -0.006  2.6633 -0.1054  0.7660
 4644SOL    HW224402   9.896   8.689   0.113  0.2567 -0.3967 -0.1374
 4645SOL     OW24403   1.804   2.112   1.581 -0.5781  0.9994 -0.1948
 4645SOL    HW124404   1.727   2.077   1.527 -0.3752 -0.7906  0.6305
 4645SOL    HW224405   1.887   2.111   1.526 -0.3601 -0.8696  0.1183
 4646SOL     OW24406   9.227   8.793   1.431 -0.2604 -0.0617 -0.2246
 4646SOL    HW124407   9.161   8.805   1.505 -1.6113 -0.9808 -1.2389
 4646SOL    HW224408   9.296   8.865   1.435 -0.3221 -0.0986  1.9074
 4647SOL     OW24409   9.950   1.607   3.989  0.5577 -0.1674 -0.2402
 4647SOL    HW124410   9.932   1.517   4.029 -1.9426 -0.3246 -1.6060
 4647SOL    HW224411   9.945   1.677   4.061 -1.6231 -0.6884  0.1469
 4648SOL     OW24412   3.485   1.412   1.405 -0.3362  0.1721 -0.0112
 4648SOL    HW124413   3.571   1.447   1.443 -0.2579 -1.5777  1.4927
 4648SOL    HW224414   3.499   1.317   1.376 -1.9809 -0.4090  1.0594
 4649SOL     OW24415   7.123   0.102   3.390  0.4904  0.2300  0.6745
 4649SOL    HW124416   7.038   0.150   3.414  0.2282  0.2441 -0.2615
 4649SOL    HW224417   7.166   0.067   3.473 -2.1103 -2.6335  0.8792
 4650SOL     OW24418   1.022   5.691   3.838  0.3524 -0.0315  0.1757
 4650SOL    HW124419   0.935   5.738   3.850  1.2258  1.7254 -0.2439
 4650SOL    HW224420   1.015   5.625   3.764 -0.6121  0.1155  0.1338
 4651SOL     OW24421   8.209   6.000   2.471 -0.4304  0.0887  0.0097
 4651SOL    HW124422   8.257   6.080   2.507 -0.8186 -0.4463  1.7597
 4651SOL    HW224423   8.269   5.921   2.475 -1.1131 -0.3745  1.2813
 4652SOL     OW24424   1.938   3.572   0.224  0.7901 -0.2327 -0.7851
 4652SOL    HW124425   1.934   3.595   0.126  0.2647 -0.2287 -0.7644
 4652SOL    HW224426   2.033   3.580   0.256  0.7128  1.4642 -0.8954
 4653SOL     OW24427   7.408   7.850   2.668 -0.3398 -0.0758  0.1885
 4653SOL    HW124428   7.490   7.796   2.652  0.0325  0.5898 -0.1603
 4653SOL    HW224429   7.329   7.803   2.629  0.1991  0.3192 -1.4071
 4654SOL     OW24430   4.817   2.133   1.917  0.9839  0.1175  0.0853
 4654SOL    HW124431   4.730   2.091   1.941 -0.0409  1.5167 -1.0510
 4654SOL    HW224432   4.852   2.092   1.833  0.5094  0.7577 -0.4390
 4655SOL     OW24433   0.092   6.847   3.662  0.1232 -0.2888 -0.7252
 4655SOL    HW124434   0.125   6.940   3.679 -1.6121  0.2180  0.0017
 4655SOL    HW224435   0.024   6.848   3.589 -2.2766 -0.4440  1.4014
 4656SOL     OW24436   3.033   8.336   1.403  0.3681  0.5274 -0.0517
 4656SOL    HW124437   2.972   8.363   1.478 -0.8981 -0.5772 -0.6510
 4656SOL    HW224438   3.043   8.236   1.404  0.5551  0.5370 -1.1919
 4657SOL     OW24439   2.564   0.475   3.906  0.1642 -0.0917 -0.2073
 4657SOL    HW124440   2.545   0.402   3.840 -1.5986  0.6380 -0.5100
 4657SOL    HW224441   2.570   0.435   3.998 -0.1847 -0.7027 -0.4468
 4658SOL     OW24442   1.450   3.234   3.490  0.3188  0.2423 -0.2581
 4658SOL    HW124443   1.400   3.218   3.574  1.2682 -2.4608 -0.1714
 4658SOL    HW224444   1.448   3.152   3.433  1.0259  1.5103 -2.1682
 4659SOL     OW24445   3.303   5.230   1.531  0.0917  0.1612 -0.6134
 4659SOL    HW124446   3.378   5.163   1.537 -0.3839 -0.3608 -0.4275
 4659SOL    HW224447   3.282   5.264   1.623 -1.8203 -1.8496 -0.2583
 4660SOL     OW24448   8.600   6.292   0.468  0.2671 -0.3809  0.2752
 4660SOL    HW124449   8.675   6.352   0.439  1.2189 -2.5831 -2.0550
 4660SOL    HW224450   8.515   6.324   0.428  0.7794 -0.5434 -0.9954
 4661SOL     OW24451   2.848   0.709   0.505  0.1465 -0.4132  0.0759
 4661SOL    HW124452   2.812   0.625   0.465 -1.7260  0.8498 -0.9845
 4661SOL    HW224453   2.778   0.780   0.500  1.6037  1.1325  1.2191
 4662SOL     OW24454   3.698   1.113   0.451  0.2492 -0.0588  0.1063
 4662SOL    HW124455   3.709   1.191   0.390 -0.5066 -0.0387 -0.0135
 4662SOL    HW224456   3.629   1.134   0.521  0.1354 -0.5619  0.1523
 4663SOL     OW24457   9.359   9.196   2.585 -0.0878 -0.0741 -0.4777
 4663SOL    HW124458   9.371   9.201   2.684 -0.1970  0.7694 -0.5003
 4663SOL    HW224459   9.313   9.111   2.561  3.0392 -1.9411 -0.1056
 4664SOL     OW24460   0.511   9.169   0.379 -0.8025  0.0069 -0.1034
 4664SOL    HW124461   0.513   9.082   0.428  0.1355  0.5331  0.8252
 4664SOL    HW224462   0.556   9.158   0.290  0.5204 -0.1344  0.5733
 4665SOL     OW24463   8.823   0.908   1.627 -0.3465 -0.3782  0.6205
 4665SOL    HW124464   8.780   0.999   1.631  0.0268 -0.2248  1.1712
 4665SOL    HW224465   8.902   0.912   1.566 -1.6628 -0.8970 -1.1661
 4666SOL     OW24466   8.037   2.177   0.227  0.6571 -0.3306  0.3733
 4666SOL    HW124467   7.979   2.113   0.177 -0.0413  0.4332  0.2057
 4666SOL    HW224468   7.981   2.248   0.268  1.4215  0.1147  0.6610
 4667SOL     OW24469   9.750   7.314   0.274 -0.0691  0.1606  0.9430
 4667SOL    HW124470   9.765   7.237   0.211 -0.2749 -0.1486  1.2698
 4667SOL    HW224471   9.762   7.400   0.225 -3.3832 -0.0381 -0.3212
 4668SOL     OW24472   7.952   6.528   4.027 -0.1377 -0.2381 -0.1287
 4668SOL    HW124473   7.866   6.575   4.048  1.1408  1.4033  1.6762
 4668SOL    HW224474   7.979   6.549   3.933 -1.2169 -0.0038 -0.3957
 4669SOL     OW24475   0.354   6.059   0.346  0.0950  0.1733 -0.5509
 4669SOL    HW124476   0.295   6.139   0.357  0.3912  0.4553 -0.9995
 4669SOL    HW224477   0.373   6.019   0.436  0.8937  1.3070 -0.1962
 4670SOL     OW24478   8.437   2.914   2.843 -0.0093 -0.3111  0.0466
 4670SOL    HW124479   8.532   2.889   2.861 -0.1026 -0.6054  0.1293
 4670SOL    HW224480   8.416   3.001   2.889 -0.0123 -0.6500  0.6904
 4671SOL     OW24481   1.252   5.987   3.837  0.1896  0.4422  0.1780
 4671SOL    HW124482   1.156   6.010   3.851  0.6399  2.3780  0.2320
 4671SOL    HW224483   1.259   5.892   3.805 -1.6444 -0.0753  1.2255
 4672SOL     OW24484   2.862   8.039   1.635  0.1421 -0.0186  0.7667
 4672SOL    HW124485   2.786   8.101   1.618  0.4079  0.3125  0.7904
 4672SOL    HW224486   2.923   8.078   1.704  0.5003 -0.1434  0.5252
 4673SOL     OW24487   5.006   3.008   0.975 -0.1909 -0.5186  0.1317
 4673SOL    HW124488   4.933   2.954   0.932 -0.4019  0.5907 -0.9097
 4673SOL    HW224489   5.008   2.989   1.074 -0.5297 -2.1187 -0.1580
 4674SOL     OW24490   0.430   1.342   0.868  0.1803  0.0144  0.1717
 4674SOL    HW124491   0.428   1.298   0.778  0.8971  1.5513 -0.5912
 4674SOL    HW224492   0.348   1.314   0.919  0.7319 -2.4242 -0.1826
 4675SOL     OW24493   8.459   9.117   1.965  0.1837 -0.3059  0.3286
 4675SOL    HW124494   8.429   9.023   1.982  0.8546 -0.7381 -0.7936
 4675SOL    HW224495   8.538   9.116   1.904 -1.1242  1.0878 -1.4243
 4676SOL     OW24496   0.509   9.921   0.389 -0.2077  0.4790 -0.2121
 4676SOL    HW124497   0.595   9.951   0.430  0.7145 -0.6626 -1.2918
 4676SOL    HW224498   0.509   9.944   0.292 -0.0141 -1.8662 -0.7779
 4677SOL     OW24499   3.185   0.804   0.129 -0.1428  0.0597 -0.0107
 4677SOL    HW124500   3.109   0.753   0.089  1.0086 -2.7876  1.3304
 4677SOL    HW224501   3.178   0.803   0.229  1.4300  0.1192  0.1139
 4678SOL     OW24502   8.052   8.033   0.350 -0.8494  0.3138 -0.4691
 4678SOL    HW124503   8.089   8.118   0.386  1.1031 -0.2002 -1.1893
 4678SOL    HW224504   8.040   7.967   0.424  1.0279  0.0174 -0.4053
 4679SOL     OW24505   2.810   7.902   3.880  0.2623 -0.4343  0.5145
 4679SOL    HW124506   2.868   7.859   3.810  2.2391  1.3369  0.9852
 4679SOL    HW224507   2.841   7.875   3.971  0.5918  0.7680  0.7776
 4680SOL     OW24508   0.792   1.842   1.942  0.2251  0.0072 -0.3117
 4680SOL    HW124509   0.782   1.815   2.038  0.9527 -1.0817 -0.5354
 4680SOL    HW224510   0.802   1.760   1.886  2.5181  0.7378 -1.0030
 4681SOL     OW24511   2.454   3.426   1.003 -0.1902 -0.4745  0.1071
 4681SOL    HW124512   2.390   3.372   0.948  0.0656  0.7190 -1.4055
 4681SOL    HW224513   2.456   3.520   0.968  2.0898 -0.4001  0.3939
 4682SOL     OW24514   8.703   1.705   1.801 -0.3484  0.1229 -0.0661
 4682SOL    HW124515   8.732   1.781   1.857  1.2241  0.6888 -1.6177
 4682SOL    HW224516   8.682   1.626   1.859 -0.0458  1.1084  1.3881
 4683SOL     OW24517   9.301   5.360   0.773 -0.1278  0.0524 -0.2500
 4683SOL    HW124518   9.344   5.424   0.837  2.1136  0.8555 -2.4640
 4683SOL    HW224519   9.341   5.372   0.682 -2.6176 -1.6641 -1.6339
 4684SOL     OW24520   2.825   7.296   1.778  0.2402 -0.0686  0.1844
 4684SOL    HW124521   2.825   7.308   1.678 -3.0000  1.7789  0.3421
 4684SOL    HW224522   2.746   7.242   1.805 -0.5559  1.9143  1.9794
 4685SOL     OW24523   7.056   0.385   3.583  0.0112  0.1137 -0.3253
 4685SOL    HW124524   6.975   0.356   3.533 -0.8418  1.9836 -0.0721
 4685SOL    HW224525   7.029   0.439   3.663  1.5137  2.3157 -1.2365
 4686SOL     OW24526   1.842   3.704   2.355 -0.3745 -0.4037  0.1432
 4686SOL    HW124527   1.749   3.722   2.388 -0.2594  0.3420  0.0716
 4686SOL    HW224528   1.885   3.790   2.329 -0.1373 -0.8863 -1.0929
 4687SOL     OW24529   1.710   4.189   3.112  0.3885 -0.0854  0.0863
 4687SOL    HW124530   1.738   4.122   3.043 -2.4845 -2.0634  0.7632
 4687SOL    HW224531   1.746   4.161   3.202 -0.4554 -0.5267  0.2949
 4688SOL     OW24532   0.176   6.481   1.108 -0.2300 -0.5260  0.2453
 4688SOL    HW124533   0.126   6.478   1.022  0.3407 -1.6380 -0.0553
 4688SOL    HW224534   0.160   6.569   1.152  0.3139  0.4812 -1.5105
 4689SOL     OW24535   4.397   1.038   0.602 -0.1825  0.0763  0.1565
 4689SOL    HW124536   4.304   1.073   0.597  0.8957  2.8417 -1.5784
 4689SOL    HW224537   4.422   0.996   0.514  0.4915  0.0585  0.3487
 4690SOL     OW24538   1.634   3.048   2.433 -0.2468 -0.2606 -0.3594
 4690SOL    HW124539   1.581   2.998   2.502 -0.0922 -0.8503 -0.6620
 4690SOL    HW224540   1.594   3.139   2.420  0.4591  0.3273  1.3872
 4691SOL     OW24541   9.513   3.976   0.180 -0.2879 -0.5709  0.7347
 4691SOL    HW124542   9.437   4.029   0.219  0.2721  2.3373 -1.9568
 4691SOL    HW224543   9.479   3.887   0.151 -2.0823 -0.3454  1.9810
 4692SOL     OW24544   3.958   2.764   2.087 -0.0006  0.2503 -0.3268
 4692SOL    HW124545   3.922   2.851   2.054  0.2694  0.7392  0.6740
 4692SOL    HW224546   4.053   2.775   2.115  0.6362 -0.8009 -1.9747
 4693SOL     OW24547   7.576   0.019   3.218  0.7321 -0.2054  0.2268
 4693SOL    HW124548   7.551   0.109   3.181  0.6917 -0.1071  0.4937
 4693SOL    HW224549   7.664  -0.009   3.181  0.1992 -0.5885 -0.7789
 4694SOL     OW24550   8.545   8.517   2.929  0.3075  0.0223 -0.0376
 4694SOL    HW124551   8.631   8.475   2.958  0.0748  0.3616  1.1850
 4694SOL    HW224552   8.521   8.484   2.838  0.6838 -1.6508  0.4536
 4695SOL     OW24553   8.951   2.429   3.488  0.2713 -0.0461 -0.3018
 4695SOL    HW124554   8.910   2.437   3.397  0.8159 -0.7033 -0.6125
 4695SOL    HW224555   8.879   2.428   3.558 -0.1062  1.4562 -0.6425
 4696SOL     OW24556   9.814   4.987   1.230 -0.0006  0.2766  0.8356
 4696SOL    HW124557   9.844   5.074   1.270 -1.1621 -0.2357  2.8827
 4696SOL    HW224558   9.829   4.914   1.296 -0.7460 -0.7993 -0.1817
 4697SOL     OW24559   8.450   1.774   1.756  0.3855 -0.0634  0.0522
 4697SOL    HW124560   8.544   1.740   1.760  0.2319 -0.3205  2.1386
 4697SOL    HW224561   8.388   1.697   1.739  0.3857 -0.2212  0.7431
 4698SOL     OW24562   3.443   8.299   2.490 -0.2945  0.2119 -0.0284
 4698SOL    HW124563   3.518   8.330   2.430  0.3925 -2.7358 -0.8191
 4698SOL    HW224564   3.356   8.326   2.450  0.0992 -2.6238 -3.0783
 4699SOL     OW24565   8.154   5.114   3.886 -0.0521  0.3156  0.1893
 4699SOL    HW124566   8.085   5.178   3.921 -1.2655  0.0338 -1.6219
 4699SOL    HW224567   8.244   5.139   3.922 -0.8896  1.5511  1.4532
 4700SOL     OW24568   5.096   9.556   2.857 -0.1860  0.6898  0.2531
 4700SOL    HW124569   5.109   9.642   2.907 -1.8702  0.2290  1.5501
 4700SOL    HW224570   5.177   9.536   2.802  0.9640  2.1715  1.3728
 4701SOL     OW24571   9.010   5.011   0.839  0.0975  0.0731  0.0353
 4701SOL    HW124572   9.045   4.940   0.778  0.3349  1.7195 -1.7849
 4701SOL    HW224573   9.025   5.100   0.798 -1.5351  1.1068  1.6296
 4702SOL     OW24574   8.495   5.840   2.344  0.4581  0.0117  0.1384
 4702SOL    HW124575   8.457   5.821   2.435  1.9474  0.4181  0.8546
 4702SOL    HW224576   8.426   5.818   2.274 -0.9564  0.4004  1.3875
 4703SOL     OW24577   9.483   0.758   1.360 -0.3739 -0.0670 -0.0871
 4703SOL    HW124578   9.450   0.755   1.266 -0.7690  0.1083  0.0455
 4703SOL    HW224579   9.578   0.725   1.364 -0.5687 -0.6718 -0.4548
 4704SOL     OW24580   1.602   5.857   0.207 -0.7542 -0.5288 -0.1081
 4704SOL    HW124581   1.680   5.809   0.247 -0.3039 -0.7133 -1.1742
 4704SOL    HW224582   1.521   5.842   0.262  0.4677  1.6881  2.4088
 4705SOL     OW24583   2.021   5.939   1.903  0.5072  0.3767  0.2812
 4705SOL    HW124584   2.090   5.867   1.909 -0.2390 -0.3348  0.3477
 4705SOL    HW224585   1.936   5.908   1.945 -1.1599 -0.3089 -3.4407
 4706SOL     OW24586   4.404   4.072   0.896  0.4609  0.6305  0.0712
 4706SOL    HW124587   4.337   4.116   0.836  0.8727  0.3976 -0.5652
 4706SOL    HW224588   4.473   4.025   0.840  0.5743  0.0059  0.7275
 4707SOL     OW24589   8.362   2.856   0.341 -0.2830 -0.3747  0.1228
 4707SOL    HW124590   8.415   2.773   0.353  1.2206  0.5870  0.2613
 4707SOL    HW224591   8.378   2.918   0.418 -0.4131  0.5554 -0.5835
 4708SOL     OW24592   6.748   7.211   3.205  0.3856 -0.2377 -0.0069
 4708SOL    HW124593   6.830   7.266   3.221  0.5861 -0.0976 -1.3963
 4708SOL    HW224594   6.672   7.247   3.260  0.9777  0.3023  0.4676
 4709SOL     OW24595   2.345   4.109   1.098  0.2956  0.0115 -0.5970
 4709SOL    HW124596   2.272   4.085   1.162  0.4712  0.3596 -0.2594
 4709SOL    HW224597   2.387   4.026   1.062  0.8156 -0.1956  0.4599
 4710SOL     OW24598   9.140   3.133   4.024  0.0525  0.2371 -0.0949
 4710SOL    HW124599   9.075   3.105   3.954 -0.1097  1.1252 -0.3071
 4710SOL    HW224600   9.091   3.151   4.110  0.3176 -1.3613  0.3950
 4711SOL     OW24601   8.273   4.602   0.245 -0.0794  0.7356  0.3127
 4711SOL    HW124602   8.207   4.665   0.286 -0.4256 -0.2974  1.3694
 4711SOL    HW224603   8.224   4.536   0.188  0.0768  0.2200  0.7716
 4712SOL     OW24604   2.196   5.614   0.449 -0.4437  0.2803  0.0993
 4712SOL    HW124605   2.250   5.695   0.471  0.3988 -0.5640  1.2104
 4712SOL    HW224606   2.257   5.537   0.431 -1.1733  0.3088 -2.8148
 4713SOL     OW24607   2.302   0.821   1.611  0.1122  0.0397  0.1193
 4713SOL    HW124608   2.290   0.798   1.514 -0.4095 -1.9497  0.6502
 4713SOL    HW224609   2.248   0.903   1.632 -0.9750 -0.3977 -0.9107
 4714SOL     OW24610   0.208   7.436   2.339  0.4264  0.0925 -0.6605
 4714SOL    HW124611   0.151   7.460   2.261 -0.1881  0.5379 -0.0832
 4714SOL    HW224612   0.159   7.372   2.399 -0.7474  2.8927  1.4737
 4715SOL     OW24613   0.084   6.858   3.164 -0.5401 -0.3371 -0.1553
 4715SOL    HW124614   0.134   6.879   3.080  0.5320  1.6206  0.9400
 4715SOL    HW224615   0.128   6.781   3.210 -1.2105 -1.5078 -1.4221
 4716SOL     OW24616   7.535   8.422   1.458 -0.1078 -0.1903 -0.2934
 4716SOL    HW124617   7.514   8.487   1.531 -0.7757 -1.0523  0.2833
 4716SOL    HW224618   7.618   8.371   1.483  0.0441 -0.0163 -0.4434
 4717SOL     OW24619   3.821   8.626   0.871 -0.2885 -0.1899 -0.1712
 4717SOL    HW124620   3.770   8.544   0.843 -0.4545 -0.0111 -0.3900
 4717SOL    HW224621   3.763   8.707   0.860 -1.1017 -0.3167  2.5646
 4718SOL     OW24622   4.303   3.450   2.976 -0.2478 -0.2462  0.3095
 4718SOL    HW124623   4.320   3.449   2.877 -0.2279 -0.4509  0.3143
 4718SOL    HW224624   4.249   3.369   3.001 -0.2025 -0.2251  0.4755
 4719SOL     OW24625   0.412   9.120   1.014 -0.5705  0.5442 -0.1919
 4719SOL    HW124626   0.484   9.173   0.970 -0.8378  0.4961 -0.6856
 4719SOL    HW224627   0.437   9.103   1.110 -0.6097  1.7987  0.0414
 4720SOL     OW24628   2.091   9.718   3.505 -0.3727  0.0505 -0.2658
 4720SOL    HW124629   2.036   9.636   3.514 -0.8883  0.3758 -0.4361
 4720SOL    HW224630   2.172   9.698   3.450 -1.3355  0.0578 -1.7185
 4721SOL     OW24631   7.692   5.122   1.474  0.0691  0.2771 -0.1698
 4721SOL    HW124632   7.768   5.187   1.475  0.1944  0.1749 -2.0154
 4721SOL    HW224633   7.679   5.085   1.566 -0.3631  3.3006  1.0352
 4722SOL     OW24634   9.744   2.757   2.417 -0.0488  0.3154 -0.2734
 4722SOL    HW124635   9.757   2.743   2.515  1.8469  2.4555 -0.1733
 4722SOL    HW224636   9.831   2.743   2.370 -0.3218  1.9717 -1.2997
 4723SOL     OW24637   8.880   5.010   2.738  0.4409  0.1869 -0.5187
 4723SOL    HW124638   8.845   5.083   2.796  2.0393  1.4489 -1.1148
 4723SOL    HW224639   8.911   4.934   2.796  0.6727  0.8209  0.2009
 4724SOL     OW24640   7.770   0.787   0.811  0.1337  0.6213 -0.4374
 4724SOL    HW124641   7.699   0.720   0.789  0.7971 -0.4352  0.6533
 4724SOL    HW224642   7.855   0.741   0.833  0.0230  1.6909  2.4898
 4725SOL     OW24643   9.010   8.854   2.721  0.4146 -0.6558  0.2757
 4725SOL    HW124644   8.942   8.804   2.774 -0.2236  0.6427  0.7017
 4725SOL    HW224645   8.973   8.876   2.631 -0.2836  1.2682  0.9995
 4726SOL     OW24646   0.342   7.592   3.364 -0.2538 -0.0976  0.2683
 4726SOL    HW124647   0.391   7.667   3.320 -0.8777 -0.4582 -1.0755
 4726SOL    HW224648   0.394   7.559   3.442  0.6298  0.9039  0.1068
 4727SOL     OW24649   0.074   9.046   3.471  0.3650  0.3161 -0.0520
 4727SOL    HW124650   0.138   9.033   3.547 -0.0489  1.0621  0.4353
 4727SOL    HW224651   0.105   9.122   3.414  0.2906  0.2256 -0.2108
 4728SOL     OW24652   4.238   0.865   3.573 -0.8392  0.2699  0.3359
 4728SOL    HW124653   4.318   0.827   3.526 -1.8080 -0.4759 -0.7367
 4728SOL    HW224654   4.251   0.963   3.586  0.1011  0.2196 -0.1335
 4729SOL     OW24655   0.920   7.847   0.048 -0.1103  0.5477  0.5470
 4729SOL    HW124656   1.007   7.819   0.089 -1.1295 -2.2326  0.9337
 4729SOL    HW224657   0.847   7.840   0.116 -1.4085 -1.7759 -1.0389
 4730SOL     OW24658   0.458   0.562   1.030 -0.2314  0.4770 -0.5619
 4730SOL    HW124659   0.545   0.522   0.999  0.7407  1.9871  0.1375
 4730SOL    HW224660   0.397   0.489   1.061  0.1345 -0.7525 -2.6133
 4731SOL     OW24661   3.942   8.211   3.299  0.1388 -0.0513 -0.1782
 4731SOL    HW124662   3.989   8.235   3.214  0.4844  0.2207  0.0862
 4731SOL    HW224663   3.880   8.285   3.323 -0.5547 -0.4857 -0.6180
 4732SOL     OW24664   8.375   9.969   1.183 -0.2003  0.7629 -0.3669
 4732SOL    HW124665   8.382   9.982   1.282  2.5840 -2.7980 -0.0178
 4732SOL    HW224666   8.306   9.899   1.163 -0.7099  1.4227 -0.9627
 4733SOL     OW24667   0.173   8.154   2.680  0.1128 -0.0376  0.6698
 4733SOL    HW124668   0.245   8.128   2.745  0.1583 -0.7791  0.3235
 4733SOL    HW224669   0.178   8.096   2.599  0.7064  1.5566 -0.4718
 4734SOL     OW24670   8.650   3.572   0.997  0.1731  0.1274 -0.6362
 4734SOL    HW124671   8.734   3.625   0.985 -0.1724  0.5718 -1.1684
 4734SOL    HW224672   8.575   3.634   1.019 -0.4271 -0.0232 -2.1933
 4735SOL     OW24673   0.930   6.448   0.121  0.1284 -0.3990  0.1648
 4735SOL    HW124674   1.002   6.517   0.115 -1.7423  1.6016 -0.1476
 4735SOL    HW224675   0.841   6.493   0.116 -1.1672 -2.7363  1.2652
 4736SOL     OW24676   3.464   2.669   0.895 -0.3226  0.4780  0.0332
 4736SOL    HW124677   3.380   2.696   0.942  0.5080  3.2376  0.0009
 4736SOL    HW224678   3.444   2.598   0.828 -2.6582  1.2431 -0.0996
 4737SOL     OW24679   2.154   1.321   0.947  0.5822  0.4200 -0.0004
 4737SOL    HW124680   2.128   1.325   0.850  0.5083 -0.9202 -0.0439
 4737SOL    HW224681   2.247   1.286   0.954  0.4443  0.1516  0.4410
 4738SOL     OW24682   1.813   8.293   0.136  0.1807  0.4969  0.7070
 4738SOL    HW124683   1.731   8.330   0.178  0.3429  0.2724  1.2276
 4738SOL    HW224684   1.855   8.227   0.198  1.4609  1.5630  0.9951
 4739SOL     OW24685   8.724   7.427   2.514  0.7297 -0.1036  0.5824
 4739SOL    HW124686   8.763   7.349   2.465 -0.5680  0.3363 -1.1928
 4739SOL    HW224687   8.628   7.437   2.489  0.4068  0.9779  2.1908
 4740SOL     OW24688   4.629   9.457   0.304  0.3930 -0.8509  0.4914
 4740SOL    HW124689   4.641   9.415   0.215 -1.7135 -1.5559  0.5257
 4740SOL    HW224690   4.587   9.392   0.367  0.1093  0.2457  1.4622
 4741SOL     OW24691   2.655   8.211   1.666  0.6451  0.1454 -0.2375
 4741SOL    HW124692   2.647   8.182   1.761  0.9643  0.7336 -0.0301
 4741SOL    HW224693   2.569   8.252   1.636  0.7096  0.4089 -0.0550
 4742SOL     OW24694   0.858   0.649   3.559  0.2886  0.1457  0.2844
 4742SOL    HW124695   0.896   0.705   3.486  0.6947  0.7426  0.9389
 4742SOL    HW224696   0.894   0.556   3.552 -1.0513 -0.2622 -1.3094
 4743SOL     OW24697   0.887   4.184   1.248 -0.0002 -0.3358 -0.8257
 4743SOL    HW124698   0.924   4.277   1.246 -0.5038 -0.1098 -0.0740
 4743SOL    HW224699   0.936   4.130   1.317 -0.3174 -0.3620 -0.6197
 4744SOL     OW24700   4.219   2.001   2.447 -0.3215 -0.2177  0.2656
 4744SOL    HW124701   4.254   1.933   2.512 -0.4618 -0.6582 -0.1190
 4744SOL    HW224702   4.294   2.038   2.394 -0.1172  0.6057  1.1072
 4745SOL     OW24703   2.903   9.048   2.474 -0.1649 -0.1840  0.1620
 4745SOL    HW124704   2.869   9.137   2.505 -0.8550 -0.8659  1.3925
 4745SOL    HW224705   2.975   9.016   2.536  0.2900 -0.3589 -0.4456
 4746SOL     OW24706   8.664   7.730   2.759 -0.6440  0.2369  0.2943
 4746SOL    HW124707   8.629   7.636   2.758 -0.3040  0.1190 -1.4453
 4746SOL    HW224708   8.612   7.786   2.695 -0.6634  1.1829  1.1240
 4747SOL     OW24709   3.982   2.366   3.880 -0.3434  0.2880 -0.4353
 4747SOL    HW124710   3.944   2.292   3.824 -2.9979  0.3362  1.1904
 4747SOL    HW224711   3.966   2.346   3.976  1.0439  1.8649  0.1485
 4748SOL     OW24712   1.068   2.271   2.267  0.0723 -0.4376  0.2619
 4748SOL    HW124713   1.153   2.249   2.219 -0.7710 -3.5240  0.0514
 4748SOL    HW224714   1.040   2.192   2.322 -3.3999 -0.0172 -0.8116
 4749SOL     OW24715   4.146   8.531   3.468 -0.0109  0.1765 -0.3651
 4749SOL    HW124716   4.137   8.523   3.368  1.3367  0.1688 -0.4898
 4749SOL    HW224717   4.063   8.496   3.511 -0.4350 -0.2100 -1.4675
 4750SOL     OW24718   3.072   4.711   3.911  0.3779 -0.0074  0.4892
 4750SOL    HW124719   3.069   4.612   3.925 -1.3342 -0.2023 -1.0191
 4750SOL    HW224720   3.009   4.755   3.976  0.5888  0.0218  0.6729
 4751SOL     OW24721   9.089   0.989   0.896 -0.3956 -0.2314 -0.6017
 4751SOL    HW124722   8.991   0.982   0.913 -0.3795 -0.1210 -0.4598
 4751SOL    HW224723   9.112   0.937   0.813 -1.0598  2.1539 -2.3573
 4752SOL     OW24724   2.425   6.764   1.324  0.7738 -0.2433 -0.0148
 4752SOL    HW124725   2.464   6.754   1.233  1.8806 -0.9047  0.5193
 4752SOL    HW224726   2.454   6.852   1.363  1.9761 -0.8558  0.4899
 4753SOL     OW24727   1.673   0.810   0.024  0.3082  0.1952 -0.4884
 4753SOL    HW124728   1.597   0.843  -0.031  0.5852  2.3194  0.3394
 4753SOL    HW224729   1.638   0.759   0.103 -0.2223  0.5296 -0.5099
 4754SOL     OW24730   8.296   3.165   1.365  0.0886  0.0690  0.1867
 4754SOL    HW124731   8.314   3.136   1.459  0.4079  0.9084  0.3856
 4754SOL    HW224732   8.203   3.139   1.340 -0.1154  0.1443  0.8521
 4755SOL     OW24733   2.599   9.775   3.154  0.3394  0.4678  0.0450
 4755SOL    HW124734   2.529   9.839   3.120  0.8437  0.6970 -0.5899
 4755SOL    HW224735   2.675   9.827   3.191  1.0491  0.2469 -1.0865
 4756SOL     OW24736   8.699   4.084   2.312 -0.2271 -0.1373 -0.2743
 4756SOL    HW124737   8.769   4.151   2.286  1.1160 -0.6980  1.8139
 4756SOL    HW224738   8.687   4.017   2.239 -0.7841  1.6914 -1.9204
 4757SOL     OW24739   4.516   5.095   2.810 -0.7214 -0.1221  0.4963
 4757SOL    HW124740   4.588   5.158   2.839 -2.7381  0.9825  3.3284
 4757SOL    HW224741   4.557   5.018   2.759  2.4346  0.3872  2.1531
 4758SOL     OW24742   9.069   2.957   2.244 -0.4435  0.1500 -0.4047
 4758SOL    HW124743   8.988   2.902   2.223  0.3081  0.2865 -3.8773
 4758SOL    HW224744   9.150   2.899   2.241 -0.2978  0.0407  2.9460
 4759SOL     OW24745   5.013   8.845   2.678 -0.4873 -0.1078 -0.9436
 4759SOL    HW124746   4.915   8.860   2.690 -0.2437  0.8618 -0.0502
 4759SOL    HW224747   5.059   8.862   2.765  0.5470  0.0647 -1.5249
 4760SOL     OW24748   1.176   6.755   1.691  0.0039  0.2054 -0.4569
 4760SOL    HW124749   1.248   6.797   1.747 -0.4537 -0.4493  0.6393
 4760SOL    HW224750   1.087   6.793   1.718 -0.3428 -0.9562  0.0784
 4761SOL     OW24751   8.937   5.266   0.104 -0.6182  1.3038 -0.2063
 4761SOL    HW124752   8.861   5.280   0.041  0.3557  0.5486 -1.5775
 4761SOL    HW224753   8.978   5.355   0.125 -0.1763  1.4586 -1.6399
 4762SOL     OW24754   4.253   7.852   0.668 -0.0253 -0.4528  0.1093
 4762SOL    HW124755   4.208   7.766   0.644 -1.5245  0.2318  0.3904
 4762SOL    HW224756   4.281   7.900   0.585  1.1601 -1.3915 -0.0346
 4763SOL     OW24757   3.394   1.592   2.082  0.4092  0.2034 -0.0320
 4763SOL    HW124758   3.395   1.611   1.984  2.0812  1.3341  0.1910
 4763SOL    HW224759   3.299   1.580   2.112 -0.0258 -1.7158 -2.0596
 4764SOL     OW24760   2.200   8.616   3.591  0.2239  0.2497  0.1818
 4764SOL    HW124761   2.218   8.705   3.548  0.0013  1.4868  2.5967
 4764SOL    HW224762   2.108   8.585   3.566  0.1324  0.9081 -0.3185
 4765SOL     OW24763   8.702   8.417   3.873 -0.0405 -0.2188 -0.0751
 4765SOL    HW124764   8.687   8.507   3.913  0.1817 -0.2172  0.0027
 4765SOL    HW224765   8.767   8.425   3.797 -0.6138 -0.1881 -0.5708
 4766SOL     OW24766   1.170   5.405   2.597 -0.1556  0.0047 -0.2041
 4766SOL    HW124767   1.078   5.386   2.563  0.3341  1.1285 -2.2051
 4766SOL    HW224768   1.181   5.504   2.609  0.7600 -0.1325  0.1230
 4767SOL     OW24769   8.866   6.320   2.529  0.1973 -0.7069  0.0398
 4767SOL    HW124770   8.866   6.264   2.447 -2.0179 -0.0127 -0.4493
 4767SOL    HW224771   8.859   6.417   2.504  0.0842 -0.4504  1.0182
 4768SOL     OW24772   7.700   6.218   3.074 -0.3786 -0.7218 -0.2176
 4768SOL    HW124773   7.665   6.228   3.167  2.3249 -1.3495  0.8886
 4768SOL    HW224774   7.659   6.137   3.032 -2.4676  0.1914 -0.0190
 4769SOL     OW24775   8.865   9.191   2.723  0.3523 -0.2738 -0.3318
 4769SOL    HW124776   8.938   9.146   2.775 -0.0941 -0.2467  0.3292
 4769SOL    HW224777   8.777   9.159   2.757  0.0035  1.6405  0.6395
 4770SOL     OW24778   8.476   2.164   2.742  0.2416  0.2107 -0.2584
 4770SOL    HW124779   8.500   2.258   2.765 -1.1831  0.0588  2.0163
 4770SOL    HW224780   8.392   2.163   2.688 -0.9047  0.1951  1.4609
 4771SOL     OW24781   0.380   1.772   2.542  0.0197  0.0525 -0.1459
 4771SOL    HW124782   0.459   1.810   2.494  1.2152  0.2265  1.9389
 4771SOL    HW224783   0.397   1.676   2.563 -0.9130 -0.2889 -0.9257
 4772SOL     OW24784   2.698   5.605   0.779 -0.2473  0.1992 -0.5709
 4772SOL    HW124785   2.718   5.595   0.681 -0.1334 -2.5399 -0.3042
 4772SOL    HW224786   2.600   5.594   0.794 -0.2453  0.4734 -0.3663
 4773SOL     OW24787   8.852   5.423   2.759  0.1305 -0.2800  0.7699
 4773SOL    HW124788   8.877   5.482   2.682 -0.8198 -0.7531  0.0916
 4773SOL    HW224789   8.764   5.379   2.740 -0.0002 -0.5800  2.0274
 4774SOL     OW24790   8.225   1.306   2.538  0.1995  0.9884  0.1019
 4774SOL    HW124791   8.231   1.405   2.529 -2.7596  1.0520 -2.0099
 4774SOL    HW224792   8.241   1.264   2.449  0.7017 -0.3878  0.8361
 4775SOL     OW24793   3.505   9.349   1.210 -0.0380  0.1166 -0.1333
 4775SOL    HW124794   3.574   9.361   1.280 -0.6591  1.7616  0.2054
 4775SOL    HW224795   3.540   9.380   1.122  0.0243 -0.0600 -0.1719
 4776SOL     OW24796   2.112   4.004   3.525  0.0210  0.0068 -0.1492
 4776SOL    HW124797   2.173   4.070   3.481  0.9901 -0.7243  0.0706
 4776SOL    HW224798   2.054   3.961   3.456 -2.0439  2.5270 -0.0416
 4777SOL     OW24799   0.264   3.999   1.323  0.3247  0.1711 -0.1871
 4777SOL    HW124800   0.350   3.954   1.347  0.1903 -0.4019 -0.7702
 4777SOL    HW224801   0.270   4.033   1.229 -0.2362 -0.2394 -0.3731
 4778SOL     OW24802   0.406   0.412   1.749  0.2256 -0.1802  0.2272
 4778SOL    HW124803   0.377   0.482   1.815 -0.8307 -0.2194 -0.1955
 4778SOL    HW224804   0.369   0.323   1.775  1.3534 -0.5539  0.6168
 4779SOL     OW24805   2.045   5.355   2.544  0.4664  0.4938  0.0728
 4779SOL    HW124806   1.969   5.313   2.592  0.6763 -0.7834 -0.6872
 4779SOL    HW224807   2.014   5.394   2.457  0.7122 -0.1939 -0.3252
 4780SOL     OW24808   7.619   9.689   3.702 -0.6361  0.0876 -0.1220
 4780SOL    HW124809   7.623   9.788   3.710 -2.2173  0.2037 -0.6244
 4780SOL    HW224810   7.563   9.652   3.775 -1.8643 -0.2375 -1.2164
 4781SOL     OW24811   3.184   7.868   0.591 -0.2955 -0.6026 -0.4639
 4781SOL    HW124812   3.087   7.854   0.611 -0.3188 -4.6503 -2.7362
 4781SOL    HW224813   3.194   7.920   0.506 -0.3526  3.1933  1.7653
 4782SOL     OW24814   0.925   7.451   1.556 -0.3988 -0.4116  0.0323
 4782SOL    HW124815   0.947   7.428   1.651 -0.9612  3.3166  1.1411
 4782SOL    HW224816   1.010   7.455   1.503  0.2536  0.5377  1.1228
 4783SOL     OW24817   4.358   4.797   2.604 -0.0413  0.3749  0.2681
 4783SOL    HW124818   4.342   4.723   2.539  0.2660 -0.5110  1.1973
 4783SOL    HW224819   4.314   4.880   2.570  0.3573 -0.0046 -1.2109
 4784SOL     OW24820   4.506   1.053   3.756  0.1579  0.4369  0.7577
 4784SOL    HW124821   4.597   1.051   3.716 -0.6416 -1.6538 -1.0851
 4784SOL    HW224822   4.440   1.082   3.686 -0.9809 -1.2225  1.1088
 4785SOL     OW24823   1.808   9.282   2.468  0.0057  0.1512  0.3639
 4785SOL    HW124824   1.829   9.226   2.388  0.4519  0.5089  0.2253
 4785SOL    HW224825   1.712   9.270   2.493  0.3345 -1.4129  0.9257
 4786SOL     OW24826   4.322   7.077   0.179  0.3205 -0.2497  0.2216
 4786SOL    HW124827   4.354   7.061   0.086 -0.5389 -0.7841  0.0086
 4786SOL    HW224828   4.358   7.163   0.213  1.5573 -0.5966 -0.1937
 4787SOL     OW24829   0.546   1.404   0.450 -0.2020 -0.0480 -0.2088
 4787SOL    HW124830   0.506   1.329   0.503  0.4784 -1.5671 -1.7881
 4787SOL    HW224831   0.630   1.435   0.494 -0.4148 -0.3083  0.3847
 4788SOL     OW24832   3.487   4.348   1.554  0.6116  0.5314  0.1991
 4788SOL    HW124833   3.483   4.428   1.613 -0.8663  0.7264 -0.1449
 4788SOL    HW224834   3.417   4.282   1.582 -0.3992  0.8182 -1.6110
 4789SOL     OW24835   9.628   3.485   1.913 -0.8233 -0.3917  0.5496
 4789SOL    HW124836   9.622   3.462   2.011  0.7770  0.1179  0.7758
 4789SOL    HW224837   9.705   3.437   1.872 -0.3079  0.8943 -0.0266
 4790SOL     OW24838   7.451   0.030   2.818 -0.2470 -0.4254 -0.0794
 4790SOL    HW124839   7.523   0.098   2.834  0.4351 -1.6052  2.0886
 4790SOL    HW224840   7.483  -0.060   2.849 -2.4857 -1.0553  0.5015
 4791SOL     OW24841   0.103   6.243   3.697  0.4850 -0.3267 -0.2886
 4791SOL    HW124842   0.140   6.160   3.654 -1.9426 -2.7450  2.0370
 4791SOL    HW224843   0.162   6.271   3.772  1.1603 -0.1205 -0.8953
 4792SOL     OW24844   0.823   2.039   0.479  0.0142  0.2918 -0.7825
 4792SOL    HW124845   0.882   1.994   0.546 -0.8040 -2.1351 -1.6414
 4792SOL    HW224846   0.798   2.130   0.512  1.9330  0.2517  0.8784
 4793SOL     OW24847   0.952   4.049   0.473 -0.0162 -0.4508  0.1716
 4793SOL    HW124848   0.963   4.046   0.374 -0.2830  0.0634  0.1228
 4793SOL    HW224849   0.947   4.144   0.503 -0.3871 -0.6130  0.6281
 4794SOL     OW24850   1.640   1.114   2.495 -0.0681  0.3360  0.3645
 4794SOL    HW124851   1.602   1.161   2.415  1.3831  0.2653 -0.3943
 4794SOL    HW224852   1.657   1.018   2.472  2.7404  0.8779 -0.1268
 4795SOL     OW24853   3.218   9.554   2.602  0.1214 -0.6201  0.0574
 4795SOL    HW124854   3.232   9.633   2.543 -0.1246 -0.4914  0.1656
 4795SOL    HW224855   3.290   9.551   2.672 -1.2121  0.9009  1.5548
 4796SOL     OW24856   0.901   5.920   2.250 -0.0454  0.5425  0.1716
 4796SOL    HW124857   0.880   5.934   2.347  0.7197 -1.6665  0.6804
 4796SOL    HW224858   0.817   5.925   2.197 -0.6236  0.6382  1.0894
 4797SOL     OW24859   8.218   7.377   0.621 -0.0811 -0.1627 -0.3282
 4797SOL    HW124860   8.168   7.458   0.590 -0.7817 -0.4450  0.0504
 4797SOL    HW224861   8.281   7.402   0.694  1.4573  0.4762 -1.8328
 4798SOL     OW24862   9.740   0.638   1.849 -0.2522 -0.7142 -0.2061
 4798SOL    HW124863   9.758   0.573   1.922 -2.0876 -0.3438  0.5951
 4798SOL    HW224864   9.789   0.723   1.867 -1.0936 -0.4505  0.8538
 4799SOL     OW24865   9.484   5.290   3.554  0.2595  0.1379  0.0419
 4799SOL    HW124866   9.419   5.268   3.482  0.1400 -0.5887  0.3638
 4799SOL    HW224867   9.503   5.388   3.553 -0.2526  0.2350 -0.5415
 4800SOL     OW24868   8.804   0.392   0.800  1.2653  0.1687 -0.0571
 4800SOL    HW124869   8.797   0.311   0.858  1.4723 -0.3745 -0.7824
 4800SOL    HW224870   8.805   0.364   0.704 -1.4027  1.1775 -0.4290
 4801SOL     OW24871   0.962   4.718   3.808  0.0724 -0.2868  0.2800
 4801SOL    HW124872   0.947   4.805   3.761  0.4782 -0.3399  0.0505
 4801SOL    HW224873   1.056   4.714   3.842  0.2603 -0.9258 -0.3091
 4802SOL     OW24874   2.843   2.227   1.271 -0.3460 -0.2350 -0.5762
 4802SOL    HW124875   2.892   2.231   1.358  0.0375 -1.4234 -0.7320
 4802SOL    HW224876   2.900   2.264   1.198 -0.9042  1.3420 -0.2258
 4803SOL     OW24877   8.284   8.529   1.736  0.2945 -0.2333 -0.2865
 4803SOL    HW124878   8.345   8.581   1.677  0.0615 -0.2515 -0.5468
 4803SOL    HW224879   8.330   8.509   1.823 -0.5451  2.7413  0.9129
 4804SOL     OW24880   3.914   8.720   2.053 -0.0102 -0.2208 -0.1751
 4804SOL    HW124881   3.932   8.632   2.010  2.1791  0.9800 -1.8515
 4804SOL    HW224882   3.851   8.773   1.996  1.0421  0.4555 -0.7228
 4805SOL     OW24883   2.863   0.252   0.549 -0.0509  0.3117  0.3487
 4805SOL    HW124884   2.779   0.250   0.603 -0.9147  1.0246 -0.9186
 4805SOL    HW224885   2.881   0.162   0.512 -0.3210  0.1808  0.5332
 4806SOL     OW24886   4.368   3.684   0.289  0.0536  0.1422  0.0242
 4806SOL    HW124887   4.431   3.616   0.326  0.3141  0.0188 -0.6394
 4806SOL    HW224888   4.297   3.705   0.357 -0.6113 -1.5460 -0.1277
 4807SOL     OW24889   0.294   4.811   2.102  0.4187  0.4381 -0.1603
 4807SOL    HW124890   0.246   4.795   2.016 -0.9761  1.2491  0.4492
 4807SOL    HW224891   0.283   4.732   2.162  0.2023  0.4407 -0.1943
 4808SOL     OW24892   1.739   6.976   0.657 -0.3780  0.0935  0.0439
 4808SOL    HW124893   1.753   7.031   0.575 -1.0036  0.0760 -0.0784
 4808SOL    HW224894   1.807   6.904   0.662  1.3562  1.7323  0.9262
 4809SOL     OW24895   8.368   6.490   0.407 -0.5807  0.2041 -0.6366
 4809SOL    HW124896   8.392   6.583   0.438 -0.3505  0.7593 -2.4564
 4809SOL    HW224897   8.269   6.481   0.406 -0.6030  0.3484 -0.2513
 4810SOL     OW24898   2.603   9.103   0.032  0.1171  0.4054 -0.2794
 4810SOL    HW124899   2.666   9.129  -0.041  1.4664  1.5060  1.2386
 4810SOL    HW224900   2.526   9.167   0.034  0.5632  0.9441 -0.1462
 4811SOL     OW24901   3.199   2.026   1.031 -0.3118  0.9744  0.3811
 4811SOL    HW124902   3.203   1.976   0.945  0.7739  1.0260  0.3864
 4811SOL    HW224903   3.292   2.045   1.062 -0.6321 -0.9743  2.7000
 4812SOL     OW24904   4.773   7.961   2.518  0.6170 -0.4044  0.5044
 4812SOL    HW124905   4.776   8.040   2.456 -0.7517 -1.3915 -0.8790
 4812SOL    HW224906   4.747   7.991   2.609 -1.2319  0.6065 -0.3162
 4813SOL     OW24907   0.050   2.123   3.388 -0.0954 -0.8535 -0.1530
 4813SOL    HW124908   0.150   2.114   3.382  0.0103  0.9884 -1.4459
 4813SOL    HW224909   0.026   2.167   3.474  0.2618 -0.6746 -0.1410
 4814SOL     OW24910   0.623   6.045   1.565  0.0454  0.0715  0.2309
 4814SOL    HW124911   0.661   6.137   1.568 -0.9452  0.4966 -0.3828
 4814SOL    HW224912   0.594   6.023   1.472  3.7107 -2.2729 -0.4878
 4815SOL     OW24913   7.523   9.600   0.558 -0.4310 -0.2321  0.2891
 4815SOL    HW124914   7.585   9.614   0.482  0.3748 -1.3792  0.7186
 4815SOL    HW224915   7.473   9.514   0.545 -2.9704  1.3570 -0.7528
 4816SOL     OW24916   0.178   3.332   0.176 -0.3335  0.3995  0.0697
 4816SOL    HW124917   0.211   3.300   0.264  3.7836  0.3034 -1.3802
 4816SOL    HW224918   0.132   3.420   0.187 -1.0334 -0.2400  2.4487
 4817SOL     OW24919   7.989   6.219   0.387 -0.4807 -0.3564 -0.7503
 4817SOL    HW124920   7.919   6.257   0.326  0.0477  0.9903 -0.5428
 4817SOL    HW224921   8.051   6.161   0.335 -1.4021 -1.0738 -1.0523
 4818SOL     OW24922   8.717   8.116   3.994  0.1631  0.2906 -0.2535
 4818SOL    HW124923   8.749   8.044   3.932  2.0221 -0.5954  1.6985
 4818SOL    HW224924   8.626   8.147   3.964 -0.3920 -2.3946 -1.4898
 4819SOL     OW24925   0.039   9.434   0.155 -0.1327 -0.2112 -0.2548
 4819SOL    HW124926   0.112   9.378   0.193  0.0640  0.7561  0.8149
 4819SOL    HW224927  -0.033   9.375   0.119  1.1843 -1.1702 -1.3669
 4820SOL     OW24928   1.018   8.941   1.891  0.8831  0.3609 -0.1577
 4820SOL    HW124929   0.996   8.874   1.820  0.1894  0.1139  0.2959
 4820SOL    HW224930   0.999   8.902   1.981 -0.4782  1.5257  0.0683
 4821SOL     OW24931   4.535   3.287   2.080 -0.0516 -0.2186 -0.8318
 4821SOL    HW124932   4.609   3.324   2.023  0.0902  0.1205 -0.4294
 4821SOL    HW224933   4.450   3.334   2.058  0.4984  1.7562  1.0571
 4822SOL     OW24934   2.075   5.208   1.647  0.4022 -0.0093 -0.3638
 4822SOL    HW124935   1.984   5.223   1.609  0.4948  0.7162 -0.3190
 4822SOL    HW224936   2.138   5.181   1.574  0.3451  0.3490 -0.5482
 4823SOL     OW24937   2.344   9.722   0.271  0.9050  0.0329  0.0964
 4823SOL    HW124938   2.414   9.662   0.232  0.8832 -0.4831  0.8464
 4823SOL    HW224939   2.254   9.693   0.239  1.0376  0.8573 -1.0795
 4824SOL     OW24940   2.968   2.341   3.213 -0.4622  0.1904 -0.2127
 4824SOL    HW124941   2.908   2.316   3.288  0.1602  0.4203  0.3657
 4824SOL    HW224942   3.063   2.316   3.236 -0.5397 -1.6613 -1.7776
 4825SOL     OW24943   2.660   9.637   2.017 -0.0717  0.4770  0.6566
 4825SOL    HW124944   2.662   9.547   1.972 -1.9466  1.3722 -1.3512
 4825SOL    HW224945   2.580   9.643   2.076 -0.8337  1.3495 -0.4339
 4826SOL     OW24946   3.904   9.290   3.265 -0.3146 -0.7085 -0.5008
 4826SOL    HW124947   3.937   9.385   3.272 -3.1448  0.3287 -0.6446
 4826SOL    HW224948   3.960   9.241   3.199  1.7602  0.6014  0.2198
 4827SOL     OW24949   2.757   2.950   2.579 -0.2370 -0.0333  0.1125
 4827SOL    HW124950   2.692   2.963   2.654 -0.7962 -0.0777 -0.3594
 4827SOL    HW224951   2.725   2.875   2.521 -1.4315  1.9570 -1.8967
 4828SOL     OW24952   8.322   7.549   0.323 -0.8689 -0.0458 -0.0070
 4828SOL    HW124953   8.242   7.592   0.364 -1.8169 -2.0676  0.3213
 4828SOL    HW224954   8.396   7.546   0.389 -1.6273 -1.1828  0.8006
 4829SOL     OW24955   9.454   1.783   1.313 -0.6487 -0.4113 -0.4462
 4829SOL    HW124956   9.509   1.867   1.312 -0.1423 -0.7485 -1.7931
 4829SOL    HW224957   9.368   1.799   1.264 -1.2685 -0.2152  0.6907
 4830SOL     OW24958   8.733   9.464   0.485 -0.2925  0.2865  0.4408
 4830SOL    HW124959   8.691   9.457   0.576 -0.0622 -1.3264  0.4332
 4830SOL    HW224960   8.807   9.397   0.477 -0.4538  0.2759 -1.0206
 4831SOL     OW24961   2.880   4.200   0.575  0.1501 -0.3929  0.9392
 4831SOL    HW124962   2.781   4.187   0.572  0.2955 -1.3796  0.1706
 4831SOL    HW224963   2.913   4.224   0.484  0.5433  0.4852  1.3141
 4832SOL     OW24964   9.102   6.962   1.225 -0.5047  0.1034 -0.1238
 4832SOL    HW124965   9.007   6.945   1.201 -0.6150 -1.2823  1.2534
 4832SOL    HW224966   9.150   6.875   1.236  0.4043  0.7703  1.2523
 4833SOL     OW24967   8.256   1.265   0.659  0.4014  0.1690 -0.5578
 4833SOL    HW124968   8.247   1.346   0.601 -0.8690  0.7772  0.4764
 4833SOL    HW224969   8.304   1.193   0.608  0.3133  1.0805 -1.9589
 4834SOL     OW24970   8.503   0.785   3.649  0.1143  0.3475  0.4993
 4834SOL    HW124971   8.419   0.816   3.605 -0.6669 -1.3820  0.6943
 4834SOL    HW224972   8.481   0.712   3.714  1.1354  3.2135  4.2597
 4835SOL     OW24973   5.494   1.144   1.869 -0.0560  0.2198 -0.1434
 4835SOL    HW124974   5.433   1.214   1.833 -0.7368  0.1072  0.7702
 4835SOL    HW224975   5.542   1.099   1.793  0.6400  1.8891 -0.7109
 4836SOL     OW24976   1.834   1.728   1.765 -0.3358 -0.2487  0.0206
 4836SOL    HW124977   1.871   1.736   1.673 -2.5699 -2.4805 -1.1226
 4836SOL    HW224978   1.741   1.764   1.767  0.8428  2.8632  2.2367
 4837SOL     OW24979   9.528   5.378   0.299 -0.4550 -0.0808  0.2244
 4837SOL    HW124980   9.534   5.474   0.327 -0.1807  0.4976 -1.6971
 4837SOL    HW224981   9.489   5.373   0.207 -0.9179 -1.8539  0.5007
 4838SOL     OW24982   3.355   5.652   0.325  0.2022  0.6657  0.6865
 4838SOL    HW124983   3.355   5.739   0.276 -0.5882 -0.1517 -0.7740
 4838SOL    HW224984   3.357   5.576   0.260  1.1155 -0.4314  1.9428
 4839SOL     OW24985   1.680   9.808   3.827 -0.4150 -0.4345  0.0773
 4839SOL    HW124986   1.670   9.734   3.894 -1.0513 -0.2334  0.2118
 4839SOL    HW224987   1.776   9.820   3.804  0.1404  1.2714  2.9824
 4840SOL     OW24988   1.156   9.559   2.169  0.2635  0.3221  1.1273
 4840SOL    HW124989   1.062   9.591   2.185  0.5631  0.2699  3.0427
 4840SOL    HW224990   1.155   9.461   2.150 -0.1009  0.3994  0.7323
 4841SOL     OW24991   0.965   0.100   2.350 -0.3019 -0.4874  0.5243
 4841SOL    HW124992   0.954   0.180   2.409  0.9705 -0.2316  0.4122
 4841SOL    HW224993   0.904   0.108   2.271  0.3073  0.6869  0.1678
 4842SOL     OW24994   4.407   1.239   1.017  0.2687 -0.6497  0.2839
 4842SOL    HW124995   4.472   1.163   1.019 -0.6473 -1.4471  0.2339
 4842SOL    HW224996   4.426   1.301   1.093  0.6298 -1.2570  0.6965
 4843SOL     OW24997   9.714   0.503   0.624  0.7363  0.3651 -0.3142
 4843SOL    HW124998   9.624   0.547   0.628  0.4613 -0.1171 -1.1411
 4843SOL    HW224999   9.711   0.417   0.673  0.7052  0.2859 -0.4536
 4844SOL     OW25000   9.816   7.287   0.753  0.1915 -0.0688 -0.6039
 4844SOL    HW125001   9.848   7.309   0.845 -0.7958  0.7313 -0.4459
 4844SOL    HW225002   9.775   7.196   0.752  0.1255 -0.0417 -0.2332
 4845SOL     OW25003   4.778   7.745   1.581  0.0770  0.1621  0.0199
 4845SOL    HW125004   4.877   7.756   1.576  0.1054 -0.0876  0.0221
 4845SOL    HW225005   4.755   7.692   1.663 -0.1758  1.6314  0.9041
 4846SOL     OW25006   0.097   5.297   0.143  0.1053 -0.5357  0.5096
 4846SOL    HW125007   0.009   5.249   0.141 -0.2438  0.0649  1.4595
 4846SOL    HW225008   0.156   5.261   0.070 -1.3629 -0.1051 -0.9155
 4847SOL     OW25009   8.057   5.863   1.552  0.0525 -0.1595 -0.2491
 4847SOL    HW125010   8.030   5.804   1.476 -1.4662  1.3867 -0.9542
 4847SOL    HW225011   8.111   5.940   1.517 -0.4549  0.4313  0.2496
 4848SOL     OW25012   8.778   9.376   1.410  0.2453  0.5788  0.1222
 4848SOL    HW125013   8.689   9.348   1.372 -0.9929  3.4825  0.7753
 4848SOL    HW225014   8.813   9.455   1.360  1.8549  0.2611  0.7189
 4849SOL     OW25015   4.834   2.772   1.201  0.4200 -0.0406 -0.1403
 4849SOL    HW125016   4.844   2.688   1.149  0.4152 -1.2191  1.7350
 4849SOL    HW225017   4.757   2.825   1.165 -0.8979 -1.8384 -0.0258
 4850SOL     OW25018   1.060   5.591   0.778 -0.0865 -0.1974  0.4138
 4850SOL    HW125019   1.107   5.531   0.713  1.6633 -0.7697  2.1416
 4850SOL    HW225020   1.004   5.535   0.839 -3.2623  0.4960 -1.7483
 4851SOL     OW25021   0.884   5.987   1.770 -0.3436  0.4708  0.1556
 4851SOL    HW125022   0.838   5.936   1.697 -1.3257  0.6282  0.6569
 4851SOL    HW225023   0.946   6.055   1.729 -1.0793  0.7292 -0.5340
 4852SOL     OW25024   2.357   0.316   0.599  0.4762  0.1180 -0.4132
 4852SOL    HW125025   2.258   0.311   0.594  0.2235  0.9452  2.6670
 4852SOL    HW225026   2.387   0.410   0.583  0.6617  0.0787 -0.3039
 4853SOL     OW25027   1.923   8.020   1.390  0.4137  0.6122 -0.0144
 4853SOL    HW125028   1.824   8.021   1.376  0.4441  0.6780 -0.2145
 4853SOL    HW225029   1.960   8.112   1.378  0.3912  0.7333  0.8193
 4854SOL     OW25030   1.508   6.905   0.489 -0.1848 -0.2539  0.0608
 4854SOL    HW125031   1.500   6.814   0.448 -1.0125 -0.0520 -0.2510
 4854SOL    HW225032   1.580   6.905   0.558  2.4623 -0.1481 -2.6206
 4855SOL     OW25033   9.447   8.899   1.905  0.0018  0.0242  0.3719
 4855SOL    HW125034   9.378   8.971   1.918  0.1665  0.0761  0.9726
 4855SOL    HW225035   9.414   8.814   1.947 -0.0705 -0.1777 -0.0937
 4856SOL     OW25036   3.820   7.367   2.025 -0.1550  0.8425  0.3617
 4856SOL    HW125037   3.881   7.290   2.007 -0.2334  0.9830 -0.4807
 4856SOL    HW225038   3.849   7.414   2.108  0.2596  0.2792  0.5361
 4857SOL     OW25039   8.267   1.708   0.709 -0.8745 -0.4106 -0.0988
 4857SOL    HW125040   8.169   1.689   0.714 -0.9541 -0.0896 -0.4458
 4857SOL    HW225041   8.313   1.665   0.787 -1.5925  1.4259  1.3695
 4858SOL     OW25042   2.271   1.856   3.361 -0.4608  0.4646 -0.2590
 4858SOL    HW125043   2.338   1.804   3.414 -1.7448 -1.1447 -0.2025
 4858SOL    HW225044   2.225   1.922   3.420  0.3278  0.8573 -0.0747
 4859SOL     OW25045   4.594   0.169   1.958  0.1680  0.5287 -0.1453
 4859SOL    HW125046   4.668   0.116   1.916  0.0561 -0.8940  1.4042
 4859SOL    HW225047   4.509   0.116   1.955 -0.1158  0.9265  0.7488
 4860SOL     OW25048   7.840   8.191   3.413 -0.9807 -0.0042  0.3894
 4860SOL    HW125049   7.825   8.224   3.320 -1.3703  2.2594  1.2128
 4860SOL    HW225050   7.757   8.146   3.446 -1.2390  0.2086  0.0414
 4861SOL     OW25051   8.537   6.568   0.709 -0.2691  0.3204  0.7234
 4861SOL    HW125052   8.531   6.471   0.683  1.3142  0.0909  1.1288
 4861SOL    HW225053   8.624   6.584   0.755 -0.3532  2.0440  0.3003
 4862SOL     OW25054   1.720   2.465   1.384 -0.2729 -0.2449 -0.0737
 4862SOL    HW125055   1.633   2.432   1.422 -0.1907 -2.5587 -1.7624
 4862SOL    HW225056   1.787   2.474   1.457 -1.6958  0.8283  1.1376
 4863SOL     OW25057   0.243   5.971   3.703  0.6146  0.0523 -0.0216
 4863SOL    HW125058   0.337   6.008   3.706  0.9533 -0.5438 -2.1863
 4863SOL    HW225059   0.239   5.896   3.636 -1.7243  1.0431 -1.0519
 4864SOL     OW25060   4.196   3.847   0.695 -0.1029  0.9644  0.5532
 4864SOL    HW125061   4.192   3.785   0.773  0.3047 -1.0627 -0.9862
 4864SOL    HW225062   4.148   3.932   0.717 -0.6005  0.1483  2.7400
 4865SOL     OW25063   8.880   2.826   2.029  0.1500 -0.4445 -0.0837
 4865SOL    HW125064   8.964   2.802   1.980  0.1802  1.4174 -0.9999
 4865SOL    HW225065   8.842   2.910   1.991 -0.8642  0.0226  1.8698
 4866SOL     OW25066   3.285   7.549   3.044  0.3692  0.6209  0.0283
 4866SOL    HW125067   3.189   7.575   3.041  1.0117  3.1016 -3.4075
 4866SOL    HW225068   3.296   7.456   3.011 -0.7988  0.5357 -0.1306
 4867SOL     OW25069   3.369   3.497   2.681 -0.8905 -0.2699 -0.5109
 4867SOL    HW125070   3.330   3.443   2.606 -0.5421 -0.4094 -0.5922
 4867SOL    HW225071   3.407   3.582   2.645 -1.8730  0.2605 -0.3179
 4868SOL     OW25072   2.450   7.228   2.023  0.1198  0.4798 -0.2715
 4868SOL    HW125073   2.544   7.196   2.010  0.2294  0.7373 -0.1359
 4868SOL    HW225074   2.425   7.289   1.948 -0.1139  0.0141 -0.5677
 4869SOL     OW25075   3.951   2.552   0.740  0.2784 -0.2578  0.0266
 4869SOL    HW125076   4.013   2.623   0.774 -0.3675  0.0144  0.6442
 4869SOL    HW225077   3.882   2.532   0.810 -0.1917 -0.7212 -0.5700
 4870SOL     OW25078   9.100   4.112   2.329 -0.4133 -0.2160 -0.0795
 4870SOL    HW125079   9.044   4.068   2.259 -0.7154 -0.2977  0.2159
 4870SOL    HW225080   9.048   4.122   2.413  0.5567 -1.8489  0.7328
 4871SOL     OW25081   0.813   7.009   0.902  0.1587  0.6231 -0.4110
 4871SOL    HW125082   0.833   7.021   0.805  3.1797  0.7336  0.1901
 4871SOL    HW225083   0.850   6.921   0.933  0.7682  1.3747  1.0334
 4872SOL     OW25084   8.333   8.623   2.487 -0.5053  0.3147 -0.6098
 4872SOL    HW125085   8.359   8.688   2.416  0.3446  0.2741 -0.3331
 4872SOL    HW225086   8.237   8.637   2.511 -0.7422  0.4614 -1.6207
 4873SOL     OW25087   0.126   7.350   3.393 -0.6786 -0.1862  0.3173
 4873SOL    HW125088   0.142   7.437   3.345 -0.1751 -0.4394  0.0189
 4873SOL    HW225089   0.213   7.317   3.430 -0.5217 -1.5256 -1.1931
 4874SOL     OW25090   7.939   6.983   2.063  0.1204 -0.6776 -0.3502
 4874SOL    HW125091   7.886   7.031   1.994  1.5178 -0.5843 -1.3565
 4874SOL    HW225092   7.984   6.903   2.022  0.9568 -0.6201  0.4355
 4875SOL     OW25093   7.641   0.539   3.005 -0.0143  0.4886 -0.6127
 4875SOL    HW125094   7.735   0.556   2.975 -0.0401  1.0800 -0.3599
 4875SOL    HW225095   7.579   0.545   2.926  0.2327 -0.5325 -0.8938
 4876SOL     OW25096   3.727   2.524   1.708 -0.2657 -0.3672 -0.1428
 4876SOL    HW125097   3.745   2.556   1.801 -0.3924  1.7876 -0.8240
 4876SOL    HW225098   3.628   2.513   1.694 -0.2576 -0.5240 -0.0792
 4877SOL     OW25099   9.291   3.083   3.292 -0.0696 -0.4780 -0.5443
 4877SOL    HW125100   9.233   3.113   3.368 -1.6740 -0.8374 -1.5898
 4877SOL    HW225101   9.328   2.992   3.314  1.6769  0.5583  0.9496
 4878SOL     OW25102   0.429   6.443   1.233 -0.4684 -0.0321 -0.0130
 4878SOL    HW125103   0.365   6.445   1.157 -1.6110 -0.5478  0.9069
 4878SOL    HW225104   0.389   6.492   1.311 -0.4687 -1.7908  1.1137
 4879SOL     OW25105   1.936   6.847   1.781 -0.3811 -0.2867 -0.0513
 4879SOL    HW125106   1.945   6.755   1.820 -0.1977 -0.2296  0.0415
 4879SOL    HW225107   2.025   6.893   1.785 -0.6767  0.2290  0.7127
 4880SOL     OW25108   3.798   8.927   3.976  0.0652  0.4908  0.1819
 4880SOL    HW125109   3.782   8.879   4.062  1.3693 -0.2578  0.0194
 4880SOL    HW225110   3.874   8.884   3.927 -0.5637  0.9958 -1.2804
 4881SOL     OW25111   8.434   5.405   1.671 -0.0676 -0.0319  0.8538
 4881SOL    HW125112   8.352   5.451   1.705  0.3679  0.9404  0.6168
 4881SOL    HW225113   8.443   5.316   1.715 -1.6513 -0.4793  0.3402
 4882SOL     OW25114   9.204   5.024   2.894  0.1355 -0.4371 -0.5062
 4882SOL    HW125115   9.179   4.961   2.967 -0.6682 -0.0805 -0.4688
 4882SOL    HW225116   9.280   4.986   2.841  1.4321 -0.2174  1.1649
 4883SOL     OW25117   1.723   3.184   2.871 -0.2282  0.2226  0.6138
 4883SOL    HW125118   1.775   3.098   2.869  0.2496  0.4850  1.4770
 4883SOL    HW225119   1.760   3.244   2.942 -1.3415  0.6610  0.8334
 4884SOL     OW25120   1.877   8.998   2.667 -0.0294  0.4897  0.2302
 4884SOL    HW125121   1.807   9.060   2.701 -0.8480  0.7093 -1.8093
 4884SOL    HW225122   1.939   9.047   2.605 -1.2839 -0.8863 -2.2077
 4885SOL     OW25123   1.705   2.597   4.022 -0.7683 -0.4905 -0.8935
 4885SOL    HW125124   1.690   2.500   4.005  1.3247 -0.9722 -0.1807
 4885SOL    HW225125   1.666   2.622   4.111 -0.3750 -0.9473 -0.5870
 4886SOL     OW25126   9.332   6.160   0.401  0.0067  0.2482  0.0726
 4886SOL    HW125127   9.267   6.154   0.326 -0.6551  1.3673  0.5550
 4886SOL    HW225128   9.352   6.067   0.434  0.5186 -0.2769 -1.6434
 4887SOL     OW25129   2.962   7.480   0.656 -0.0812  0.0381  0.0202
 4887SOL    HW125130   2.945   7.393   0.701  0.6888 -0.4279 -0.5784
 4887SOL    HW225131   3.061   7.493   0.644 -0.2471  0.4568 -0.9315
 4888SOL     OW25132   7.508   0.387   0.953  0.0963 -0.7971  0.2813
 4888SOL    HW125133   7.548   0.463   0.903  1.1304 -1.5626 -0.0703
 4888SOL    HW225134   7.431   0.349   0.902  2.2281 -2.7105 -1.6589
 4889SOL     OW25135   9.935   3.428   2.849 -0.5500 -0.3338  0.0757
 4889SOL    HW125136   9.892   3.513   2.817  0.7125  0.5538  0.6835
 4889SOL    HW225137  10.033   3.444   2.862 -0.3026 -1.8967  0.2025
 4890SOL     OW25138   1.929   1.769   3.506  0.5253  0.0948 -0.1035
 4890SOL    HW125139   2.019   1.728   3.520 -0.1954 -1.0697  1.2579
 4890SOL    HW225140   1.865   1.699   3.475 -0.1595  0.7042 -0.0676
 4891SOL     OW25141   9.973   6.380   3.500 -0.2603  0.4765 -0.3057
 4891SOL    HW125142  10.021   6.357   3.584 -0.4487 -1.0468 -0.6091
 4891SOL    HW225143  10.018   6.458   3.456  0.4057  0.6680  0.7027
 4892SOL     OW25144   0.931   9.901   0.727  0.1930  0.3526 -0.3458
 4892SOL    HW125145   0.847   9.875   0.775  0.0321  0.9107 -0.3257
 4892SOL    HW225146   0.970   9.820   0.682 -0.5748  0.1672 -0.6913
 4893SOL     OW25147   2.083   7.434   2.995  0.8457  0.0344 -0.0497
 4893SOL    HW125148   1.987   7.451   2.969  1.3151  0.1334 -1.8180
 4893SOL    HW225149   2.141   7.447   2.915  2.2739 -0.7273  0.8504
 4894SOL     OW25150   7.788   8.527   0.876 -0.0662  0.0715 -0.2164
 4894SOL    HW125151   7.848   8.514   0.955  0.8309  1.1168 -0.7138
 4894SOL    HW225152   7.773   8.440   0.830 -0.3681 -0.4953  0.9311
 4895SOL     OW25153   3.260   9.422   1.325  0.2925 -0.0895  0.1334
 4895SOL    HW125154   3.357   9.400   1.309  0.1160 -1.0811  0.3628
 4895SOL    HW225155   3.211   9.421   1.238  0.3871 -0.1071  0.0803
 4896SOL     OW25156   5.000   8.636   0.755  0.8587 -0.1810 -0.1860
 4896SOL    HW125157   4.921   8.644   0.816  1.5701 -1.3814  0.9186
 4896SOL    HW225158   5.034   8.727   0.731 -0.8278  0.3451 -0.6356
 4897SOL     OW25159   2.789   7.734   3.255 -0.1022  0.1115  0.3935
 4897SOL    HW125160   2.778   7.637   3.233 -0.3100  0.2912 -0.3271
 4897SOL    HW225161   2.712   7.786   3.217  1.2270  0.8795 -1.3632
 4898SOL     OW25162   1.994   8.923   3.890 -0.4108 -0.4102 -0.2199
 4898SOL    HW125163   2.055   8.992   3.851  2.2860 -1.2358  2.3827
 4898SOL    HW225164   1.915   8.968   3.932  0.0635  0.9264 -0.7498
 4899SOL     OW25165   1.243   6.901   2.884  0.1968 -0.0669 -0.4195
 4899SOL    HW125166   1.277   6.945   2.800  1.5127  0.3928  0.3311
 4899SOL    HW225167   1.144   6.896   2.881  0.0577  2.1730 -0.9250
 4900SOL     OW25168   1.091   3.501   0.939 -0.2025 -0.4343 -0.5627
 4900SOL    HW125169   1.091   3.555   0.855 -0.9545  0.3769 -0.0533
 4900SOL    HW225170   1.165   3.532   0.999 -0.5357 -0.0538 -0.3384
 4901SOL     OW25171   9.301   5.411   2.151 -0.3804 -0.3197  0.0134
 4901SOL    HW125172   9.264   5.409   2.244 -1.0381  1.6377 -0.1828
 4901SOL    HW225173   9.401   5.410   2.154 -0.4102 -0.8006  0.7277
 4902SOL     OW25174   6.606   9.323   2.951 -0.0931 -0.4501 -0.0353
 4902SOL    HW125175   6.545   9.271   2.891 -0.9239  1.0391 -0.5127
 4902SOL    HW225176   6.556   9.355   3.031  0.1804  0.3581 -0.1801
 4903SOL     OW25177   0.474   4.161   3.806  0.4037 -0.2508  0.0724
 4903SOL    HW125178   0.500   4.094   3.737  1.2239  0.2229 -0.0787
 4903SOL    HW225179   0.469   4.252   3.764  1.5711  0.1463  0.7689
 4904SOL     OW25180   1.742   4.399   2.299 -0.1741  0.4494 -0.1956
 4904SOL    HW125181   1.672   4.328   2.287 -1.0373  1.1226  0.8453
 4904SOL    HW225182   1.829   4.365   2.265 -0.8167 -0.7172 -0.7082
 4905SOL     OW25183   0.395   9.757   3.522 -0.0164  0.2717 -0.1587
 4905SOL    HW125184   0.433   9.704   3.598 -0.2863 -1.5756 -1.2931
 4905SOL    HW225185   0.329   9.823   3.558  0.3624 -0.1142  1.2772
 4906SOL     OW25186   9.935   1.611   1.432 -0.5184  0.4361  0.2888
 4906SOL    HW125187   9.926   1.526   1.381 -1.1240  0.5400  0.2140
 4906SOL    HW225188   9.857   1.621   1.495 -0.5856  1.0480  0.1174
 4907SOL     OW25189   2.895   5.079   0.373 -0.3232  0.9727  0.3402
 4907SOL    HW125190   2.888   5.117   0.280  0.0471 -0.7649 -0.4239
 4907SOL    HW225191   2.979   5.110   0.416 -0.4968  1.7875  0.1029
 4908SOL     OW25192   4.236   5.139   2.888  0.2386  0.6858  0.3517
 4908SOL    HW125193   4.197   5.121   2.979 -0.7934  3.2833  0.4507
 4908SOL    HW225194   4.333   5.116   2.889  0.0065 -0.3647  1.7828
 4909SOL     OW25195   9.829   5.793   2.452 -0.9899 -0.5539 -0.3455
 4909SOL    HW125196   9.837   5.879   2.402 -1.1448 -0.6861 -0.5990
 4909SOL    HW225197   9.810   5.718   2.388  1.9197 -1.2562 -0.4656
 4910SOL     OW25198   1.374   6.431   0.674  0.4486  0.3116  0.5676
 4910SOL    HW125199   1.291   6.420   0.620 -0.0570  0.7443  1.2477
 4910SOL    HW225200   1.350   6.436   0.771  1.3090 -0.0304  0.8024
 4911SOL     OW25201   8.717   0.660   1.533  0.0695  0.1210 -0.2683
 4911SOL    HW125202   8.750   0.751   1.559  0.6864 -0.3830  0.7369
 4911SOL    HW225203   8.796   0.601   1.514 -0.2863 -0.6983  0.7896
 4912SOL     OW25204   1.206   3.849   1.987  0.1296 -0.4482 -0.1953
 4912SOL    HW125205   1.157   3.789   1.925 -0.3728 -0.4717  0.2240
 4912SOL    HW225206   1.155   3.859   2.072  1.0568 -0.8333  0.4235
 4913SOL     OW25207   7.861   6.532   3.156  0.1029  0.2683  0.2369
 4913SOL    HW125208   7.860   6.559   3.060  1.3862 -0.4963 -0.0042
 4913SOL    HW225209   7.919   6.451   3.167  1.5105  1.4757  1.9478
 4914SOL     OW25210   1.162   4.984   2.147 -0.5740  0.0973 -0.1818
 4914SOL    HW125211   1.092   5.002   2.216 -1.3663 -2.4946 -0.2356
 4914SOL    HW225212   1.253   4.986   2.190 -1.0089 -0.7904  0.8210
 4915SOL     OW25213   1.341   7.493   3.926  0.2244 -0.1265  0.4006
 4915SOL    HW125214   1.301   7.526   3.840  1.4256  1.0047  0.2732
 4915SOL    HW225215   1.379   7.401   3.911  1.0995  0.3692 -0.4821
 4916SOL     OW25216   1.856   7.223   2.045 -0.3300  0.1031  0.0104
 4916SOL    HW125217   1.867   7.208   2.143 -1.2354  1.2804  0.2965
 4916SOL    HW225218   1.946   7.220   2.000  0.3029  1.5054  1.1469
 4917SOL     OW25219   4.202   3.983   2.149 -0.5530 -0.2659 -0.4536
 4917SOL    HW125220   4.174   3.915   2.216 -0.8551 -0.3453 -0.6583
 4917SOL    HW225221   4.174   4.074   2.180 -1.7650 -0.4264 -1.0330
 4918SOL     OW25222   3.189   0.282   3.690  0.0598  0.2118 -0.5878
 4918SOL    HW125223   3.093   0.253   3.698  0.2244 -0.1333  0.2068
 4918SOL    HW225224   3.245   0.224   3.749  0.4564  1.9094  0.7183
 4919SOL     OW25225   9.469   4.024   1.843 -0.4473 -0.0833 -0.5174
 4919SOL    HW125226   9.487   4.107   1.896 -0.5747  1.1621 -2.3860
 4919SOL    HW225227   9.409   3.963   1.895  0.1880  0.6865  1.1479
 4920SOL     OW25228   8.337   4.612   2.230 -0.6114 -0.2229  0.2080
 4920SOL    HW125229   8.261   4.547   2.238  0.6127 -1.5571  1.3085
 4920SOL    HW225230   8.352   4.656   2.319  0.9981 -1.2426  0.4653
 4921SOL     OW25231   7.809   0.358   0.765 -0.2974 -0.1356 -0.0650
 4921SOL    HW125232   7.906   0.373   0.750  0.4136 -2.6903  1.5793
 4921SOL    HW225233   7.796   0.303   0.848 -3.2483  1.7857  0.8337
 4922SOL     OW25234   2.762   0.310   2.281 -0.3128 -0.0244 -0.4011
 4922SOL    HW125235   2.833   0.253   2.238  0.3937 -1.1140  2.0935
 4922SOL    HW225236   2.798   0.402   2.297 -1.2370  1.0012 -3.8550
 4923SOL     OW25237   0.461   7.567   2.246 -0.3145 -0.0357 -0.8754
 4923SOL    HW125238   0.533   7.498   2.239 -1.2502 -1.1408  0.2928
 4923SOL    HW225239   0.379   7.526   2.283 -1.0582  1.6008 -0.6715
 4924SOL     OW25240   0.824   8.850   3.971 -0.5973 -0.0377 -0.5940
 4924SOL    HW125241   0.756   8.890   3.910 -1.5257 -0.5769  0.0801
 4924SOL    HW225242   0.865   8.770   3.928 -1.3852 -0.5253 -0.4457
 4925SOL     OW25243   1.608   9.718   1.295  0.4795  0.1513  0.5249
 4925SOL    HW125244   1.603   9.787   1.367  0.3737  1.8027 -1.0409
 4925SOL    HW225245   1.518   9.674   1.286  1.1749 -1.9471  3.1674
 4926SOL     OW25246   1.333   9.116   3.501 -0.2637 -0.2385 -0.2137
 4926SOL    HW125247   1.360   9.110   3.405 -0.9883 -2.1949 -0.3021
 4926SOL    HW225248   1.310   9.211   3.523  0.8293  0.3925 -1.7107
 4927SOL     OW25249   1.321   2.518   0.567  0.0706 -0.3463 -0.4467
 4927SOL    HW125250   1.283   2.498   0.477 -0.7530 -1.5307  0.1508
 4927SOL    HW225251   1.353   2.613   0.570 -0.4289 -0.1315 -1.7947
 4928SOL     OW25252   9.007   8.939   0.551  0.2001  0.1160  0.1262
 4928SOL    HW125253   8.951   8.914   0.472 -0.1255  0.3059  0.2959
 4928SOL    HW225254   8.952   8.990   0.617  0.8948  1.4408 -0.2895
 4929SOL     OW25255   1.855   0.240   1.116  0.0446 -0.3269  0.3998
 4929SOL    HW125256   1.814   0.189   1.040 -0.0915  1.1918 -0.5713
 4929SOL    HW225257   1.945   0.201   1.137 -0.1270 -1.0744 -0.2082
 4930SOL     OW25258   9.558   7.945   1.239 -0.1654 -0.0916 -0.4751
 4930SOL    HW125259   9.531   7.916   1.147 -1.5921 -1.2210  0.2863
 4930SOL    HW225260   9.482   7.993   1.282  0.4081  0.1938  0.2227
 4931SOL     OW25261   4.143   1.155   1.781 -0.6836  0.4897  0.2283
 4931SOL    HW125262   4.069   1.213   1.747 -0.9052 -0.8039 -1.5853
 4931SOL    HW225263   4.213   1.145   1.710 -0.4949 -1.1755  0.6261
 4932SOL     OW25264   3.402   8.695   2.223 -0.0310  0.3022  0.4594
 4932SOL    HW125265   3.471   8.730   2.160  0.0220  0.2096  0.4664
 4932SOL    HW225266   3.414   8.738   2.313 -0.1051  0.4317  0.4082
 4933SOL     OW25267   1.262   1.739   1.036 -0.2970 -0.3148 -0.5443
 4933SOL    HW125268   1.182   1.798   1.026 -0.2638 -0.0874  0.4973
 4933SOL    HW225269   1.245   1.652   0.990 -1.0878 -0.2079 -0.4570
 4934SOL     OW25270   9.924   9.412   2.533 -0.1033  0.4152 -0.1192
 4934SOL    HW125271   9.887   9.389   2.443 -1.0412  0.0372  0.3541
 4934SOL    HW225272  10.017   9.376   2.541 -0.7336 -1.2722 -0.2173
 4935SOL     OW25273   7.691   0.647   2.076  0.4625  0.0989 -0.8826
 4935SOL    HW125274   7.699   0.739   2.036  0.5664  0.2453 -0.5260
 4935SOL    HW225275   7.700   0.653   2.175 -0.6460 -0.1607 -0.7631
 4936SOL     OW25276   1.305   4.083   2.315 -0.6836 -0.3222 -0.3012
 4936SOL    HW125277   1.249   4.120   2.389  1.5453  1.9976  0.2849
 4936SOL    HW225278   1.276   4.124   2.228 -0.2188  0.5370 -0.0583
 4937SOL     OW25279   1.054   1.535   2.928 -0.1807  0.0876 -0.1579
 4937SOL    HW125280   1.056   1.544   2.828 -1.2995 -0.2824 -0.2242
 4937SOL    HW225281   1.134   1.484   2.959 -0.0871 -0.2305 -0.9229
 4938SOL     OW25282   1.214   2.030   1.812  0.3334  0.3712  0.0873
 4938SOL    HW125283   1.252   1.956   1.867 -0.8036 -0.4655 -0.2383
 4938SOL    HW225284   1.125   2.057   1.849  1.2446  2.4079  0.9229
 4939SOL     OW25285   4.285   7.016   3.905  0.1966 -0.1190 -0.0615
 4939SOL    HW125286   4.266   6.934   3.958 -1.3102  0.3218  0.1208
 4939SOL    HW225287   4.256   7.002   3.810  0.2966  0.0626 -0.1194
 4940SOL     OW25288   3.764   8.496   1.246 -0.2564 -0.2460 -0.2309
 4940SOL    HW125289   3.769   8.397   1.253  0.0633 -0.2272 -0.1670
 4940SOL    HW225290   3.718   8.534   1.326 -0.4406 -0.3479 -0.2893
 4941SOL     OW25291   1.473   3.346   1.141  0.4454 -0.0426  0.1562
 4941SOL    HW125292   1.460   3.348   1.240  0.4482 -3.7154  0.3183
 4941SOL    HW225293   1.440   3.259   1.105  0.1992  1.3256 -3.1408
 4942SOL     OW25294   3.253   1.934   3.926 -0.3130 -0.7392  0.4178
 4942SOL    HW125295   3.186   1.922   4.000 -0.7571  0.5782  0.2446
 4942SOL    HW225296   3.220   1.887   3.844 -1.3387  0.4093  0.1538
 4943SOL     OW25297   8.691   5.631   2.213  0.3443  0.0470 -0.0381
 4943SOL    HW125298   8.640   5.549   2.187  0.9421 -0.1575 -0.5752
 4943SOL    HW225299   8.627   5.708   2.224 -0.2465 -0.5572  0.7506
 4944SOL     OW25300   8.897   9.092   0.837 -0.1292 -0.6935 -0.0882
 4944SOL    HW125301   8.913   9.013   0.897 -0.7171 -1.1506 -0.5254
 4944SOL    HW225302   8.984   9.138   0.818  0.1461 -0.9336  0.5841
 4945SOL     OW25303   7.762   8.187   3.139  0.2113 -0.8492  0.7936
 4945SOL    HW125304   7.670   8.218   3.161  1.1061  1.4789  1.4250
 4945SOL    HW225305   7.793   8.232   3.055  2.1455  1.3118  2.6065
 4946SOL     OW25306   2.859   0.570   3.007  0.1260  0.5885 -0.0682
 4946SOL    HW125307   2.875   0.660   2.968  0.9783  1.3307  1.9190
 4946SOL    HW225308   2.943   0.537   3.050 -0.1562 -1.2045 -0.8408
 4947SOL     OW25309   8.081   5.207   3.072 -0.0963 -0.6812 -0.1261
 4947SOL    HW125310   8.058   5.125   3.019  1.0675 -1.0107 -0.1326
 4947SOL    HW225311   8.168   5.193   3.118 -0.8793 -0.2375  1.5390
 4948SOL     OW25312   2.217   1.632   2.808 -0.1514  0.0038 -0.3364
 4948SOL    HW125313   2.267   1.679   2.880 -1.6012 -0.3871  0.9535
 4948SOL    HW225314   2.269   1.551   2.779 -0.1777 -0.6049  1.2441
 4949SOL     OW25315   1.692   9.657   0.242  0.4583 -0.1256 -0.6206
 4949SOL    HW125316   1.611   9.654   0.183 -0.1532  0.5015  0.1731
 4949SOL    HW225317   1.676   9.600   0.323  1.2723 -0.9351 -1.0204
 4950SOL     OW25318   4.110   3.531   1.597  0.0893  0.1399  0.1156
 4950SOL    HW125319   4.178   3.600   1.621 -0.3830  0.7589 -0.3087
 4950SOL    HW225320   4.034   3.535   1.662 -1.6658  2.4884 -1.9866
 4951SOL     OW25321   7.947   8.933   3.747  0.2180  0.2154 -0.3022
 4951SOL    HW125322   8.010   8.974   3.813  0.7132 -0.7395 -0.1754
 4951SOL    HW225323   7.999   8.883   3.677 -0.4180 -2.1316  0.8361
 4952SOL     OW25324   4.243   5.662   2.251 -0.2387 -0.2485 -0.1750
 4952SOL    HW125325   4.156   5.704   2.274 -1.2914 -2.8561  0.8403
 4952SOL    HW225326   4.317   5.729   2.260 -1.9699  1.6280  0.2552
 4953SOL     OW25327   1.372   8.797   0.314 -0.4110  0.8810 -0.1493
 4953SOL    HW125328   1.379   8.705   0.352  3.6141  2.1076  2.3731
 4953SOL    HW225329   1.444   8.812   0.247 -0.2492  2.5702  0.3648
 4954SOL     OW25330   3.855   1.800   1.197 -0.2040 -0.0282  0.2783
 4954SOL    HW125331   3.843   1.720   1.255 -0.1113 -0.1697  0.1029
 4954SOL    HW225332   3.947   1.837   1.209 -0.6113  0.6921  1.1644
 4955SOL     OW25333   8.193   5.442   1.789  0.1152  0.2391  0.2584
 4955SOL    HW125334   8.125   5.370   1.772  0.6748 -0.3196  0.3890
 4955SOL    HW225335   8.146   5.530   1.802 -0.5776 -0.1343  0.2809
 4956SOL     OW25336   1.786   4.980   2.669 -0.2805  0.0460  0.7202
 4956SOL    HW125337   1.872   4.940   2.701 -0.6254 -0.7584  0.6482
 4956SOL    HW225338   1.769   4.951   2.575 -0.7004  0.0911  0.7815
 4957SOL     OW25339   3.837   1.473   1.299 -0.3303  0.0045  0.2861
 4957SOL    HW125340   3.779   1.464   1.218  0.3980  0.4562 -0.2911
 4957SOL    HW225341   3.857   1.383   1.336  1.1117 -0.3505 -1.3065
 4958SOL     OW25342   2.179   3.442   1.207  0.4672 -0.8015 -0.3030
 4958SOL    HW125343   2.087   3.439   1.247  0.3344  0.8276 -0.4324
 4958SOL    HW225344   2.190   3.529   1.158  1.9672 -1.1374 -0.5641
 4959SOL     OW25345   3.639   0.875   2.853 -0.3952  0.4912  0.2359
 4959SOL    HW125346   3.719   0.826   2.818 -0.1477  1.2753 -0.2917
 4959SOL    HW225347   3.654   0.901   2.948 -0.7154 -0.8649  0.6704
 4960SOL     OW25348   0.809   2.211   2.587 -1.0562  0.5387  0.1682
 4960SOL    HW125349   0.827   2.301   2.625 -1.7158  0.7143  0.0621
 4960SOL    HW225350   0.727   2.172   2.629 -0.6313 -0.1214  0.4060
 4961SOL     OW25351   2.144   4.803   1.075  0.2696  0.0133  0.3787
 4961SOL    HW125352   2.223   4.863   1.058 -0.8224  1.5461  0.5641
 4961SOL    HW225353   2.114   4.813   1.170 -1.5962  1.2713 -0.3105
 4962SOL     OW25354   4.430   9.539   3.661 -0.1136 -0.4917  0.0381
 4962SOL    HW125355   4.512   9.482   3.660  0.6596  0.5350  2.2036
 4962SOL    HW225356   4.350   9.483   3.685  0.6577 -0.6546  2.2655
 4963SOL     OW25357   1.243   7.211   3.119 -0.1644  0.0663  0.2577
 4963SOL    HW125358   1.253   7.311   3.117  2.4072 -0.1334  0.5965
 4963SOL    HW225359   1.209   7.180   3.030 -1.7461  1.2929  0.4070
 4964SOL     OW25360   0.333   6.031   1.594  0.1806 -0.0274 -0.0418
 4964SOL    HW125361   0.347   6.026   1.495  2.7424  0.0322  0.3027
 4964SOL    HW225362   0.359   5.944   1.636  1.2322  0.6931  0.8253
 4965SOL     OW25363   0.054   5.373   2.192  0.7409  0.2142 -0.6529
 4965SOL    HW125364   0.053   5.350   2.094  0.1225  2.4545 -1.2034
 4965SOL    HW225365   0.149   5.379   2.223  1.0221  1.7227 -1.7021
 4966SOL     OW25366   9.701   0.143   0.057  0.3095 -0.1473 -0.1881
 4966SOL    HW125367   9.791   0.157   0.017  1.3994  0.5893  2.4604
 4966SOL    HW225368   9.654   0.230   0.065 -0.1314 -0.3668 -0.3538
 4967SOL     OW25369   1.353   6.368   2.527 -0.1119  0.0655 -0.0197
 4967SOL    HW125370   1.273   6.319   2.559 -0.5223  0.1846 -0.8407
 4967SOL    HW225371   1.397   6.415   2.603 -0.7258 -0.1333  0.4587
 4968SOL     OW25372   0.196   5.776   0.885  0.0094 -0.4869 -0.3820
 4968SOL    HW125373   0.173   5.799   0.791  0.7189 -0.8645 -0.6528
 4968SOL    HW225374   0.140   5.698   0.915 -0.0563 -0.5119 -0.5727
 4969SOL     OW25375   1.752   7.395   1.844 -0.6391  0.7503  0.4741
 4969SOL    HW125376   1.777   7.324   1.910  1.4672 -0.2063 -1.3115
 4969SOL    HW225377   1.666   7.369   1.799 -1.3906  0.7641  1.8536
 4970SOL     OW25378   7.582   8.862   3.309 -0.2467 -0.3274 -0.4191
 4970SOL    HW125379   7.571   8.961   3.299  1.0187 -0.0991  0.4322
 4970SOL    HW225380   7.528   8.830   3.387  0.0512 -0.1741 -0.1504
 4971SOL     OW25381   9.928   8.330   0.275 -0.1305  0.5521 -0.2294
 4971SOL    HW125382   9.876   8.390   0.335  0.2650 -0.3273  1.0204
 4971SOL    HW225383   9.892   8.336   0.182 -0.3969  2.3430 -0.0232
 4972SOL     OW25384   8.616   4.181   1.475  0.2964  0.2400  0.0584
 4972SOL    HW125385   8.544   4.240   1.512  1.6362  1.4232  0.7987
 4972SOL    HW225386   8.582   4.087   1.469 -0.7479  0.4734  2.0271
 4973SOL     OW25387   0.548   2.203   2.942 -0.0533  0.3616  0.0875
 4973SOL    HW125388   0.576   2.278   3.001 -1.3866  1.6859 -0.9059
 4973SOL    HW225389   0.484   2.143   2.990  1.3275 -0.4018  1.0164
 4974SOL     OW25390   1.394   1.675   0.558 -0.0852  0.0171 -0.6165
 4974SOL    HW125391   1.357   1.585   0.533  0.1493 -0.5295  0.9236
 4974SOL    HW225392   1.349   1.746   0.503 -2.5531 -0.7364  0.3465
 4975SOL     OW25393   2.912   3.846   3.204 -0.0948 -0.1366  0.1784
 4975SOL    HW125394   2.946   3.833   3.111  0.3769  0.1740  0.3060
 4975SOL    HW225395   2.813   3.857   3.202 -0.0589  0.1162 -0.3127
 4976SOL     OW25396   8.783   4.598   2.646  0.7363 -0.0278 -0.0359
 4976SOL    HW125397   8.869   4.646   2.656  1.1314 -1.0998  2.0138
 4976SOL    HW225398   8.778   4.556   2.555  1.5300  1.5905 -0.8484
 4977SOL     OW25399   3.231   1.333   1.472 -0.1757  0.3205  0.4132
 4977SOL    HW125400   3.209   1.375   1.560  1.2256 -0.1911  1.0089
 4977SOL    HW225401   3.313   1.374   1.434  0.3230 -0.7963  0.2593
 4978SOL     OW25402   1.853   6.267   2.457 -0.1485 -0.3903  0.2824
 4978SOL    HW125403   1.804   6.219   2.530  2.8695 -1.0151  2.0226
 4978SOL    HW225404   1.882   6.201   2.388  0.5567 -0.4780  0.6522
 4979SOL     OW25405   3.830   3.548   2.521 -0.4392 -0.0941  0.2277
 4979SOL    HW125406   3.794   3.628   2.570 -0.0735  0.0849  0.2081
 4979SOL    HW225407   3.843   3.571   2.425 -1.0416 -0.4094  0.0714
 4980SOL     OW25408   4.039   4.701   3.952  0.5757 -0.2863 -0.3642
 4980SOL    HW125409   3.953   4.739   3.918  1.0284  0.8283 -0.2716
 4980SOL    HW225410   4.026   4.666   4.045  0.2169 -0.1288 -0.3550
 4981SOL     OW25411   0.911   1.474   1.550 -0.1868 -0.1909 -0.2517
 4981SOL    HW125412   0.870   1.438   1.633 -0.2327  0.0130 -0.1854
 4981SOL    HW225413   0.845   1.533   1.503  0.4461  1.1366  0.4951
 4982SOL     OW25414   3.003   8.177   2.554  0.1201 -0.1953  0.2941
 4982SOL    HW125415   3.013   8.077   2.552 -1.1891 -0.3258 -1.2141
 4982SOL    HW225416   3.048   8.216   2.473 -2.3068  0.1141 -0.9534
 4983SOL     OW25417   2.029   6.743   3.333 -0.4638  0.2403  0.5909
 4983SOL    HW125418   2.006   6.651   3.366 -0.9356  0.9748  2.3454
 4983SOL    HW225419   1.954   6.806   3.354 -0.4277  0.9137 -1.1964
 4984SOL     OW25420   9.609   8.415   1.545  0.1838  0.5763 -0.2003
 4984SOL    HW125421   9.619   8.337   1.606  2.3838  0.5247 -0.5791
 4984SOL    HW225422   9.528   8.403   1.488  0.0637 -1.0440  0.2911
 4985SOL     OW25423   0.495   6.503   1.696  0.3319 -0.4684  0.3801
 4985SOL    HW125424   0.429   6.431   1.715  0.0127 -0.5862 -1.0624
 4985SOL    HW225425   0.498   6.568   1.771  0.0550 -1.5630  1.3506
 4986SOL     OW25426   9.537   0.239   0.360 -0.0277  0.5410  0.0678
 4986SOL    HW125427   9.536   0.140   0.343  0.7660  0.6558 -0.6477
 4986SOL    HW225428   9.510   0.256   0.455  2.9915 -0.5968  1.1876
 4987SOL     OW25429   8.211   1.610   2.248 -0.0488 -0.3127  0.2704
 4987SOL    HW125430   8.161   1.531   2.213 -0.7353  0.4238 -0.4290
 4987SOL    HW225431   8.208   1.610   2.348 -1.1501 -0.4621  0.2446
 4988SOL     OW25432   8.439   3.900   1.899 -0.0718 -0.7342 -0.3548
 4988SOL    HW125433   8.498   3.820   1.911 -0.4284 -1.1237 -1.1967
 4988SOL    HW225434   8.358   3.874   1.847  0.2348  0.3764 -1.4012
 4989SOL     OW25435   0.455   5.349   0.676  0.2255 -0.5081  0.0319
 4989SOL    HW125436   0.367   5.397   0.679  0.0647 -0.8322  0.6258
 4989SOL    HW225437   0.456   5.286   0.597  0.2298  0.0704 -0.4310
 4990SOL     OW25438   9.672   2.489   0.434  0.5541  0.0854  0.3526
 4990SOL    HW125439   9.649   2.466   0.528 -0.6367  0.2026  0.0965
 4990SOL    HW225440   9.719   2.577   0.431  0.1044  0.3372  0.7776
 4991SOL     OW25441   6.972   8.283   3.051 -0.3498  0.3598  0.4229
 4991SOL    HW125442   6.951   8.245   3.141  1.1479 -0.0930  0.5883
 4991SOL    HW225443   7.062   8.252   3.022 -0.5043  1.1217 -0.9055
 4992SOL     OW25444   9.918   5.374   3.597 -0.8330  0.2392  0.4486
 4992SOL    HW125445   9.879   5.457   3.558  1.2673  0.4730 -1.2911
 4992SOL    HW225446   9.967   5.396   3.681 -2.8507  0.2266  1.6641
 4993SOL     OW25447   3.921   4.507   3.466  0.3770  0.0692  0.3411
 4993SOL    HW125448   3.971   4.483   3.382  0.9531  0.4646  0.5653
 4993SOL    HW225449   3.836   4.554   3.442  0.0239 -0.7769 -0.0513
 4994SOL     OW25450   1.562   3.834   3.329 -0.0913  0.1411  0.3472
 4994SOL    HW125451   1.575   3.844   3.428 -0.5879  0.0790  0.4197
 4994SOL    HW225452   1.475   3.788   3.311 -1.1609  2.3240 -0.1792
 4995SOL     OW25453   2.761   1.263   1.770 -0.0337 -0.7460 -0.0108
 4995SOL    HW125454   2.690   1.198   1.741 -0.3807 -0.5873  0.4750
 4995SOL    HW225455   2.787   1.320   1.693 -1.2559 -0.0409  0.0905
 4996SOL     OW25456   0.216   6.450   3.853 -0.1137 -0.4062  0.3664
 4996SOL    HW125457   0.235   6.516   3.781 -0.7157 -1.3752 -0.7107
 4996SOL    HW225458   0.123   6.464   3.888 -0.7376 -1.5124 -0.8010
 4997SOL     OW25459   0.206   3.958   3.283 -0.1478  0.2186 -0.3411
 4997SOL    HW125460   0.295   4.002   3.275  0.8152 -1.3279  1.5578
 4997SOL    HW225461   0.214   3.861   3.262 -1.7197  0.3527 -1.7296
 4998SOL     OW25462   8.822   3.710   2.412  0.5769  0.5324 -0.6341
 4998SOL    HW125463   8.822   3.619   2.371  1.5009 -0.2802  1.1156
 4998SOL    HW225464   8.916   3.744   2.418  0.6264  0.0699  1.9445
 4999SOL     OW25465   8.048   3.515   0.242  0.1118  0.3183  0.1106
 4999SOL    HW125466   8.042   3.576   0.321 -3.1701 -1.9847  1.7514
 4999SOL    HW225467   7.986   3.548   0.170  0.9874  0.8538 -0.4051
 5000SOL     OW25468   0.332   5.704   1.707 -0.2193  0.0028  0.2732
 5000SOL    HW125469   0.378   5.652   1.634 -0.3783 -0.2011  0.3198
 5000SOL    HW225470   0.239   5.671   1.718 -0.5118  0.6861 -0.0929
 5001SOL     OW25471   1.753   3.562   1.753 -0.6599  0.6457 -0.5968
 5001SOL    HW125472   1.716   3.635   1.809  0.0545  1.0377 -0.6317
 5001SOL    HW225473   1.756   3.477   1.805 -1.3065  0.6880 -0.4939
 5002SOL     OW25474   2.429   0.886   0.685 -0.1417  0.4344 -0.0458
 5002SOL    HW125475   2.395   0.796   0.714  1.4311 -0.0762  0.2558
 5002SOL    HW225476   2.471   0.932   0.762 -0.4468  1.1970 -0.3347
 5003SOL     OW25477   2.828   1.215   3.070 -0.3416  0.0412  0.5992
 5003SOL    HW125478   2.842   1.312   3.090  1.4516 -0.0535 -0.0499
 5003SOL    HW225479   2.907   1.163   3.102 -1.1365 -1.1612  0.6199
 5004SOL     OW25480   8.824   6.535   0.688  0.1756  0.5933 -0.3434
 5004SOL    HW125481   8.863   6.460   0.741  0.2761  0.4444 -0.6252
 5004SOL    HW225482   8.862   6.622   0.720 -0.8813  0.6340  0.8172
 5005SOL     OW25483   8.779   0.479   0.130  0.5930 -0.3242 -0.6705
 5005SOL    HW125484   8.720   0.484   0.050  0.5694 -2.4844 -0.8138
 5005SOL    HW225485   8.871   0.451   0.101  0.7011 -0.6663  0.0006
 5006SOL     OW25486   8.699   4.253   0.869 -0.1197 -0.3429 -1.1896
 5006SOL    HW125487   8.752   4.169   0.860  0.5848 -0.2249  1.3717
 5006SOL    HW225488   8.647   4.251   0.955 -1.6490  1.0004 -2.0359
 5007SOL     OW25489   1.402   9.559   1.245 -0.0845  0.6104  0.4937
 5007SOL    HW125490   1.321   9.608   1.213 -0.6746 -0.2078  0.7188
 5007SOL    HW225491   1.396   9.463   1.217  1.4837  0.8452 -0.7076
 5008SOL     OW25492   9.859   4.948   0.533 -0.5043 -0.2935 -0.2905
 5008SOL    HW125493   9.759   4.949   0.531 -0.4929  0.2444 -0.9302
 5008SOL    HW225494   9.894   5.008   0.461  0.2993 -2.1467 -1.4556
 5009SOL     OW25495   3.437   3.443   0.348  0.0346 -0.1847  0.5920
 5009SOL    HW125496   3.379   3.381   0.296  1.0988 -0.5192 -0.2213
 5009SOL    HW225497   3.531   3.409   0.348  0.6437  1.4123  0.1057
 5010SOL     OW25498   1.209   1.148   2.780 -0.3032  0.0194 -0.4247
 5010SOL    HW125499   1.133   1.199   2.743 -0.4563  0.0466 -0.0735
 5010SOL    HW225500   1.204   1.053   2.749 -0.4871  0.0177 -0.3862
 5011SOL     OW25501   9.907   7.066   2.174 -0.4583  0.3337  0.3584
 5011SOL    HW125502  10.004   7.082   2.155 -0.9653  1.6601 -1.2433
 5011SOL    HW225503   9.861   7.153   2.190 -1.9948  0.0262 -2.1334
 5012SOL     OW25504   0.088   0.715   1.118 -0.1404 -0.2218  0.2376
 5012SOL    HW125505  -0.001   0.762   1.126  0.8722  2.2828 -2.1543
 5012SOL    HW225506   0.095   0.673   1.028  0.4908 -1.7939  1.0070
 5013SOL     OW25507   3.530   2.977   3.056 -0.4749  0.4862  0.0826
 5013SOL    HW125508   3.518   2.879   3.069 -0.2272  0.4660  0.1635
 5013SOL    HW225509   3.530   2.999   2.958 -0.7637  0.4343  0.0732
 5014SOL     OW25510   9.845   9.930   2.655  0.2124 -1.0893  0.1951
 5014SOL    HW125511   9.942   9.954   2.656  0.4558 -2.0586  1.7944
 5014SOL    HW225512   9.812   9.922   2.750 -1.5806 -0.1407 -0.3351
 5015SOL     OW25513   2.514   2.849   3.656  0.0800  0.1800  0.2180
 5015SOL    HW125514   2.602   2.863   3.612  0.6818  2.4758  2.0567
 5015SOL    HW225515   2.518   2.769   3.715  0.7646 -0.0044 -0.0782
 5016SOL     OW25516   2.358   3.471   3.571 -0.3009 -0.5351 -0.0673
 5016SOL    HW125517   2.434   3.522   3.531 -1.4475  1.6463  0.4640
 5016SOL    HW225518   2.393   3.390   3.618  1.6726  0.3379 -0.0096
 5017SOL     OW25519   3.859   4.119   0.156  0.3458  0.5475  0.0309
 5017SOL    HW125520   3.915   4.179   0.213  1.0716 -1.0283  1.0326
 5017SOL    HW225521   3.769   4.161   0.142  0.5912  1.5445  1.2890
 5018SOL     OW25522   0.181   4.576   0.781  0.2312 -0.3760  0.0500
 5018SOL    HW125523   0.156   4.483   0.753 -0.3967  0.3575 -1.8745
 5018SOL    HW225524   0.129   4.642   0.728  1.7168  1.1110  0.4069
 5019SOL     OW25525   4.941   0.341   4.020  0.5175  0.3593  0.1545
 5019SOL    HW125526   5.035   0.307   4.014 -0.3970 -2.2176 -0.5463
 5019SOL    HW225527   4.903   0.349   3.928 -1.1607 -2.4093  0.5228
 5020SOL     OW25528   8.210   7.491   2.493  0.3017  0.3369 -0.5103
 5020SOL    HW125529   8.180   7.562   2.430 -1.3378  0.6261  0.5757
 5020SOL    HW225530   8.140   7.421   2.501  0.3874  0.4269  1.1698
 5021SOL     OW25531   8.235   5.838   1.927  0.4222 -0.0864 -0.0834
 5021SOL    HW125532   8.268   5.796   2.012  0.9468 -3.0369 -1.6493
 5021SOL    HW225533   8.148   5.796   1.901  0.4067  0.5884 -1.1464
 5022SOL     OW25534   9.425   3.654   0.882  0.5380 -0.6451 -0.7101
 5022SOL    HW125535   9.511   3.647   0.831  1.2885 -2.2135  0.7146
 5022SOL    HW225536   9.445   3.684   0.976 -0.6729  0.7811 -0.8831
 5023SOL     OW25537   3.016   7.568   0.931 -0.6906 -0.1650 -0.1419
 5023SOL    HW125538   3.071   7.536   1.008  0.2935 -0.0809 -0.8012
 5023SOL    HW225539   2.939   7.621   0.966  0.3477  0.7945  0.7592
 5024SOL     OW25540   3.688   8.297   0.302 -0.3635  0.0585  0.3353
 5024SOL    HW125541   3.681   8.397   0.294 -0.9199 -0.0285 -0.2657
 5024SOL    HW225542   3.726   8.274   0.392 -0.0529  0.8167  0.4051
 5025SOL     OW25543   1.877   3.005   0.278 -0.2469 -0.5874  0.2287
 5025SOL    HW125544   1.910   3.053   0.197 -0.8785 -0.3438  0.1187
 5025SOL    HW225545   1.814   3.063   0.329  1.8098  0.0958  2.0779
 5026SOL     OW25546   2.456   9.063   0.564  0.3400 -0.1083 -0.0344
 5026SOL    HW125547   2.482   8.966   0.558  0.9718  0.1917 -2.7097
 5026SOL    HW225548   2.372   9.078   0.513 -0.0313  0.6659  0.8001
 5027SOL     OW25549   3.480   0.461   0.087  0.3174  0.6400 -0.2373
 5027SOL    HW125550   3.469   0.364   0.111 -0.9359  1.1493  1.2934
 5027SOL    HW225551   3.577   0.485   0.091  0.6346 -0.5444 -0.6235
 5028SOL     OW25552   1.068   8.945   2.764  0.0500 -0.3317 -0.5900
 5028SOL    HW125553   1.031   9.033   2.737  1.6137  0.5582  0.1246
 5028SOL    HW225554   0.994   8.887   2.799 -1.0535  0.5108 -1.4948
 5029SOL     OW25555   0.801   6.565   3.812  0.0454 -0.0505  0.1114
 5029SOL    HW125556   0.778   6.629   3.885  2.5495  1.2110 -0.1565
 5029SOL    HW225557   0.845   6.484   3.852 -0.1088 -0.1100  0.1593
 5030SOL     OW25558   8.894   9.853   4.028 -0.2392 -0.3107  0.4059
 5030SOL    HW125559   8.884   9.827   3.932 -1.4094  1.0200  0.1665
 5030SOL    HW225560   8.878   9.951   4.038  2.3934  0.0406  1.5820
 5031SOL     OW25561   8.082   0.277   1.081 -0.1753  0.2939 -0.0858
 5031SOL    HW125562   8.020   0.232   1.017  0.5638 -2.5576  1.1280
 5031SOL    HW225563   8.177   0.264   1.051  0.0415  1.1438  0.2235
 5032SOL     OW25564   4.406   2.187   0.536 -0.1127  0.1230 -0.4968
 5032SOL    HW125565   4.348   2.191   0.617  1.0589 -0.4006  0.3785
 5032SOL    HW225566   4.360   2.232   0.459 -1.6078 -0.1752  0.2184
 5033SOL     OW25567   1.994   3.360   1.708  0.5782 -0.1126 -0.8465
 5033SOL    HW125568   1.903   3.377   1.668  0.0782 -0.7773 -0.0007
 5033SOL    HW225569   1.986   3.296   1.784  1.7535 -0.1033 -0.7017
 5034SOL     OW25570   0.261   4.440   1.265  0.1653 -0.3045 -0.4446
 5034SOL    HW125571   0.173   4.445   1.312  0.4329  2.4470 -0.1608
 5034SOL    HW225572   0.251   4.474   1.171  0.8009 -0.5616 -0.6086
 5035SOL     OW25573   9.493   2.677   1.112  0.1406  0.0238 -0.0278
 5035SOL    HW125574   9.425   2.698   1.041  1.0613  0.2603 -0.8446
 5035SOL    HW225575   9.452   2.618   1.181 -0.5554 -0.7782 -1.1236
 5036SOL     OW25576   5.264   8.943   2.536 -0.1658  0.5577 -0.4440
 5036SOL    HW125577   5.179   8.936   2.588 -0.0350  1.0358 -0.1564
 5036SOL    HW225578   5.271   8.867   2.471  0.1711 -0.6407  0.9716
 5037SOL     OW25579   9.854   4.023   1.627  0.4030  0.5110  0.3482
 5037SOL    HW125580   9.932   3.983   1.579 -0.5086  0.0694 -0.7786
 5037SOL    HW225581   9.886   4.100   1.683  1.8755 -0.5815  1.0723
 5038SOL     OW25582   2.625   2.588   0.907 -0.5102 -0.0877 -0.2910
 5038SOL    HW125583   2.583   2.593   0.997  0.3885  1.0146  0.0787
 5038SOL    HW225584   2.711   2.537   0.913 -0.1860  0.4366 -0.4135
 5039SOL     OW25585   0.408   4.801   0.045 -0.5248  0.2749  0.2826
 5039SOL    HW125586   0.313   4.776   0.024 -0.3071 -1.2115  0.9838
 5039SOL    HW225587   0.453   4.832  -0.038 -0.6594 -2.2523 -0.7958
 5040SOL     OW25588   9.219   5.502   3.007 -0.5066  0.8154 -0.2773
 5040SOL    HW125589   9.183   5.410   2.986  0.0410  0.9077 -1.6441
 5040SOL    HW225590   9.274   5.497   3.090 -1.2350  0.0911  0.1866
 5041SOL     OW25591   8.033   7.535   3.782 -0.2616  0.0471  0.2568
 5041SOL    HW125592   8.127   7.513   3.754 -0.8827 -0.5481 -1.4342
 5041SOL    HW225593   7.969   7.494   3.717 -1.7765 -1.2841  2.5124
 5042SOL     OW25594   3.903   8.134   1.852 -0.6070 -0.7860  0.4439
 5042SOL    HW125595   3.953   8.183   1.781 -1.2502  0.2748  0.7101
 5042SOL    HW225596   3.920   8.036   1.843  0.1498 -0.5761 -0.5221
 5043SOL     OW25597   2.627   9.031   2.380  0.2169 -0.1467  0.1594
 5043SOL    HW125598   2.612   9.126   2.350  0.9894 -0.6736 -1.9777
 5043SOL    HW225599   2.715   9.024   2.427  0.4424  0.0728 -0.2303
 5044SOL     OW25600   1.739   3.676   3.161  0.3950  0.4825  0.1822
 5044SOL    HW125601   1.675   3.717   3.226  0.5270  0.5319  0.2809
 5044SOL    HW225602   1.693   3.665   3.072 -0.8456 -2.5988  1.1465
 5045SOL     OW25603   9.645   5.316   2.127 -0.0119  0.1100 -0.0016
 5045SOL    HW125604   9.696   5.246   2.078  0.1493 -0.7253  1.3272
 5045SOL    HW225605   9.633   5.288   2.222 -2.9963  0.2505 -0.2776
 5046SOL     OW25606   2.738   6.544   1.939  0.1870 -0.2106  0.1150
 5046SOL    HW125607   2.748   6.593   1.852  0.5927  1.3100  1.0034
 5046SOL    HW225608   2.757   6.447   1.925 -3.6831 -0.7560 -2.3764
 5047SOL     OW25609   3.865   1.936   2.707  0.0149 -0.6569  0.0326
 5047SOL    HW125610   3.809   2.019   2.704 -0.3475 -0.9223 -0.6067
 5047SOL    HW225611   3.807   1.856   2.689  0.6887 -0.8947 -1.1014
 5048SOL     OW25612   7.502   9.132   1.188 -0.3581 -0.3246  0.1635
 5048SOL    HW125613   7.550   9.044   1.193  0.5196  0.1663  0.5052
 5048SOL    HW225614   7.498   9.173   1.279  1.9897  1.4251 -0.4776
 5049SOL     OW25615   8.139   5.848   0.983  0.4082  0.3727  0.1500
 5049SOL    HW125616   8.051   5.828   0.941 -0.7336  0.7456  2.2872
 5049SOL    HW225617   8.159   5.946   0.973 -0.9731  0.9227  2.4461
 5050SOL     OW25618   3.750   8.118   3.819 -0.0281  0.2264  0.6572
 5050SOL    HW125619   3.695   8.194   3.785  1.0544  0.8170  0.1815
 5050SOL    HW225620   3.730   8.103   3.916 -0.1208  1.2441  0.8065
 5051SOL     OW25621   4.872   9.873   1.631 -0.0676  0.0739  0.0107
 5051SOL    HW125622   4.927   9.790   1.632 -0.4695 -0.1995 -0.3819
 5051SOL    HW225623   4.864   9.910   1.724  1.2498  0.4334 -0.0147
 5052SOL     OW25624   3.388   1.271   0.835  0.2525  0.0028  0.2372
 5052SOL    HW125625   3.316   1.226   0.782  0.9348  0.1400 -0.8185
 5052SOL    HW225626   3.366   1.265   0.933 -1.2086  0.0820 -0.0735
 5053SOL     OW25627   8.844   9.238   3.339 -0.1652 -0.5701  0.3179
 5053SOL    HW125628   8.756   9.263   3.300  0.5844 -2.0124 -2.3931
 5053SOL    HW225629   8.830   9.178   3.418 -1.6010 -1.6367 -0.7212
 5054SOL     OW25630   4.880   9.604   2.706 -0.1981 -0.2915  0.5872
 5054SOL    HW125631   4.906   9.698   2.688  0.1238 -0.5927 -0.5388
 5054SOL    HW225632   4.951   9.560   2.761  0.1968 -0.2174  0.1324
 5055SOL     OW25633   3.994   0.331   2.004 -0.1712  0.2883  0.6127
 5055SOL    HW125634   3.903   0.288   2.006 -0.5830  1.1903  1.9819
 5055SOL    HW225635   3.986   0.426   2.035  0.7475  1.3310 -2.1513
 5056SOL     OW25636   8.049   1.978   0.629 -0.4117  0.0042  0.1522
 5056SOL    HW125637   8.071   2.004   0.723 -0.1550 -1.0596  0.3938
 5056SOL    HW225638   8.109   2.028   0.565 -0.0634  0.1485  0.5895
 5057SOL     OW25639   2.364   7.816   1.912 -0.4482 -0.6477  0.3154
 5057SOL    HW125640   2.268   7.791   1.905 -1.0368  1.5206  0.4396
 5057SOL    HW225641   2.395   7.857   1.827  0.3960 -1.4426  0.2365
 5058SOL     OW25642   6.222   7.727   2.706 -0.0551 -0.1308  0.5155
 5058SOL    HW125643   6.221   7.826   2.720 -1.0775  0.0468 -0.7696
 5058SOL    HW225644   6.238   7.681   2.793  0.2719  1.1549  1.1422
 5059SOL     OW25645   3.819   9.238   3.998 -0.3591  0.4858  0.0645
 5059SOL    HW125646   3.799   9.141   3.984 -0.4503  0.2619  1.5761
 5059SOL    HW225647   3.907   9.247   4.046 -0.4260  1.1445  0.0666
 5060SOL     OW25648   0.850   3.823   0.117 -0.2668 -0.3564  0.4094
 5060SOL    HW125649   0.792   3.763   0.172 -1.5882  0.7196  0.2304
 5060SOL    HW225650   0.794   3.898   0.080  1.6350  1.8862  1.9226
 5061SOL     OW25651   3.480   2.542   2.639  0.1329 -0.6586 -0.1995
 5061SOL    HW125652   3.401   2.522   2.697  0.3327 -1.8589 -0.3401
 5061SOL    HW225653   3.541   2.604   2.688  0.3034 -1.6743  0.9069
 5062SOL     OW25654   3.575   4.111   3.568  0.0204 -0.1222  0.0860
 5062SOL    HW125655   3.485   4.091   3.530  0.4359 -1.0151 -0.4332
 5062SOL    HW225656   3.566   4.177   3.642 -1.1658 -0.9253  0.6628
 5063SOL     OW25657   2.034   7.248   2.492 -0.0142 -0.4457  0.4499
 5063SOL    HW125658   2.107   7.191   2.528 -0.0884 -0.1072  1.1472
 5063SOL    HW225659   2.070   7.340   2.474 -0.9258  0.6326  3.6579
 5064SOL     OW25660   9.287   8.043   0.223  0.0300  0.2990 -0.1108
 5064SOL    HW125661   9.288   7.943   0.214 -2.2502  0.1298  1.1647
 5064SOL    HW225662   9.285   8.084   0.132  0.9645 -0.8259 -0.6483
 5065SOL     OW25663   3.955   9.860   2.206  0.9356  0.0190  0.0739
 5065SOL    HW125664   3.903   9.811   2.276 -0.3076 -0.7669 -1.3804
 5065SOL    HW225665   3.920   9.836   2.115  2.0701  1.5612 -0.7914
 5066SOL     OW25666   0.519   7.074   3.028  0.1971 -0.2801  0.6991
 5066SOL    HW125667   0.552   7.168   3.039  0.0179  0.0160 -1.1023
 5066SOL    HW225668   0.570   7.029   2.955 -0.5754 -1.1815  0.7062
 5067SOL     OW25669   2.134   4.048   1.257 -0.5030 -0.0206  0.1369
 5067SOL    HW125670   2.107   3.992   1.179 -0.7620 -0.2882  0.4159
 5067SOL    HW225671   2.063   4.115   1.276  0.1953  0.9886 -0.7413
 5068SOL     OW25672   1.403   9.355   3.086  0.4698 -0.1126 -0.2286
 5068SOL    HW125673   1.382   9.312   2.999  0.4893 -2.1454  0.7487
 5068SOL    HW225674   1.419   9.285   3.155  0.9280  1.4668  1.3034
 5069SOL     OW25675   9.748   9.252   1.868 -0.2980 -0.1338  0.2469
 5069SOL    HW125676   9.670   9.314   1.874 -0.0600  0.4805 -2.4764
 5069SOL    HW225677   9.757   9.218   1.774  3.9236  1.4252 -0.0116
 5070SOL     OW25678   8.791   7.353   3.726 -0.3341 -0.4044  0.0218
 5070SOL    HW125679   8.865   7.378   3.788 -0.4721 -1.6259  0.7094
 5070SOL    HW225680   8.724   7.298   3.776 -0.1575 -1.9092 -1.3516
 5071SOL     OW25681   9.215   8.789   0.701 -0.0348  0.0382 -0.1435
 5071SOL    HW125682   9.140   8.845   0.667  0.1060  1.5443  2.0104
 5071SOL    HW225683   9.207   8.697   0.661 -1.9791  0.6766 -1.3268
 5072SOL     OW25684   1.875   1.127   0.213 -0.3872 -0.1276  0.0056
 5072SOL    HW125685   1.812   1.202   0.196 -0.7102 -0.3388  0.2547
 5072SOL    HW225686   1.875   1.105   0.311  0.8507  0.5607  0.1702
 5073SOL     OW25687   9.449   2.715   3.788 -0.1212 -0.1917  0.0252
 5073SOL    HW125688   9.485   2.794   3.737  1.0253  0.3216  1.5789
 5073SOL    HW225689   9.380   2.746   3.853  0.8928 -0.3324  1.1914
 5074SOL     OW25690   4.287   8.733   0.467  0.4885 -0.1587 -0.0759
 5074SOL    HW125691   4.344   8.665   0.515 -0.1630 -1.2137 -0.7697
 5074SOL    HW225692   4.292   8.717   0.369  1.8870  2.0638 -0.3775
 5075SOL     OW25693   2.601   4.403   3.756 -0.7149  0.5664  0.8920
 5075SOL    HW125694   2.574   4.473   3.821 -1.6862  1.9144 -0.9194
 5075SOL    HW225695   2.566   4.314   3.785 -0.7555  1.0708  2.4088
 5076SOL     OW25696   9.344   1.134   0.939  0.0328  0.5553  0.3856
 5076SOL    HW125697   9.282   1.059   0.915  0.1458 -0.0340  1.8705
 5076SOL    HW225698   9.420   1.136   0.874 -0.0610 -0.5217  0.2239
 5077SOL     OW25699   8.735   9.894   1.081 -0.4219 -0.1984 -0.3114
 5077SOL    HW125700   8.695   9.805   1.060 -0.4869 -0.7241  1.9879
 5077SOL    HW225701   8.670   9.949   1.134  0.5341  0.2914  0.3736
 5078SOL     OW25702   2.929   0.101   2.074 -0.1480  0.5012  0.4994
 5078SOL    HW125703   3.020   0.058   2.077 -0.0011  0.8712  2.9299
 5078SOL    HW225704   2.859   0.029   2.071  0.2062  0.2087 -1.1435
 5079SOL     OW25705   3.877   1.097   3.570 -0.3194 -0.0526 -0.1425
 5079SOL    HW125706   3.825   1.175   3.604  0.7580  1.8164 -2.5829
 5079SOL    HW225707   3.928   1.055   3.645 -0.6264  1.8064  1.1375
 5080SOL     OW25708   0.993   2.825   3.560 -0.4024  0.0444 -0.1619
 5080SOL    HW125709   0.939   2.891   3.610 -0.4810 -1.9385  2.4967
 5080SOL    HW225710   1.087   2.823   3.596  0.2708  0.4157 -1.8362
 5081SOL     OW25711   4.870   8.426   2.132  0.0786 -0.1681  0.1028
 5081SOL    HW125712   4.937   8.400   2.202  1.5576  3.1860  0.0687
 5081SOL    HW225713   4.901   8.394   2.043  0.8637 -0.0280  0.3164
 5082SOL     OW25714   6.118   8.885   2.497 -0.4409 -0.0372 -0.2100
 5082SOL    HW125715   6.040   8.945   2.516 -0.3056 -0.7017  2.6816
 5082SOL    HW225716   6.084   8.791   2.482 -0.1344 -0.5330  2.1260
 5083SOL     OW25717   3.473   9.789   0.940 -0.7857  0.3946  0.2046
 5083SOL    HW125718   3.533   9.868   0.928 -0.5209  0.4132  1.5755
 5083SOL    HW225719   3.398   9.813   1.001 -0.6833 -0.4172  0.6591
 5084SOL     OW25720   6.558   7.215   2.775 -0.6935 -1.0788  0.1085
 5084SOL    HW125721   6.515   7.281   2.837 -1.3962 -0.4054 -1.0900
 5084SOL    HW225722   6.630   7.261   2.722 -0.6498 -1.4644 -0.1694
 5085SOL     OW25723   0.210   8.228   3.452  0.2760  0.1057  0.3771
 5085SOL    HW125724   0.127   8.183   3.418  0.6361 -1.5094  1.5924
 5085SOL    HW225725   0.246   8.178   3.530  1.0271  2.1968  1.4187
 5086SOL     OW25726   1.417   3.807   1.081 -0.1933  0.4032  0.1065
 5086SOL    HW125727   1.418   3.715   1.044  0.7491  0.2360  0.5193
 5086SOL    HW225728   1.362   3.866   1.022  2.1200  0.3903 -2.1862
 5087SOL     OW25729   9.110   5.270   2.897 -0.2907 -0.8900 -0.0534
 5087SOL    HW125730   9.076   5.304   2.809  0.0316 -0.8751 -0.1736
 5087SOL    HW225731   9.119   5.171   2.894 -1.3183 -0.9992  0.3266
 5088SOL     OW25732   0.532   7.810   2.381 -0.6502  0.6344  0.3356
 5088SOL    HW125733   0.527   7.732   2.319 -2.1352 -0.3072  1.6150
 5088SOL    HW225734   0.441   7.832   2.415 -0.0457  2.0510  1.0885
 5089SOL     OW25735   8.431   3.002   0.092 -0.0009  0.6578  0.3930
 5089SOL    HW125736   8.422   2.961   0.183  0.2725  3.4678  1.7611
 5089SOL    HW225737   8.519   3.047   0.085 -1.2464  3.1193 -0.0762
 5090SOL     OW25738   2.382   6.551   2.706 -0.0285 -0.1558  0.3614
 5090SOL    HW125739   2.476   6.536   2.735 -0.4397 -3.8912 -0.0188
 5090SOL    HW225740   2.381   6.586   2.613  0.9653 -3.0185 -0.7646
 5091SOL     OW25741   0.844   6.466   0.432 -0.2392  0.2042  0.2198
 5091SOL    HW125742   0.891   6.452   0.344 -0.1297 -1.0944  0.4848
 5091SOL    HW225743   0.787   6.387   0.453 -0.4245  0.5984  1.2248
 5092SOL     OW25744   1.526   8.994   2.838 -0.2086 -0.4501 -0.6385
 5092SOL    HW125745   1.435   9.025   2.866  0.0483  1.5834 -2.0080
 5092SOL    HW225746   1.595   9.057   2.874  0.5450 -1.0543 -1.0179
 5093SOL     OW25747   4.045   8.115   2.106 -0.6807  0.5955 -0.0363
 5093SOL    HW125748   4.085   8.188   2.050 -0.6550  0.6858  0.0987
 5093SOL    HW225749   3.972   8.070   2.054 -0.9774  0.9943  0.0306
 5094SOL     OW25750   1.885   5.619   0.679 -0.5610  0.5468 -0.2848
 5094SOL    HW125751   1.822   5.542   0.684  0.7334 -0.4752  0.6609
 5094SOL    HW225752   1.870   5.680   0.757 -0.0498  0.0347  0.2179
 5095SOL     OW25753   8.581   9.313   3.310  0.3073 -0.0683 -0.0183
 5095SOL    HW125754   8.505   9.269   3.262 -0.9896  0.4877  1.4666
 5095SOL    HW225755   8.548   9.348   3.398  2.2251  0.4593  0.4989
 5096SOL     OW25756   0.233   3.024   3.592 -0.3109  0.2347 -0.5753
 5096SOL    HW125757   0.164   3.071   3.538 -0.1577  0.3859 -0.6432
 5096SOL    HW225758   0.190   2.976   3.668 -0.4766  0.4471 -0.5338
 5097SOL     OW25759   9.005   6.134   3.728  0.2124  0.4419  0.0623
 5097SOL    HW125760   9.084   6.193   3.714  0.4676 -0.2713 -1.5304
 5097SOL    HW225761   8.924   6.176   3.687  0.2377  0.0442 -0.3915
 5098SOL     OW25762   4.219   9.167   2.386  0.1564 -0.0544  0.0256
 5098SOL    HW125763   4.155   9.092   2.404 -1.5708  1.4233  0.1994
 5098SOL    HW225764   4.170   9.243   2.343  2.2666  0.2381 -1.9841
 5099SOL     OW25765   1.172   6.852   3.608 -0.1082 -0.7113  0.1840
 5099SOL    HW125766   1.247   6.902   3.567  0.4818 -1.5390  0.2402
 5099SOL    HW225767   1.152   6.890   3.698 -0.3972  0.1226 -0.2239
 5100SOL     OW25768   4.312   9.739   0.525 -0.0592 -0.2241  0.0214
 5100SOL    HW125769   4.363   9.743   0.439  3.5880 -0.1811  2.0816
 5100SOL    HW225770   4.357   9.798   0.593 -2.3727 -0.8977  2.2216
 5101SOL     OW25771   0.310   5.285   2.246  0.5462 -0.4046  0.0944
 5101SOL    HW125772   0.302   5.186   2.249 -1.8600 -0.2197  1.7659
 5101SOL    HW225773   0.334   5.320   2.336 -2.3374  0.7218  0.5081
 5102SOL     OW25774   2.395   2.489   2.729  0.3918  0.6498 -0.8245
 5102SOL    HW125775   2.309   2.537   2.748 -0.1533 -0.1749 -1.1828
 5102SOL    HW225776   2.472   2.550   2.748 -0.2154  0.7880  1.3607
 5103SOL     OW25777   2.654   1.474   1.931  0.0761  0.4380  0.3381
 5103SOL    HW125778   2.555   1.462   1.938  0.0144  0.7768  0.0123
 5103SOL    HW225779   2.692   1.399   1.877 -0.2600  1.4513 -1.3273
 5104SOL     OW25780   5.903   8.316   2.564  0.6837 -0.8495  0.5412
 5104SOL    HW125781   5.907   8.217   2.575 -0.3038 -0.9066  0.4917
 5104SOL    HW225782   5.905   8.339   2.466  0.7102 -0.8315  0.5458
 5105SOL     OW25783   1.529   6.527   0.066  0.2433 -0.5862 -0.3095
 5105SOL    HW125784   1.590   6.597   0.103 -0.2397 -0.5031  0.3336
 5105SOL    HW225785   1.454   6.571   0.016  1.1530 -0.7112 -1.8044
 5106SOL     OW25786   2.673   6.460   2.772 -0.9494 -0.0718 -0.6170
 5106SOL    HW125787   2.658   6.402   2.852 -0.5540  0.2133 -0.3407
 5106SOL    HW225788   2.722   6.408   2.702  0.2089  0.2160 -0.0182
 5107SOL     OW25789   9.791   3.473   2.449 -0.0567 -0.2249 -0.1936
 5107SOL    HW125790   9.777   3.523   2.535  0.3078  0.7983 -0.7078
 5107SOL    HW225791   9.804   3.376   2.468 -0.7189 -0.1168  0.8427
 5108SOL     OW25792   2.919   9.446   0.554  0.7810  0.1304 -0.5221
 5108SOL    HW125793   2.876   9.411   0.471 -1.4401 -0.0061  0.6497
 5108SOL    HW225794   2.860   9.514   0.596  1.2482 -0.7587  1.6453
 5109SOL     OW25795   3.432   7.306   3.565  0.4101  0.4211 -0.1914
 5109SOL    HW125796   3.512   7.250   3.589  0.2581  0.7386  1.0362
 5109SOL    HW225797   3.463   7.393   3.528  0.6307  0.7588  0.7863
 5110SOL     OW25798   4.939   8.277   2.961  0.0234 -0.3081 -0.2893
 5110SOL    HW125799   4.984   8.364   2.979  0.1655 -0.4084 -0.1607
 5110SOL    HW225800   4.840   8.288   2.970  0.0028 -0.0148 -0.8644
 5111SOL     OW25801   7.790   1.923   0.357 -0.0216  0.1952 -0.0815
 5111SOL    HW125802   7.703   1.973   0.355 -0.1723 -0.0840 -1.6530
 5111SOL    HW225803   7.844   1.953   0.436 -1.1509  1.0473  0.3850
 5112SOL     OW25804   0.936   1.194   0.090  0.0785 -0.2548  0.2433
 5112SOL    HW125805   0.880   1.206   0.009 -0.3798 -0.1892  0.5705
 5112SOL    HW225806   1.027   1.162   0.063  0.1607  0.4692 -0.3472
 5113SOL     OW25807   9.254   8.570   1.291  0.5696  0.2631  0.4015
 5113SOL    HW125808   9.276   8.601   1.199  0.1726 -0.1603  0.1593
 5113SOL    HW225809   9.257   8.648   1.354  0.2740  0.6632 -0.0723
 5114SOL     OW25810   4.405   8.084   2.312 -0.1660  0.4679  0.2547
 5114SOL    HW125811   4.428   8.054   2.219 -0.4454 -0.0659  0.3570
 5114SOL    HW225812   4.463   8.161   2.337  0.2183  0.3290 -0.1955
 5115SOL     OW25813   0.248   3.380   3.438  0.4355  0.2683 -0.2441
 5115SOL    HW125814   0.188   3.435   3.495 -0.5122 -1.9702  0.9828
 5115SOL    HW225815   0.341   3.381   3.476  0.6103  1.6464 -0.6889
 5116SOL     OW25816   2.284   5.949   3.994 -0.0339  0.3272  0.7687
 5116SOL    HW125817   2.359   6.009   3.967 -0.8030  0.9597  0.0267
 5116SOL    HW225818   2.254   5.896   3.915 -0.7594  0.4934  0.9332
 5117SOL     OW25819   0.922   2.312   0.010 -0.4237  0.1081  0.4826
 5117SOL    HW125820   0.957   2.261  -0.069 -0.0578  1.4571 -0.2395
 5117SOL    HW225821   0.909   2.249   0.087 -1.8189 -1.4424 -0.9549
 5118SOL     OW25822   1.589   4.803   1.402  0.0376  0.3375 -0.1108
 5118SOL    HW125823   1.664   4.842   1.456  1.0809 -1.4752 -0.1708
 5118SOL    HW225824   1.514   4.778   1.463 -0.6888  2.4866 -0.0894
 5119SOL     OW25825   0.844   3.175   0.376  0.3474  0.0880 -0.1884
 5119SOL    HW125826   0.750   3.205   0.393  0.5557  0.4481  0.3395
 5119SOL    HW225827   0.844   3.102   0.308 -0.2421  0.7373 -0.9005
 5120SOL     OW25828   1.760   3.185   0.786 -0.0595 -0.1569 -0.5606
 5120SOL    HW125829   1.706   3.106   0.814 -1.0036 -0.2195 -2.4335
 5120SOL    HW225830   1.839   3.154   0.733  0.7821  0.0398  0.5768
 5121SOL     OW25831   0.467   3.144   0.988  0.1834  0.1764 -0.3049
 5121SOL    HW125832   0.473   3.058   1.039 -0.8746 -0.4295 -1.1690
 5121SOL    HW225833   0.401   3.204   1.032 -0.5675 -0.2585 -0.8354
 5122SOL     OW25834   9.391   9.951   3.506 -0.5696 -0.0561  0.3828
 5122SOL    HW125835   9.298   9.980   3.482 -1.0848 -3.5563 -2.2492
 5122SOL    HW225836   9.440   9.927   3.423  1.5853 -1.4306  2.0256
 5123SOL     OW25837   0.691   0.346   3.552 -0.3246 -0.1795  0.2144
 5123SOL    HW125838   0.638   0.328   3.635  3.0801 -0.9368  2.3384
 5123SOL    HW225839   0.662   0.433   3.512 -0.4089  1.4261  3.5619
 5124SOL     OW25840   2.553   0.416   3.361 -0.0588 -0.1927  0.5963
 5124SOL    HW125841   2.616   0.401   3.438  1.3816 -0.7686 -0.6592
 5124SOL    HW225842   2.561   0.339   3.297 -1.0777  0.3941 -0.2395
 5125SOL     OW25843   1.568   5.069   1.592  0.2361 -0.0403 -0.0980
 5125SOL    HW125844   1.508   5.010   1.645 -0.9486  0.0045 -1.3596
 5125SOL    HW225845   1.568   5.161   1.631 -0.3806 -0.0883  0.0167
 5126SOL     OW25846   3.453   2.642   2.117  0.0570 -0.5410 -0.3134
 5126SOL    HW125847   3.408   2.553   2.111  1.7952 -1.4091 -1.0230
 5126SOL    HW225848   3.538   2.639   2.064 -1.1796  2.4046 -2.6128
 5127SOL     OW25849   8.100   7.614   0.479 -0.2428 -0.1035  0.1599
 5127SOL    HW125850   8.024   7.618   0.414  0.0311  0.3679 -0.1277
 5127SOL    HW225851   8.116   7.704   0.517 -0.2856 -0.3433  0.7527
 5128SOL     OW25852   8.411   0.997   0.023  0.2053  0.4610  0.0999
 5128SOL    HW125853   8.510   0.993   0.037  0.4879 -1.3789 -2.1307
 5128SOL    HW225854   8.386   1.087  -0.013  1.0090  1.0430  0.9699
 5129SOL     OW25855   3.155   9.909   3.558 -0.5751  0.0260  0.1862
 5129SOL    HW125856   3.229   9.911   3.490 -0.8110  0.9445 -0.0466
 5129SOL    HW225857   3.069   9.889   3.512 -0.5823 -0.3538  0.3626
 5130SOL     OW25858   8.726   5.000   4.018 -0.8156  0.1858 -0.0596
 5130SOL    HW125859   8.825   4.992   4.012 -0.7550  0.9754 -0.0884
 5130SOL    HW225860   8.694   4.958   4.103 -0.3638  0.7774  0.4045
 5131SOL     OW25861   3.009   2.106   1.484  0.0377  0.3709 -0.0615
 5131SOL    HW125862   3.013   2.090   1.583 -0.8276 -1.0725 -0.2462
 5131SOL    HW225863   3.042   2.025   1.436 -1.2847  0.3713 -0.9831
 5132SOL     OW25864   2.660   6.279   1.015  0.4008 -0.0301  0.0319
 5132SOL    HW125865   2.702   6.280   0.925 -0.4470 -1.6822 -0.4195
 5132SOL    HW225866   2.656   6.185   1.049  0.9234  0.5881  1.9082
 5133SOL     OW25867   2.345   2.506   0.101 -0.3225 -0.2030 -0.1282
 5133SOL    HW125868   2.419   2.464   0.154 -1.2871 -0.3794  1.1061
 5133SOL    HW225869   2.334   2.601   0.129  0.1430  0.1280 -1.0715
 5134SOL     OW25870   8.869   5.738   3.113 -0.2475  0.5185  0.5546
 5134SOL    HW125871   8.946   5.754   3.051  0.0444  1.6071  1.1717
 5134SOL    HW225872   8.880   5.648   3.156 -0.2438 -0.0697 -0.6573
 5135SOL     OW25873   7.980   2.025   3.014 -0.7683  0.0022 -0.1987
 5135SOL    HW125874   7.936   2.100   2.964  0.6472  0.8078 -0.2506
 5135SOL    HW225875   8.030   2.062   3.092 -0.8904 -0.9999  0.3592
 5136SOL     OW25876   3.814   6.995   2.274 -0.0379  1.0444  0.3709
 5136SOL    HW125877   3.904   6.971   2.311 -0.9388 -0.8656  1.4153
 5136SOL    HW225878   3.750   6.919   2.289 -1.7908  2.2971 -0.5003
 5137SOL     OW25879   0.286   1.508   2.815  0.3030 -0.5579 -0.0583
 5137SOL    HW125880   0.188   1.523   2.805  0.2757 -0.1463  0.8125
 5137SOL    HW225881   0.330   1.514   2.725 -0.1285  1.6499 -0.1404
 5138SOL     OW25882   9.104   2.981   3.512  0.1447 -0.1829  0.5085
 5138SOL    HW125883   9.016   3.019   3.486  0.4394  0.3989  0.3555
 5138SOL    HW225884   9.107   2.884   3.489 -0.3429 -0.1346  0.2471
 5139SOL     OW25885   3.939   0.386   2.761 -0.0821  0.0159  0.9076
 5139SOL    HW125886   3.906   0.296   2.790 -0.9522  0.8180  2.5066
 5139SOL    HW225887   3.975   0.435   2.840  1.1460  0.7707 -0.0997
 5140SOL     OW25888   2.465   8.115   0.517  0.0047  0.3797  0.2851
 5140SOL    HW125889   2.512   8.045   0.572 -0.0203  0.3348  0.2495
 5140SOL    HW225890   2.402   8.166   0.575  0.8581  1.1333  0.5735
 5141SOL     OW25891   5.130   8.594   3.276 -0.4895 -0.1413  0.1377
 5141SOL    HW125892   5.198   8.615   3.345 -0.6297 -1.6054  0.7388
 5141SOL    HW225893   5.058   8.537   3.315 -1.5139  0.5002 -0.7586
 5142SOL     OW25894   4.177   9.555   2.663 -0.4173  0.4816 -0.3947
 5142SOL    HW125895   4.186   9.469   2.715  1.6236  1.9928  1.8453
 5142SOL    HW225896   4.260   9.570   2.610 -0.9991  0.8166 -1.2107
 5143SOL     OW25897   4.579   8.897   3.471 -0.4361  0.0726 -0.2464
 5143SOL    HW125898   4.532   8.899   3.560 -1.5835  0.4098 -0.8614
 5143SOL    HW225899   4.518   8.930   3.400  0.4216 -0.3862 -1.2071
 5144SOL     OW25900   3.481   5.549   1.422  0.2651  0.7125 -0.0904
 5144SOL    HW125901   3.560   5.494   1.398  1.1151  2.4805 -1.4500
 5144SOL    HW225902   3.435   5.580   1.339 -2.4499 -1.0870  0.6787
 5145SOL     OW25903   1.832   0.128   0.721  0.1971 -0.3378 -0.4161
 5145SOL    HW125904   1.844   0.068   0.800  0.6913  0.5973  0.2266
 5145SOL    HW225905   1.859   0.221   0.745 -1.1607  0.2826 -1.2120
 5146SOL     OW25906   3.014   1.135   1.736  0.0127  0.0314  0.9326
 5146SOL    HW125907   3.072   1.215   1.747 -0.0073  0.5834 -2.4091
 5146SOL    HW225908   2.921   1.158   1.764 -0.2544  1.6227 -1.0784
 5147SOL     OW25909   9.719   4.198   0.929 -0.7099  0.3531  0.0409
 5147SOL    HW125910   9.642   4.260   0.944 -1.2550 -0.4726  0.7663
 5147SOL    HW225911   9.699   4.139   0.850 -0.2493  1.0077 -0.5668
 5148SOL     OW25912   2.839   3.881   3.799 -0.3689 -0.5398 -0.1139
 5148SOL    HW125913   2.883   3.971   3.799  1.0483 -1.2028 -1.8539
 5148SOL    HW225914   2.868   3.830   3.880 -1.1995  0.5745  0.8925
 5149SOL     OW25915   9.168   2.869   0.608 -0.3858 -0.4700 -0.4763
 5149SOL    HW125916   9.105   2.936   0.648 -0.2782 -1.9086  2.1775
 5149SOL    HW225917   9.257   2.876   0.653 -0.5417 -2.7546  0.2382
 5150SOL     OW25918   3.571   9.892   1.247  0.1079  0.1923  0.3938
 5150SOL    HW125919   3.480   9.919   1.280 -1.2212 -2.5485 -0.9294
 5150SOL    HW225920   3.581   9.916   1.151  1.0100  0.9368  0.6578
 5151SOL     OW25921   9.472   0.242   0.638  0.7280  0.2076  0.2415
 5151SOL    HW125922   9.547   0.289   0.685  0.9858 -0.0112  0.0582
 5151SOL    HW225923   9.391   0.242   0.696  0.7457  0.8109  0.2700
 5152SOL     OW25924   8.982   4.716   3.493 -0.1978 -0.0034  0.4242
 5152SOL    HW125925   8.965   4.767   3.578  0.4550  1.1782 -0.1511
 5152SOL    HW225926   9.067   4.665   3.501  0.6763  1.3603 -0.1001
 5153SOL     OW25927   8.553   2.669   0.365 -0.0655  0.3488  0.5149
 5153SOL    HW125928   8.607   2.615   0.430 -2.0123 -1.1752  0.9014
 5153SOL    HW225929   8.570   2.635   0.272 -0.2354 -0.0283  0.6205
 5154SOL     OW25930   1.278   1.792   1.938  0.0035 -0.3521  0.3245
 5154SOL    HW125931   1.283   1.745   1.850  0.5326  1.6656 -0.7658
 5154SOL    HW225932   1.358   1.769   1.994  1.2865  0.7710 -1.0054
 5155SOL     OW25933   1.853   9.340   3.730  0.2283 -0.6692  0.3318
 5155SOL    HW125934   1.810   9.268   3.675 -1.3928  0.9501 -0.5771
 5155SOL    HW225935   1.798   9.357   3.812  0.9136 -0.8644  0.8300
 5156SOL     OW25936   0.226   7.591   2.672 -0.1944  0.3794 -0.1217
 5156SOL    HW125937   0.198   7.544   2.589 -0.4508  0.8729 -0.3172
 5156SOL    HW225938   0.211   7.532   2.751 -1.8286  0.6472 -0.2132
 5157SOL     OW25939   1.350   2.000   3.136  0.1272  0.3247  0.3758
 5157SOL    HW125940   1.347   1.900   3.143 -1.0044  0.3059 -0.2773
 5157SOL    HW225941   1.413   2.036   3.205  0.4803 -0.8325  0.6722
 5158SOL     OW25942   7.411   3.776   0.712  0.2958 -0.1692 -0.7684
 5158SOL    HW125943   7.403   3.682   0.679  1.0263  0.0428 -1.5830
 5158SOL    HW225944   7.479   3.780   0.785  1.1154 -0.0915 -1.5217
 5159SOL     OW25945   2.796   2.940   1.974 -0.1928 -0.5990 -0.3426
 5159SOL    HW125946   2.771   2.948   2.071  1.8028  0.4311  0.1210
 5159SOL    HW225947   2.715   2.956   1.917 -1.2833 -0.7284  1.1411
 5160SOL     OW25948   0.223   2.571   0.068  0.7134  0.4884  0.4449
 5160SOL    HW125949   0.286   2.607   0.137 -0.8386  1.7926  1.2045
 5160SOL    HW225950   0.205   2.474   0.087  0.6305  0.7226  1.6271
 5161SOL     OW25951   9.348   5.321   1.298 -0.2461 -0.6429  0.2922
 5161SOL    HW125952   9.434   5.361   1.331 -1.3776  1.0576  1.2011
 5161SOL    HW225953   9.296   5.286   1.376 -2.2043  1.9445  0.1880
 5162SOL     OW25954   7.847   7.549   1.908 -0.0876  0.0623 -0.1817
 5162SOL    HW125955   7.858   7.452   1.932 -0.6071  0.1705  0.5107
 5162SOL    HW225956   7.792   7.594   1.978 -0.0711  0.8022 -0.6457
 5163SOL     OW25957   0.036   1.004   3.009 -0.2307  0.9386 -0.6555
 5163SOL    HW125958   0.066   1.100   3.000  0.9718  0.5294 -1.1047
 5163SOL    HW225959   0.104   0.944   2.967 -0.8691 -0.1339 -0.1652
 5164SOL     OW25960   1.446   4.587   1.900  0.1840  0.2813  0.4976
 5164SOL    HW125961   1.497   4.639   1.968  1.0772 -0.4514  0.4142
 5164SOL    HW225962   1.508   4.520   1.857 -1.3077 -2.0228  1.8101
 5165SOL     OW25963   1.281   9.448   1.580 -0.0332  0.8399 -0.3873
 5165SOL    HW125964   1.299   9.454   1.482  0.0135  0.1707 -0.4227
 5165SOL    HW225965   1.338   9.376   1.620 -1.6461 -0.4137 -0.2625
 5166SOL     OW25966   0.376   9.661   2.984  0.2205 -0.1341 -0.3132
 5166SOL    HW125967   0.456   9.679   3.041  0.0445  2.0480 -0.7186
 5166SOL    HW225968   0.298   9.636   3.042  0.5946  0.0093  0.2519
 5167SOL     OW25969   2.555   8.029   0.279  0.3188  0.1381 -0.0086
 5167SOL    HW125970   2.631   7.967   0.298  0.0706 -0.2159 -0.1682
 5167SOL    HW225971   2.523   8.070   0.364  0.2283 -0.2521  0.1455
 5168SOL     OW25972   8.197   0.859   3.938  0.2567  0.3653  0.7212
 5168SOL    HW125973   8.282   0.901   3.967  0.5868 -0.8708  1.5992
 5168SOL    HW225974   8.120   0.911   3.975  0.6272  1.2623  0.2466
 5169SOL     OW25975   2.603   1.378   0.352  0.1364 -0.1941  0.5720
 5169SOL    HW125976   2.673   1.309   0.369  1.9052  1.1305 -1.0258
 5169SOL    HW225977   2.622   1.459   0.408  0.0035  0.2409 -0.0049
 5170SOL     OW25978   4.507   0.462   0.916  0.3364 -0.3645  0.1319
 5170SOL    HW125979   4.569   0.533   0.882 -0.4773 -0.0877 -0.8143
 5170SOL    HW225980   4.488   0.397   0.842  0.9131 -1.4642  0.9316
 5171SOL     OW25981   4.824   7.731   4.037 -0.1516 -0.1990  0.4813
 5171SOL    HW125982   4.880   7.811   4.059 -1.0911  0.0439  2.0804
 5171SOL    HW225983   4.799   7.683   4.121 -0.0854 -1.8636 -0.4168
 5172SOL     OW25984   1.300   1.440   0.427  0.3861  0.2100  0.0743
 5172SOL    HW125985   1.224   1.405   0.373 -0.1685  1.3600  0.1043
 5172SOL    HW225986   1.307   1.388   0.512  1.1661 -1.5070 -0.9947
 5173SOL     OW25987   4.794   9.971   3.543  0.2892 -0.3027 -0.2977
 5173SOL    HW125988   4.858   9.935   3.475  1.5040 -2.0579  1.6712
 5173SOL    HW225989   4.737   9.896   3.578 -1.1828  0.8023 -0.2856
 5174SOL     OW25990   2.130   9.314   1.857 -0.0570 -0.3061 -0.2348
 5174SOL    HW125991   2.192   9.236   1.852  0.0667 -0.6178  4.3484
 5174SOL    HW225992   2.035   9.282   1.859 -0.0320 -0.3206  0.9539
 5175SOL     OW25993   9.140   0.464   0.819  0.5097  0.0489 -0.3166
 5175SOL    HW125994   9.106   0.485   0.727  0.6971  0.7616 -0.2319
 5175SOL    HW225995   9.072   0.491   0.887  0.3273 -0.5773 -0.2477
 5176SOL     OW25996   3.000   7.627   3.033 -0.4870 -0.5466  0.3873
 5176SOL    HW125997   2.934   7.591   3.098  0.0827 -0.5979  0.9457
 5176SOL    HW225998   2.979   7.722   3.011 -0.6780 -0.5302  0.6485
 5177SOL     OW25999   2.248   9.548   2.916  0.2753  0.4488 -0.0887
 5177SOL    HW126000   2.154   9.562   2.884  0.4270  1.4922 -0.0905
 5177SOL    HW226001   2.259   9.592   3.005  1.2832  1.9759 -0.9370
 5178SOL     OW26002   9.821   6.140   1.403  0.0387  0.1758 -0.3561
 5178SOL    HW126003   9.832   6.104   1.310  0.7054 -1.5633  0.3788
 5178SOL    HW226004   9.904   6.189   1.430  0.6358 -1.0151  0.0308
 5179SOL     OW26005   2.991   1.358   0.167  0.0910  0.2228 -0.1233
 5179SOL    HW126006   2.959   1.263   0.164  0.9156  0.0015 -2.8268
 5179SOL    HW226007   2.993   1.389   0.262 -0.7867 -2.2627  0.7428
 5180SOL     OW26008   3.215   7.493   2.343 -1.1146  0.1457  0.0144
 5180SOL    HW126009   3.243   7.413   2.291  3.4168  1.6163 -0.0163
 5180SOL    HW226010   3.203   7.469   2.439  0.2308 -0.5931  0.0037
 5181SOL     OW26011   1.966   2.647   0.067  0.3228  0.2806  0.1695
 5181SOL    HW126012   1.992   2.726   0.012  0.6920  0.9972  1.3570
 5181SOL    HW226013   1.870   2.624   0.050  0.9187 -0.6496 -2.1416
 5182SOL     OW26014   4.629   9.569   3.912 -0.1531 -0.2395 -0.2386
 5182SOL    HW126015   4.580   9.618   3.840  0.9928 -0.4277 -1.1524
 5182SOL    HW226016   4.569   9.560   3.992 -0.7538  1.6814 -0.4431
 5183SOL     OW26017   9.560   5.623   2.832  0.4316 -0.4680  0.1793
 5183SOL    HW126018   9.588   5.678   2.754 -0.5420 -0.0696  0.0989
 5183SOL    HW226019   9.485   5.562   2.804 -1.0718  0.8722  1.2009
 5184SOL     OW26020   1.675   8.378   0.840  0.4498  0.4311  0.2032
 5184SOL    HW126021   1.602   8.418   0.896  1.7956  2.1409  0.7468
 5184SOL    HW226022   1.659   8.400   0.744  0.1898  0.7046  0.3076
 5185SOL     OW26023   1.861   0.410   0.125  0.1690 -0.0821  0.3513
 5185SOL    HW126024   1.952   0.411   0.164 -0.0019  0.4693  0.7330
 5185SOL    HW226025   1.861   0.458   0.037  0.0294  0.7972  0.8311
 5186SOL     OW26026   1.567   4.196   1.940  0.1211 -0.2285  0.2501
 5186SOL    HW126027   1.502   4.133   1.899  1.1436 -0.7650 -0.5735
 5186SOL    HW226028   1.540   4.216   2.034 -2.6241  1.5331 -0.8680
 5187SOL     OW26029   8.383   2.603   1.059 -0.0100 -0.0583 -0.4843
 5187SOL    HW126030   8.443   2.593   1.138 -0.4518 -0.7901 -0.2314
 5187SOL    HW226031   8.325   2.522   1.051  0.4048 -0.2270 -1.8809
 5188SOL     OW26032   3.919   0.253   0.685 -0.1786  0.3668 -0.0181
 5188SOL    HW126033   4.014   0.280   0.671 -0.0793  0.3703  0.6323
 5188SOL    HW226034   3.863   0.335   0.699 -0.8343  0.5816 -3.5462
 5189SOL     OW26035   3.398   3.664   3.195  0.0053  0.0265  0.2860
 5189SOL    HW126036   3.308   3.652   3.236 -0.1408  0.1620  0.0010
 5189SOL    HW226037   3.429   3.577   3.156  0.6088 -0.3851  1.6224
 5190SOL     OW26038   0.152   9.523   3.592 -0.0332 -0.2938 -0.0164
 5190SOL    HW126039   0.181   9.529   3.687 -1.1480  0.3539  0.2930
 5190SOL    HW226040   0.087   9.596   3.572 -0.1597 -0.7031 -1.1505
 5191SOL     OW26041   9.609   4.475   2.318  0.0984  0.2168 -0.4453
 5191SOL    HW126042   9.609   4.471   2.218  1.5421  0.5831 -0.4813
 5191SOL    HW226043   9.546   4.408   2.355  1.2190 -1.4924 -1.5615
 5192SOL     OW26044   0.064   0.034   3.081 -0.0751  0.2814 -0.1996
 5192SOL    HW126045   0.120   0.014   3.161  1.2685 -0.9229 -1.4052
 5192SOL    HW226046   0.064   0.133   3.064  1.4464  0.3181 -0.0023
 5193SOL     OW26047   1.442   1.203   3.707  0.0266 -0.2670 -0.0342
 5193SOL    HW126048   1.463   1.228   3.802  1.4038 -0.6322 -0.2289
 5193SOL    HW226049   1.487   1.268   3.645 -0.3564 -0.4002 -0.4518
 5194SOL     OW26050   9.163   5.271   3.944 -0.6089  0.1394  0.3627
 5194SOL    HW126051   9.111   5.261   4.029 -0.6006 -1.3633  0.2112
 5194SOL    HW226052   9.153   5.188   3.889 -0.5038  1.0444 -1.0469
 5195SOL     OW26053   9.377   9.224   1.129 -0.0151  0.3642  0.4452
 5195SOL    HW126054   9.452   9.201   1.068 -0.4150  1.5685 -0.5267
 5195SOL    HW226055   9.410   9.228   1.223  1.4652  2.2837 -0.1300
 5196SOL     OW26056   9.031   5.719   1.292 -0.0068 -0.1830 -0.2963
 5196SOL    HW126057   8.937   5.743   1.316 -0.2633  1.1665 -2.5178
 5196SOL    HW226058   9.046   5.736   1.195  2.1627 -1.6541 -0.2523
 5197SOL     OW26059   7.421   1.612   0.222  0.8175  0.0301  0.3147
 5197SOL    HW126060   7.336   1.653   0.188  1.4466  0.9700 -0.1451
 5197SOL    HW226061   7.407   1.514   0.238 -0.3530  0.1823  0.2544
 5198SOL     OW26062   9.079   3.325   2.392  0.6311 -0.8375  0.8149
 5198SOL    HW126063   9.113   3.297   2.303  1.5899 -0.8200  1.1650
 5198SOL    HW226064   8.990   3.369   2.382  1.6343  0.9893 -0.3876
 5199SOL     OW26065   3.839   8.425   3.408  0.4237  0.9482  0.0670
 5199SOL    HW126066   3.747   8.453   3.433  0.4598 -0.0142  1.3285
 5199SOL    HW226067   3.878   8.368   3.480  0.5354 -1.9034 -2.1305
 5200SOL     OW26068   3.361   4.844   2.386 -0.2369  0.1122 -0.2925
 5200SOL    HW126069   3.320   4.825   2.296  0.6604 -2.6429 -0.1346
 5200SOL    HW226070   3.412   4.930   2.380 -2.5275  1.4458 -1.6247
 5201SOL     OW26071   0.245   3.472   2.397 -0.3593  0.4593  0.1336
 5201SOL    HW126072   0.215   3.420   2.477 -0.0411 -0.5536 -0.3925
 5201SOL    HW226073   0.260   3.409   2.321  0.0613  1.3306 -0.5067
 5202SOL     OW26074   3.527   2.092   2.379 -0.2765  0.4855 -0.1881
 5202SOL    HW126075   3.583   2.151   2.438 -0.6053  1.5117 -0.8860
 5202SOL    HW226076   3.513   2.137   2.291  1.5417 -1.6974 -1.6684
 5203SOL     OW26077   1.770   3.929   3.909  0.3260 -0.1096  0.5171
 5203SOL    HW126078   1.867   3.905   3.909 -0.4217 -3.4753 -1.6975
 5203SOL    HW226079   1.731   3.912   3.999  0.9300 -2.8320  0.3180
 5204SOL     OW26080   1.945   4.264   1.273  0.0884  0.0473  0.0096
 5204SOL    HW126081   1.864   4.222   1.315 -0.3939 -1.1673 -2.0080
 5204SOL    HW226082   1.918   4.307   1.186  1.6502 -0.6083 -0.8220
 5205SOL     OW26083   9.363   3.510   2.181 -0.4899  0.0871 -0.1698
 5205SOL    HW126084   9.403   3.541   2.267  0.7187 -0.3288 -0.5699
 5205SOL    HW226085   9.326   3.418   2.193 -0.7030  0.1942  0.0107
 5206SOL     OW26086   5.170   7.717   2.530  0.3987 -0.3892  0.1665
 5206SOL    HW126087   5.172   7.624   2.567 -0.8107 -0.3711  0.3180
 5206SOL    HW226088   5.249   7.768   2.563  1.6452 -1.6698 -0.7520
 5207SOL     OW26089   0.397   2.976   2.479  0.0909  0.2820 -0.6114
 5207SOL    HW126090   0.382   2.904   2.412  0.4019 -1.6776  1.3851
 5207SOL    HW226091   0.310   3.015   2.507 -0.0409  1.1275 -2.1326
 5208SOL     OW26092   8.346   6.039   3.804  0.5900  0.1705  0.5596
 5208SOL    HW126093   8.409   6.053   3.880  1.6090 -0.7181 -0.1279
 5208SOL    HW226094   8.271   5.980   3.834  0.1346  1.1232  1.3367
 5209SOL     OW26095   0.627   9.413   0.050 -0.0588  0.1339  0.0647
 5209SOL    HW126096   0.689   9.404   0.128 -1.4488 -0.8482  1.0805
 5209SOL    HW226097   0.626   9.508   0.018  2.2756  0.0842 -0.2499
 5210SOL     OW26098   1.152   7.938   3.555  0.7186  0.3098 -0.4001
 5210SOL    HW126099   1.124   7.932   3.651 -2.4432  0.5539 -1.2459
 5210SOL    HW226100   1.202   8.024   3.540 -2.5345  2.3819  0.1812
 5211SOL     OW26101   0.173   4.713   1.305  0.0555  0.2612  0.4470
 5211SOL    HW126102   0.160   4.660   1.221  0.6967 -0.1756  0.6109
 5211SOL    HW226103   0.246   4.780   1.290  0.1752  0.1760  0.6550
 5212SOL     OW26104   9.343   0.397   1.831 -0.0428 -0.0591 -0.1605
 5212SOL    HW126105   9.383   0.396   1.922 -2.5942  0.0898  1.0061
 5212SOL    HW226106   9.340   0.492   1.798  0.0621 -0.0102 -0.0322
 5213SOL     OW26107   8.020   1.466   3.421 -0.0095 -0.6603  0.3132
 5213SOL    HW126108   8.026   1.424   3.331 -1.6405  0.5491 -0.3848
 5213SOL    HW226109   8.063   1.557   3.418 -0.4553 -0.4352  0.6210
 5214SOL     OW26110   3.368   2.153   0.112 -0.0362  0.4796  0.1840
 5214SOL    HW126111   3.342   2.228   0.051 -0.0904  1.1832  1.0706
 5214SOL    HW226112   3.292   2.132   0.174 -0.1488 -0.5397 -0.2901
 5215SOL     OW26113   2.998   9.155   1.705  0.3512 -0.3282 -0.3541
 5215SOL    HW126114   2.939   9.226   1.743 -2.3588 -2.1964 -0.8982
 5215SOL    HW226115   3.019   9.088   1.775 -0.0448 -0.8407 -0.7215
 5216SOL     OW26116   2.749   1.130   0.447  0.0983 -0.0754 -0.3882
 5216SOL    HW126117   2.791   1.113   0.536 -0.3315  0.5977 -0.0532
 5216SOL    HW226118   2.687   1.055   0.425  0.5787 -0.4873 -0.3474
 5217SOL     OW26119   6.192   9.424   2.695  0.1230  0.2036  0.2168
 5217SOL    HW126120   6.209   9.500   2.632  0.3326 -0.2219 -0.2453
 5217SOL    HW226121   6.136   9.355   2.649 -1.8957  1.0336  1.3173
 5218SOL     OW26122   2.384   6.994   2.133  0.5245  0.2452  0.0110
 5218SOL    HW126123   2.391   7.093   2.120  0.0641  0.1079 -1.4056
 5218SOL    HW226124   2.291   6.971   2.162  0.1614  0.0801 -1.2549
 5219SOL     OW26125   3.955   1.427   2.683  0.1667 -0.2139  0.0949
 5219SOL    HW126126   3.877   1.414   2.744 -0.7527 -1.4394 -1.2853
 5219SOL    HW226127   3.954   1.520   2.647 -1.4279 -0.5866 -0.8968
 5220SOL     OW26128   3.502   3.849   2.831 -0.2239 -0.2949 -0.2462
 5220SOL    HW126129   3.452   3.908   2.895 -0.8889 -0.4516 -0.6269
 5220SOL    HW226130   3.556   3.783   2.883 -0.9509 -0.5798  0.1548
 5221SOL     OW26131   9.181   9.403   2.554  0.3664  0.1435  0.4187
 5221SOL    HW126132   9.177   9.442   2.646  4.0212  0.1472  0.6671
 5221SOL    HW226133   9.220   9.311   2.558 -3.1476 -1.4701 -0.7570
 5222SOL     OW26134   3.510   7.886   0.677 -0.4314 -0.1404  0.8930
 5222SOL    HW126135   3.458   7.849   0.600  0.2334  1.1971 -0.2152
 5222SOL    HW226136   3.451   7.946   0.732  0.1800  2.1890 -0.9437
 5223SOL     OW26137   6.734   8.990   1.565 -0.3066  1.2173  0.0801
 5223SOL    HW126138   6.772   9.038   1.486 -0.3742 -0.2754 -0.8825
 5223SOL    HW226139   6.808   8.954   1.621 -0.2543 -0.2425 -0.8936
 5224SOL     OW26140   3.978   0.079   4.036 -0.3181 -0.1548 -0.3720
 5224SOL    HW126141   4.018   0.127   3.958  1.5301 -1.1616 -0.0886
 5224SOL    HW226142   4.046   0.015   4.073 -1.7283 -0.8396  1.0608
 5225SOL     OW26143   0.780   5.649   1.886  0.6939  0.2419 -0.2867
 5225SOL    HW126144   0.712   5.694   1.829 -0.2137 -1.0781 -0.2620
 5225SOL    HW226145   0.853   5.714   1.909  0.2410  1.2285 -1.5936
 5226SOL     OW26146   8.953   4.387   0.772 -0.0462  0.0773 -0.2917
 5226SOL    HW126147   8.889   4.320   0.808 -1.1779  0.9386 -0.6971
 5226SOL    HW226148   8.960   4.376   0.673 -0.8801  1.1092 -0.4709
 5227SOL     OW26149   8.934   4.571   2.997 -0.0404 -0.3167  0.1383
 5227SOL    HW126150   8.869   4.560   3.072 -0.1618  0.1085  0.0987
 5227SOL    HW226151   8.938   4.488   2.942 -0.2391 -0.4891  0.3884
 5228SOL     OW26152   1.672   3.891   0.125  0.1358 -0.1962 -0.3330
 5228SOL    HW126153   1.658   3.825   0.198  0.1031 -1.0320 -1.0819
 5228SOL    HW226154   1.662   3.984   0.161  0.7873 -0.5744  0.8620
 5229SOL     OW26155   0.959   2.497   3.473 -0.3311 -0.2823 -0.5972
 5229SOL    HW126156   0.942   2.517   3.570 -3.0073  1.2780 -1.3541
 5229SOL    HW226157   0.934   2.402   3.454 -0.9833 -0.2313 -0.0259
 5230SOL     OW26158   8.359   5.769   1.141 -0.2375  0.3358  0.4017
 5230SOL    HW126159   8.386   5.843   1.203  0.8423  0.7525 -0.5534
 5230SOL    HW226160   8.267   5.787   1.107 -1.0914 -0.1965  2.3109
 5231SOL     OW26161   3.825   8.933   2.743  0.2117  0.6980 -0.3384
 5231SOL    HW126162   3.835   9.017   2.690  1.0764  0.2298 -0.9400
 5231SOL    HW226163   3.880   8.938   2.826 -1.0890  1.4051  0.5074
 5232SOL     OW26164   0.849   2.922   1.184 -0.6870 -0.8214 -0.6609
 5232SOL    HW126165   0.801   2.859   1.123  0.1913 -0.8648 -1.3216
 5232SOL    HW226166   0.834   3.016   1.153 -0.2232 -0.8449 -0.9662
 5233SOL     OW26167   1.382   0.151   3.253  0.3148 -0.1882  0.5436
 5233SOL    HW126168   1.293   0.188   3.228 -1.2485 -1.7882  3.4291
 5233SOL    HW226169   1.412   0.191   3.340  2.1073 -0.1536 -0.0642
 5234SOL     OW26170   8.899   2.714   0.087 -0.1401  0.4039  0.5158
 5234SOL    HW126171   8.899   2.614   0.089 -2.0077  0.4070  0.9620
 5234SOL    HW226172   8.835   2.749   0.155 -0.0219  1.9023 -0.1212
 5235SOL     OW26173   7.754   2.161   2.417 -0.1752  0.0066 -1.0561
 5235SOL    HW126174   7.752   2.061   2.417 -1.1857  0.0225 -0.8859
 5235SOL    HW226175   7.713   2.194   2.332  0.4072  0.2752 -1.2339
 5236SOL     OW26176   7.940   2.645   0.443  0.1883 -0.5690 -0.0094
 5236SOL    HW126177   7.896   2.678   0.360 -1.2244 -0.6214  0.6990
 5236SOL    HW226178   7.940   2.717   0.512  2.2891 -0.1830 -0.3863
 5237SOL     OW26179   0.716   1.942   1.421 -0.6092 -0.0181 -0.0275
 5237SOL    HW126180   0.725   1.982   1.512 -1.4651 -0.8721  0.4328
 5237SOL    HW226181   0.645   1.990   1.370 -1.9709 -1.2462  0.6942
 5238SOL     OW26182   8.465   9.160   0.955  0.0527 -0.5768  0.1363
 5238SOL    HW126183   8.441   9.113   0.870 -1.1655  1.0759 -0.4398
 5238SOL    HW226184   8.421   9.249   0.959  2.5218  0.6693  1.1261
 5239SOL     OW26185   1.363   8.113   3.161  0.3706  0.1629  0.0751
 5239SOL    HW126186   1.278   8.130   3.212  1.3313 -1.2952  2.2582
 5239SOL    HW226187   1.356   8.153   3.070 -1.9112  1.7589  0.9035
 5240SOL     OW26188   9.616   0.500   0.365 -0.6161 -0.0722  0.7354
 5240SOL    HW126189   9.631   0.409   0.326  0.4656  0.0984  0.7568
 5240SOL    HW226190   9.651   0.503   0.458 -0.4624  0.4376  0.6588
 5241SOL     OW26191   8.278   2.350   3.756  0.7528  0.0274  0.5539
 5241SOL    HW126192   8.283   2.449   3.764  1.5417  0.1863 -1.5599
 5241SOL    HW226193   8.306   2.308   3.843  1.9061  1.6175  0.9829
 5242SOL     OW26194   9.860   5.108   3.662  0.3893  0.2170  0.0851
 5242SOL    HW126195   9.850   5.204   3.636  0.1830  0.0359 -0.5163
 5242SOL    HW226196   9.882   5.054   3.581 -0.3653 -0.3684  0.2627
 5243SOL     OW26197   1.048   8.851   3.681 -0.2830  0.1752  0.3269
 5243SOL    HW126198   1.088   8.852   3.589  0.0676  1.5181  0.4897
 5243SOL    HW226199   1.019   8.758   3.703 -1.1264 -0.0137 -1.4668
 5244SOL     OW26200   3.955   3.002   2.339  0.8135 -0.7569 -0.2997
 5244SOL    HW126201   3.914   3.026   2.251 -0.4910 -1.3293  0.1479
 5244SOL    HW226202   3.996   3.084   2.379  0.4149 -0.2486 -0.9117
 5245SOL     OW26203   0.490   6.429   3.967 -0.2111  0.6207 -0.6592
 5245SOL    HW126204   0.517   6.339   3.933 -2.0525 -0.7767  1.4004
 5245SOL    HW226205   0.400   6.454   3.930  0.5306  1.8950 -1.6581
 5246SOL     OW26206   4.170   8.846   4.030 -0.7428  0.6001 -0.3619
 5246SOL    HW126207   4.105   8.836   3.955 -1.4649  0.7042  0.2448
 5246SOL    HW226208   4.255   8.885   3.995 -1.0389  0.5696 -1.1373
 5247SOL     OW26209   1.008   0.604   1.867 -0.4586  0.6033 -0.1009
 5247SOL    HW126210   0.969   0.591   1.958  1.4483 -0.1896  0.6338
 5247SOL    HW226211   1.107   0.591   1.871 -0.3148  0.8286 -2.2420
 5248SOL     OW26212   2.363   6.716   1.721  0.1777  0.2270  0.1550
 5248SOL    HW126213   2.422   6.659   1.664  2.0584  0.1748  2.0670
 5248SOL    HW226214   2.292   6.757   1.665  0.3410 -1.9497 -1.7292
 5249SOL     OW26215   8.236   4.616   0.866 -0.5044 -0.0050 -0.0029
 5249SOL    HW126216   8.156   4.675   0.852 -0.4889  0.1932  0.7523
 5249SOL    HW226217   8.237   4.544   0.796 -1.9693 -0.6981  0.6709
 5250SOL     OW26218   9.282   4.978   0.445  0.3214 -0.0845  0.0323
 5250SOL    HW126219   9.366   4.935   0.478 -0.2907 -1.8652 -0.6810
 5250SOL    HW226220   9.264   4.949   0.352 -1.2158  0.1059  0.2629
 5251SOL     OW26221   2.513   8.930   1.814 -0.4533  0.1367 -0.1954
 5251SOL    HW126222   2.555   9.012   1.775 -2.4294  0.9788 -0.6593
 5251SOL    HW226223   2.569   8.895   1.888  0.8973  1.3718 -0.6143
 5252SOL     OW26224   0.043   6.684   2.677 -0.1447 -0.8523  1.0821
 5252SOL    HW126225   0.054   6.760   2.742 -1.1965  1.0826 -0.9312
 5252SOL    HW226226  -0.054   6.670   2.658  0.1919 -0.1277 -1.4397
 5253SOL     OW26227   8.458   3.005   2.257  0.3716 -0.3509  0.8450
 5253SOL    HW126228   8.548   3.047   2.244  0.4623 -0.8556 -0.2782
 5253SOL    HW226229   8.413   3.045   2.337  1.2343  0.5311  0.9010
 5254SOL     OW26230   2.360   1.007   2.872  0.2915  0.7451  0.0476
 5254SOL    HW126231   2.332   1.050   2.959 -1.1723  1.6645 -0.8544
 5254SOL    HW226232   2.280   0.995   2.814  1.0840 -0.9576 -0.7257
 5255SOL     OW26233   4.020   3.964   3.267 -0.7575  0.6868 -0.0067
 5255SOL    HW126234   4.042   3.932   3.359  0.4785  0.3826 -0.3987
 5255SOL    HW226235   3.932   4.012   3.269 -1.4301 -0.5438  1.0499
 5256SOL     OW26236   0.614   2.738   2.706 -0.1511  0.0310 -0.2596
 5256SOL    HW126237   0.680   2.760   2.778  0.0121 -0.3624 -0.2869
 5256SOL    HW226238   0.528   2.711   2.748 -0.3018  0.5514 -0.2241
 5257SOL     OW26239   8.136   6.213   0.620  0.0298 -0.2567  0.2909
 5257SOL    HW126240   8.131   6.302   0.664 -0.9964  0.5221 -1.3516
 5257SOL    HW226241   8.093   6.218   0.530 -0.8882 -2.6545  0.5735
 5258SOL     OW26242   2.936   7.896   2.952 -0.4875  0.2317 -0.2668
 5258SOL    HW126243   3.022   7.915   2.905 -0.6690  1.9543  0.0575
 5258SOL    HW226244   2.860   7.934   2.898 -1.3126 -3.2945 -1.7555
 5259SOL     OW26245   9.101   4.816   1.554 -0.9338  0.5344  0.0069
 5259SOL    HW126246   9.196   4.798   1.526 -1.6263  0.7835 -2.5695
 5259SOL    HW226247   9.065   4.735   1.600  0.2954  0.1971  0.4226
 5260SOL     OW26248   1.712   2.812   1.845  0.4231 -0.4333 -0.0356
 5260SOL    HW126249   1.794   2.755   1.839  1.1992  0.7941 -1.7202
 5260SOL    HW226250   1.731   2.890   1.905  0.4364 -0.2623 -0.2586
 5261SOL     OW26251   1.721   8.284   2.776 -0.9324 -0.2593  0.4870
 5261SOL    HW126252   1.744   8.288   2.678 -1.0192 -1.0506  0.4321
 5261SOL    HW226253   1.648   8.349   2.796 -0.2984  0.5438  0.1921
 5262SOL     OW26254   1.693   1.153   2.120 -0.1452  0.1466  0.0067
 5262SOL    HW126255   1.690   1.236   2.176 -0.9293 -0.7486  1.2964
 5262SOL    HW226256   1.730   1.176   2.030 -1.1821  2.0910  0.0360
 5263SOL     OW26257   4.935   3.413   0.563  0.5237  0.3236 -0.5022
 5263SOL    HW126258   4.899   3.454   0.646  0.3414  0.4290 -0.6334
 5263SOL    HW226259   5.035   3.411   0.567  0.4887 -0.6275  0.1787
 5264SOL     OW26260   1.545   9.158   3.964 -0.1078 -0.7845 -0.2551
 5264SOL    HW126261   1.447   9.178   3.969  0.0520  0.7250 -2.3860
 5264SOL    HW226262   1.559   9.082   3.901  0.2682  0.8463 -2.1996
 5265SOL     OW26263   3.719   8.341   1.548 -0.4895  0.3755  0.0727
 5265SOL    HW126264   3.740   8.304   1.458 -3.0021  0.2762 -0.5030
 5265SOL    HW226265   3.681   8.269   1.607 -0.0897  0.7345  0.7844
 5266SOL     OW26266   8.074   5.604   2.341  0.5378  0.2204 -0.1072
 5266SOL    HW126267   8.044   5.595   2.436  1.3418  0.3824  0.1735
 5266SOL    HW226268   8.032   5.684   2.299  0.8288  0.6347  0.3811
 5267SOL     OW26269   0.740   9.134   2.571 -0.7880 -0.9349 -0.0011
 5267SOL    HW126270   0.643   9.130   2.595 -1.2300  0.9441 -1.3421
 5267SOL    HW226271   0.750   9.153   2.474  0.8518  2.2363  0.6938
 5268SOL     OW26272   6.230   8.339   2.419  0.4522  0.0206 -0.2158
 5268SOL    HW126273   6.182   8.307   2.500  0.6207  1.0683  0.3087
 5268SOL    HW226274   6.217   8.274   2.344  0.0428 -0.7942  0.5570
 5269SOL     OW26275   4.142   7.208   0.431  0.3434  0.3186  0.3995
 5269SOL    HW126276   4.213   7.138   0.442 -1.4663 -1.8678 -1.4199
 5269SOL    HW226277   4.076   7.201   0.505 -0.0102 -0.0884  0.0423
 5270SOL     OW26278   0.945   0.768   3.814  0.1174  0.3997 -0.0662
 5270SOL    HW126279   0.882   0.821   3.871 -1.6086 -3.5757  1.9635
 5270SOL    HW226280   0.895   0.728   3.737  0.6797 -0.7871  0.1683
 5271SOL     OW26281   8.769   3.575   0.619  0.0174  0.1481 -0.4262
 5271SOL    HW126282   8.821   3.522   0.686  0.3026 -0.4255 -1.0895
 5271SOL    HW226283   8.832   3.626   0.560 -0.2093  0.1985 -0.6283
 5272SOL     OW26284   7.676   7.326   3.330 -0.1867 -0.0292  0.2627
 5272SOL    HW126285   7.756   7.271   3.351 -0.5026 -0.9278 -0.8399
 5272SOL    HW226286   7.594   7.269   3.332 -0.7585  0.7922  0.9684
 5273SOL     OW26287   0.402   2.167   0.267 -0.3017 -0.2284 -0.3238
 5273SOL    HW126288   0.493   2.197   0.294  0.3681 -1.0792 -1.5940
 5273SOL    HW226289   0.381   2.079   0.309  0.8838 -1.7233 -2.7948
 5274SOL     OW26290   8.534   5.171   2.923  0.1177  0.5294  0.1971
 5274SOL    HW126291   8.512   5.203   2.831  0.5397  0.1192 -0.0493
 5274SOL    HW226292   8.454   5.127   2.963  0.5619 -1.2783 -0.8341
 5275SOL     OW26293   0.819   9.258   0.974  0.0834 -0.2621 -0.3155
 5275SOL    HW126294   0.764   9.342   0.969  0.8620  0.2670 -0.2425
 5275SOL    HW226295   0.870   9.257   1.060  1.8227  0.3294 -1.3013
 5276SOL     OW26296   4.127   3.015   0.672  0.0210 -0.1122  0.0357
 5276SOL    HW126297   4.220   3.051   0.670 -0.4176  0.9924 -0.7141
 5276SOL    HW226298   4.063   3.089   0.693 -0.7756 -0.6875 -0.3469
 5277SOL     OW26299   9.092   8.577   2.320  0.8814 -0.3400  0.1173
 5277SOL    HW126300   9.086   8.609   2.415  0.1595  3.5908 -1.1595
 5277SOL    HW226301   9.000   8.570   2.281  1.2432 -0.6273 -0.6898
 5278SOL     OW26302   5.139   8.206   3.617  0.0289 -0.0528 -0.1697
 5278SOL    HW126303   5.118   8.278   3.551 -0.5608  0.7204  0.8412
 5278SOL    HW226304   5.055   8.156   3.640  0.5051 -1.3417 -1.1758
 5279SOL     OW26305   3.991   7.233   0.173  0.0246 -0.0382  0.1975
 5279SOL    HW126306   3.955   7.325   0.190  1.2880  0.7557 -1.2235
 5279SOL    HW226307   4.069   7.216   0.234  1.8080  1.1184 -1.6666
 5280SOL     OW26308   8.626   4.876   2.575 -0.4911  0.1732  0.2303
 5280SOL    HW126309   8.635   4.791   2.627  2.3939 -0.4193 -1.1254
 5280SOL    HW226310   8.655   4.953   2.631 -0.5958 -0.0626  0.6054
 5281SOL     OW26311   2.281   3.404   1.691  0.2012  0.8128 -0.5659
 5281SOL    HW126312   2.328   3.385   1.605 -2.5035  1.3131 -2.2264
 5281SOL    HW226313   2.184   3.382   1.681 -0.1682  0.9755  2.3452
 5282SOL     OW26314   3.147   1.723   2.413  0.5663  1.0881 -0.1065
 5282SOL    HW126315   3.109   1.801   2.363  2.3202 -0.1056 -3.5038
 5282SOL    HW226316   3.242   1.711   2.387  0.4497 -1.9027  0.7282
 5283SOL     OW26317   0.963   4.148   0.235  0.0680 -0.3408  0.1342
 5283SOL    HW126318   0.872   4.161   0.195  0.8981  0.8760 -1.4220
 5283SOL    HW226319   1.013   4.234   0.230  1.4549 -1.1154  0.6143
 5284SOL     OW26320   9.900   8.183   3.450 -0.2178  0.5813 -0.7420
 5284SOL    HW126321   9.915   8.155   3.545 -0.1229  0.7888 -0.6958
 5284SOL    HW226322   9.930   8.110   3.389  0.2123  0.6599 -0.6281
 5285SOL     OW26323   1.911   8.574   3.935  0.5917 -0.9448  0.2178
 5285SOL    HW126324   1.823   8.528   3.946  1.0016 -1.4626  1.4647
 5285SOL    HW226325   1.901   8.671   3.957  0.2480 -0.9182 -0.0468
 5286SOL     OW26326   3.184   3.487   0.540 -0.2066 -0.0890 -0.2082
 5286SOL    HW126327   3.109   3.514   0.601  1.5210 -0.5279  2.1554
 5286SOL    HW226328   3.201   3.561   0.475 -0.6984  1.2750  1.1640
 5287SOL     OW26329   8.045   1.237   1.526  0.6238 -0.0069 -0.6932
 5287SOL    HW126330   8.066   1.315   1.467  0.2328  0.3450 -0.3719
 5287SOL    HW226331   8.008   1.270   1.613  0.2533 -0.5573 -0.6392
 5288SOL     OW26332   2.937   1.980   0.091  0.3573  0.6955 -0.0571
 5288SOL    HW126333   2.986   1.893   0.094 -0.3292  0.2435 -1.5744
 5288SOL    HW226334   2.861   1.977   0.156  0.8391  0.4745  0.5006
 5289SOL     OW26335   2.039   3.988   1.675  0.1585 -0.3140  0.4236
 5289SOL    HW126336   1.946   3.979   1.639  0.0688 -1.0658  0.8222
 5289SOL    HW226337   2.104   3.965   1.602  0.0391  0.3189  0.1133
 5290SOL     OW26338   1.841   3.182   2.075  0.0425 -0.4985  0.3664
 5290SOL    HW126339   1.857   3.267   2.124  0.9112 -0.4401 -0.0165
 5290SOL    HW226340   1.897   3.179   1.992  1.0497 -2.0172  1.0688
 5291SOL     OW26341   4.720   3.514   1.330 -0.1129 -0.0021 -0.4303
 5291SOL    HW126342   4.688   3.608   1.332  1.0762  0.3965  0.1934
 5291SOL    HW226343   4.816   3.512   1.303 -0.2183 -1.0594 -0.7477
 5292SOL     OW26344   9.049   3.263   0.508  0.2285 -0.1659  0.3330
 5292SOL    HW126345   9.029   3.354   0.473  0.8044 -0.7686 -1.6127
 5292SOL    HW226346   8.963   3.218   0.533 -0.3037 -0.1155 -1.3220
 5293SOL     OW26347   0.869   5.322   3.863 -0.1698 -0.0609 -0.2320
 5293SOL    HW126348   0.934   5.252   3.893 -1.4040 -1.4394 -0.7066
 5293SOL    HW226349   0.817   5.355   3.942 -0.1516 -0.2704 -0.1314
 5294SOL     OW26350   4.868   0.974   2.382  0.0450  0.2554  0.0884
 5294SOL    HW126351   4.833   0.944   2.471  1.5281 -0.6696  0.3794
 5294SOL    HW226352   4.795   1.017   2.330 -1.0052  0.1798  1.4904
 5295SOL     OW26353   1.419   4.043   3.222  0.1992 -0.1106  0.2484
 5295SOL    HW126354   1.474   3.969   3.261  0.3834 -0.4199 -0.5979
 5295SOL    HW226355   1.468   4.084   3.145 -0.2058  0.4467  0.2849
 5296SOL     OW26356   8.774   8.452   3.063 -0.0138 -0.0405  0.0243
 5296SOL    HW126357   8.773   8.358   3.097 -0.5894 -0.0914 -0.1213
 5296SOL    HW226358   8.864   8.493   3.080  0.1068 -0.4780  0.4575
 5297SOL     OW26359   9.638   1.850   0.253  0.5298  0.4212 -0.2239
 5297SOL    HW126360   9.595   1.938   0.231  0.5500  0.1121 -1.5794
 5297SOL    HW226361   9.723   1.841   0.202  0.6921 -0.2383  0.1613
 5298SOL     OW26362   3.339   8.044   2.919  0.2132 -0.4793 -0.5370
 5298SOL    HW126363   3.365   8.088   3.006  2.0717  0.3185 -1.4532
 5298SOL    HW226364   3.296   8.112   2.860 -0.0878 -0.7580 -0.6343
 5299SOL     OW26365   7.712   8.743   3.103  0.7036  0.1371  0.3648
 5299SOL    HW126366   7.781   8.671   3.108  0.1034 -0.5570 -1.2091
 5299SOL    HW226367   7.700   8.783   3.194  1.8905 -0.9371  1.0129
 5300SOL     OW26368   8.238   0.319   2.369  0.5448  0.2591  0.0065
 5300SOL    HW126369   8.312   0.267   2.326  1.4863  1.6625 -0.1147
 5300SOL    HW226370   8.150   0.280   2.343  1.1525  0.0584 -1.8437
 5301SOL     OW26371   1.824   0.127   1.379 -0.1797  0.4403  0.0460
 5301SOL    HW126372   1.819   0.167   1.288  0.5556  1.1621  0.3273
 5301SOL    HW226373   1.899   0.168   1.431  0.5284 -1.2126  0.3734
 5302SOL     OW26374   2.172   2.277   1.079  0.1315  0.0838  0.3468
 5302SOL    HW126375   2.183   2.265   1.177  1.1780  0.2374  0.2471
 5302SOL    HW226376   2.258   2.255   1.032 -1.1564 -2.8682 -0.8041
 5303SOL     OW26377   0.119   8.754   0.415  0.2476  0.2105 -0.4401
 5303SOL    HW126378   0.173   8.673   0.394 -2.2064 -1.3539 -0.8929
 5303SOL    HW226379   0.028   8.744   0.376  0.2734  3.7407 -1.5819
 5304SOL     OW26380   8.995   4.894   3.988 -0.0929  0.0206  0.1957
 5304SOL    HW126381   9.067   4.919   3.923  0.2195 -1.3269  0.0068
 5304SOL    HW226382   9.015   4.933   4.077  1.0873 -0.6680  0.2382
 5305SOL     OW26383   1.428   4.174   1.113 -0.6651  0.0526 -0.1149
 5305SOL    HW126384   1.508   4.114   1.107 -0.2602  0.5267  0.4134
 5305SOL    HW226385   1.447   4.260   1.065 -0.4060  0.6403  1.0222
 5306SOL     OW26386   3.081   6.348   2.340 -0.2770 -0.2429 -0.0349
 5306SOL    HW126387   3.045   6.420   2.281 -0.1790  0.8053  1.1580
 5306SOL    HW226388   3.149   6.295   2.290 -2.9593 -1.8760 -2.1364
 5307SOL     OW26389   2.174   0.749   1.364  0.1316  0.2605 -0.3921
 5307SOL    HW126390   2.186   0.699   1.278  1.6457 -0.2303  0.0864
 5307SOL    HW226391   2.136   0.839   1.345 -3.0826 -1.2204 -1.2344
 5308SOL     OW26392   5.414   3.334   1.036 -0.1212  0.6161 -0.1843
 5308SOL    HW126393   5.403   3.246   0.989 -2.2146  1.0111 -0.4794
 5308SOL    HW226394   5.464   3.398   0.978 -3.6058  1.4442 -2.3755
 5309SOL     OW26395   3.472   8.928   1.322  0.3013 -0.2329  0.2072
 5309SOL    HW126396   3.543   8.869   1.283 -0.1911 -0.1900 -0.7608
 5309SOL    HW226397   3.416   8.874   1.386 -0.0804 -0.7900 -0.5915
 5310SOL     OW26398   1.888   8.242   0.937 -0.1316  0.0043 -0.0287
 5310SOL    HW126399   1.857   8.223   1.030 -1.4607 -2.7647 -0.9714
 5310SOL    HW226400   1.813   8.281   0.884  0.4332  0.9780 -0.1157
 5311SOL     OW26401   3.653   8.112   1.705  0.3590  0.0866  0.0054
 5311SOL    HW126402   3.625   8.016   1.702 -0.1504  0.1566  2.0053
 5311SOL    HW226403   3.750   8.118   1.729  0.2790  0.0925  0.3235
 5312SOL     OW26404   4.856   9.637   3.054 -0.3395 -0.1454 -0.4922
 5312SOL    HW126405   4.915   9.556   3.052 -0.7886 -0.5860  2.3323
 5312SOL    HW226406   4.762   9.610   3.074 -0.4651  1.0932  0.6381
 5313SOL     OW26407   4.623   9.900   1.238 -0.0482  0.0594 -0.2389
 5313SOL    HW126408   4.622   9.802   1.224 -4.8843 -0.1255  0.3854
 5313SOL    HW226409   4.581   9.922   1.327 -1.3144  2.7543 -1.4239
 5314SOL     OW26410   3.567   9.341   0.467  0.2010 -0.7606 -0.2276
 5314SOL    HW126411   3.483   9.394   0.453  1.1229  0.7961 -0.0360
 5314SOL    HW226412   3.644   9.404   0.479  1.0657 -2.1499  1.7347
 5315SOL     OW26413   3.144   6.281   3.711  0.0876 -0.4977  0.0047
 5315SOL    HW126414   3.124   6.213   3.641 -1.7582  1.2463 -1.2440
 5315SOL    HW226415   3.238   6.272   3.742  0.8581 -1.4348 -2.5655
 5316SOL     OW26416   4.247   0.570   3.744  0.0075  0.1491  0.1692
 5316SOL    HW126417   4.228   0.578   3.646 -1.7098 -2.0981  0.2995
 5316SOL    HW226418   4.333   0.522   3.757  0.4169  0.7622 -0.2403
 5317SOL     OW26419   3.878   2.187   3.707 -0.6347  0.0228 -1.2211
 5317SOL    HW126420   3.832   2.098   3.703  0.8110 -0.7864 -0.3183
 5317SOL    HW226421   3.899   2.218   3.614 -0.3244 -1.0320 -1.5092
 5318SOL     OW26422   9.762   3.406   0.341  0.4631  0.0079 -0.9463
 5318SOL    HW126423   9.818   3.333   0.304  0.1216 -0.2471 -0.9652
 5318SOL    HW226424   9.818   3.466   0.398  0.8327 -0.0173 -1.2820
 5319SOL     OW26425   3.809   7.534   1.826 -0.3472  0.0626  0.1537
 5319SOL    HW126426   3.816   7.452   1.883 -1.0438  0.1922  0.4380
 5319SOL    HW226427   3.891   7.544   1.770  0.6506  0.3161  1.6459
 5320SOL     OW26428   4.331   0.646   2.031  0.7874 -0.1777  0.4450
 5320SOL    HW126429   4.244   0.689   2.055  1.0782  0.4583  0.3750
 5320SOL    HW226430   4.315   0.556   1.992  0.1249  0.2145 -0.1940
 5321SOL     OW26431   2.925   8.657   3.779  0.3627  0.1269  0.4982
 5321SOL    HW126432   2.930   8.614   3.688  0.9354 -0.3821  0.7670
 5321SOL    HW226433   2.838   8.705   3.788 -0.3014 -0.9897  0.1943
 5322SOL     OW26434   4.981   8.154   1.374  0.1828 -0.1833  0.2496
 5322SOL    HW126435   4.957   8.116   1.463  0.5520 -0.3723  0.2676
 5322SOL    HW226436   4.957   8.088   1.302 -0.8436  0.2889  0.1469
 5323SOL     OW26437   2.620   3.016   0.567 -0.4735 -0.2401  0.0037
 5323SOL    HW126438   2.673   2.963   0.501  0.0147 -0.8162  0.8338
 5323SOL    HW226439   2.613   3.111   0.537 -0.1365 -0.4684 -0.7970
 5324SOL     OW26440   7.329   9.774   1.170  0.7000 -0.4698  0.0978
 5324SOL    HW126441   7.376   9.786   1.257  1.8594  0.5729 -0.6482
 5324SOL    HW226442   7.377   9.706   1.115  0.2200 -0.8134  0.1015
 5325SOL     OW26443   0.007   1.436   2.470  0.1816  0.1032 -0.6671
 5325SOL    HW126444   0.081   1.498   2.443 -0.0720  0.3267 -0.8483
 5325SOL    HW226445  -0.025   1.385   2.391 -2.9663  3.3142 -1.5490
 5326SOL     OW26446   9.206   3.371   3.769  0.5054 -0.1410  0.3346
 5326SOL    HW126447   9.117   3.405   3.739  1.6464  1.6379 -1.1224
 5326SOL    HW226448   9.216   3.275   3.742  0.0411  0.3809 -1.8196
 5327SOL     OW26449   5.855   7.950   2.063  0.0351 -0.1719 -0.7809
 5327SOL    HW126450   5.839   8.037   2.108  1.4690 -0.1749 -0.2075
 5327SOL    HW226451   5.918   7.963   1.986  1.5373 -0.9275  0.2917
 5328SOL     OW26452   5.797   8.842   2.680  0.1059  0.0358 -0.0078
 5328SOL    HW126453   5.862   8.772   2.711  1.0958  1.1140  0.3728
 5328SOL    HW226454   5.720   8.797   2.635  0.7077 -1.3111  0.2606
 5329SOL     OW26455   0.660   8.961   3.782 -0.4418 -0.1508  0.2343
 5329SOL    HW126456   0.606   8.886   3.744 -0.2018 -0.2346  0.0571
 5329SOL    HW226457   0.732   8.986   3.718 -0.4595  0.1669  0.3371
 5330SOL     OW26458   8.375   4.877   0.636  0.2429  0.1171  0.2382
 5330SOL    HW126459   8.431   4.796   0.656  0.5503  0.5861  1.2877
 5330SOL    HW226460   8.435   4.951   0.604 -0.0276 -0.0245 -0.6122
 5331SOL     OW26461   4.378   9.914   2.451 -0.5434 -0.4331  0.4477
 5331SOL    HW126462   4.385   9.825   2.496 -0.9452  0.0876  1.5654
 5331SOL    HW226463   4.469   9.956   2.448 -0.3499 -0.8744 -0.0934
 5332SOL     OW26464   4.260   4.090   3.216 -0.4849 -0.0795 -0.4367
 5332SOL    HW126465   4.298   4.143   3.292  0.0683  0.5093 -1.1066
 5332SOL    HW226466   4.166   4.064   3.236 -0.4422  0.3403  0.3118
 5333SOL     OW26467   2.525   1.205   2.750 -0.0496 -0.2461  0.2138
 5333SOL    HW126468   2.492   1.136   2.814  0.6018  0.6979  1.5963
 5333SOL    HW226469   2.623   1.221   2.766  0.1532 -0.1393 -1.1429
 5334SOL     OW26470   9.043   3.884   2.985 -0.0765 -0.4758  0.0081
 5334SOL    HW126471   9.122   3.835   3.022 -0.9207 -1.0763  1.0171
 5334SOL    HW226472   9.069   3.980   2.968  0.7994 -0.6171  0.5350
 5335SOL     OW26473   1.605   9.057   2.563 -0.0557  0.1323 -0.4566
 5335SOL    HW126474   1.592   9.007   2.648 -0.3163 -0.5258 -0.8829
 5335SOL    HW226475   1.516   9.087   2.528 -0.1359 -1.2709 -1.4970
 5336SOL     OW26476   8.441   1.049   1.529 -0.9438  0.0883  0.7689
 5336SOL    HW126477   8.394   0.962   1.515 -0.5318 -0.2762  1.5979
 5336SOL    HW226478   8.452   1.096   1.442  1.3439 -1.9827 -0.1070
 5337SOL     OW26479   0.159   8.069   3.042  0.5778  0.1957 -0.1082
 5337SOL    HW126480   0.245   8.044   2.997  0.3309 -0.0769 -0.4323
 5337SOL    HW226481   0.085   8.065   2.975  0.2549  0.0764  0.2591
 5338SOL     OW26482   0.750   8.372   2.881  0.2326 -0.2659 -0.6265
 5338SOL    HW126483   0.704   8.331   2.960  1.2146  0.3603  0.2912
 5338SOL    HW226484   0.819   8.436   2.913  0.5061  0.1450 -2.0143
 5339SOL     OW26485   9.134   2.649   2.667  0.0975  0.2081  0.2765
 5339SOL    HW126486   9.073   2.582   2.709  0.5711 -0.1136  0.4441
 5339SOL    HW226487   9.228   2.616   2.669  0.2916  0.7354  0.0752
 5340SOL     OW26488   3.368   4.045   3.373  0.2324 -0.0194 -0.5380
 5340SOL    HW126489   3.286   4.087   3.333 -1.7581 -0.8100  2.5151
 5340SOL    HW226490   3.352   3.947   3.386  0.7934  0.1908  2.0269
 5341SOL     OW26491   2.663   8.123   3.089 -0.1393 -1.3701 -0.0178
 5341SOL    HW126492   2.761   8.126   3.112 -0.0513 -1.1219 -0.4037
 5341SOL    HW226493   2.628   8.031   3.102 -0.3954 -0.9819  2.2864
 5342SOL     OW26494   0.026   9.412   0.963  0.3689  0.6990 -0.5716
 5342SOL    HW126495   0.073   9.467   0.894 -1.0513  0.4284 -1.7699
 5342SOL    HW226496  -0.050   9.363   0.921 -1.1992  1.3942  1.4102
 5343SOL     OW26497   4.661   9.050   2.511 -0.2378  0.0238  0.0978
 5343SOL    HW126498   4.580   8.995   2.493  0.3377 -0.0051 -2.7025
 5343SOL    HW226499   4.634   9.146   2.522 -0.6377  0.0772 -1.2342
 5344SOL     OW26500   2.066   7.772   0.263  0.3014 -0.0348 -0.1440
 5344SOL    HW126501   2.015   7.829   0.200 -0.7439 -0.0181  0.7007
 5344SOL    HW226502   2.081   7.682   0.222  0.0735  0.1399 -0.6118
 5345SOL     OW26503   1.585   3.630   2.943 -0.2060  0.0303 -0.3073
 5345SOL    HW126504   1.541   3.540   2.950  1.1110 -0.6603 -0.6024
 5345SOL    HW226505   1.520   3.701   2.967 -1.0154 -1.0691  0.8777
 5346SOL     OW26506   2.663   3.610   1.673  0.5364  0.0321 -0.3623
 5346SOL    HW126507   2.688   3.565   1.588  1.4944  0.0608 -0.1015
 5346SOL    HW226508   2.649   3.708   1.657  0.7827  0.0487 -0.4789
 5347SOL     OW26509   3.870   9.005   0.581  0.2858  0.1077 -0.1043
 5347SOL    HW126510   3.774   8.985   0.561  0.4030  1.3553 -1.9962
 5347SOL    HW226511   3.885   8.997   0.680 -1.3415 -1.8064  0.0318
 5348SOL     OW26512   4.719   2.577   0.424 -0.2365 -0.0229  0.3005
 5348SOL    HW126513   4.620   2.590   0.418 -0.4193 -2.0972 -1.7553
 5348SOL    HW226514   4.739   2.492   0.471  0.6193  0.7504  1.3625
 5349SOL     OW26515   8.405   3.146   2.997 -1.0076  0.0335  0.3835
 5349SOL    HW126516   8.473   3.210   3.033 -0.5829 -0.6767  0.8514
 5349SOL    HW226517   8.402   3.064   3.054 -1.3407 -0.4947 -0.3706
 5350SOL     OW26518   9.431   5.982   2.509 -0.2442  0.0309 -0.0826
 5350SOL    HW126519   9.349   6.030   2.540  0.1436 -0.2349  1.3865
 5350SOL    HW226520   9.404   5.893   2.472 -0.7625  0.5485 -0.9724
 5351SOL     OW26521   4.346   0.796   1.353  0.2695 -0.6110  0.9335
 5351SOL    HW126522   4.379   0.741   1.430  1.9500 -0.0223  0.6678
 5351SOL    HW226523   4.392   0.766   1.269 -0.9381 -0.6999  0.2968
 5352SOL     OW26524   3.850   0.357   3.789  0.3919 -0.9316 -0.1917
 5352SOL    HW126525   3.872   0.325   3.697 -2.0391  2.3176 -2.0108
 5352SOL    HW226526   3.901   0.441   3.808  0.4392 -1.2682  1.2358
 5353SOL     OW26527   6.873   9.967   2.947 -0.5200 -0.2832 -0.3601
 5353SOL    HW126528   6.795   9.909   2.970  1.3538 -1.9367  2.1049
 5353SOL    HW226529   6.899  10.021   3.027  1.5471 -0.5723 -0.8110
 5354SOL     OW26530   2.436   1.316   0.956  0.0331  0.4584  0.6965
 5354SOL    HW126531   2.491   1.350   1.033  1.2144  0.8641 -0.2982
 5354SOL    HW226532   2.475   1.351   0.871 -2.6835  1.9838  0.0520
 5355SOL     OW26533   9.888   3.626   2.104 -0.5746 -0.1266  0.2874
 5355SOL    HW126534   9.852   3.534   2.116 -0.1460 -0.2099  0.9265
 5355SOL    HW226535   9.833   3.691   2.157 -2.3684  0.3313 -2.0524
 5356SOL     OW26536   9.343   9.122   3.323 -0.1616  0.0305  0.6539
 5356SOL    HW126537   9.252   9.143   3.287 -0.2124 -0.3293  0.5755
 5356SOL    HW226538   9.377   9.201   3.375  1.6995  2.2468 -3.6927
 5357SOL     OW26539   9.601   6.548   0.638 -0.1973 -0.0295 -0.1303
 5357SOL    HW126540   9.559   6.574   0.551 -0.9211 -0.4224  0.0995
 5357SOL    HW226541   9.695   6.583   0.641  1.0798 -2.9330 -2.5501
 5358SOL     OW26542   6.298   9.186   3.416 -0.4714 -0.2506 -0.4163
 5358SOL    HW126543   6.268   9.186   3.320  0.5912  1.6681 -0.7805
 5358SOL    HW226544   6.245   9.254   3.467 -0.0073 -0.2172  0.0216
 5359SOL     OW26545   2.699   9.886   0.364 -0.0197 -0.0650 -0.0278
 5359SOL    HW126546   2.610   9.904   0.407 -0.5296 -3.3893  0.4480
 5359SOL    HW226547   2.688   9.821   0.289  1.7246  1.2634 -1.4862
 5360SOL     OW26548   5.614   8.101   2.593  0.7200  0.2255 -0.1589
 5360SOL    HW126549   5.714   8.100   2.592  0.7120 -0.3560 -2.0126
 5360SOL    HW226550   5.582   8.126   2.684  2.5443 -1.3043  0.9392
 5361SOL     OW26551   9.511   8.176   3.205 -0.1924  0.1842  0.0261
 5361SOL    HW126552   9.474   8.235   3.276  1.2139 -1.3435  2.0955
 5361SOL    HW226553   9.473   8.202   3.116 -2.0739  2.0565  1.3380
 5362SOL     OW26554   1.647   9.896   1.112  0.4870  0.6346  0.5849
 5362SOL    HW126555   1.632   9.825   1.181  0.1226  0.4370  0.3046
 5362SOL    HW226556   1.558   9.931   1.081  0.6545  0.8793  0.3793
 5363SOL     OW26557   3.104   6.141   3.497 -0.4102  0.4326  0.1600
 5363SOL    HW126558   3.116   6.120   3.400 -1.0832  1.3436 -0.1264
 5363SOL    HW226559   3.008   6.162   3.515  0.3522  4.0666  0.2557
 5364SOL     OW26560   6.584   0.496   3.122  0.2901 -0.7037 -0.1122
 5364SOL    HW126561   6.516   0.464   3.187 -1.6592 -0.6516 -2.0779
 5364SOL    HW226562   6.552   0.580   3.078  1.4306 -0.8822 -1.3494
 5365SOL     OW26563   2.862   3.910   1.030 -0.8789  0.5976  0.0536
 5365SOL    HW126564   2.923   3.948   0.961  0.1716  1.0592  1.2117
 5365SOL    HW226565   2.873   3.961   1.116  0.7689 -2.4468  1.7373
 5366SOL     OW26566   3.498   7.048   1.960 -0.3327 -0.0806 -0.3240
 5366SOL    HW126567   3.533   7.122   2.018  2.3581 -1.4883 -0.0634
 5366SOL    HW226568   3.491   7.080   1.866  0.6329  0.5825 -0.1798
 5367SOL     OW26569   8.327   2.473   2.166 -0.1649 -0.3231 -0.0176
 5367SOL    HW126570   8.343   2.558   2.215 -2.3153  1.7154 -2.6976
 5367SOL    HW226571   8.395   2.463   2.093 -1.2430  0.2087 -1.1016
 5368SOL     OW26572   0.948   7.046   1.608 -0.0316 -0.4136 -0.5606
 5368SOL    HW126573   0.871   7.010   1.554  1.2067 -0.3238 -2.4194
 5368SOL    HW226574   0.959   6.991   1.691  0.0751 -2.6185 -2.0054
 5369SOL     OW26575   8.422   3.102   1.604  0.6409 -0.5612  0.3644
 5369SOL    HW126576   8.392   3.076   1.696  2.3294 -1.8217  0.5770
 5369SOL    HW226577   8.467   3.191   1.608 -0.3260 -0.0797  0.5593
 5370SOL     OW26578   1.262   1.961   0.321 -0.4323 -0.2653  0.1008
 5370SOL    HW126579   1.290   1.922   0.234 -2.4634  0.3946 -0.8718
 5370SOL    HW226580   1.343   1.978   0.378  0.8309 -1.5161 -1.2915
 5371SOL     OW26581   2.252   5.592   3.420 -0.1517  0.2077 -0.1105
 5371SOL    HW126582   2.231   5.689   3.427 -0.9300  0.1420 -1.3654
 5371SOL    HW226583   2.333   5.579   3.364 -0.6353  0.0899 -0.7963
 5372SOL     OW26584   2.617   0.232   0.670 -0.0202 -0.3571 -0.2342
 5372SOL    HW126585   2.523   0.252   0.641  0.1405 -0.4291 -0.8042
 5372SOL    HW226586   2.617   0.153   0.730 -0.1121 -1.4638 -1.6775
 5373SOL     OW26587   7.701   1.657   0.075  0.0561 -0.1075  0.7721
 5373SOL    HW126588   7.613   1.655   0.123 -0.0330 -2.0230  0.5652
 5373SOL    HW226589   7.753   1.575   0.098  0.9670  0.0660 -0.6331
 5374SOL     OW26590   0.066   3.914   0.805 -0.3600  0.4284 -0.2901
 5374SOL    HW126591   0.050   3.932   0.902 -0.4916  0.0102 -0.2353
 5374SOL    HW226592   0.164   3.904   0.788 -0.3970 -0.4217 -0.0398
 5375SOL     OW26593   8.911   1.205   0.571  0.4975  0.4932  0.4316
 5375SOL    HW126594   8.885   1.286   0.517  1.9225 -0.0241 -1.0667
 5375SOL    HW226595   8.962   1.234   0.652  5.2468  0.9499 -2.5271
 5376SOL     OW26596   7.495   1.857   2.608 -0.3207 -0.2722  0.4792
 5376SOL    HW126597   7.473   1.951   2.635  0.9465  0.3090 -0.4710
 5376SOL    HW226598   7.578   1.857   2.553 -0.5297 -1.9187  0.1508
 5377SOL     OW26599   0.244   7.729   0.775 -0.5361  0.0441 -0.4468
 5377SOL    HW126600   0.194   7.695   0.854  1.3433  1.0371  1.2168
 5377SOL    HW226601   0.329   7.676   0.764  1.5012  2.8448  1.0577
 5378SOL     OW26602   2.422   8.544   0.709  0.3978  0.0732  0.0527
 5378SOL    HW126603   2.331   8.512   0.681  1.1276 -1.5702 -0.4858
 5378SOL    HW226604   2.491   8.478   0.680  1.8059  1.4620  0.1996
 5379SOL     OW26605   3.059   8.492   0.411  0.0030 -0.2544 -0.6392
 5379SOL    HW126606   3.082   8.405   0.369  0.4804 -0.5553  0.2317
 5379SOL    HW226607   3.127   8.514   0.481 -1.1469 -0.0776  0.4321
 5380SOL     OW26608   2.344   4.414   0.811 -0.1738  0.4254 -0.9576
 5380SOL    HW126609   2.444   4.410   0.817 -0.1619  2.2372  0.6004
 5380SOL    HW226610   2.309   4.467   0.888 -2.5277 -2.2332 -0.1430
 5381SOL     OW26611   3.136   5.652   1.353 -0.2474  0.4773 -0.3481
 5381SOL    HW126612   3.181   5.681   1.437  0.4783  0.7231 -0.8169
 5381SOL    HW226613   3.036   5.654   1.366 -0.1176 -1.3633  1.1190
 5382SOL     OW26614   3.843   3.948   3.645  0.0899  0.2187  0.3874
 5382SOL    HW126615   3.756   3.984   3.614 -0.2755 -0.1384  0.9893
 5382SOL    HW226616   3.831   3.901   3.733  0.6287 -0.9927 -0.1693
 5383SOL     OW26617   8.660   8.661   3.984  0.4193 -0.9288 -0.3152
 5383SOL    HW126618   8.700   8.606   4.057  0.4542 -1.7328 -0.9286
 5383SOL    HW226619   8.716   8.743   3.968 -1.4547  1.0950  2.8988
 5384SOL     OW26620   0.036   5.380   3.898 -0.4223  0.5478  0.7213
 5384SOL    HW126621   0.099   5.302   3.907 -1.6467 -0.4715  0.6757
 5384SOL    HW226622   0.060   5.451   3.964  0.9535  0.2983  0.4958
 5385SOL     OW26623   7.991   9.168   2.756  0.0004  0.2905 -0.1071
 5385SOL    HW126624   7.892   9.179   2.762  0.0093  1.0206 -1.2715
 5385SOL    HW226625   8.014   9.071   2.757 -0.7405  0.1115 -0.1589
 5386SOL     OW26626   0.826   7.536   3.092 -0.3654  0.5448 -0.3754
 5386SOL    HW126627   0.885   7.609   3.059  0.0948  0.4284  0.1915
 5386SOL    HW226628   0.743   7.576   3.132  0.2318  0.7970  0.6286
 5387SOL     OW26629   4.310   0.049   3.231  0.4916 -0.3209  0.0713
 5387SOL    HW126630   4.296   0.072   3.135  1.3254  0.3799  0.1120
 5387SOL    HW226631   4.291  -0.048   3.245  0.8929 -0.5487 -0.9105
 5388SOL     OW26632   8.861   8.534   2.735 -0.1799 -0.2851 -0.0007
 5388SOL    HW126633   8.795   8.585   2.790 -0.0905  0.1096 -0.2597
 5388SOL    HW226634   8.811   8.479   2.667 -0.2365  0.2673 -0.4159
 5389SOL     OW26635   3.258   4.105   2.670 -0.2598 -0.0043 -0.4280
 5389SOL    HW126636   3.247   4.050   2.587  0.7636  0.6533 -1.0155
 5389SOL    HW226637   3.310   4.053   2.737  0.9221  0.2980 -1.0759
 5390SOL     OW26638   3.119   4.202   1.229  0.3744  0.2318  0.1787
 5390SOL    HW126639   3.157   4.295   1.232  2.2971 -0.4902 -0.5353
 5390SOL    HW226640   3.062   4.192   1.148  1.8534  0.1947 -0.8801
 5391SOL     OW26641   6.207   7.293   3.109 -0.3702 -0.2398  0.0618
 5391SOL    HW126642   6.181   7.197   3.099 -1.4337 -0.0840  1.2020
 5391SOL    HW226643   6.241   7.309   3.202  1.4186  0.1328 -0.6288
 5392SOL     OW26644   2.349   8.074   2.020  0.2889 -0.3528 -0.0159
 5392SOL    HW126645   2.264   8.126   2.012  0.8960  0.5398 -0.8036
 5392SOL    HW226646   2.345   7.994   1.960 -0.5576 -1.1039  1.0250
 5393SOL     OW26647   3.191   1.776   1.847 -0.2144 -0.1004  0.3542
 5393SOL    HW126648   3.193   1.845   1.775 -0.4150  1.6163  1.9706
 5393SOL    HW226649   3.141   1.811   1.926  1.8717 -1.1505  2.1792
 5394SOL     OW26650   0.284   8.209   0.140 -0.2880  0.1582  0.3119
 5394SOL    HW126651   0.296   8.170   0.049 -2.2264 -0.5517  0.3372
 5394SOL    HW226652   0.367   8.194   0.194  0.4986 -0.3029 -0.9996
 5395SOL     OW26653   0.862   6.077   1.323 -0.3123 -0.4028 -0.1395
 5395SOL    HW126654   0.953   6.103   1.355 -1.1530 -0.6093  2.5131
 5395SOL    HW226655   0.796   6.145   1.353 -1.1438 -0.5074 -1.6471
 5396SOL     OW26656   8.928   2.660   2.996 -0.2527  0.0015 -0.4075
 5396SOL    HW126657   8.929   2.564   2.969 -0.0455 -0.6114  1.6912
 5396SOL    HW226658   9.014   2.703   2.969 -0.5611 -0.2346 -1.8387
 5397SOL     OW26659   4.375   0.897   0.938 -0.1135  0.1393 -0.3429
 5397SOL    HW126660   4.311   0.969   0.910 -0.3286 -0.4805 -1.4696
 5397SOL    HW226661   4.351   0.812   0.891  0.1097 -0.6829  1.0160
 5398SOL     OW26662   9.178   3.048   1.909 -0.1637 -0.1036  0.3985
 5398SOL    HW126663   9.201   3.089   1.821 -0.5652 -2.7286 -0.9801
 5398SOL    HW226664   9.165   2.950   1.897 -0.1028 -0.5144  3.4277
 5399SOL     OW26665   1.320   6.872   2.100  0.6738 -0.1214  0.1100
 5399SOL    HW126666   1.222   6.854   2.103  0.2697  1.9267 -0.4271
 5399SOL    HW226667   1.369   6.793   2.137 -1.1681 -1.1098  0.5050
 5400SOL     OW26668   1.946   1.014   2.136  0.4769 -0.2815 -0.2469
 5400SOL    HW126669   1.854   1.037   2.105  0.3098  3.3707  2.7741
 5400SOL    HW226670   1.948   0.919   2.168 -1.7604 -0.9261 -1.9255
 5401SOL     OW26671   1.975   6.803   0.606 -0.3079  0.0193 -0.3312
 5401SOL    HW126672   1.935   6.729   0.660 -1.3005  0.3930 -0.5482
 5401SOL    HW226673   2.058   6.770   0.562  0.7984 -0.1562  1.8225
 5402SOL     OW26674   4.693   0.681   0.842 -0.0420 -0.3585  0.5820
 5402SOL    HW126675   4.691   0.771   0.798 -0.1494 -1.4339 -1.6383
 5402SOL    HW226676   4.734   0.690   0.933  2.6842  1.4337 -0.7649
 5403SOL     OW26677   8.693   7.802   3.025 -0.8836 -0.8516  0.3479
 5403SOL    HW126678   8.723   7.781   2.933 -1.3792 -2.3210  0.5136
 5403SOL    HW226679   8.770   7.837   3.079 -0.4290 -0.6994 -0.3987
 5404SOL     OW26680   4.873   9.463   2.462 -0.3034  0.1727 -0.1359
 5404SOL    HW126681   4.941   9.395   2.491  1.5501  1.1329 -2.1228
 5404SOL    HW226682   4.872   9.539   2.527 -0.6343 -0.5932  0.7628
 5405SOL     OW26683   2.598   9.402   1.917 -0.0997 -0.0146  0.3944
 5405SOL    HW126684   2.524   9.442   1.862  0.3324  0.0640 -0.1282
 5405SOL    HW226685   2.562   9.325   1.970 -0.4378 -0.3119 -0.2599
 5406SOL     OW26686   2.305   5.717   2.110  1.1927  0.2729 -0.1563
 5406SOL    HW126687   2.276   5.622   2.127  2.0748  0.0732  0.2625
 5406SOL    HW226688   2.311   5.733   2.012 -1.0090  0.5269 -0.2685
 5407SOL     OW26689   8.440   2.691   3.472 -0.6036 -0.2324  0.6843
 5407SOL    HW126690   8.354   2.711   3.425 -1.1429 -3.6320  0.0855
 5407SOL    HW226691   8.420   2.661   3.565 -0.1194 -1.4772  0.3944
 5408SOL     OW26692   3.233   4.673   1.310 -0.0698 -0.4183  0.1554
 5408SOL    HW126693   3.307   4.692   1.374 -1.0793  2.1785  0.6143
 5408SOL    HW226694   3.152   4.725   1.336 -1.1969 -1.0395 -1.9666
 5409SOL     OW26695   8.427   0.998   3.314 -0.5216  0.2532  0.0792
 5409SOL    HW126696   8.386   1.086   3.293 -1.6089 -0.2714 -0.0164
 5409SOL    HW226697   8.355   0.932   3.335  0.1924 -1.0365 -1.4394
 5410SOL     OW26698   2.292   9.355   2.536 -0.1413 -0.0290 -0.6592
 5410SOL    HW126699   2.227   9.428   2.555 -0.6135 -0.3601 -0.9728
 5410SOL    HW226700   2.299   9.341   2.438 -3.3530 -3.2579 -0.5752
 5411SOL     OW26701   7.662   8.315   2.023 -0.1641 -0.6643  0.6684
 5411SOL    HW126702   7.590   8.380   1.997 -1.0272 -0.9711  2.2775
 5411SOL    HW226703   7.636   8.268   2.107  1.5056 -1.4518  0.7543
 5412SOL     OW26704   8.469   6.382   2.457 -0.4170  0.0390 -0.0883
 5412SOL    HW126705   8.413   6.406   2.377 -1.7780  1.3505  1.2348
 5412SOL    HW226706   8.488   6.464   2.510  0.5653 -0.8197  0.9159
 5413SOL     OW26707   9.245   6.616   2.537 -0.1078 -0.2260 -0.1405
 5413SOL    HW126708   9.236   6.649   2.631  0.0707  0.7115 -0.4515
 5413SOL    HW226709   9.160   6.570   2.509 -0.4085  0.0914  0.2457
 5414SOL     OW26710   3.188   7.143   3.499  0.2521  0.5034 -0.2343
 5414SOL    HW126711   3.238   7.222   3.534  1.0170  0.6830 -1.6981
 5414SOL    HW226712   3.239   7.060   3.521  1.7490  0.7562 -2.5983
 5415SOL     OW26713   4.295   9.218   0.463 -0.0515  0.2560  0.2457
 5415SOL    HW126714   4.219   9.208   0.528  0.4900 -0.0114  0.8379
 5415SOL    HW226715   4.272   9.168   0.379 -0.7409  0.5800  0.2347
 5416SOL     OW26716   1.314   8.692   2.897 -0.1440 -0.2474 -0.1923
 5416SOL    HW126717   1.295   8.713   2.801 -1.9458  2.0990  0.6418
 5416SOL    HW226718   1.411   8.708   2.916  0.4517 -1.7309 -1.8437
 5417SOL     OW26719   1.333   7.903   1.956 -0.5259  0.6983  0.2649
 5417SOL    HW126720   1.336   7.894   2.055 -0.3068  1.0792  0.2936
 5417SOL    HW226721   1.259   7.965   1.929 -0.3164  0.9250  0.2124
 5418SOL     OW26722   7.248   8.263   2.661  0.1045  0.1953 -0.3030
 5418SOL    HW126723   7.298   8.203   2.599  1.5276  2.1247 -1.0797
 5418SOL    HW226724   7.258   8.230   2.755 -0.1235 -1.4136 -0.8272
 5419SOL     OW26725   4.101   0.066   3.463 -0.2001 -0.2813  0.1157
 5419SOL    HW126726   4.165   0.129   3.506  0.2673 -0.7162  0.0637
 5419SOL    HW226727   4.074  -0.005   3.528  0.1134 -0.6461 -0.1475
 5420SOL     OW26728   3.539   7.848   1.712 -0.0846  0.4443 -0.2623
 5420SOL    HW126729   3.483   7.880   1.636  0.1495 -0.8496 -1.0002
 5420SOL    HW226730   3.569   7.754   1.694  1.8968  0.9328  0.3656
 5421SOL     OW26731   9.029   1.083   2.007 -0.1077  0.0432 -0.4204
 5421SOL    HW126732   9.042   1.014   1.936  1.5011  1.3226 -1.4008
 5421SOL    HW226733   9.011   1.037   2.095  4.2991 -1.7719 -0.3401
 5422SOL     OW26734   0.869   7.002   0.260 -0.4926 -0.0897  0.4623
 5422SOL    HW126735   0.799   6.931   0.266 -1.4312  0.8095  0.2305
 5422SOL    HW226736   0.868   7.042   0.168  0.7175 -0.4593  0.2713
 5423SOL     OW26737   2.018   9.385   3.215 -0.1684 -0.0674  0.4237
 5423SOL    HW126738   1.971   9.447   3.278 -0.4650 -1.2096  1.3468
 5423SOL    HW226739   2.115   9.379   3.241  0.7732  2.9672 -2.0093
 5424SOL     OW26740   9.553   3.735   3.652 -0.1466 -0.1222  0.0372
 5424SOL    HW126741   9.516   3.653   3.608  1.6339 -1.3274  0.7230
 5424SOL    HW226742   9.498   3.759   3.731 -0.8215 -0.5046 -0.3122
 5425SOL     OW26743   3.612   7.357   2.824  0.1852 -0.1361  0.1860
 5425SOL    HW126744   3.527   7.327   2.782  0.7014 -1.4587  0.0415
 5425SOL    HW226745   3.609   7.338   2.922  0.9285 -1.6898 -0.0731
 5426SOL     OW26746   3.447   1.460   3.678 -0.1593 -0.1101 -0.5514
 5426SOL    HW126747   3.463   1.407   3.595 -2.0411 -0.1031 -0.9346
 5426SOL    HW226748   3.453   1.399   3.758  1.4472 -0.1544 -0.6942
 5427SOL     OW26749   1.999   1.868   1.041 -0.6597  0.7320 -0.0503
 5427SOL    HW126750   1.984   1.954   0.992  0.1852 -0.3309 -2.2248
 5427SOL    HW226751   2.097   1.850   1.048 -0.8135  0.2297  0.9258
 5428SOL     OW26752   3.280   5.515   2.115  0.2060 -0.5290  0.5350
 5428SOL    HW126753   3.348   5.575   2.157 -0.2599  0.8399 -0.6191
 5428SOL    HW226754   3.218   5.569   2.057  0.3970 -2.2429 -1.3637
 5429SOL     OW26755   0.374   9.628   2.421 -0.0092  0.2946 -0.0185
 5429SOL    HW126756   0.418   9.624   2.511 -0.0571  0.4055  0.0099
 5429SOL    HW226757   0.275   9.619   2.432  0.0568 -0.5968 -0.1350
 5430SOL     OW26758   0.239   1.446   0.212 -0.4003 -0.6570  0.1567
 5430SOL    HW126759   0.184   1.408   0.137  0.1244 -0.7437 -0.1817
 5430SOL    HW226760   0.335   1.421   0.200 -0.4031 -1.2112  1.1943
 5431SOL     OW26761   4.093   5.057   2.189 -0.7494 -0.0685 -0.6271
 5431SOL    HW126762   4.146   5.109   2.123  0.3101 -0.3617 -0.0089
 5431SOL    HW226763   4.045   5.120   2.250  0.2399  0.1920 -0.1091
 5432SOL     OW26764   3.612   1.027   2.267  0.7725  0.0022 -0.2303
 5432SOL    HW126765   3.617   1.126   2.279 -0.7098  0.3176 -2.0819
 5432SOL    HW226766   3.561   0.987   2.343  0.1024  0.8194 -0.2445
 5433SOL     OW26767   9.313   8.368   0.274 -0.6205 -0.1021  0.0903
 5433SOL    HW126768   9.280   8.337   0.185  0.6566 -0.6023 -0.2231
 5433SOL    HW226769   9.302   8.295   0.342  0.0340 -0.3491 -0.0656
 5434SOL     OW26770   9.124   5.349   3.653  0.1094 -0.5533 -0.3967
 5434SOL    HW126771   9.158   5.265   3.613  0.9878 -0.3184 -0.1452
 5434SOL    HW226772   9.102   5.334   3.750  1.5122 -0.1669 -0.0032
 5435SOL     OW26773   2.806   5.677   2.823 -0.4597 -0.1127  0.5005
 5435SOL    HW126774   2.746   5.597   2.825  0.1805 -0.5875  1.1011
 5435SOL    HW226775   2.899   5.650   2.847 -0.1289  0.7283  0.2051
 5436SOL     OW26776   9.960   7.677   2.007 -0.0316  0.6108 -0.0496
 5436SOL    HW126777  10.009   7.762   1.986 -0.3223  0.4949 -1.2103
 5436SOL    HW226778   9.890   7.661   1.938 -0.3398 -0.3034  0.4689
 5437SOL     OW26779   0.827   6.609   1.709  0.3241 -0.3023  0.0051
 5437SOL    HW126780   0.839   6.547   1.787 -0.0610 -0.0543  0.2583
 5437SOL    HW226781   0.867   6.698   1.731 -1.1328  0.2373  0.4910
 5438SOL     OW26782   0.995   1.634   2.281 -0.4754  0.1745  0.3150
 5438SOL    HW126783   1.055   1.641   2.361 -1.0717 -0.3944  0.8147
 5438SOL    HW226784   1.025   1.699   2.211  3.0699 -2.7015 -1.0029
 5439SOL     OW26785   9.596   1.136   2.531 -0.2535  0.0413  0.8037
 5439SOL    HW126786   9.677   1.120   2.474 -0.5194  0.2635  0.3576
 5439SOL    HW226787   9.571   1.051   2.578  0.5091  0.0902  1.3022
 5440SOL     OW26788   9.237   9.447   1.150 -0.0248 -0.1417 -0.2381
 5440SOL    HW126789   9.287   9.363   1.128 -0.2403 -1.1607  2.8815
 5440SOL    HW226790   9.139   9.432   1.139 -0.0648 -0.3468  0.3429
 5441SOL     OW26791   1.306   0.243   0.937  0.1803 -0.4414  0.0717
 5441SOL    HW126792   1.243   0.213   1.008 -1.1001 -1.0655 -1.2830
 5441SOL    HW226793   1.349   0.164   0.894  2.9152  0.0278  1.8478
 5442SOL     OW26794   2.260   6.968   3.214  0.1029 -0.6923  0.6989
 5442SOL    HW126795   2.197   6.951   3.138 -1.4818 -1.3805  2.1158
 5442SOL    HW226796   2.207   6.999   3.293  1.6257 -0.8163  1.7783
 5443SOL     OW26797   9.338   8.614   3.156  0.4724 -0.0092  0.8195
 5443SOL    HW126798   9.249   8.568   3.154 -0.1432  1.2578 -1.7159
 5443SOL    HW226799   9.400   8.570   3.090  0.8893  0.8148  0.6605
 5444SOL     OW26800   9.530   8.382   0.072 -0.2370  0.1905 -0.0775
 5444SOL    HW126801   9.541   8.481   0.058  0.4554  0.2222  0.6343
 5444SOL    HW226802   9.508   8.365   0.168 -2.0445 -0.2317 -0.5380
 5445SOL     OW26803   3.971   7.569   2.794 -0.1504  0.0534  0.2099
 5445SOL    HW126804   3.966   7.469   2.802  1.2554 -0.1055 -0.6907
 5445SOL    HW226805   4.063   7.599   2.821 -0.3064  1.0168 -0.3307
 5446SOL     OW26806   4.002   0.867   0.688  0.0688 -0.2291 -0.3507
 5446SOL    HW126807   4.002   0.769   0.707 -2.5554 -0.2429 -0.1792
 5446SOL    HW226808   3.934   0.912   0.747  0.1811  1.4590 -1.4839
 5447SOL     OW26809   9.847   9.691   3.293  0.7244  0.3214 -0.0222
 5447SOL    HW126810   9.860   9.785   3.262 -0.0499  0.4707  0.0966
 5447SOL    HW226811   9.858   9.628   3.216 -1.8247  0.7321 -0.7582
 5448SOL     OW26812   9.099   3.834   3.335 -0.2544  0.3325 -0.0432
 5448SOL    HW126813   9.140   3.917   3.373 -1.9834  0.8798  0.6801
 5448SOL    HW226814   9.147   3.809   3.251 -0.3012  2.5838 -0.7690
 5449SOL     OW26815   0.919   2.687   1.502 -0.3104  0.2059  0.3586
 5449SOL    HW126816   0.961   2.754   1.441  0.5491 -0.2861  0.3932
 5449SOL    HW226817   0.856   2.629   1.450  2.0336 -1.6196 -0.5732
 5450SOL     OW26818   7.825   3.151   1.283 -0.6314 -0.6086  0.3217
 5450SOL    HW126819   7.907   3.098   1.263 -1.6821 -2.4577  0.7990
 5450SOL    HW226820   7.766   3.154   1.202 -0.2127  0.5072  0.0533
 5451SOL     OW26821   8.730   4.156   3.224  0.1709  0.0178  0.3933
 5451SOL    HW126822   8.807   4.144   3.288 -1.3020 -3.0114  1.6984
 5451SOL    HW226823   8.735   4.086   3.153 -0.0352  1.3536 -0.9632
 5452SOL     OW26824   9.902   1.322   2.250 -0.9360  0.5119 -0.5416
 5452SOL    HW126825   9.865   1.235   2.281 -1.6580  1.4286  1.1972
 5452SOL    HW226826   9.922   1.317   2.152 -2.1737 -1.1770 -0.7138
 5453SOL     OW26827   9.874   4.481   0.823  0.0249 -0.1848 -0.4289
 5453SOL    HW126828   9.803   4.453   0.758  1.0307  0.3507 -1.7926
 5453SOL    HW226829   9.963   4.445   0.794  0.6602  0.9328  0.0631
 5454SOL     OW26830   0.337   1.234   2.418 -0.1815 -0.1515  0.1852
 5454SOL    HW126831   0.351   1.316   2.362  0.6039 -0.1184  0.4241
 5454SOL    HW226832   0.242   1.205   2.410 -0.3097  0.4018 -0.4208
 5455SOL     OW26833   1.446   7.903   2.961  0.3953 -0.5224 -0.2661
 5455SOL    HW126834   1.429   7.973   3.030 -1.9570 -0.2479 -1.0849
 5455SOL    HW226835   1.536   7.919   2.919  0.6327  0.9713  0.7668
 5456SOL     OW26836   3.028   0.960   1.514 -0.0895  0.2586 -0.1753
 5456SOL    HW126837   3.105   0.991   1.458 -1.5915  2.0684 -1.2792
 5456SOL    HW226838   3.004   1.032   1.580 -0.0588 -0.7970  1.0091
 5457SOL     OW26839   1.277   1.541   1.354  0.0544 -0.1506  0.4200
 5457SOL    HW126840   1.251   1.505   1.444  1.4876  0.4616  1.1020
 5457SOL    HW226841   1.201   1.595   1.317 -0.8931 -1.1686  0.8360
 5458SOL     OW26842   8.396   6.338   1.810 -0.0324 -0.3146  0.5661
 5458SOL    HW126843   8.328   6.362   1.740 -1.4889  1.1561  2.4386
 5458SOL    HW226844   8.415   6.240   1.805  0.2998 -0.1552 -2.2297
 5459SOL     OW26845   3.312   5.704   2.483  0.7081  0.0744  0.1203
 5459SOL    HW126846   3.295   5.786   2.538  0.2141  0.3596 -0.4509
 5459SOL    HW226847   3.227   5.676   2.438  0.5265 -1.5836  1.4209
 5460SOL     OW26848   2.241   9.305   2.812 -0.1152  0.2737  0.0744
 5460SOL    HW126849   2.266   9.320   2.716 -0.3995  1.1779  0.1322
 5460SOL    HW226850   2.244   9.392   2.861 -1.9842  0.1863  0.4103
 5461SOL     OW26851   8.519   7.043   1.745  0.9872 -0.0997  0.2097
 5461SOL    HW126852   8.502   7.135   1.710  0.7798  0.2137  1.1198
 5461SOL    HW226853   8.518   6.978   1.669 -2.3194  0.1622 -0.0221
 5462SOL     OW26854   9.225   9.060   1.894 -0.4755  0.0566 -0.7771
 5462SOL    HW126855   9.211   9.108   1.981  0.0439 -0.1439 -0.5824
 5462SOL    HW226856   9.165   9.099   1.824  0.5820  1.5834 -0.8517
 5463SOL     OW26857   0.255   2.929   2.079  0.1136 -0.1694 -0.4935
 5463SOL    HW126858   0.313   2.880   2.145  0.2198 -0.1824 -0.5950
 5463SOL    HW226859   0.311   2.993   2.026 -0.3864  1.6024  1.0730
 5464SOL     OW26860   0.940   1.639   3.162 -0.1883  0.4884 -0.3391
 5464SOL    HW126861   0.879   1.561   3.174 -1.8400  1.7689 -0.3621
 5464SOL    HW226862   0.990   1.628   3.076 -1.2043 -0.0129 -0.8783
 5465SOL     OW26863   4.566   2.266   2.103 -0.9680  0.1079 -0.2845
 5465SOL    HW126864   4.518   2.326   2.039 -1.2268  1.4334  1.1210
 5465SOL    HW226865   4.659   2.300   2.117 -0.8948 -0.2055  0.0018
 5466SOL     OW26866   2.317   3.520   3.275  0.3665  0.0086 -0.6393
 5466SOL    HW126867   2.308   3.588   3.348 -0.6656 -0.3187 -0.4462
 5466SOL    HW226868   2.310   3.564   3.186  0.7783  0.2960 -0.5309
 5467SOL     OW26869   0.106   1.680   3.707 -0.0347 -0.5119 -0.2686
 5467SOL    HW126870   0.103   1.621   3.788  0.1908  0.4447  0.4463
 5467SOL    HW226871   0.198   1.680   3.669  0.2589  0.2932  0.4252
 5468SOL     OW26872   8.061   0.762   3.133 -0.6563  0.0350  0.3062
 5468SOL    HW126873   8.049   0.669   3.169  0.2402  0.1492  0.9299
 5468SOL    HW226874   8.032   0.765   3.037  0.2507 -1.1421 -0.0142
 5469SOL     OW26875   9.124   9.220   0.771  0.3323 -0.4833 -0.2013
 5469SOL    HW126876   9.117   9.319   0.756  1.1219 -0.2132  1.1739
 5469SOL    HW226877   9.190   9.182   0.706  0.1008 -0.0889 -0.6706
 5470SOL     OW26878   3.245   4.959   1.721 -0.4353  0.3163  0.2591
 5470SOL    HW126879   3.319   4.949   1.654 -0.1924  0.6217  0.4753
 5470SOL    HW226880   3.237   4.875   1.775 -1.0494 -0.1658 -0.5666
 5471SOL     OW26881   8.087   0.402   3.469 -0.2936 -0.2146 -0.8924
 5471SOL    HW126882   8.185   0.386   3.454 -0.2341 -0.0746 -0.6692
 5471SOL    HW226883   8.040   0.410   3.381  0.2964  2.0934 -1.0285
 5472SOL     OW26884   3.005   1.390   0.978 -0.4126  0.1730 -1.0132
 5472SOL    HW126885   3.077   1.355   1.037 -0.1468 -0.5451 -1.7579
 5472SOL    HW226886   2.922   1.404   1.032  0.1463  0.5879 -0.2456
 5473SOL     OW26887   0.757   2.469   0.783 -0.3298  0.0702  0.3087
 5473SOL    HW126888   0.822   2.545   0.780 -0.4492  0.1719  0.2260
 5473SOL    HW226889   0.733   2.450   0.878  1.0546 -1.0480  0.4419
 5474SOL     OW26890   3.699   5.223   2.157  0.0239  0.3789 -0.1865
 5474SOL    HW126891   3.744   5.204   2.070  0.1199 -1.2243  0.1956
 5474SOL    HW226892   3.606   5.256   2.141 -0.2678 -0.7646 -0.8846
 5475SOL     OW26893   0.039   1.102   3.981  0.0912 -0.0108  0.2218
 5475SOL    HW126894   0.116   1.088   4.044  0.6122  0.6929 -0.2490
 5475SOL    HW226895   0.072   1.150   3.899 -1.2377  2.2260  0.9495
 5476SOL     OW26896   0.686   9.715   0.108  0.1824 -0.4448  0.3026
 5476SOL    HW126897   0.748   9.697   0.184 -0.4166  0.8300  1.1069
 5476SOL    HW226898   0.591   9.713   0.140 -0.1928 -1.9809 -0.8430
 5477SOL     OW26899   0.180   7.101   2.086  0.3162 -0.6271 -0.5483
 5477SOL    HW126900   0.199   7.183   2.032 -0.2224  0.0803  0.3199
 5477SOL    HW226901   0.262   7.045   2.093  0.0771 -1.3733 -3.1788
 5478SOL     OW26902   9.953   6.191   2.081  0.6102  0.2247  0.3223
 5478SOL    HW126903  10.023   6.172   2.013 -0.8433  0.8648 -1.3792
 5478SOL    HW226904   9.942   6.290   2.091  0.9264  0.1441  1.6330
 5479SOL     OW26905   9.241   3.602   3.920  0.4495  0.1572 -0.3156
 5479SOL    HW126906   9.145   3.616   3.895 -0.0969 -1.0606  0.9998
 5479SOL    HW226907   9.273   3.515   3.884  0.4411 -0.3891  0.9881
 5480SOL     OW26908   9.748   0.418   2.020  0.4780 -0.8211  0.1975
 5480SOL    HW126909   9.765   0.325   1.989 -0.8018 -1.8111  2.3305
 5480SOL    HW226910   9.650   0.430   2.037  0.6114  0.9823 -0.2187
 5481SOL     OW26911   9.389   3.275   0.988  0.1208  0.2597  0.3681
 5481SOL    HW126912   9.314   3.340   0.977  0.7336  0.6477 -1.9670
 5481SOL    HW226913   9.356   3.182   0.969  0.4708  0.5808 -2.0637
 5482SOL     OW26914   0.749   6.633   2.428  0.7358  0.5790  0.3299
 5482SOL    HW126915   0.664   6.624   2.375  1.3545  1.2494 -0.8092
 5482SOL    HW226916   0.811   6.558   2.404 -0.3469 -1.1172  2.7378
 5483SOL     OW26917   8.910   6.153   1.631 -0.0252  0.0860 -0.2864
 5483SOL    HW126918   8.993   6.187   1.675 -0.2167  0.6422 -0.3506
 5483SOL    HW226919   8.830   6.187   1.680 -0.2187 -0.3737 -0.2796
 5484SOL     OW26920   0.583   5.672   1.087  0.1019 -0.0592  0.6779
 5484SOL    HW126921   0.680   5.691   1.075  0.3934  0.2097  3.2516
 5484SOL    HW226922   0.554   5.605   1.019  1.7525  0.9016 -1.0084
 5485SOL     OW26923   4.539   3.402   3.349 -0.4336 -0.1229  0.2805
 5485SOL    HW126924   4.503   3.454   3.272 -0.7529  1.7196  1.6333
 5485SOL    HW226925   4.637   3.387   3.337 -0.5772 -0.2816 -0.7129
 5486SOL     OW26926   9.001   9.336   1.098 -0.2111 -0.7915  0.3723
 5486SOL    HW126927   8.940   9.406   1.135 -1.5045 -1.2212 -0.9203
 5486SOL    HW226928   8.963   9.300   1.013  2.8780  0.5074 -1.6726
 5487SOL     OW26929   0.305   4.533   2.582  0.0704 -0.0396 -0.4025
 5487SOL    HW126930   0.213   4.570   2.586 -0.6045 -1.5001 -1.7387
 5487SOL    HW226931   0.328   4.490   2.670 -0.8488 -0.3913 -0.3314
 5488SOL     OW26932   8.850   2.042   1.524 -0.5269  0.4985  0.0042
 5488SOL    HW126933   8.941   2.026   1.488 -0.6833  1.2691 -0.7219
 5488SOL    HW226934   8.853   2.043   1.624 -0.2967 -2.8600  0.0818
 5489SOL     OW26935   0.743   5.563   2.805  0.4059 -0.5849 -0.0429
 5489SOL    HW126936   0.804   5.512   2.866  1.1428 -0.4129 -0.6264
 5489SOL    HW226937   0.722   5.652   2.845  3.0219  0.6113 -1.2235
 5490SOL     OW26938   3.344   1.687   3.409  0.8037 -0.7031 -0.3480
 5490SOL    HW126939   3.377   1.688   3.314  0.3382 -2.8464 -0.5672
 5490SOL    HW226940   3.312   1.595   3.431  0.5825 -0.1227  1.7925
 5491SOL     OW26941   8.241   7.359   3.197  0.1577 -0.0353  0.1640
 5491SOL    HW126942   8.267   7.334   3.290  0.6675 -3.3798 -0.8150
 5491SOL    HW226943   8.322   7.355   3.138 -1.0471 -2.7768 -1.3676
 5492SOL     OW26944   6.819   9.407   1.857  0.2230  0.1299 -0.0302
 5492SOL    HW126945   6.738   9.364   1.899 -0.4416  1.7288  0.3644
 5492SOL    HW226946   6.797   9.434   1.763  0.0867  1.1746  0.3024
 5493SOL     OW26947   3.818   4.913   3.679 -0.1321  0.3710  0.3600
 5493SOL    HW126948   3.801   4.835   3.739 -0.7341  1.4770  1.6544
 5493SOL    HW226949   3.899   4.894   3.623 -1.3235 -1.9229 -0.6523
 5494SOL     OW26950   1.067   9.831   0.149 -0.5725  0.0999  0.2174
 5494SOL    HW126951   1.055   9.754   0.086 -3.8485  0.6429  0.0736
 5494SOL    HW226952   1.028   9.807   0.238  1.1640  0.5128  1.1119
 5495SOL     OW26953   4.126   3.645   2.178  0.2608 -0.1695  0.3684
 5495SOL    HW126954   4.154   3.713   2.246 -0.4821  0.5034  0.0096
 5495SOL    HW226955   4.133   3.685   2.087  1.5155 -1.1546  0.0180
 5496SOL     OW26956   8.411   7.567   3.424 -0.3373 -0.2123 -0.2376
 5496SOL    HW126957   8.475   7.538   3.353  0.4368  2.4141 -0.6574
 5496SOL    HW226958   8.451   7.551   3.514  1.6386  2.7723 -0.4999
 5497SOL     OW26959   3.957   6.521   2.825 -0.3991 -0.1720 -0.4297
 5497SOL    HW126960   3.936   6.524   2.922 -0.5485  0.5825 -0.4828
 5497SOL    HW226961   3.876   6.547   2.772  0.6345  2.7845 -0.6259
 5498SOL     OW26962   2.549   1.001   1.196 -0.4063  0.3066 -0.4214
 5498SOL    HW126963   2.466   0.982   1.249 -0.0008 -0.3070  0.0149
 5498SOL    HW226964   2.629   0.973   1.250  0.1025  1.2749 -0.6695
 5499SOL     OW26965   2.058   0.478   2.250  0.4475  0.3598 -0.0673
 5499SOL    HW126966   2.017   0.453   2.163 -0.2942  0.2253  0.3200
 5499SOL    HW226967   2.140   0.423   2.265  0.2173 -0.0733 -0.3828
 5500SOL     OW26968   4.330   7.916   2.620 -0.3557 -0.0139  0.0370
 5500SOL    HW126969   4.396   7.882   2.553 -0.7782  0.8627 -0.8380
 5500SOL    HW226970   4.277   7.990   2.579 -1.3457 -0.1894  0.9961
 5501SOL     OW26971   4.080   6.642   2.359  0.5816 -0.0471 -0.0581
 5501SOL    HW126972   4.160   6.650   2.300 -0.4995 -0.1516 -1.5692
 5501SOL    HW226973   4.002   6.609   2.305 -1.1362  2.4868  0.8171
 5502SOL     OW26974   9.573   9.459   1.811  0.3587  0.0471  0.3134
 5502SOL    HW126975   9.499   9.525   1.820  1.1373  0.6308  2.6936
 5502SOL    HW226976   9.630   9.483   1.732 -0.3561  1.2072  0.1403
 5503SOL     OW26977   2.040   3.528   0.622 -0.0164 -0.7374  0.6939
 5503SOL    HW126978   2.060   3.457   0.555  1.3069  1.3362 -1.1797
 5503SOL    HW226979   1.947   3.517   0.656 -0.9277 -1.4712 -1.9526
 5504SOL     OW26980   2.231   7.399   3.519 -0.5523  0.5872 -0.3222
 5504SOL    HW126981   2.267   7.363   3.605  2.0882  1.9586 -0.7941
 5504SOL    HW226982   2.176   7.481   3.538  0.7296  1.3817 -0.0070
 5505SOL     OW26983   2.535   5.817   2.242 -0.1259  0.2025  0.2409
 5505SOL    HW126984   2.459   5.771   2.195  0.2383 -2.0340  1.7515
 5505SOL    HW226985   2.535   5.789   2.338  2.9425 -0.2497  0.1413
 5506SOL     OW26986   4.322   8.624   0.938 -0.2225 -0.1763  0.4327
 5506SOL    HW126987   4.396   8.561   0.913 -1.1055 -2.1375  2.5506
 5506SOL    HW226988   4.242   8.605   0.882 -0.6013 -1.2415  1.2995
 5507SOL     OW26989   6.523   8.201   2.607  0.2294  0.3094  0.2627
 5507SOL    HW126990   6.610   8.167   2.572  0.2868  1.1099 -0.3851
 5507SOL    HW226991   6.448   8.151   2.563  0.3113  1.0793 -0.7701
 5508SOL     OW26992   2.071   7.034   3.019 -0.0547 -0.2008 -0.7052
 5508SOL    HW126993   2.021   7.113   3.056 -0.8358  0.6136 -3.3696
 5508SOL    HW226994   2.008   6.959   3.004  0.7068 -1.4053  1.9091
 5509SOL     OW26995   8.388   8.311   0.245 -0.0344  0.3197  0.1571
 5509SOL    HW126996   8.310   8.317   0.307 -0.3680  0.8587 -0.3133
 5509SOL    HW226997   8.470   8.287   0.297 -0.4112  0.2453  0.7282
 5510SOL     OW26998   9.823   4.306   2.066  0.0560 -0.0547  0.4433
 5510SOL    HW126999   9.874   4.318   2.151  0.0004 -1.2079  0.6541
 5510SOL    HW227000   9.883   4.264   1.997  0.0129  0.5876  0.0077
 5511SOL     OW27001   1.573   3.988   0.855 -0.7066  0.1839 -0.2248
 5511SOL    HW127002   1.584   4.083   0.826  2.0345 -0.1920 -0.6275
 5511SOL    HW227003   1.591   3.981   0.953 -1.6209  0.1782 -0.0533
 5512SOL     OW27004   2.327   4.655   2.820 -0.6524  0.6089  0.0418
 5512SOL    HW127005   2.250   4.603   2.783  1.9314 -1.1190 -3.1077
 5512SOL    HW227006   2.348   4.731   2.760  0.6159  0.5840  0.4494
 5513SOL     OW27007   9.357   6.779   0.476  0.0506  0.0515  0.2578
 5513SOL    HW127008   9.285   6.733   0.528  1.0604  0.0721  1.6936
 5513SOL    HW227009   9.335   6.875   0.465  0.5491  0.3725  1.9677
 5514SOL     OW27010   3.259   3.010   1.146  0.4863  0.2983  0.4995
 5514SOL    HW127011   3.344   2.972   1.110 -0.5826 -1.4407 -0.2553
 5514SOL    HW227012   3.210   3.057   1.073  0.0129 -0.1308  0.5396
 5515SOL     OW27013   1.412   7.142   1.541 -0.9895 -0.4608 -0.0488
 5515SOL    HW127014   1.333   7.099   1.583 -0.7258  0.2014  1.1399
 5515SOL    HW227015   1.382   7.220   1.486 -1.3302 -1.3143 -1.0973
 5516SOL     OW27016   2.248   5.656   1.219 -0.1093  0.1478 -0.0721
 5516SOL    HW127017   2.297   5.743   1.219 -1.8873  1.1828 -0.5128
 5516SOL    HW227018   2.273   5.604   1.301  0.4319  1.3852  0.5722
 5517SOL     OW27019   8.113   0.121   2.178 -0.3482 -0.0763  0.4794
 5517SOL    HW127020   8.103   0.180   2.098  0.0603  0.2834  0.6906
 5517SOL    HW227021   8.160   0.037   2.152  2.4414  1.2919  0.9095
 5518SOL     OW27022   2.724   2.022   1.625  0.0945  0.7853 -0.3365
 5518SOL    HW127023   2.802   2.019   1.687 -0.2554  0.8104  0.1023
 5518SOL    HW227024   2.709   2.117   1.595  0.3799  0.7449 -0.6128
 5519SOL     OW27025   1.548   7.997   1.016  0.3461 -0.0319  0.5070
 5519SOL    HW127026   1.589   8.085   1.041 -0.4606  0.3934  0.3193
 5519SOL    HW227027   1.619   7.926   1.018  0.6952  0.3476  2.0759
 5520SOL     OW27028   0.399   6.102   2.762  0.4186  0.1984 -0.3151
 5520SOL    HW127029   0.393   6.195   2.796 -3.5011 -0.1370  0.1310
 5520SOL    HW227030   0.419   6.040   2.838  1.6755  0.4975 -0.3880
 5521SOL     OW27031   8.696   6.028   0.548  0.4472 -0.3705  0.2486
 5521SOL    HW127032   8.747   5.965   0.490  0.4719 -0.3132  0.2080
 5521SOL    HW227033   8.691   6.118   0.504 -3.1291 -1.4086 -1.6998
 5522SOL     OW27034   8.184   2.392   1.041 -0.6154  0.7381  0.3032
 5522SOL    HW127035   8.173   2.294   1.055  0.0798  0.2101 -2.5839
 5522SOL    HW227036   8.126   2.422   0.965 -0.2388  2.4234  0.6470
 5523SOL     OW27037   0.459   9.654   0.287 -0.2559  0.4696  0.4293
 5523SOL    HW127038   0.472   9.727   0.354 -0.9402  0.6942  0.3259
 5523SOL    HW227039   0.444   9.568   0.335  3.0738 -0.1025  0.5575
 5524SOL     OW27040   8.265   9.888   0.259  0.0884  0.6985 -0.2435
 5524SOL    HW127041   8.194   9.950   0.226 -1.7984 -0.1631  2.0264
 5524SOL    HW227042   8.303   9.923   0.345  0.5300 -0.1820 -0.0707
 5525SOL     OW27043   9.089   1.346   2.101 -0.6199  0.1730 -0.1069
 5525SOL    HW127044   8.998   1.380   2.125 -0.1932  0.1159  1.7345
 5525SOL    HW227045   9.081   1.253   2.064 -1.4395  0.7519 -1.4021
 5526SOL     OW27046   8.399   8.364   0.896 -0.0532 -0.5828 -0.0961
 5526SOL    HW127047   8.463   8.293   0.867  2.0917  0.9411  0.7286
 5526SOL    HW227048   8.341   8.391   0.820  0.3486 -1.9540 -0.8891
 5527SOL     OW27049   4.115   1.102   0.621  0.6850  0.6875 -0.5248
 5527SOL    HW127050   4.078   1.016   0.658  1.1668 -0.1924 -2.0211
 5527SOL    HW227051   4.050   1.141   0.556  1.3221  0.3732 -1.3759
 5528SOL     OW27052   0.117   7.636   1.010  0.6081  0.0846 -0.3923
 5528SOL    HW127053   0.037   7.652   0.952  2.1733  1.9175 -2.1447
 5528SOL    HW227054   0.106   7.550   1.059 -2.7155  0.6031 -0.0838
 5529SOL     OW27055   2.596   2.653   2.545  0.3894  0.1193  0.4365
 5529SOL    HW127056   2.615   2.657   2.447  0.1009  1.3100  0.4257
 5529SOL    HW227057   2.505   2.691   2.564  0.3747 -0.2476  1.1443
 5530SOL     OW27058   0.322   4.077   4.039  0.1256 -0.1724  0.5916
 5530SOL    HW127059   0.377   4.101   3.958 -1.0741  1.4422  0.2354
 5530SOL    HW227060   0.319   3.977   4.049 -1.2404 -0.4755 -2.4206
 5531SOL     OW27061   8.516   9.801   0.234 -0.0529  0.3261 -0.0372
 5531SOL    HW127062   8.417   9.805   0.220 -0.2876  1.0230  1.6676
 5531SOL    HW227063   8.546   9.884   0.282  0.8121 -1.5271  2.7151
 5532SOL     OW27064   4.024   7.767   1.623 -0.4995  0.0746 -0.3340
 5532SOL    HW127065   4.055   7.672   1.628 -0.8263 -0.0394 -0.4563
 5532SOL    HW227066   3.926   7.769   1.606 -1.1954  0.3777  3.2054
 5533SOL     OW27067   8.308   5.163   1.473 -0.3698  0.3507 -0.0961
 5533SOL    HW127068   8.315   5.191   1.377  1.3468 -0.2412 -0.1560
 5533SOL    HW227069   8.360   5.227   1.530 -1.1871  0.5587  0.4212
 5534SOL     OW27070   3.899   7.614   3.761  0.2060  0.1123 -0.4639
 5534SOL    HW127071   3.991   7.608   3.801 -0.2272  0.1156  0.5623
 5534SOL    HW227072   3.885   7.706   3.724 -0.0362  0.7192  1.0677
 5535SOL     OW27073   8.579   8.198   2.109  0.7636 -0.3833  0.2305
 5535SOL    HW127074   8.539   8.150   2.188  0.4251 -0.9762 -0.3011
 5535SOL    HW227075   8.637   8.135   2.058 -0.9471 -0.6791 -1.3881
 5536SOL     OW27076   2.331   1.441   0.366  0.5386 -0.2056  0.3573
 5536SOL    HW127077   2.426   1.412   0.357  0.1467 -1.2022 -0.6458
 5536SOL    HW227078   2.279   1.368   0.411  0.1382  0.1229  0.4256
 5537SOL     OW27079   2.606   5.000   0.802 -0.0020  0.3929 -0.3217
 5537SOL    HW127080   2.661   4.964   0.877  1.4683  0.0992 -1.5154
 5537SOL    HW227081   2.577   4.925   0.742 -1.0814  0.6358 -0.1143
 5538SOL     OW27082   4.208   8.569   3.158  0.8619 -0.2828  0.3918
 5538SOL    HW127083   4.306   8.556   3.169  0.8757 -1.8047 -1.2252
 5538SOL    HW227084   4.181   8.544   3.064 -0.9581  0.7282  0.6123
 5539SOL     OW27085   0.305   6.719   3.030 -0.2331  0.0025 -0.1915
 5539SOL    HW127086   0.314   6.731   2.931  0.4080 -0.0890 -0.1444
 5539SOL    HW227087   0.356   6.637   3.058 -0.4228  0.0229  0.2139
 5540SOL     OW27088   9.838   7.886   0.672  0.4631  0.0259  0.2237
 5540SOL    HW127089   9.916   7.878   0.610 -1.0291 -0.1576 -1.6845
 5540SOL    HW227090   9.802   7.979   0.668  1.4198  0.5084  2.1776
 5541SOL     OW27091   7.965   1.691   1.903  0.8234 -0.2193  0.3573
 5541SOL    HW127092   7.905   1.673   1.981  1.6769 -3.8459  0.2497
 5541SOL    HW227093   7.911   1.690   1.819  0.5390 -0.3336  0.5403
 5542SOL     OW27094   1.055   6.530   2.640  0.0378 -0.3016 -0.0010
 5542SOL    HW127095   0.979   6.497   2.584  1.0626 -3.7363  0.5156
 5542SOL    HW227096   1.051   6.487   2.730  0.2735  2.6702  1.4746
 5543SOL     OW27097   1.569   1.616   2.643  0.1521  0.4255  0.2021
 5543SOL    HW127098   1.551   1.714   2.641  1.6939  0.7181 -0.1709
 5543SOL    HW227099   1.511   1.571   2.575  0.0194  1.1774 -0.1949
 5544SOL     OW27100   3.796   6.808   3.767  0.0478 -0.3817  0.1434
 5544SOL    HW127101   3.788   6.806   3.867 -1.1926 -1.4956  0.0264
 5544SOL    HW227102   3.706   6.796   3.726  0.7153 -1.0989 -1.1278
 5545SOL     OW27103   7.414   6.904   2.983 -0.5085  0.3849  0.3586
 5545SOL    HW127104   7.437   6.979   2.921 -0.9506  0.8480  0.7455
 5545SOL    HW227105   7.498   6.861   3.017 -0.2244  1.4297  1.0019
 5546SOL     OW27106   3.666   6.810   1.858 -0.0434 -0.0691  0.0843
 5546SOL    HW127107   3.591   6.744   1.854  0.5267 -0.7587  0.5741
 5546SOL    HW227108   3.630   6.901   1.877 -0.6814 -0.5484  1.1949
 5547SOL     OW27109   0.170   9.179   0.736  0.3093 -0.0476  0.6862
 5547SOL    HW127110   0.202   9.105   0.676  1.2308  0.2045  0.8480
 5547SOL    HW227111   0.127   9.141   0.817 -1.5218 -0.3971 -0.4276
 5548SOL     OW27112   0.875   1.585   3.608 -0.4121  0.7522 -0.7529
 5548SOL    HW127113   0.862   1.624   3.699  0.6051 -0.3783 -0.1027
 5548SOL    HW227114   0.904   1.490   3.616  1.1670  1.0661 -2.2185
 5549SOL     OW27115   2.686   0.015   1.794 -0.0942  0.0662 -0.2080
 5549SOL    HW127116   2.641  -0.005   1.707 -0.0008  0.3873 -0.3318
 5549SOL    HW227117   2.630   0.080   1.846  0.0995  0.2716 -0.2533
 5550SOL     OW27118   2.561   5.363   0.057  0.2620 -0.5144  0.5127
 5550SOL    HW127119   2.567   5.267   0.029  1.7112 -0.5562  0.9345
 5550SOL    HW227120   2.577   5.422  -0.022  0.4056 -0.6273  0.4566
 5551SOL     OW27121   2.334   8.767   2.089  0.0180  0.0280  0.0505
 5551SOL    HW127122   2.281   8.702   2.143  0.2013 -1.2286 -1.2354
 5551SOL    HW227123   2.431   8.742   2.092  0.0499  0.0317 -0.7039
 5552SOL     OW27124   0.718   1.626   2.227 -0.6949  0.3177 -0.6017
 5552SOL    HW127125   0.813   1.609   2.254 -0.8788 -1.4687 -1.0094
 5552SOL    HW227126   0.681   1.701   2.280  0.2267 -0.4831  1.2025
 5553SOL     OW27127   4.559   0.547   2.701  0.0776 -0.5256 -0.4881
 5553SOL    HW127128   4.567   0.486   2.780 -0.6191 -0.1094 -0.0869
 5553SOL    HW227129   4.650   0.575   2.671  0.3558 -0.8295  0.0549
 5554SOL     OW27130   8.763   7.540   1.297  0.1302 -0.6854 -0.2130
 5554SOL    HW127131   8.784   7.564   1.392  2.2195 -0.0807 -0.8059
 5554SOL    HW227132   8.834   7.479   1.262 -1.6138 -2.4392 -0.8360
 5555SOL     OW27133   9.944   4.950   2.314 -0.0791  0.3272 -0.0256
 5555SOL    HW127134  10.033   4.967   2.272  0.2183  1.0719  0.8888
 5555SOL    HW227135   9.954   4.880   2.385 -0.1519  0.6825  0.3346
 5556SOL     OW27136   1.921   3.174   1.450 -0.6445  0.1797 -0.4897
 5556SOL    HW127137   1.990   3.218   1.506 -0.8764  0.3008 -0.2953
 5556SOL    HW227138   1.833   3.176   1.498 -1.9291  4.3417 -2.7386
 5557SOL     OW27139   0.635   7.735   1.742 -0.2478 -0.1704  0.0222
 5557SOL    HW127140   0.547   7.782   1.730 -0.9101 -1.2537  0.5338
 5557SOL    HW227141   0.700   7.768   1.674 -1.3769 -0.1294 -1.0484
 5558SOL     OW27142   1.992   9.159   2.245  0.2019  0.0541  0.4758
 5558SOL    HW127143   2.070   9.213   2.212  0.1272  0.0469  0.2873
 5558SOL    HW227144   2.026   9.080   2.298  0.3022  0.4693  1.0376
 5559SOL     OW27145   0.578   3.065   1.363  0.1926  0.5809  0.1803
 5559SOL    HW127146   0.661   3.019   1.396  0.2639  1.3354  1.0632
 5559SOL    HW227147   0.543   3.016   1.283  1.1637 -0.0820  0.1467
 5560SOL     OW27148   1.039   0.843   1.719  0.6091  0.2443 -0.6206
 5560SOL    HW127149   1.029   0.761   1.774 -0.1421  0.8954  0.2225
 5560SOL    HW227150   0.964   0.848   1.652 -0.7712  1.4957  0.9793
 5561SOL     OW27151   9.400   1.730   1.830 -0.0397 -0.7196  0.5031
 5561SOL    HW127152   9.410   1.724   1.731 -0.6065 -2.9012  0.5428
 5561SOL    HW227153   9.487   1.709   1.874  0.8989  2.8272  0.4529
 5562SOL     OW27154   8.849   1.040   1.047 -0.2498 -0.2695  0.0389
 5562SOL    HW127155   8.764   0.987   1.039  0.4142 -1.3768  0.2512
 5562SOL    HW227156   8.857   1.075   1.140  0.3442 -1.5882  0.5036
 5563SOL     OW27157   7.656   8.211   2.557 -0.0781 -0.2224  0.1939
 5563SOL    HW127158   7.636   8.288   2.617 -0.0269  0.4568 -0.6570
 5563SOL    HW227159   7.752   8.185   2.567  0.5056  1.3095 -1.1918
 5564SOL     OW27160   1.858   4.874   1.577  0.8581 -0.4195 -0.1971
 5564SOL    HW127161   1.869   4.894   1.674 -0.0423 -0.1619 -0.1466
 5564SOL    HW227162   1.879   4.778   1.560  2.1269 -0.2016  0.0635
 5565SOL     OW27163   1.593   0.247   2.319 -0.4545  0.4392  0.1447
 5565SOL    HW127164   1.674   0.196   2.349 -0.7085 -0.2470 -0.3486
 5565SOL    HW227165   1.520   0.237   2.387 -0.8352 -0.6505 -0.4146
 5566SOL     OW27166   7.596   2.969   0.855  0.5206  0.1709  0.4779
 5566SOL    HW127167   7.581   2.928   0.765  1.0108  0.3140  0.3298
 5566SOL    HW227168   7.618   2.897   0.921  0.0724  0.0563  0.5070
 5567SOL     OW27169   4.222   0.260   0.950  0.0723 -0.5171  0.4100
 5567SOL    HW127170   4.135   0.225   0.916 -0.4258  0.6805  0.4186
 5567SOL    HW227171   4.293   0.244   0.882 -0.4392 -0.2498 -0.1959
 5568SOL     OW27172   0.763   5.742   3.526  0.2715 -0.1476  0.2090
 5568SOL    HW127173   0.807   5.809   3.586 -0.2926 -0.9194  1.4943
 5568SOL    HW227174   0.796   5.651   3.548  0.0549 -0.4363 -0.6566
 5569SOL     OW27175   9.119   0.262   1.921  0.3023 -0.4676  0.1559
 5569SOL    HW127176   9.202   0.305   1.886  0.2646  0.7884  1.5529
 5569SOL    HW227177   9.114   0.275   2.020 -1.1173 -1.3170  0.2164
 5570SOL     OW27178   3.820   2.783   0.657  0.5378  0.1170 -0.0335
 5570SOL    HW127179   3.885   2.716   0.694 -1.6998 -2.9012 -1.3507
 5570SOL    HW227180   3.783   2.838   0.732  1.6344 -0.8460  1.2352
 5571SOL     OW27181   9.023   0.809   3.101 -0.2168  0.3015 -0.0154
 5571SOL    HW127182   8.924   0.795   3.099  0.2082 -3.4605  1.7475
 5571SOL    HW227183   9.050   0.851   3.188  0.0459 -1.4803  0.7682
 5572SOL     OW27184   0.923   6.653   2.059  0.0567 -0.6230 -0.0968
 5572SOL    HW127185   0.833   6.667   2.101  1.2191  0.6580  2.0441
 5572SOL    HW227186   0.945   6.556   2.061 -1.9307 -1.1680 -2.0938
 5573SOL     OW27187   7.206   8.882   3.070 -0.3188  0.3869  0.8091
 5573SOL    HW127188   7.259   8.808   3.112 -0.2766  0.6721  1.2743
 5573SOL    HW227189   7.134   8.844   3.013 -0.6281 -0.0168  1.4604
 5574SOL     OW27190   1.866   5.709   3.690 -0.2158  0.4900  0.4469
 5574SOL    HW127191   1.929   5.749   3.757  2.3191 -1.5801 -0.6118
 5574SOL    HW227192   1.816   5.634   3.732 -0.0560  0.4551  0.5749
 5575SOL     OW27193   1.570   8.841   2.399  0.5379 -0.5084  0.2487
 5575SOL    HW127194   1.613   8.900   2.468  1.6828 -1.7498  0.6136
 5575SOL    HW227195   1.578   8.884   2.309  2.4136 -0.6354  0.3329
 5576SOL     OW27196   0.584   7.327   3.097 -0.5235 -0.3081 -0.0922
 5576SOL    HW127197   0.641   7.350   3.018  0.1616  0.4183  0.6098
 5576SOL    HW227198   0.642   7.291   3.170 -1.2003 -1.3056 -0.0376
 5577SOL     OW27199   3.688   3.258   0.650  0.5409 -0.0317  0.0208
 5577SOL    HW127200   3.625   3.312   0.705  1.6272 -0.0884  1.3582
 5577SOL    HW227201   3.701   3.302   0.561 -1.5276 -0.1469 -0.3601
 5578SOL     OW27202   3.891   8.066   0.619  0.1296  0.2648  0.7255
 5578SOL    HW127203   3.871   7.968   0.626 -1.1552  0.2316 -2.5794
 5578SOL    HW227204   3.975   8.079   0.565 -0.1947  1.0170  0.4004
 5579SOL     OW27205   0.588   5.786   0.709 -0.0633 -0.2100  0.4506
 5579SOL    HW127206   0.602   5.882   0.735 -0.7655  0.0131 -0.0047
 5579SOL    HW227207   0.521   5.781   0.635  1.8755 -0.8453 -1.3170
 5580SOL     OW27208   3.585   7.534   3.106 -0.0049 -0.4379  0.5262
 5580SOL    HW127209   3.488   7.538   3.085 -0.1128 -0.3230  1.0456
 5580SOL    HW227210   3.635   7.592   3.041 -0.3129 -0.2470  0.4573
 5581SOL     OW27211   2.612   7.696   0.314  0.2254  0.3278 -0.3631
 5581SOL    HW127212   2.613   7.649   0.226  1.0960  0.1785 -0.2796
 5581SOL    HW227213   2.519   7.701   0.349 -0.0388 -0.1597 -1.0009
 5582SOL     OW27214   2.611   0.645   2.746  0.0653 -0.0638 -0.0019
 5582SOL    HW127215   2.708   0.666   2.756  0.3737 -1.4040 -0.0941
 5582SOL    HW227216   2.558   0.695   2.815  0.8099  0.6869  0.0344
 5583SOL     OW27217   2.572   4.499   1.068  0.2374 -0.1992  0.3876
 5583SOL    HW127218   2.584   4.402   1.048 -0.7194 -0.8070  2.5362
 5583SOL    HW227219   2.516   4.509   1.151  0.4687  2.1795  0.2948
 5584SOL     OW27220   0.811   1.150   2.010 -0.0428  0.6202 -0.3053
 5584SOL    HW127221   0.747   1.075   1.992 -0.9207  1.2877 -0.0282
 5584SOL    HW227222   0.902   1.113   2.028 -0.6100 -0.4161  0.4978
 5585SOL     OW27223   0.101   1.056   2.375 -0.1609  0.1211 -0.7929
 5585SOL    HW127224   0.143   1.008   2.452  1.7815  1.0855 -1.2124
 5585SOL    HW227225   0.114   1.003   2.292  2.8335  1.7349 -1.4265
 5586SOL     OW27226   2.993   2.347   2.081 -0.0619  0.1730  0.2273
 5586SOL    HW127227   2.938   2.263   2.075 -1.2231  0.9600 -0.4708
 5586SOL    HW227228   3.006   2.384   1.989 -0.3744  1.2787  0.6292
 5587SOL     OW27229   3.243   7.937   0.989 -0.0055 -0.2585 -0.0847
 5587SOL    HW127230   3.173   7.940   0.918  0.8470 -0.2492 -0.9408
 5587SOL    HW227231   3.333   7.936   0.947  0.5443  0.8279  1.0272
 5588SOL     OW27232   2.055   1.708   0.773 -0.0479  0.4046 -0.0103
 5588SOL    HW127233   2.037   1.762   0.856  0.4607  0.9553 -0.2490
 5588SOL    HW227234   2.058   1.770   0.694 -0.7205 -0.1444 -0.4655
 5589SOL     OW27235   0.087   6.495   2.465  0.1759  0.3107  0.1961
 5589SOL    HW127236   0.051   6.403   2.453  1.3939 -0.1390 -0.0818
 5589SOL    HW227237   0.061   6.530   2.554 -0.1561 -0.3638  0.3672
 5590SOL     OW27238   1.223   6.019   1.668 -0.3550  0.4088 -0.0451
 5590SOL    HW127239   1.180   5.930   1.659  1.7578 -0.6665  0.2303
 5590SOL    HW227240   1.233   6.061   1.578  0.4457 -0.5170 -0.4006
 5591SOL     OW27241   1.700   0.796   0.896 -0.4557 -0.3759  0.6481
 5591SOL    HW127242   1.618   0.820   0.947 -1.0165  2.6557 -1.5161
 5591SOL    HW227243   1.678   0.790   0.798  1.8114  0.1419  0.0706
 5592SOL     OW27244   8.855   2.682   3.774 -0.5773 -0.0139  0.2033
 5592SOL    HW127245   8.849   2.730   3.861  1.6946  0.1533  0.2913
 5592SOL    HW227246   8.815   2.739   3.702 -0.0462  0.9921  0.6946
 5593SOL     OW27247   3.201   7.986   0.349 -0.2981  0.3252 -0.5549
 5593SOL    HW127248   3.118   8.006   0.296 -0.6329 -1.6950 -0.8492
 5593SOL    HW227249   3.273   8.051   0.325 -1.0259  0.5577 -2.1646
 5594SOL     OW27250   3.452   8.547   0.881 -0.4169  0.1927 -0.9094
 5594SOL    HW127251   3.436   8.591   0.970 -2.3428 -0.0331 -1.1369
 5594SOL    HW227252   3.516   8.602   0.828  0.1565  0.7283  0.3102
 5595SOL     OW27253   0.469   0.895   1.516 -0.3564  0.4291  0.3976
 5595SOL    HW127254   0.504   0.985   1.492 -2.8354  0.7404 -2.1922
 5595SOL    HW227255   0.495   0.829   1.445  0.9903 -0.8200  2.0059
 5596SOL     OW27256   7.751   0.819   2.963 -0.7105  0.0435  0.4004
 5596SOL    HW127257   7.687   0.840   2.890 -0.6676 -2.8957 -0.5721
 5596SOL    HW227258   7.832   0.877   2.954 -1.8322  1.5239 -0.3024
 5597SOL     OW27259   1.093   8.864   2.160  0.1708  0.0388 -0.2796
 5597SOL    HW127260   1.165   8.804   2.125  0.4342 -1.2594  2.3546
 5597SOL    HW227261   1.013   8.809   2.186 -0.1831  0.9949  0.6961
 5598SOL     OW27262   5.687   9.979   2.683  0.8959  0.1440  0.1626
 5598SOL    HW127263   5.771   9.927   2.692 -0.1539 -1.5895  0.1680
 5598SOL    HW227264   5.630   9.939   2.611 -0.7697  0.0857  1.4696
 5599SOL     OW27265   0.442   4.547   0.857  0.0676  0.4645 -0.5901
 5599SOL    HW127266   0.472   4.478   0.791 -2.3865 -1.5948  0.3861
 5599SOL    HW227267   0.353   4.583   0.829 -0.7900 -0.1082  1.3629
 5600SOL     OW27268   0.312   0.489   0.396 -0.1041  0.1147  0.6276
 5600SOL    HW127269   0.308   0.411   0.458  2.1274 -0.4164  0.1638
 5600SOL    HW227270   0.253   0.473   0.317 -0.7963 -0.4274  1.2471
 5601SOL     OW27271   2.037   2.132   2.482  0.0552 -0.1250 -0.0247
 5601SOL    HW127272   2.075   2.136   2.390  2.1962 -0.3172  0.8178
 5601SOL    HW227273   2.095   2.185   2.545 -2.0339  1.0350  1.0172
 5602SOL     OW27274   8.209   6.644   1.098 -0.3941  0.0376 -0.3268
 5602SOL    HW127275   8.202   6.737   1.135  0.9001 -0.4082  1.0883
 5602SOL    HW227276   8.244   6.649   1.004  0.4725  0.9382  0.0336
 5603SOL     OW27277   1.392   7.959   0.416 -0.3516 -0.3341 -0.1115
 5603SOL    HW127278   1.475   7.910   0.444 -0.5985 -2.2765 -2.6297
 5603SOL    HW227279   1.402   7.990   0.322 -0.9563  2.9099  0.8504
 5604SOL     OW27280   8.752   3.479   2.703 -0.3995 -0.0025 -0.0053
 5604SOL    HW127281   8.759   3.380   2.716 -1.5171 -0.3652 -1.9720
 5604SOL    HW227282   8.844   3.519   2.697  0.0751 -1.3825 -2.3758
 5605SOL     OW27283   8.752   3.192   0.205 -0.1296  0.0266  0.4140
 5605SOL    HW127284   8.847   3.162   0.213  0.6898  2.2833 -0.4021
 5605SOL    HW227285   8.736   3.270   0.266 -0.9602  0.7723 -0.7212
 5606SOL     OW27286   9.650   6.126   1.771  0.3524 -0.3944  0.5141
 5606SOL    HW127287   9.666   6.081   1.859 -0.6042  0.1849  0.9935
 5606SOL    HW227288   9.676   6.223   1.778  2.2251 -0.8005 -0.4542
 5607SOL     OW27289   2.232   3.064   1.671  0.3751  0.0860  0.5949
 5607SOL    HW127290   2.327   3.050   1.698  0.4002  0.9160  0.9322
 5607SOL    HW227291   2.228   3.092   1.575  0.4670  0.0598  0.5838
 5608SOL     OW27292   2.707   2.639   3.553 -0.2629 -0.2096 -0.0634
 5608SOL    HW127293   2.636   2.589   3.602  1.2459  0.5274  3.0535
 5608SOL    HW227294   2.794   2.589   3.560  0.6084  1.3566  0.5420
 5609SOL     OW27295   4.819   3.733   0.952 -0.4043  0.2128  0.0411
 5609SOL    HW127296   4.729   3.774   0.969  0.0313  1.0156  0.4103
 5609SOL    HW227297   4.890   3.787   0.998  0.1988 -0.8046  0.3217
 5610SOL     OW27298   4.623   8.848   1.449 -0.6571  0.3677  0.8618
 5610SOL    HW127299   4.545   8.786   1.445 -0.8736  0.7397 -0.7933
 5610SOL    HW227300   4.593   8.936   1.486 -0.8915  0.3225  0.7768
 5611SOL     OW27301   8.876   2.066   1.802 -0.3625 -0.0331 -0.7252
 5611SOL    HW127302   8.937   2.122   1.859 -0.8692  0.5960 -0.8002
 5611SOL    HW227303   8.782   2.096   1.815 -0.7038 -1.2677 -0.3100
 5612SOL     OW27304   0.571   8.534   2.504 -0.0618 -0.1874 -0.1859
 5612SOL    HW127305   0.510   8.493   2.572 -0.7428  1.3843  0.1916
 5612SOL    HW227306   0.632   8.599   2.549 -0.9507  1.3409 -1.1372
 5613SOL     OW27307   0.499   6.698   1.889 -0.3605 -0.7741  0.0492
 5613SOL    HW127308   0.549   6.711   1.975  0.4574 -1.2089 -0.3543
 5613SOL    HW227309   0.401   6.697   1.908 -0.1801 -1.1612  1.0215
 5614SOL     OW27310   4.528   9.897   3.811  0.2918 -0.6659 -0.5346
 5614SOL    HW127311   4.539   9.884   3.712 -1.8933  0.5309 -0.9734
 5614SOL    HW227312   4.534   9.994   3.833  3.0923 -1.1110  0.8629
 5615SOL     OW27313   7.388   1.401   2.433  0.3174  0.1396  0.5098
 5615SOL    HW127314   7.440   1.465   2.490  0.6631  0.1865  0.1417
 5615SOL    HW227315   7.402   1.308   2.466 -0.5932  0.2864  1.3671
 5616SOL     OW27316   0.141   8.477   1.177 -0.2890  0.3014 -0.3106
 5616SOL    HW127317   0.151   8.469   1.276 -1.2350 -1.6349 -0.3723
 5616SOL    HW227318   0.047   8.503   1.154 -0.0149  0.9742 -0.7047
 5617SOL     OW27319   7.897   5.841   2.965  0.6620  0.0401  0.1390
 5617SOL    HW127320   7.873   5.836   3.062 -0.0572  2.2115  0.0906
 5617SOL    HW227321   7.895   5.749   2.926 -3.0901 -0.4412  1.2435
 5618SOL     OW27322   1.793   8.364   1.539  0.6067 -0.3774  0.2355
 5618SOL    HW127323   1.824   8.447   1.493  0.5357 -0.7594 -0.4959
 5618SOL    HW227324   1.747   8.303   1.474  1.4667 -1.4013  0.5652
 5619SOL     OW27325   4.638   2.506   2.429  0.5380 -0.3340 -0.3153
 5619SOL    HW127326   4.564   2.476   2.369  0.1229 -0.1290  0.0938
 5619SOL    HW227327   4.674   2.427   2.479 -1.8227  0.1087  2.1759
 5620SOL     OW27328   7.269   9.228   1.715 -0.2259  0.2749 -0.1278
 5620SOL    HW127329   7.173   9.248   1.734 -0.0121 -1.4395  3.0503
 5620SOL    HW227330   7.325   9.257   1.793  1.1720 -3.8769  0.4990
 5621SOL     OW27331   9.449   4.487   0.730  0.1779 -0.0253 -0.1812
 5621SOL    HW127332   9.422   4.493   0.826 -1.3339 -0.1033 -0.5987
 5621SOL    HW227333   9.436   4.576   0.686 -3.3465 -1.0901 -1.4023
 5622SOL     OW27334   2.011   5.852   2.960 -0.4307 -0.3599 -0.3347
 5622SOL    HW127335   2.036   5.943   2.993 -1.5610  0.2924 -1.2260
 5622SOL    HW227336   2.087   5.788   2.975  1.1321  1.1792 -1.5229
 5623SOL     OW27337   3.521   1.685   0.244 -0.0715 -0.2249  0.4839
 5623SOL    HW127338   3.438   1.637   0.215 -0.5784  0.0768  1.4159
 5623SOL    HW227339   3.526   1.684   0.343  0.8959  0.0181  0.4371
 5624SOL     OW27340   4.802   0.583   2.588  0.0467 -0.3502  0.3499
 5624SOL    HW127341   4.897   0.587   2.620  0.2645  1.4537 -0.4822
 5624SOL    HW227342   4.798   0.540   2.498  0.0501 -0.5471  0.4428
 5625SOL     OW27343   4.083   0.841   2.020  0.5106 -0.3836  0.4689
 5625SOL    HW127344   4.137   0.925   2.024  1.4071 -0.9713  0.8622
 5625SOL    HW227345   3.987   0.862   2.042  0.9421  0.3432  1.7353
 5626SOL     OW27346   2.440   3.075   2.278 -0.4629  0.7003  0.1976
 5626SOL    HW127347   2.383   3.004   2.319  0.6953  0.1648  0.9100
 5626SOL    HW227348   2.401   3.165   2.298 -0.3072  0.4137  1.8858
 5627SOL     OW27349   8.661   8.701   3.424  0.4686 -0.1192  0.3358
 5627SOL    HW127350   8.596   8.655   3.363  0.4708 -0.9687  0.9476
 5627SOL    HW227351   8.619   8.710   3.515  0.4834  1.0800  0.2313
 5628SOL     OW27352   1.002   3.762   0.849  0.4319 -0.7577 -0.2969
 5628SOL    HW127353   0.907   3.735   0.832  0.7287 -1.7164 -0.4454
 5628SOL    HW227354   1.032   3.825   0.778 -0.0298 -0.6171 -0.3683
 5629SOL     OW27355   7.843   9.121   1.155  1.4869 -0.2394  0.3503
 5629SOL    HW127356   7.821   9.097   1.250  0.2180  2.2507  0.7414
 5629SOL    HW227357   7.803   9.210   1.134 -1.3187 -2.2868 -3.6591
 5630SOL     OW27358   8.873   6.773   2.715  0.3959 -0.2163 -0.6455
 5630SOL    HW127359   8.833   6.774   2.624 -1.0729 -0.4350 -0.0169
 5630SOL    HW227360   8.802   6.755   2.783  1.3996  0.3537  0.5838
 5631SOL     OW27361   7.818   5.780   2.504 -0.1220  0.4496  0.0057
 5631SOL    HW127362   7.877   5.709   2.542  0.4362  1.7751  1.6757
 5631SOL    HW227363   7.820   5.861   2.563 -2.9260  0.8599 -0.3790
 5632SOL     OW27364   9.184   9.768   1.675  0.3219  0.2348  0.1960
 5632SOL    HW127365   9.211   9.751   1.770 -1.7138  2.0276  1.1192
 5632SOL    HW227366   9.145   9.684   1.636 -0.7315  0.0503  1.6113
 5633SOL     OW27367   1.796   2.205   3.193 -0.0267  0.5050 -0.3403
 5633SOL    HW127368   1.706   2.179   3.225  0.7568  0.6201  2.0210
 5633SOL    HW227369   1.833   2.133   3.134 -1.0059 -0.2262 -0.0656
 5634SOL     OW27370   8.256   9.778   2.903  0.2093  0.6656  0.8914
 5634SOL    HW127371   8.172   9.781   2.850  1.1382 -0.5073 -0.6966
 5634SOL    HW227372   8.318   9.850   2.872  0.4861  0.4152  0.8560
 5635SOL     OW27373   0.869   5.620   2.184  0.1173 -0.7531 -0.4379
 5635SOL    HW127374   0.770   5.624   2.175  0.1795 -0.8060 -1.1856
 5635SOL    HW227375   0.911   5.688   2.123  0.5332 -0.7252 -0.1188
 5636SOL     OW27376   2.911   6.796   2.270  0.0304 -0.2974  0.1190
 5636SOL    HW127377   2.902   6.891   2.300 -2.3049 -0.2980 -0.4496
 5636SOL    HW227378   2.821   6.762   2.240  1.0802 -2.2805 -0.8853
 5637SOL     OW27379   0.039   1.404   0.383 -0.3841  0.5538  0.0256
 5637SOL    HW127380  -0.050   1.409   0.338 -0.1057  0.5385 -0.5271
 5637SOL    HW227381   0.109   1.442   0.322  0.3432 -1.5457 -0.4886
 5638SOL     OW27382   2.067   3.196   3.702 -0.2025  0.6895  0.0516
 5638SOL    HW127383   2.077   3.252   3.620 -0.6000  1.5925  0.6151
 5638SOL    HW227384   2.010   3.116   3.681  1.9474 -0.5591 -1.2557
 5639SOL     OW27385   9.621   5.809   1.919 -0.7407  0.2400  0.2105
 5639SOL    HW127386   9.643   5.722   1.964  1.8721  0.1058 -1.2384
 5639SOL    HW227387   9.671   5.883   1.964 -2.2469  0.8936  0.8523
 5640SOL     OW27388   0.441   4.342   3.240  0.4874  0.0235 -0.0970
 5640SOL    HW127389   0.539   4.359   3.240  0.5188 -0.1327 -0.9916
 5640SOL    HW227390   0.395   4.416   3.190  0.1725 -0.0229  0.1244
 5641SOL     OW27391   5.327   8.741   2.344 -0.0987  0.5746 -0.0907
 5641SOL    HW127392   5.363   8.767   2.254  1.4353  1.8940  0.8831
 5641SOL    HW227393   5.350   8.646   2.363 -0.0607  0.4156 -0.9001
 5642SOL     OW27394   9.778   0.915   3.063  0.1162  0.3670  0.0092
 5642SOL    HW127395   9.875   0.937   3.057  0.1961  0.2331  0.7326
 5642SOL    HW227396   9.746   0.930   3.157 -0.5899  0.5271 -0.2528
 5643SOL     OW27397   8.551   8.565   1.597 -0.6814  0.0210 -0.2579
 5643SOL    HW127398   8.576   8.658   1.573 -0.1098  0.0338  0.3458
 5643SOL    HW227399   8.561   8.505   1.517 -0.1417  0.3062 -0.4050
 5644SOL     OW27400   0.557   0.231   1.123 -0.1737 -0.1587  1.1646
 5644SOL    HW127401   0.556   0.158   1.192  0.1595  0.4747  1.8440
 5644SOL    HW227402   0.467   0.272   1.116 -0.4630 -0.8903  0.5018
 5645SOL     OW27403   0.696   3.487   1.795  0.8083  0.3972  0.5473
 5645SOL    HW127404   0.662   3.574   1.830 -0.4254  0.5701 -1.0291
 5645SOL    HW227405   0.625   3.417   1.807  1.2900 -0.0801  0.5926
 5646SOL     OW27406   1.210   7.083   0.418  0.4672  0.2291 -0.2376
 5646SOL    HW127407   1.138   7.105   0.484  2.5528  0.3171  2.0986
 5646SOL    HW227408   1.214   6.984   0.404  0.7785  0.1006  0.7150
 5647SOL     OW27409   2.467   0.769   0.940  0.0451  0.0435  0.2382
 5647SOL    HW127410   2.473   0.855   0.991 -0.1534 -0.0540  0.4278
 5647SOL    HW227411   2.381   0.765   0.889  0.5556  0.4428 -0.6616
 5648SOL     OW27412   4.515   3.958   0.673 -0.3000  0.0905  0.1498
 5648SOL    HW127413   4.431   3.913   0.703  0.1209  1.4286  3.6141
 5648SOL    HW227414   4.585   3.890   0.653 -1.3884 -0.9326 -0.2455
 5649SOL     OW27415   2.042   1.965   1.717 -0.0774  0.4458 -0.5034
 5649SOL    HW127416   2.034   1.894   1.647  0.9531 -0.5846  0.4085
 5649SOL    HW227417   1.988   1.939   1.798  1.3229  0.0717  0.3255
 5650SOL     OW27418   3.376   2.694   1.485  0.0067 -0.6507 -0.0984
 5650SOL    HW127419   3.415   2.703   1.576  1.3176 -0.5777 -0.6467
 5650SOL    HW227420   3.375   2.783   1.440 -1.2920 -0.5604  0.1014
 5651SOL     OW27421   1.053   3.650   1.817  0.3427  0.0165  1.1858
 5651SOL    HW127422   0.980   3.606   1.869 -1.6742  0.6894 -0.9595
 5651SOL    HW227423   1.130   3.587   1.808 -1.4959 -2.1741  0.2827
 5652SOL     OW27424   4.432   0.456   3.411  0.0755  0.2192  0.2754
 5652SOL    HW127425   4.373   0.517   3.463 -0.8032  0.5492 -1.0720
 5652SOL    HW227426   4.446   0.494   3.319  4.0243  1.1912  1.1812
 5653SOL     OW27427   8.145   4.295   0.672  0.2039  0.3168  0.8762
 5653SOL    HW127428   8.078   4.245   0.617  0.4895  1.8350 -0.8725
 5653SOL    HW227429   8.216   4.232   0.704 -1.5283 -1.1363  2.0025
 5654SOL     OW27430   8.680   3.949   3.718  0.3087 -0.4235  0.1535
 5654SOL    HW127431   8.617   3.960   3.641 -2.3497 -0.4590  2.2407
 5654SOL    HW227432   8.707   3.853   3.726  0.4641 -0.4474 -0.6210
 5655SOL     OW27433   2.210   2.738   3.400  0.1377 -0.4555  0.3092
 5655SOL    HW127434   2.245   2.668   3.462 -2.2619 -1.3131  0.7248
 5655SOL    HW227435   2.230   2.829   3.439  2.5854 -0.8694  0.1218
 5656SOL     OW27436   8.998   5.964   0.096  0.3064  0.2083  0.3805
 5656SOL    HW127437   9.010   5.889   0.031  0.5151  1.1303 -0.6652
 5656SOL    HW227438   9.021   5.933   0.188  2.8763 -0.3373 -0.4058
 5657SOL     OW27439   8.125   5.463   1.027 -0.6337  0.2992 -0.4990
 5657SOL    HW127440   8.109   5.375   0.984  0.4923  0.1668 -0.6545
 5657SOL    HW227441   8.072   5.469   1.112  0.0046 -0.8912 -0.0132
 5658SOL     OW27442   8.752   0.773   0.451  1.1019 -0.0187  0.1594
 5658SOL    HW127443   8.815   0.702   0.417  2.2275  0.1208  1.9251
 5658SOL    HW227444   8.682   0.730   0.508 -1.1097 -0.3223 -2.6293
 5659SOL     OW27445   0.013   0.207   0.176 -0.5244  0.4235  0.3854
 5659SOL    HW127446  -0.064   0.183   0.236 -1.1529 -0.0240 -0.5897
 5659SOL    HW227447  -0.021   0.230   0.085  0.5931 -1.3284 -0.5142
 5660SOL     OW27448   1.287   5.820   0.051  0.2322  0.1271 -0.5274
 5660SOL    HW127449   1.302   5.883  -0.024  0.1145  0.6438 -0.1221
 5660SOL    HW227450   1.335   5.853   0.133 -0.0254 -0.1798 -0.2486
 5661SOL     OW27451   3.836   6.888   3.099 -0.4757  0.2509  0.1784
 5661SOL    HW127452   3.826   6.877   3.198  2.8822 -0.3889  0.4913
 5661SOL    HW227453   3.885   6.973   3.080  0.3158 -0.4251 -0.8538
 5662SOL     OW27454   0.142   6.237   1.482 -0.3031 -0.1004  0.1785
 5662SOL    HW127455   0.164   6.274   1.572 -0.9204 -0.8939  0.6560
 5662SOL    HW227456   0.210   6.169   1.456 -0.4805 -0.3298  0.3179
 5663SOL     OW27457   3.964   0.419   2.462  0.3242  0.1385 -0.7310
 5663SOL    HW127458   3.950   0.411   2.561 -0.6930 -1.1650 -0.9747
 5663SOL    HW227459   4.016   0.502   2.443  0.4435  0.4542  0.8942
 5664SOL     OW27460   0.905   1.303   1.306  0.0795  0.7832 -0.3518
 5664SOL    HW127461   0.978   1.256   1.355  0.7029  1.6838 -0.4176
 5664SOL    HW227462   0.865   1.374   1.364  0.3461  1.3808 -0.8971
 5665SOL     OW27463   3.721   2.175   1.851  0.0527 -0.0642  0.0460
 5665SOL    HW127464   3.773   2.141   1.773  1.1592 -3.7898  2.3102
 5665SOL    HW227465   3.784   2.197   1.926 -1.2836 -0.0898  1.1915
 5666SOL     OW27466   3.079   6.537   1.744  0.0554  0.1066  0.5096
 5666SOL    HW127467   3.074   6.632   1.776  0.5116  0.9120 -1.7259
 5666SOL    HW227468   3.013   6.524   1.670 -1.1295 -1.7795  1.8596
 5667SOL     OW27469   9.377   0.490   1.015 -0.2311 -0.3801 -0.0047
 5667SOL    HW127470   9.288   0.496   1.059  0.0333 -1.8085  0.7443
 5667SOL    HW227471   9.367   0.504   0.916 -1.4803 -1.9181 -0.1201
 5668SOL     OW27472   1.868   6.966   0.194  0.1197 -0.0485 -0.4762
 5668SOL    HW127473   1.880   7.018   0.278  0.9074 -0.8597 -0.0843
 5668SOL    HW227474   1.957   6.947   0.152 -0.3138  1.0491 -1.9258
 5669SOL     OW27475   2.543   7.857   3.550 -0.1390  0.0005  0.3606
 5669SOL    HW127476   2.502   7.774   3.514 -1.0790  0.3016  0.7302
 5669SOL    HW227477   2.643   7.851   3.542 -0.2193 -0.9973  0.0449
 5670SOL     OW27478   9.820   2.049   1.542  0.2558 -0.0910  0.4188
 5670SOL    HW127479   9.769   2.001   1.470 -0.3800  0.2023  0.6625
 5670SOL    HW227480   9.868   1.982   1.599 -0.1040 -0.4010  0.3665
 5671SOL     OW27481   4.293   9.460   0.371  0.1546  0.4982  0.0821
 5671SOL    HW127482   4.312   9.534   0.437 -5.1035  0.0395  2.3901
 5671SOL    HW227483   4.302   9.372   0.417 -0.1799 -0.0019 -0.8088
 5672SOL     OW27484   9.410   1.236   2.874 -0.4859  0.1977  0.2292
 5672SOL    HW127485   9.508   1.243   2.852 -0.9137  3.2465 -0.9565
 5672SOL    HW227486   9.390   1.144   2.908  2.7020 -0.6157  0.0739
 5673SOL     OW27487   2.540   0.120   0.269 -0.2786  0.5077 -0.2880
 5673SOL    HW127488   2.512   0.051   0.336  2.3970  0.8224  1.2140
 5673SOL    HW227489   2.503   0.209   0.295  0.8880  0.6601  0.8761
 5674SOL     OW27490   9.853   0.490   3.351  0.3659  0.3607 -0.0700
 5674SOL    HW127491   9.945   0.451   3.357  0.8616  1.6065  0.7087
 5674SOL    HW227492   9.844   0.562   3.420 -1.8755 -1.1507  1.2612
 5675SOL     OW27493   0.681   2.432   3.442 -0.4743 -0.1967  0.3724
 5675SOL    HW127494   0.712   2.455   3.535 -0.3863 -0.5540  0.4325
 5675SOL    HW227495   0.732   2.353   3.409  1.5386  1.6450 -1.1050
 5676SOL     OW27496   0.675   2.720   0.487 -0.0871 -0.0698  0.4326
 5676SOL    HW127497   0.604   2.650   0.497  0.5000 -0.8617 -0.7680
 5676SOL    HW227498   0.637   2.799   0.440  0.4931 -1.6407 -2.8446
 5677SOL     OW27499   2.182   2.249   0.432 -0.1410 -0.1383 -0.0546
 5677SOL    HW127500   2.268   2.227   0.386  0.4510  1.2449  0.3664
 5677SOL    HW227501   2.121   2.294   0.367 -0.4558 -0.8875 -0.2837
 5678SOL     OW27502   4.935   1.644   2.369 -0.3013 -0.1189  0.4625
 5678SOL    HW127503   4.873   1.695   2.311  0.0893 -0.1978 -0.0260
 5678SOL    HW227504   4.902   1.646   2.464 -1.3243 -0.6093  0.1158
 5679SOL     OW27505   4.268   3.778   1.695  0.3881 -1.2691  0.4383
 5679SOL    HW127506   4.354   3.733   1.720  0.5853 -0.7828  0.6442
 5679SOL    HW227507   4.252   3.766   1.597  0.4391 -1.7855  0.4921
 5680SOL     OW27508   2.746   1.410   3.899 -0.3403  0.3243  0.3996
 5680SOL    HW127509   2.779   1.334   3.843  1.6360  0.5058  1.2649
 5680SOL    HW227510   2.701   1.375   3.981 -0.5173  0.0780  0.1967
 5681SOL     OW27511   0.919   9.247   3.393 -0.3230  0.6995  0.0302
 5681SOL    HW127512   0.866   9.309   3.449 -1.0933  1.0277 -1.0443
 5681SOL    HW227513   0.997   9.295   3.354  1.0865  0.0875  2.0280
 5682SOL     OW27514   1.096   3.484   3.646 -0.3681 -0.8116 -0.4210
 5682SOL    HW127515   1.153   3.479   3.728 -0.6371 -1.9451 -0.2911
 5682SOL    HW227516   1.127   3.559   3.588  0.5971 -0.7690  0.1422
 5683SOL     OW27517   2.379   2.589   3.241 -0.4473  0.0254  0.1633
 5683SOL    HW127518   2.333   2.643   3.311 -1.7801 -0.1473 -0.5710
 5683SOL    HW227519   2.404   2.648   3.164 -1.9901 -0.3999 -0.6823
 5684SOL     OW27520   3.936   7.178   0.618  0.0050  0.6583 -0.2931
 5684SOL    HW127521   3.887   7.217   0.540  0.9269  0.3293 -1.0399
 5684SOL    HW227522   3.872   7.124   0.673 -0.3852 -0.1691 -1.5258
 5685SOL     OW27523   0.102   5.009   3.748  0.5855  0.2517 -0.2768
 5685SOL    HW127524   0.080   4.918   3.712 -0.0372 -0.3576  1.5958
 5685SOL    HW227525   0.027   5.071   3.729  0.1273 -0.1438  0.2365
 5686SOL     OW27526   8.961   9.422   2.267  0.4538  0.4850  0.6101
 5686SOL    HW127527   8.997   9.413   2.174 -1.1333  1.5781 -0.1383
 5686SOL    HW227528   8.970   9.335   2.315  2.5237  0.2811 -0.1075
 5687SOL     OW27529   3.555   5.834   3.865 -0.3169  0.2621  0.0018
 5687SOL    HW127530   3.631   5.846   3.929 -0.9842 -0.6229  0.9722
 5687SOL    HW227531   3.557   5.907   3.797  0.9083  0.7221  0.5230
 5688SOL     OW27532   7.589   3.825   0.918  0.2807 -0.5753  0.1457
 5688SOL    HW127533   7.672   3.881   0.912  0.0339 -0.2644 -0.4034
 5688SOL    HW227534   7.534   3.855   0.996 -0.0789  0.2651 -0.4201
 5689SOL     OW27535   8.073   8.015   3.026 -0.0609 -0.1032 -0.2777
 5689SOL    HW127536   8.026   7.964   3.098  0.0090 -1.9373 -1.4982
 5689SOL    HW227537   8.147   8.069   3.067 -0.9489  0.0244  1.2023
 5690SOL     OW27538   1.562   4.240   3.718 -0.4254  0.0671 -0.3841
 5690SOL    HW127539   1.644   4.202   3.675  0.7662 -0.5426  2.3351
 5690SOL    HW227540   1.587   4.322   3.770 -1.6323  0.1301  0.0959
 5691SOL     OW27541   1.327   0.587   1.364  0.2423  0.1380  0.5808
 5691SOL    HW127542   1.347   0.668   1.418 -0.8623  0.7855  0.0295
 5691SOL    HW227543   1.365   0.599   1.272  1.5439 -0.6863  0.9902
 5692SOL     OW27544   2.432   6.456   1.893 -0.3661 -0.3817  0.0403
 5692SOL    HW127545   2.454   6.487   1.985 -1.2903  0.9389 -0.1870
 5692SOL    HW227546   2.432   6.356   1.891 -1.3672 -0.4235  1.7164
 5693SOL     OW27547   8.918   6.943   2.382  0.0647 -0.3150  0.4435
 5693SOL    HW127548   8.869   6.921   2.298  0.9124 -0.7900  0.0736
 5693SOL    HW227549   8.865   6.910   2.461 -0.0404 -1.1707  0.0254
 5694SOL     OW27550   9.138   1.571   1.532  0.3270  0.0661 -0.1098
 5694SOL    HW127551   9.104   1.558   1.438  0.7281  3.2553 -0.7397
 5694SOL    HW227552   9.204   1.499   1.553 -0.4829 -1.2556 -1.9284
 5695SOL     OW27553   3.131   5.170   1.101  0.0886 -0.4590 -0.0274
 5695SOL    HW127554   3.163   5.247   1.157  0.0646  0.6895 -1.5550
 5695SOL    HW227555   3.189   5.090   1.118  0.1788 -0.0842  1.4966
 5696SOL     OW27556   8.308   5.450   2.411 -0.2292 -0.0725 -0.2271
 5696SOL    HW127557   8.212   5.477   2.406 -0.2837 -0.3930 -0.8866
 5696SOL    HW227558   8.319   5.385   2.487 -0.5047  0.0665 -0.0635
 5697SOL     OW27559   8.120   3.264   0.293  0.4992 -0.1105 -0.6171
 5697SOL    HW127560   8.085   3.352   0.263  1.1225  0.5826  0.6518
 5697SOL    HW227561   8.203   3.242   0.242  0.7733  0.4083 -0.4033
 5698SOL     OW27562   1.671   9.606   1.704  0.1509  0.6845  0.0844
 5698SOL    HW127563   1.738   9.607   1.778 -0.0673  1.0291  0.2786
 5698SOL    HW227564   1.718   9.592   1.617  0.2158 -1.6988  0.4701
 5699SOL     OW27565   3.457   1.584   3.126  0.6715  0.1758 -0.7593
 5699SOL    HW127566   3.423   1.520   3.057 -0.1786 -1.3233  1.0108
 5699SOL    HW227567   3.556   1.581   3.129  0.6730 -0.3720 -1.3328
 5700SOL     OW27568   9.349   6.815   1.419  0.4187  0.0775  0.4669
 5700SOL    HW127569   9.423   6.779   1.475  0.0799 -1.8884 -0.3034
 5700SOL    HW227570   9.385   6.845   1.330  0.5116  0.4779  0.6400
 5701SOL     OW27571   6.590   8.742   3.042 -0.1595  0.2225  0.5458
 5701SOL    HW127572   6.623   8.820   3.094  1.7442 -0.7177  0.8039
 5701SOL    HW227573   6.637   8.738   2.954  1.0057 -1.5713  1.2234
 5702SOL     OW27574   1.538   8.831   3.289  0.4277  0.5297  0.5254
 5702SOL    HW127575   1.515   8.904   3.353 -1.3097 -0.4894  1.0976
 5702SOL    HW227576   1.534   8.743   3.336  3.3158  0.1057  0.0444
 5703SOL     OW27577   4.630   8.425   2.936  0.0256  0.1582 -0.6402
 5703SOL    HW127578   4.558   8.475   2.887  0.4841  0.1464 -1.3282
 5703SOL    HW227579   4.596   8.398   3.026 -1.1243 -0.5744 -1.2869
 5704SOL     OW27580   3.512   1.013   1.633  0.0948  0.0532 -0.1435
 5704SOL    HW127581   3.597   0.995   1.683 -0.4392 -1.1652  0.3375
 5704SOL    HW227582   3.434   1.003   1.695 -0.4156  1.0764 -0.6043
 5705SOL     OW27583   8.483   8.719   0.187 -0.0238  0.2552  0.1105
 5705SOL    HW127584   8.520   8.706   0.095  0.4699  0.1081  0.3305
 5705SOL    HW227585   8.384   8.705   0.185 -0.0575  0.5576 -0.4581
 5706SOL     OW27586   8.624   7.037   3.170 -0.1547 -0.3819  0.1430
 5706SOL    HW127587   8.661   7.062   3.080 -1.4978 -4.8442 -1.8116
 5706SOL    HW227588   8.525   7.055   3.172 -0.1697 -0.5135  0.6762
 5707SOL     OW27589   6.477   8.628   2.689 -0.2529  0.7306 -0.1698
 5707SOL    HW127590   6.517   8.714   2.659  0.4799  0.6257  0.4858
 5707SOL    HW227591   6.377   8.632   2.680 -0.2140  1.6141 -0.2001
 5708SOL     OW27592   1.518   7.459   0.537  0.2656  0.4468 -0.7029
 5708SOL    HW127593   1.459   7.489   0.612  1.9440  0.1860  0.7769
 5708SOL    HW227594   1.491   7.368   0.507 -0.8671  0.8395 -0.9005
 5709SOL     OW27595   0.731   0.056   1.714  0.0585  0.1135  0.5330
 5709SOL    HW127596   0.823   0.034   1.682 -0.3868  2.9598 -3.0066
 5709SOL    HW227597   0.737   0.127   1.784  0.5419  0.2836  0.3225
 5710SOL     OW27598   0.731   9.474   1.804 -0.2133 -0.5917 -0.1832
 5710SOL    HW127599   0.744   9.381   1.838 -1.7694 -0.8689 -0.2882
 5710SOL    HW227600   0.652   9.476   1.742  0.8851  0.4523 -1.5832
 5711SOL     OW27601   0.590   3.990   0.747  0.1121  0.1106 -0.2609
 5711SOL    HW127602   0.669   3.970   0.805 -0.4727 -1.3239  0.0712
 5711SOL    HW227603   0.611   4.068   0.688  2.0491 -0.6787 -0.6818
 5712SOL     OW27604   9.384   7.552   2.601  0.2112  0.3718  0.0717
 5712SOL    HW127605   9.445   7.561   2.679  1.0647 -2.6985 -0.1778
 5712SOL    HW227606   9.428   7.592   2.520  0.2440  1.5855  0.6727
 5713SOL     OW27607   0.355   2.104   2.559  0.0358 -0.2525  0.2574
 5713SOL    HW127608   0.288   2.162   2.512 -0.3863 -0.6511  0.3596
 5713SOL    HW227609   0.447   2.128   2.529 -0.3205 -1.5031 -1.8744
 5714SOL     OW27610   5.309   8.032   0.198  0.0243  0.3390 -0.3416
 5714SOL    HW127611   5.247   8.082   0.259 -1.4908 -0.3215 -1.3261
 5714SOL    HW227612   5.397   8.019   0.244 -1.2094 -0.4563  1.8575
 5715SOL     OW27613   7.867   0.112   1.396  0.6590 -0.1935  0.1975
 5715SOL    HW127614   7.851   0.103   1.298  0.3676 -0.6404  0.2869
 5715SOL    HW227615   7.964   0.132   1.412  0.4475  1.2804 -0.2653
 5716SOL     OW27616   4.440   7.081   1.053  0.2349 -0.4995 -0.2570
 5716SOL    HW127617   4.475   7.166   1.093  0.9372 -0.1658 -1.5389
 5716SOL    HW227618   4.451   7.085   0.953  1.4034 -2.6013 -0.2343
 5717SOL     OW27619   3.509   7.468   2.333 -0.1849  0.2425 -0.1946
 5717SOL    HW127620   3.564   7.451   2.415 -1.6650  0.6549  0.8974
 5717SOL    HW227621   3.421   7.506   2.359 -0.5714  0.6392 -2.0105
 5718SOL     OW27622   3.601   2.364   3.578 -0.2136  0.7665 -0.6708
 5718SOL    HW127623   3.601   2.352   3.678  0.1687  0.1786 -0.7397
 5718SOL    HW227624   3.664   2.438   3.554  0.4664  0.2408 -0.5470
 5719SOL     OW27625   1.730   9.939   2.086  0.4790  0.0882 -0.1353
 5719SOL    HW127626   1.636   9.969   2.072  0.4984 -0.2507 -0.9896
 5719SOL    HW227627   1.773   9.922   1.998  1.6099  1.0478  0.2287
 5720SOL     OW27628   4.550   7.445   0.830  0.1104  0.8850  0.2233
 5720SOL    HW127629   4.475   7.383   0.808  0.1399  0.3702  1.5658
 5720SOL    HW227630   4.634   7.411   0.789  0.3615 -0.6112  1.9553
 5721SOL     OW27631   4.139   8.011   1.510  0.3751 -0.6245  0.1828
 5721SOL    HW127632   4.110   7.921   1.540  0.3244 -0.8212 -0.4525
 5721SOL    HW227633   4.150   8.012   1.411  1.9899 -0.3955  0.3490
 5722SOL     OW27634   2.794   3.616   1.918 -0.0910 -0.0591 -0.8083
 5722SOL    HW127635   2.772   3.632   1.822 -0.5584 -1.7688 -1.0077
 5722SOL    HW227636   2.727   3.553   1.957 -0.9412  1.9837  1.1348
 5723SOL     OW27637   2.119   0.193   1.150  0.2745 -0.4381  0.1380
 5723SOL    HW127638   2.152   0.198   1.056 -1.0254 -1.2523 -0.3748
 5723SOL    HW227639   2.152   0.108   1.193  3.0883  1.1759  1.3151
 5724SOL     OW27640   8.416   0.590   1.022 -0.5141 -0.1212 -0.1719
 5724SOL    HW127641   8.500   0.610   0.971 -1.4441 -1.5904 -2.3629
 5724SOL    HW227642   8.401   0.661   1.091  1.8060  0.8835 -0.6482
 5725SOL     OW27643   7.443   1.744   2.231  0.2168 -0.3150 -0.0354
 5725SOL    HW127644   7.470   1.658   2.274 -1.1500 -1.8582 -2.2257
 5725SOL    HW227645   7.366   1.784   2.282 -0.2874 -1.2622 -0.0554
 5726SOL     OW27646   2.124   6.135   1.749 -0.7060 -0.1807  0.0973
 5726SOL    HW127647   2.128   6.108   1.652 -0.0008  1.2183 -0.2714
 5726SOL    HW227648   2.077   6.064   1.801  1.4997 -2.3830 -0.7839
 5727SOL     OW27649   9.325   4.567   0.013 -0.0886  0.0269  0.1662
 5727SOL    HW127650   9.250   4.546  -0.050 -0.4755  2.3143 -0.1778
 5727SOL    HW227651   9.313   4.659   0.050  2.5890  0.4463  0.0973
 5728SOL     OW27652   0.874   7.652   0.702 -0.6172 -0.5465  0.0821
 5728SOL    HW127653   0.812   7.726   0.728 -1.0214 -0.3107 -1.4618
 5728SOL    HW227654   0.967   7.673   0.732 -1.0621 -0.3277  1.3455
 5729SOL     OW27655   9.351   2.761   1.500  0.3317 -0.0110 -0.5412
 5729SOL    HW127656   9.272   2.700   1.509  0.8116 -0.8496 -1.7848
 5729SOL    HW227657   9.391   2.777   1.590 -0.4788 -0.6421 -0.0613
 5730SOL     OW27658   9.012   7.543   0.994 -0.0392 -0.0338  0.0470
 5730SOL    HW127659   9.058   7.460   0.963  1.0704 -0.2556  2.1691
 5730SOL    HW227660   8.913   7.529   0.992  0.1181 -1.0975 -0.4626
 5731SOL     OW27661   1.748   1.058   3.959 -0.1234  0.1469 -0.2016
 5731SOL    HW127662   1.723   0.995   4.032  0.3689  1.1431  0.8353
 5731SOL    HW227663   1.694   1.141   3.966 -1.0440 -0.2850 -1.7980
 5732SOL     OW27664   6.906   9.249   3.248  0.0258  0.0198  0.3507
 5732SOL    HW127665   6.993   9.202   3.231  1.2603  0.7897  4.1646
 5732SOL    HW227666   6.858   9.204   3.323 -1.1354  1.8459  0.7234
 5733SOL     OW27667   8.461   8.267   3.951  0.1255 -0.3676  0.1526
 5733SOL    HW127668   8.409   8.275   4.036  0.2079  1.1734  0.0680
 5733SOL    HW227669   8.528   8.341   3.946  0.8876 -1.1108 -0.7344
 5734SOL     OW27670   0.540   8.389   1.614 -0.3355 -0.2077 -0.3548
 5734SOL    HW127671   0.606   8.372   1.540 -1.2777 -0.2379 -1.2052
 5734SOL    HW227672   0.448   8.372   1.580 -0.8321  0.4763  0.6364
 5735SOL     OW27673   3.390   9.048   1.778 -0.0046 -0.1330  0.2144
 5735SOL    HW127674   3.388   8.952   1.808 -0.3985 -0.5447 -1.0743
 5735SOL    HW227675   3.443   9.054   1.693  0.4149  0.8725  0.5479
 5736SOL     OW27676   3.079   6.483   2.657 -0.9219 -0.0114 -0.0703
 5736SOL    HW127677   3.041   6.517   2.572 -0.2906 -0.2022 -0.4300
 5736SOL    HW227678   3.086   6.383   2.653  1.0263  0.1315 -0.6035
 5737SOL     OW27679   2.328   2.098   0.222 -0.1524  0.0644  0.0779
 5737SOL    HW127680   2.335   2.112   0.123 -2.4650 -2.2999 -0.4721
 5737SOL    HW227681   2.237   2.065   0.245  0.5672 -0.0788  2.9329
 5738SOL     OW27682   9.592   2.833   0.351 -0.2477  0.1018 -0.3343
 5738SOL    HW127683   9.532   2.912   0.361 -1.7426 -1.0289 -0.0695
 5738SOL    HW227684   9.548   2.765   0.292  1.7163  0.1230 -1.8970
 5739SOL     OW27685   2.421   5.497   2.427 -0.3800 -0.1675 -0.3526
 5739SOL    HW127686   2.514   5.533   2.422 -0.6252  0.3682 -1.1003
 5739SOL    HW227687   2.369   5.549   2.495 -0.5878  0.5608 -1.0676
 5740SOL     OW27688   2.877   5.159   0.010 -0.0924 -0.4825 -0.2734
 5740SOL    HW127689   2.786   5.140   0.047 -0.1157  0.1735  0.0174
 5740SOL    HW227690   2.903   5.087  -0.053 -1.6725  0.3512 -1.9471
 5741SOL     OW27691   4.629   7.754   0.634  0.1074 -0.4777  0.6647
 5741SOL    HW127692   4.621   7.805   0.548  2.8545 -0.4251  0.3837
 5741SOL    HW227693   4.538   7.728   0.666 -1.0499  0.6726 -1.5518
 5742SOL     OW27694   4.674   9.222   2.189 -0.1679 -0.2279  0.0827
 5742SOL    HW127695   4.725   9.202   2.105  0.3306  0.4674  0.2140
 5742SOL    HW227696   4.738   9.245   2.262 -0.7154  2.0357 -0.1157
 5743SOL     OW27697   0.818   2.138   0.231 -0.3241 -0.0938 -0.0290
 5743SOL    HW127698   0.762   2.220   0.243  1.0852  0.7617  0.8145
 5743SOL    HW227699   0.804   2.077   0.308  0.7388  0.6283  0.7453
 5744SOL     OW27700   1.543   6.737   2.597  0.3372  0.3258 -0.4348
 5744SOL    HW127701   1.592   6.668   2.650  1.1648  0.6961 -0.7090
 5744SOL    HW227702   1.593   6.823   2.599  0.5277  0.2800 -2.0344
 5745SOL     OW27703   4.580   7.600   2.846 -0.1943  0.1463  0.2514
 5745SOL    HW127704   4.603   7.653   2.765  2.8790  1.0059  1.5796
 5745SOL    HW227705   4.563   7.505   2.821  1.8225  0.1670 -1.3163
 5746SOL     OW27706   1.076   1.684   3.428  0.9666 -0.4724  0.1995
 5746SOL    HW127707   1.003   1.652   3.488  0.9432  0.4418  0.6651
 5746SOL    HW227708   1.041   1.697   3.336  0.8314 -1.1836  0.1473
 5747SOL     OW27709   3.481   0.198   0.155  0.3587  0.6493  0.1540
 5747SOL    HW127710   3.578   0.181   0.135  0.5407  0.9119  0.7980
 5747SOL    HW227711   3.443   0.120   0.204  0.2478  0.5525 -0.0864
 5748SOL     OW27712   1.438   6.874   3.501 -0.2181 -0.0598 -0.0800
 5748SOL    HW127713   1.401   6.915   3.417  0.8287  0.7529 -0.1558
 5748SOL    HW227714   1.476   6.946   3.559  0.0790 -0.7419  0.5792
 5749SOL     OW27715   3.524   2.677   2.387 -0.4084  0.2131  0.7439
 5749SOL    HW127716   3.518   2.604   2.454 -0.0279 -0.5461 -0.0442
 5749SOL    HW227717   3.472   2.652   2.305 -0.3678  0.8690  0.5083
 5750SOL     OW27718   8.345   8.172   2.283 -0.4220  0.1339 -0.2516
 5750SOL    HW127719   8.357   8.094   2.345  0.1239  0.1739 -0.3092
 5750SOL    HW227720   8.252   8.171   2.247 -1.6481  1.5912  2.6447
 5751SOL     OW27721   9.297   2.957   1.290  0.6719  0.0222  0.5746
 5751SOL    HW127722   9.329   2.926   1.201 -1.2040 -0.1361 -0.0560
 5751SOL    HW227723   9.291   2.880   1.353 -0.3239 -0.2666  0.1267
 5752SOL     OW27724   2.611   6.224   0.087 -0.1483  0.0623 -0.1342
 5752SOL    HW127725   2.685   6.284   0.060  0.6249 -0.4551  0.8143
 5752SOL    HW227726   2.579   6.173   0.007 -0.0686  0.9142 -0.7146
 5753SOL     OW27727   1.236   5.093   1.555 -0.0181 -0.2280 -0.2010
 5753SOL    HW127728   1.235   5.177   1.609 -0.2044 -0.2120 -0.2296
 5753SOL    HW227729   1.287   5.022   1.604 -1.2225 -0.5847  0.5468
 5754SOL     OW27730   1.950   6.774   1.155 -0.0088  0.0135  0.0621
 5754SOL    HW127731   1.932   6.805   1.062  0.8113 -0.2903 -0.2012
 5754SOL    HW227732   1.893   6.694   1.175  1.2733 -1.1566 -0.8856
 5755SOL     OW27733   9.826   6.446   2.141  0.4587 -0.1115 -0.5092
 5755SOL    HW127734   9.882   6.522   2.174  0.3551  0.0018 -0.5935
 5755SOL    HW227735   9.805   6.385   2.217  2.1141 -1.0622 -0.7904
 5756SOL     OW27736   2.951   8.678   3.296  0.1757  0.4094 -0.0019
 5756SOL    HW127737   2.866   8.715   3.258  1.0616  1.0689 -1.3745
 5756SOL    HW227738   3.022   8.678   3.226  1.0356 -1.1093  0.8471
 5757SOL     OW27739   1.744   3.788   1.916 -0.0231  0.3481  0.4208
 5757SOL    HW127740   1.688   3.855   1.964  0.8754  0.6621  1.0412
 5757SOL    HW227741   1.834   3.781   1.960  0.3170 -0.3830 -0.3634
 5758SOL     OW27742   1.338   3.589   2.663 -0.4566  0.2210 -0.3734
 5758SOL    HW127743   1.435   3.563   2.662 -0.0271  1.7464 -0.6522
 5758SOL    HW227744   1.290   3.541   2.590  0.5276  0.9762 -1.5532
 5759SOL     OW27745   7.076   8.903   2.576  0.9683 -0.1739  0.9162
 5759SOL    HW127746   7.050   8.970   2.646 -2.1738  0.4924 -0.7725
 5759SOL    HW227747   7.015   8.825   2.582 -0.3358  0.5756 -2.0049
 5760SOL     OW27748   7.861   8.043   3.951  0.6802 -0.2069 -0.1292
 5760SOL    HW127749   7.934   7.980   3.977  0.6147 -0.8958 -1.5763
 5760SOL    HW227750   7.817   8.011   3.867 -0.6145  0.7490  0.1695
 5761SOL     OW27751   7.507   8.243   2.868  0.3196  0.1015 -0.2697
 5761SOL    HW127752   7.545   8.326   2.826 -0.3108  0.3319 -0.3953
 5761SOL    HW227753   7.565   8.165   2.846  0.7771  0.4676 -0.3695
 5762SOL     OW27754   8.218   3.101   1.025  0.5979 -0.0671  0.0690
 5762SOL    HW127755   8.231   3.157   1.106 -1.3704 -0.9992  1.0560
 5762SOL    HW227756   8.219   3.004   1.050  0.4363 -0.3765 -1.0778
 5763SOL     OW27757   0.483   2.425   3.896 -0.3280  0.5845  0.0450
 5763SOL    HW127758   0.429   2.344   3.876 -0.1759  0.2980  0.7709
 5763SOL    HW227759   0.470   2.452   3.992 -0.3614  1.4020 -0.1820
 5764SOL     OW27760   2.132   9.031   0.514  0.2067 -0.6760  0.1572
 5764SOL    HW127761   2.121   9.110   0.574 -0.4852 -0.3888 -0.3449
 5764SOL    HW227762   2.139   9.062   0.419 -0.4572 -1.2451 -0.0800
 5765SOL     OW27763   4.651   9.485   1.656 -0.0574 -0.4150 -0.1050
 5765SOL    HW127764   4.631   9.454   1.749 -0.9842  1.1384  0.2338
 5765SOL    HW227765   4.597   9.567   1.636  0.6751 -0.3173 -1.7587
 5766SOL     OW27766   9.850   6.134   3.722  0.1679 -0.1407  0.3051
 5766SOL    HW127767   9.940   6.177   3.720 -0.1545  0.5093 -1.4852
 5766SOL    HW227768   9.822   6.114   3.628 -1.0221 -1.4585  0.9358
 5767SOL     OW27769   9.498   8.354   3.689  0.1329  0.3588  0.2399
 5767SOL    HW127770   9.552   8.391   3.613  2.8775  1.3649  2.6039
 5767SOL    HW227771   9.414   8.407   3.699  1.0760  2.0150 -0.3526
 5768SOL     OW27772   2.510   5.384   3.615 -0.2160  0.4031 -0.2423
 5768SOL    HW127773   2.438   5.453   3.604 -1.3827 -1.1235 -2.6594
 5768SOL    HW227774   2.514   5.327   3.533  2.4743 -0.7846  0.6643
 5769SOL     OW27775   7.994   5.596   2.613  0.6202 -0.0688  0.5113
 5769SOL    HW127776   7.906   5.581   2.657  0.0099  0.2695 -0.5719
 5769SOL    HW227777   8.067   5.555   2.668 -0.0153  1.1295  2.2875
 5770SOL     OW27778   1.867   8.082   3.552 -0.4057 -0.3636  0.6093
 5770SOL    HW127779   1.879   8.147   3.477 -0.1925 -1.1785 -0.0605
 5770SOL    HW227780   1.780   8.100   3.598  0.5853  1.7226  1.7231
 5771SOL     OW27781   9.579   5.686   0.214  0.0686  0.7299 -0.0484
 5771SOL    HW127782   9.495   5.712   0.166 -0.6412  0.3973  0.9987
 5771SOL    HW227783   9.558   5.666   0.310  1.9980  4.6441  1.2957
 5772SOL     OW27784   3.148   1.869   3.448 -0.1481 -0.3261 -0.4937
 5772SOL    HW127785   3.134   1.938   3.377  0.7410  0.9336  0.5439
 5772SOL    HW227786   3.215   1.802   3.416  1.6479  1.2649 -0.1529
 5773SOL     OW27787   3.149   2.558   2.428  0.3835  0.4841 -0.1818
 5773SOL    HW127788   3.056   2.574   2.461  0.7587  2.2266  0.0619
 5773SOL    HW227789   3.192   2.485   2.481 -1.3484 -1.3980 -1.2777
 5774SOL     OW27790   3.410   4.052   3.004  0.0646  0.0496 -0.8887
 5774SOL    HW127791   3.492   4.101   2.974 -0.7646  1.3171 -1.0842
 5774SOL    HW227792   3.342   4.117   3.037 -0.1188 -1.1184  1.1469
 5775SOL     OW27793   2.812   7.467   3.149 -0.1486  0.6056 -0.4332
 5775SOL    HW127794   2.715   7.480   3.124 -0.3582  1.6590  0.8896
 5775SOL    HW227795   2.825   7.375   3.185 -1.2073  1.3266  1.8593
 5776SOL     OW27796   4.988   2.019   1.693 -0.0472 -0.3585  0.0426
 5776SOL    HW127797   4.987   2.078   1.612  1.9492 -0.2073  0.1147
 5776SOL    HW227798   5.081   2.013   1.729 -0.7836 -1.0280  1.8965
 5777SOL     OW27799   4.356   1.370   2.223 -0.0457 -0.5554 -0.0579
 5777SOL    HW127800   4.361   1.347   2.126 -1.1894 -1.1593  0.0143
 5777SOL    HW227801   4.402   1.300   2.277  1.3758  0.2396 -0.2136
 5778SOL     OW27802   9.237   2.485   0.006 -0.1566 -0.3437  0.1302
 5778SOL    HW127803   9.237   2.464  -0.092 -2.5323  0.4564 -0.0761
 5778SOL    HW227804   9.215   2.582   0.019  2.3957  0.0921  1.3798
 5779SOL     OW27805   0.506   4.118   2.232  0.2886  0.2653  0.1969
 5779SOL    HW127806   0.477   4.184   2.301 -0.0850  2.0154 -1.5829
 5779SOL    HW227807   0.559   4.164   2.161 -0.2740 -1.2624 -1.2627
 5780SOL     OW27808   4.488   2.711   0.298  0.4951 -0.0140 -0.3284
 5780SOL    HW127809   4.439   2.774   0.357  2.0097 -0.2070  1.1841
 5780SOL    HW227810   4.554   2.762   0.242  1.4734 -0.2012  0.6418
 5781SOL     OW27811   8.899   1.331   3.797  0.1019 -0.3376 -0.5313
 5781SOL    HW127812   8.888   1.292   3.888  0.3942 -0.6327 -0.6211
 5781SOL    HW227813   8.859   1.270   3.729  0.9863 -0.7239 -0.7175
 5782SOL     OW27814   1.919   4.350   0.120 -0.1788 -0.1979  0.0992
 5782SOL    HW127815   1.915   4.317   0.215  0.0981 -0.0646  0.1581
 5782SOL    HW227816   1.938   4.273   0.059 -2.1986 -0.5948 -0.0413
 5783SOL     OW27817   0.270   0.085   0.845 -0.1831  0.2296 -0.5281
 5783SOL    HW127818   0.353   0.136   0.865 -0.0419 -0.0671 -0.3574
 5783SOL    HW227819   0.227   0.056   0.931  0.5435 -1.2420 -0.6469
 5784SOL     OW27820   1.558   7.939   3.476  0.3648 -0.5650 -0.2000
 5784SOL    HW127821   1.601   7.931   3.566  0.2911 -0.8687 -0.1901
 5784SOL    HW227822   1.574   8.030   3.439 -0.0584 -0.2655  0.3521
 5785SOL     OW27823   4.284   0.016   2.020 -0.4366 -0.4956  0.0371
 5785SOL    HW127824   4.284   0.100   2.074 -1.1906 -0.3788 -0.1394
 5785SOL    HW227825   4.299  -0.062   2.080  1.3316 -0.1576  0.0660
 5786SOL     OW27826   0.876   4.694   1.085  0.4436  0.2258 -0.2780
 5786SOL    HW127827   0.924   4.614   1.050 -0.7956  0.2565 -2.1132
 5786SOL    HW227828   0.928   4.777   1.064  1.4763 -0.0487  1.1743
 5787SOL     OW27829   1.290   0.974   1.956 -0.2573 -0.4745  0.4174
 5787SOL    HW127830   1.319   1.003   1.865  0.8827 -0.2305  0.8589
 5787SOL    HW227831   1.337   1.028   2.025 -1.2543 -0.5411  1.1527
 5788SOL     OW27832   2.730   5.462   3.090 -0.0510  0.4852 -0.2330
 5788SOL    HW127833   2.643   5.434   3.049 -0.8481  0.7181  1.2893
 5788SOL    HW227834   2.801   5.395   3.066 -1.2825 -1.2492  0.8509
 5789SOL     OW27835   8.392   8.008   3.357  0.4686 -0.0444 -0.3204
 5789SOL    HW127836   8.325   8.020   3.431  1.7030  1.4279  0.5876
 5789SOL    HW227837   8.472   8.064   3.375  2.0136 -1.8443 -1.3544
 5790SOL     OW27838   9.630   1.137   0.819  0.4760  0.1009 -0.8435
 5790SOL    HW127839   9.672   1.211   0.872 -0.9213  0.5877 -0.3783
 5790SOL    HW227840   9.621   1.165   0.724 -3.3149  2.0493 -0.0391
 5791SOL     OW27841   3.173   6.047   3.222  0.6759 -0.1172  0.2163
 5791SOL    HW127842   3.108   6.068   3.149 -0.3855 -0.6741  0.9819
 5791SOL    HW227843   3.261   6.021   3.183 -0.3708 -2.0640 -0.9226
 5792SOL     OW27844   9.069   0.183   3.586 -0.2755  0.3838  0.0250
 5792SOL    HW127845   9.110   0.258   3.535  0.8176  0.1205  0.4968
 5792SOL    HW227846   9.050   0.107   3.524 -1.7150  1.1526 -0.5218
 5793SOL     OW27847   0.480   4.973   0.269 -0.4248 -0.3255 -0.3503
 5793SOL    HW127848   0.475   4.906   0.194 -0.3406 -1.2210  0.4415
 5793SOL    HW227849   0.558   5.034   0.254  1.7801 -2.7739  0.8557
 5794SOL     OW27850   2.071   7.747   1.898 -0.0494 -0.5539  0.0558
 5794SOL    HW127851   2.022   7.679   1.843  0.4748 -1.0614  0.2211
 5794SOL    HW227852   2.109   7.704   1.980  1.1599 -0.2790 -0.3506
 5795SOL     OW27853   3.152   7.272   0.054  0.0125  0.3317 -0.1371
 5795SOL    HW127854   3.199   7.290  -0.032  2.0966 -0.3250  0.8226
 5795SOL    HW227855   3.201   7.200   0.104  0.7885  2.9840  3.0795
 5796SOL     OW27856   2.309   8.661   2.441 -0.2444  0.5902 -0.1762
 5796SOL    HW127857   2.284   8.585   2.501 -1.2346  0.7079 -0.4276
 5796SOL    HW227858   2.405   8.684   2.454 -0.1005 -0.2989  0.3519
 5797SOL     OW27859   9.575   3.311   2.865 -0.2740 -0.2574 -0.0978
 5797SOL    HW127860   9.660   3.361   2.880  0.2351 -0.9886 -0.4740
 5797SOL    HW227861   9.556   3.253   2.944  0.4188 -1.2803 -0.6707
 5798SOL     OW27862   2.704   9.677   0.897 -0.3197 -0.5551  0.2554
 5798SOL    HW127863   2.755   9.747   0.846 -0.1068 -0.6308  0.3660
 5798SOL    HW227864   2.765   9.633   0.963 -0.4262 -0.9281  0.1040
 5799SOL     OW27865   3.584   1.150   2.891 -0.7102 -0.3514  0.3078
 5799SOL    HW127866   3.618   1.187   2.805 -0.2605 -0.8347  0.2687
 5799SOL    HW227867   3.583   1.050   2.886 -1.0400 -0.3729  0.7291
 5800SOL     OW27868   1.735   5.073   0.463  0.0103  0.2367  0.9550
 5800SOL    HW127869   1.686   5.155   0.432  0.6112  1.2159  2.5098
 5800SOL    HW227870   1.832   5.094   0.473  0.8430 -1.7210 -2.2168
 5801SOL     OW27871   9.669   3.793   0.459  0.4054  0.1876 -0.0818
 5801SOL    HW127872   9.600   3.747   0.402  0.2649  1.7602 -1.2161
 5801SOL    HW227873   9.725   3.852   0.401 -0.2091  2.3790  1.5167
 5802SOL     OW27874   8.433   1.406   0.844  0.3572  0.5651  0.1489
 5802SOL    HW127875   8.531   1.393   0.830  0.5781  3.4907 -1.2982
 5802SOL    HW227876   8.382   1.344   0.784  1.2884 -1.5007  1.4519
 5803SOL     OW27877   0.170   3.696   1.393 -0.3129  0.4135 -0.2325
 5803SOL    HW127878   0.146   3.602   1.367 -0.9454  0.7285 -0.8185
 5803SOL    HW227879   0.167   3.755   1.312 -0.9872  1.1442  0.3064
 5804SOL     OW27880   0.840   1.932   2.206  0.5342  0.4486 -0.6195
 5804SOL    HW127881   0.862   1.941   2.303  0.4315 -2.1102 -0.3239
 5804SOL    HW227882   0.923   1.909   2.155  0.5273  1.4703 -1.1064
 5805SOL     OW27883   4.491   7.989   2.070 -0.1479 -0.1127  0.0374
 5805SOL    HW127884   4.586   8.002   2.044 -0.1652 -0.9929 -0.5015
 5805SOL    HW227885   4.436   7.970   1.988 -0.6378 -0.4184  0.4312
 5806SOL     OW27886   1.207   0.948   0.383 -0.6976  0.2951  0.4562
 5806SOL    HW127887   1.140   0.910   0.319 -0.0549  1.5517 -1.0195
 5806SOL    HW227888   1.161   1.008   0.449 -1.3285 -0.7576  0.9710
 5807SOL     OW27889   2.595   5.840   3.592  0.4268 -0.1390  0.8321
 5807SOL    HW127890   2.631   5.782   3.665 -0.4100 -1.9298 -0.1456
 5807SOL    HW227891   2.651   5.828   3.510 -0.9917 -1.2315 -0.0166
 5808SOL     OW27892   0.623   4.159   2.981 -0.5062 -0.3103  0.6031
 5808SOL    HW127893   0.700   4.111   3.023  0.3858 -0.0692 -0.7199
 5808SOL    HW227894   0.548   4.095   2.965  0.5163 -1.1877 -0.7645
 5809SOL     OW27895   5.741   0.428   2.864  0.3878  0.0898 -0.3607
 5809SOL    HW127896   5.645   0.447   2.843  0.1349  0.5805  1.1453
 5809SOL    HW227897   5.792   0.514   2.866  0.6389 -0.0661 -0.1136
 5810SOL     OW27898   7.196   3.887   0.844  0.1224 -0.4221  0.6449
 5810SOL    HW127899   7.163   3.971   0.801 -1.7933 -2.4739 -2.0843
 5810SOL    HW227900   7.261   3.842   0.782 -0.4911 -2.0099  1.1298
 5811SOL     OW27901   2.539   3.296   0.548 -0.4219 -0.3570 -0.0165
 5811SOL    HW127902   2.490   3.296   0.635 -1.5037 -1.3327 -0.6087
 5811SOL    HW227903   2.636   3.314   0.564 -0.5465 -0.8898  1.4119
 5812SOL     OW27904   3.841   2.909   3.407 -0.1776  0.0059  0.7108
 5812SOL    HW127905   3.850   2.843   3.332 -0.0454  1.6831 -0.7827
 5812SOL    HW227906   3.907   2.887   3.479  1.2424 -0.3082 -0.6622
 5813SOL     OW27907   1.663   2.147   0.511 -0.3573  0.1450  0.0784
 5813SOL    HW127908   1.676   2.242   0.541  1.5964  0.5274 -1.8372
 5813SOL    HW227909   1.701   2.085   0.580  3.1698  0.9674 -1.0156
 5814SOL     OW27910   1.855   9.270   1.864  0.0034 -0.2749 -0.0489
 5814SOL    HW127911   1.766   9.243   1.901 -0.7549  1.5049 -0.5032
 5814SOL    HW227912   1.862   9.241   1.769 -0.9692  1.4334 -0.6566
 5815SOL     OW27913   2.859   9.883   3.509  0.5526  0.5337 -0.0654
 5815SOL    HW127914   2.846   9.969   3.460 -0.9371  0.1447 -0.3680
 5815SOL    HW227915   2.877   9.903   3.606 -1.2829  1.1433  0.1648
 5816SOL     OW27916   0.868   0.676   0.097  0.3962 -0.3820 -0.6687
 5816SOL    HW127917   0.784   0.651   0.145 -0.7254  0.5661 -2.0822
 5816SOL    HW227918   0.845   0.723   0.012  2.3721  0.4453 -0.7775
 5817SOL     OW27919   8.825   4.380   0.238 -0.1862  0.6047 -0.3680
 5817SOL    HW127920   8.760   4.336   0.300  0.4926  1.1073  0.7153
 5817SOL    HW227921   8.807   4.478   0.235  1.0057  0.8704  0.5628
 5818SOL     OW27922   4.016   1.717   0.071 -0.0227  0.5687 -0.2875
 5818SOL    HW127923   4.068   1.648   0.123  0.4788  1.1166 -0.0529
 5818SOL    HW227924   4.057   1.807   0.086 -0.4623  0.8668 -0.8741
 5819SOL     OW27925   8.709   3.517   2.964  0.0073 -0.2101 -0.6660
 5819SOL    HW127926   8.680   3.613   2.962 -0.8361 -0.4377  0.2713
 5819SOL    HW227927   8.724   3.485   2.871  0.1258  0.7812 -0.9940
 5820SOL     OW27928   8.622   6.670   2.892 -0.4701 -0.1367 -0.1649
 5820SOL    HW127929   8.643   6.588   2.946  0.4022 -0.4136 -0.9101
 5820SOL    HW227930   8.530   6.702   2.914  0.7557  1.1972  3.2863
 5821SOL     OW27931   7.490   9.825   1.394  0.0215  0.0584 -0.3915
 5821SOL    HW127932   7.504   9.774   1.479 -0.5007  0.1236 -0.2653
 5821SOL    HW227933   7.525   9.918   1.405 -0.7579  0.3078  0.0181
 5822SOL     OW27934   9.337   4.599   1.725  0.0617 -0.1040 -0.3752
 5822SOL    HW127935   9.365   4.597   1.629 -2.0699  1.8487 -1.0647
 5822SOL    HW227936   9.353   4.690   1.763 -4.0369  0.6913 -0.4257
 5823SOL     OW27937   9.321   5.106   0.184 -0.2860  0.3655 -0.2856
 5823SOL    HW127938   9.391   5.075   0.249 -1.5699 -0.1184  0.8766
 5823SOL    HW227939   9.357   5.183   0.131  1.5952 -0.6991 -0.5962
 5824SOL     OW27940   1.138   9.091   0.547  0.1088  0.6222  0.5150
 5824SOL    HW127941   1.057   9.046   0.510  0.1848  1.6020 -0.8675
 5824SOL    HW227942   1.220   9.051   0.506  0.1886  1.7975 -0.5018
 5825SOL     OW27943   2.549   4.346   0.518 -0.0243  0.1302 -0.1125
 5825SOL    HW127944   2.604   4.351   0.435 -1.1873  1.8769 -0.8161
 5825SOL    HW227945   2.474   4.413   0.513  0.3661  0.8618  2.6728
 5826SOL     OW27946   7.606   9.062   1.713  0.3078  0.1170 -0.2282
 5826SOL    HW127947   7.584   8.964   1.717 -0.1839  0.2023 -0.7372
 5826SOL    HW227948   7.536   9.114   1.761  0.6023  0.2128  0.0958
 5827SOL     OW27949   2.318   2.733   0.647  0.3648 -0.5590  0.0142
 5827SOL    HW127950   2.289   2.675   0.722  0.9906 -1.0148 -0.0852
 5827SOL    HW227951   2.245   2.797   0.623 -0.2981 -1.2517  0.1770
 5828SOL     OW27952   9.736   2.973   3.830 -0.0806 -0.1554  0.3377
 5828SOL    HW127953   9.679   2.936   3.903 -0.3870 -0.4612 -0.0573
 5828SOL    HW227954   9.797   3.043   3.868 -0.8472  0.3151  0.7347
 5829SOL     OW27955   1.581   9.718   3.468 -0.4372 -0.0282 -0.0062
 5829SOL    HW127956   1.669   9.730   3.422 -0.1930 -0.9268  0.2245
 5829SOL    HW227957   1.508   9.756   3.411 -0.1859 -1.4986 -1.3384
 5830SOL     OW27958   1.478   7.714   1.839 -0.2121  0.2597  0.8911
 5830SOL    HW127959   1.419   7.779   1.885 -1.4543  1.3425 -2.1161
 5830SOL    HW227960   1.428   7.629   1.823 -0.6608  0.8317 -0.7922
 5831SOL     OW27961   0.932   9.362   2.965 -0.2043 -0.2232 -0.0552
 5831SOL    HW127962   0.851   9.347   3.021 -0.6304  0.3301 -0.5217
 5831SOL    HW227963   1.011   9.375   3.025 -0.4830 -0.6254  0.4026
 5832SOL     OW27964   3.596   2.544   0.579 -0.1396 -0.4842  0.7276
 5832SOL    HW127965   3.695   2.544   0.573 -0.2043 -0.9045 -0.4104
 5832SOL    HW227966   3.558   2.607   0.512 -0.5766  1.2924  2.5843
 5833SOL     OW27967   7.933   1.567   2.383 -0.3424  0.1374 -0.2117
 5833SOL    HW127968   7.867   1.547   2.455  0.2753  2.1203  0.9374
 5833SOL    HW227969   8.025   1.572   2.422  0.2241 -0.5129 -1.4391
 5834SOL     OW27970   3.714   7.366   2.540  0.3093 -0.6457 -0.3020
 5834SOL    HW127971   3.671   7.371   2.630  0.4058  1.1741 -0.3388
 5834SOL    HW227972   3.804   7.322   2.549  0.4757 -0.1444  0.5636
 5835SOL     OW27973   5.621   8.412   2.806 -0.2592  0.2272 -0.0782
 5835SOL    HW127974   5.606   8.314   2.795  1.6753 -0.1079  0.0927
 5835SOL    HW227975   5.635   8.433   2.903 -0.6539  0.6636 -0.1159
 5836SOL     OW27976   2.407   6.031   0.366 -0.3583  0.4176 -0.0316
 5836SOL    HW127977   2.330   6.052   0.306 -1.9391  1.2561  2.2056
 5836SOL    HW227978   2.459   6.115   0.385  1.6251 -0.2783 -2.1629
 5837SOL     OW27979   2.280   2.600   2.220  0.2171 -0.0549  0.3229
 5837SOL    HW127980   2.340   2.604   2.140  0.3768  0.4569  0.4659
 5837SOL    HW227981   2.315   2.530   2.283 -0.2501 -0.8849 -0.3176
 5838SOL     OW27982   0.534   9.394   1.238 -0.1494  0.3006  0.1771
 5838SOL    HW127983   0.439   9.421   1.257 -0.6793 -0.1644 -1.6755
 5838SOL    HW227984   0.556   9.418   1.143  1.9658  1.4346  0.9165
 5839SOL     OW27985   7.231   7.257   3.237  0.5452  0.6017  0.0630
 5839SOL    HW127986   7.284   7.303   3.309  2.0472 -0.2680 -0.4496
 5839SOL    HW227987   7.233   7.158   3.254  1.2844  0.3550 -1.3998
 5840SOL     OW27988   8.929   3.459   1.348 -0.2820 -0.3018 -0.0759
 5840SOL    HW127989   9.010   3.499   1.303 -0.1510 -2.0781 -1.4473
 5840SOL    HW227990   8.856   3.448   1.281 -0.5257 -1.7764  0.4202
 5841SOL     OW27991   4.801   8.903   0.948  0.3629 -0.2886 -0.3585
 5841SOL    HW127992   4.803   8.964   0.869  0.6067 -0.5895 -0.5850
 5841SOL    HW227993   4.826   8.954   1.030  1.5831 -0.3134 -0.7020
 5842SOL     OW27994   8.910   7.560   1.535 -0.0419 -0.0591 -0.4150
 5842SOL    HW127995   8.941   7.626   1.603 -0.8108  1.3256 -1.4014
 5842SOL    HW227996   8.954   7.472   1.553  2.7959  1.2967 -0.4932
 5843SOL     OW27997   0.337   8.788   2.106 -0.5793  0.2273  1.0072
 5843SOL    HW127998   0.258   8.800   2.167 -1.9203 -1.6680 -0.3226
 5843SOL    HW227999   0.397   8.717   2.142 -1.3112 -0.8112  0.2012
 5844SOL     OW28000   9.636   3.597   3.276  0.2872 -0.3904  0.0510
 5844SOL    HW128001   9.537   3.581   3.273  0.1547  0.5816 -0.9763
 5844SOL    HW228002   9.680   3.523   3.327 -0.9962 -0.6939  0.7416
 5845SOL     OW28003   9.786   2.378   3.477 -0.1795 -0.3345  0.2978
 5845SOL    HW128004   9.797   2.471   3.511 -0.0159 -1.0072  2.1685
 5845SOL    HW228005   9.812   2.374   3.381 -0.1174  1.5270  0.2245
 5846SOL     OW28006   3.155   4.490   2.343 -0.4103 -0.2846 -0.5995
 5846SOL    HW128007   3.235   4.436   2.371 -0.9319 -0.5534  0.4143
 5846SOL    HW228008   3.173   4.534   2.255  0.5812 -0.9219 -0.7218
 5847SOL     OW28009   4.018   2.901   0.454  0.1110  0.0590 -0.6210
 5847SOL    HW128010   3.937   2.847   0.477  0.3663 -0.5421 -1.1228
 5847SOL    HW228011   4.058   2.937   0.538 -0.3585 -0.1052 -0.3247
 5848SOL     OW28012   2.776   7.202   1.499 -0.5148 -0.2837  0.3134
 5848SOL    HW128013   2.758   7.108   1.527 -1.4341  0.3921  2.0770
 5848SOL    HW228014   2.711   7.228   1.428  0.7752 -1.4826 -1.3420
 5849SOL     OW28015   0.293   4.912   0.991 -0.3807 -0.0688 -0.2359
 5849SOL    HW128016   0.266   4.972   0.915 -0.4447 -0.9285 -0.8931
 5849SOL    HW228017   0.360   4.845   0.959 -0.2150 -0.2738  0.5311
 5850SOL     OW28018   3.657   5.831   2.113  0.3518  0.3052  0.3434
 5850SOL    HW128019   3.606   5.895   2.055 -0.5872 -0.6194  0.1334
 5850SOL    HW228020   3.658   5.865   2.207 -2.8795 -0.9231  0.8694
 5851SOL     OW28021   5.029   9.650   1.602 -0.2249  0.3723 -0.2731
 5851SOL    HW128022   5.075   9.624   1.517  0.1488 -0.7542  0.2608
 5851SOL    HW228023   4.964   9.579   1.628 -0.7599  0.9858  0.0745
 5852SOL     OW28024   8.854   4.023   0.892 -0.7468  0.3127  0.0052
 5852SOL    HW128025   8.850   4.024   0.992 -1.6105 -1.7821  0.0084
 5852SOL    HW228026   8.948   4.004   0.862 -0.7150 -0.2020  0.4329
 5853SOL     OW28027   4.537   0.713   3.933 -0.2894 -0.5015 -0.1840
 5853SOL    HW128028   4.533   0.661   4.019 -0.9263 -0.2137 -0.0398
 5853SOL    HW228029   4.553   0.809   3.953  1.9487 -0.7612 -0.4960
 5854SOL     OW28030   3.035   6.816   0.879  0.1794 -0.2033  0.2974
 5854SOL    HW128031   3.134   6.822   0.871  0.0056  1.4938 -0.9854
 5854SOL    HW228032   3.005   6.862   0.963  0.5913 -2.2950  1.6308
 5855SOL     OW28033   8.066   8.313   3.532  0.4843 -0.1838 -0.3146
 5855SOL    HW128034   8.021   8.402   3.538  0.6566 -0.0043 -1.5895
 5855SOL    HW228035   8.002   8.245   3.496 -0.2221 -1.0112  2.3929
 5856SOL     OW28036   0.683   7.043   2.421 -0.4580 -0.7773  0.7131
 5856SOL    HW128037   0.737   6.983   2.481  2.2207 -0.4788 -1.3185
 5856SOL    HW228038   0.712   7.030   2.326 -1.8466  1.6720 -0.0777
 5857SOL     OW28039   3.203   4.672   2.535 -0.1064  0.5304  0.0277
 5857SOL    HW128040   3.193   4.590   2.478  1.8941 -0.7186  1.3998
 5857SOL    HW228041   3.270   4.734   2.494  1.4928 -0.4664  1.0672
 5858SOL     OW28042   8.225   5.634   0.848  0.3230 -0.1172 -0.0237
 5858SOL    HW128043   8.177   5.566   0.904 -0.7450 -1.3516 -2.3593
 5858SOL    HW228044   8.216   5.724   0.890  0.6609 -1.1969  2.4523
 5859SOL     OW28045   1.477   6.913   1.377 -0.2634  0.1886 -0.4457
 5859SOL    HW128046   1.460   7.007   1.409 -0.1556  1.1068 -2.9681
 5859SOL    HW228047   1.397   6.857   1.396 -0.5614  0.9235  0.5565
 5860SOL     OW28048   1.793   1.784   1.381 -0.5415 -0.3127 -0.2486
 5860SOL    HW128049   1.698   1.810   1.367 -0.9813 -1.1908  1.0648
 5860SOL    HW228050   1.814   1.705   1.324 -1.5618 -2.1965  1.9353
 5861SOL     OW28051   4.144   7.615   0.622  0.5267 -0.0940  0.6115
 5861SOL    HW128052   4.047   7.605   0.600  0.4011  2.5666 -0.2362
 5861SOL    HW228053   4.196   7.545   0.574 -0.7476 -0.1660 -0.7209
 5862SOL     OW28054   9.956   4.040   1.009 -0.4619 -0.2911 -0.0971
 5862SOL    HW128055   9.893   4.111   0.977 -0.8153 -0.2479  0.6983
 5862SOL    HW228056   9.905   3.968   1.054  0.2115  0.6330  2.2088
 5863SOL     OW28057   8.979   3.670   3.859 -0.2226  0.3570 -0.5053
 5863SOL    HW128058   8.889   3.660   3.816 -0.3874 -0.3279 -0.0053
 5863SOL    HW228059   8.968   3.695   3.955  0.1274  0.5605 -0.5183
 5864SOL     OW28060   0.314   4.174   3.498 -0.1474 -0.2087 -0.1365
 5864SOL    HW128061   0.294   4.252   3.558  1.7247  0.2333 -0.0364
 5864SOL    HW228062   0.293   4.199   3.403 -0.2751  0.1623 -0.0123
 5865SOL     OW28063   8.830   5.395   1.039  0.3612 -0.1924 -0.1842
 5865SOL    HW128064   8.839   5.337   1.120 -2.9794 -1.1232 -0.3891
 5865SOL    HW228065   8.783   5.480   1.063  0.1528 -0.0806 -0.9630
 5866SOL     OW28066   4.010   5.285   1.545 -0.2481  0.4837  0.3941
 5866SOL    HW128067   3.995   5.362   1.607 -0.9464  0.1921  0.5946
 5866SOL    HW228068   4.106   5.258   1.547  0.7215  3.4145 -2.0798
 5867SOL     OW28069   8.991   1.022   2.281 -0.4624 -0.0787 -0.1502
 5867SOL    HW128070   9.051   0.957   2.328 -1.9512 -0.7355  0.8962
 5867SOL    HW228071   9.018   1.115   2.303  1.0969 -0.3462 -0.8903
 5868SOL     OW28072   3.093   9.316   2.586  0.2908  0.0713 -0.2787
 5868SOL    HW128073   3.137   9.406   2.588  0.8899 -0.2221 -0.2202
 5868SOL    HW228074   3.163   9.245   2.586 -0.1899 -0.4039  0.3089
 5869SOL     OW28075   4.588   7.382   2.590 -0.0323  0.3603 -0.4304
 5869SOL    HW128076   4.501   7.339   2.617  0.5876  0.3182  1.5532
 5869SOL    HW228077   4.569   7.463   2.535 -1.3944  1.1874  1.2149
 5870SOL     OW28078   1.506   6.390   1.970  0.0579 -0.3478  0.6773
 5870SOL    HW128079   1.513   6.446   1.888  0.2307 -0.4331  0.6341
 5870SOL    HW228080   1.414   6.350   1.975  0.6185 -1.8387 -0.4463
 5871SOL     OW28081   3.889   2.471   0.494  0.3334  0.1144 -0.6283
 5871SOL    HW128082   3.868   2.373   0.494  1.2350 -0.0847 -0.1949
 5871SOL    HW228083   3.929   2.496   0.582 -0.0266  0.9033 -0.6903
 5872SOL     OW28084   0.237   7.822   3.899  0.6877  0.0297  0.0007
 5872SOL    HW128085   0.323   7.808   3.948  1.1313  0.4872 -0.6382
 5872SOL    HW228086   0.231   7.757   3.823  0.2499 -0.3161  0.3259
 5873SOL     OW28087   8.859   9.765   3.756  0.0018 -0.0451 -0.3607
 5873SOL    HW128088   8.938   9.704   3.767  0.4348  0.1623 -2.1586
 5873SOL    HW228089   8.881   9.835   3.687 -0.4647  2.1841  1.6654
 5874SOL     OW28090   9.637   1.431   1.420 -0.0955 -0.4054 -0.1063
 5874SOL    HW128091   9.589   1.364   1.476  0.4129 -0.1766  0.6040
 5874SOL    HW228092   9.570   1.484   1.367 -0.5316 -1.0431 -0.1972
 5875SOL     OW28093   1.574   3.034   3.256  0.2891 -0.6946  0.1148
 5875SOL    HW128094   1.522   3.057   3.173 -0.1391  0.1428  0.6118
 5875SOL    HW228095   1.524   2.964   3.307 -0.7982  0.7011  1.0154
 5876SOL     OW28096   7.623   0.561   0.746 -0.1202 -0.5113 -0.3707
 5876SOL    HW128097   7.610   0.606   0.658  1.8869 -0.2799 -0.5715
 5876SOL    HW228098   7.706   0.505   0.744 -0.4900 -1.1547  1.1048
 5877SOL     OW28099   1.722   7.504   3.965  0.1831 -0.0405 -0.2776
 5877SOL    HW128100   1.729   7.486   3.866 -0.4246 -0.3906 -0.2601
 5877SOL    HW228101   1.798   7.561   3.994  1.3307 -1.3710 -0.6242
 5878SOL     OW28102   6.482   9.584   3.412 -0.1241 -0.9606  0.3548
 5878SOL    HW128103   6.556   9.622   3.467  0.6814 -1.6393 -0.2419
 5878SOL    HW228104   6.397   9.585   3.464  0.0462  0.8763  0.6537
 5879SOL     OW28105   2.646   5.857   0.553 -0.5650 -0.1490 -0.5532
 5879SOL    HW128106   2.612   5.763   0.551 -0.0191 -0.3453 -0.6835
 5879SOL    HW228107   2.743   5.858   0.529 -0.5892  0.4578 -0.6346
 5880SOL     OW28108   8.702   1.761   3.292  0.5850 -0.2750  0.4195
 5880SOL    HW128109   8.785   1.808   3.323  0.0593  1.2200 -0.3875
 5880SOL    HW228110   8.716   1.726   3.199 -0.2572  1.4531 -0.3659
 5881SOL     OW28111   9.523   6.934   2.438  0.0816 -0.9483  0.6194
 5881SOL    HW128112   9.502   7.025   2.400  0.0931  0.1231  3.0947
 5881SOL    HW228113   9.448   6.872   2.418  0.0346 -0.4066 -1.0440
 5882SOL     OW28114   2.078   3.922   1.023  0.1185  0.4080 -0.2031
 5882SOL    HW128115   1.988   3.892   0.991  0.4245 -1.8114  0.8838
 5882SOL    HW228116   2.142   3.923   0.946  0.7026 -4.2814  0.0772
 5883SOL     OW28117   8.713   0.316   3.440 -0.1440 -0.0203  0.2143
 5883SOL    HW128118   8.693   0.220   3.462 -2.2542  0.2368 -0.4627
 5883SOL    HW228119   8.706   0.330   3.341  0.4213  0.7796  0.2820
 5884SOL     OW28120   2.883   3.652   4.007 -0.6499 -0.2004 -0.3053
 5884SOL    HW128121   2.926   3.584   4.066 -0.9515  0.2336  0.4123
 5884SOL    HW228122   2.824   3.606   3.941 -0.9229 -0.6290  0.2374
 5885SOL     OW28123   2.032   3.995   0.728  0.1047  0.4027  0.0717
 5885SOL    HW128124   2.048   3.946   0.643  1.2269  0.0303  0.4924
 5885SOL    HW228125   1.968   3.944   0.785  1.3161 -0.6260  0.5373
 5886SOL     OW28126   8.080   7.886   2.160 -0.1078  0.7395  0.1577
 5886SOL    HW128127   8.076   7.982   2.135 -0.2482  0.5640 -0.4942
 5886SOL    HW228128   8.102   7.831   2.079 -0.5877  0.1731  0.4106
 5887SOL     OW28129   9.789   7.961   1.394 -0.2893  0.3692 -0.1679
 5887SOL    HW128130   9.785   8.029   1.467  0.5918  0.9219 -0.6212
 5887SOL    HW228131   9.706   7.966   1.339 -1.3209 -0.6160  1.2807
 5888SOL     OW28132   9.054   9.281   1.357  0.2751  0.1907  0.1573
 5888SOL    HW128133   8.977   9.334   1.393  0.1784  0.0768  0.1169
 5888SOL    HW228134   9.063   9.298   1.259  0.7330  0.7437  0.2942
 5889SOL     OW28135   0.986   9.980   1.311 -0.4836  0.5237 -0.2045
 5889SOL    HW128136   1.035  10.032   1.380  0.1159  0.3092 -0.4702
 5889SOL    HW228137   1.008  10.015   1.220 -0.1125 -0.1650 -0.3795
 5890SOL     OW28138   3.497   4.910   0.933  0.1501  0.2770 -0.5994
 5890SOL    HW128139   3.406   4.875   0.957 -0.0413 -0.3254 -2.2152
 5890SOL    HW228140   3.546   4.935   1.017 -1.0950 -0.3981  0.3361
 5891SOL     OW28141   0.700   0.066   3.907  0.1867  0.2155  0.9162
 5891SOL    HW128142   0.664   0.089   3.817  1.2777  1.2477  0.7271
 5891SOL    HW228143   0.800   0.060   3.903  0.2184 -0.1030  1.9691
 5892SOL     OW28144   1.172   1.435   1.605  0.0012 -0.3611  0.4740
 5892SOL    HW128145   1.077   1.462   1.585 -0.0408 -0.9083 -0.0457
 5892SOL    HW228146   1.194   1.462   1.699 -0.0840  1.3833  0.0145
 5893SOL     OW28147   8.995   6.658   0.105  0.3228  0.0431 -0.2613
 5893SOL    HW128148   9.042   6.739   0.140  2.1308 -0.4459 -1.4733
 5893SOL    HW228149   9.007   6.582   0.170  0.5900  0.1264 -0.2102
 5894SOL     OW28150   2.064   6.440   2.548  0.0995 -0.2621  0.6736
 5894SOL    HW128151   2.034   6.465   2.640 -0.3777 -0.3347  0.5372
 5894SOL    HW228152   2.033   6.348   2.526  2.0769 -1.0980  1.2684
 5895SOL     OW28153   3.180   5.179   0.624  0.5739 -0.5154 -0.3237
 5895SOL    HW128154   3.102   5.135   0.667 -0.8101 -0.6820 -2.9268
 5895SOL    HW228155   3.180   5.277   0.646 -0.0113 -0.6378  0.2065
 5896SOL     OW28156   3.447   8.913   0.931 -0.0601  0.3892 -0.3704
 5896SOL    HW128157   3.348   8.924   0.936 -0.0426 -0.1115  1.4703
 5896SOL    HW228158   3.491   8.974   0.997  0.9893  2.0763 -2.5779
 5897SOL     OW28159   0.066   8.480   2.988  0.2619 -0.6118  0.1856
 5897SOL    HW128160   0.083   8.529   2.902  0.4816 -0.9840  0.0186
 5897SOL    HW228161  -0.022   8.434   2.983 -1.7342  2.8289  1.7330
 5898SOL     OW28162   1.030   9.632   1.051 -0.0598 -0.8091  0.1269
 5898SOL    HW128163   0.941   9.658   1.087  0.1607  0.2141 -0.0458
 5898SOL    HW228164   1.102   9.657   1.116  0.2782  0.4011 -0.6775
 5899SOL     OW28165   2.186   1.306   2.476  0.0983 -0.4355  0.4402
 5899SOL    HW128166   2.180   1.232   2.409 -0.5436  0.0021  0.0171
 5899SOL    HW228167   2.095   1.334   2.504  0.3744 -1.7069  2.7201
 5900SOL     OW28168   1.719   6.707   0.168  0.0574 -0.3058  0.1116
 5900SOL    HW128169   1.805   6.656   0.166  1.3437  1.7802 -0.9246
 5900SOL    HW228170   1.737   6.801   0.199 -1.8625  0.1195  0.0078
 5901SOL     OW28171   3.845   2.914   2.603 -0.1741 -0.0690  0.1624
 5901SOL    HW128172   3.873   2.964   2.521  0.4481 -2.6920 -1.2880
 5901SOL    HW228173   3.918   2.920   2.671  0.1264  0.5318 -0.2043
 5902SOL     OW28174   8.900   0.210   2.410  0.0710  0.0575 -0.6141
 5902SOL    HW128175   8.985   0.207   2.356  0.0495 -2.0924 -0.5747
 5902SOL    HW228176   8.822   0.196   2.350 -0.1528  0.5109 -0.4296
 5903SOL     OW28177   3.651   2.772   1.129  0.2990  0.2524 -0.4979
 5903SOL    HW128178   3.578   2.781   1.061 -0.4947  1.9853  0.5259
 5903SOL    HW228179   3.682   2.863   1.156  2.2923 -0.4654 -0.3248
 5904SOL     OW28180   9.732   2.800   0.608  0.5348  0.4048  0.2721
 5904SOL    HW128181   9.674   2.847   0.541 -0.2918 -0.1031  0.6141
 5904SOL    HW228182   9.802   2.748   0.560 -2.5012 -3.2279 -0.4677
 5905SOL     OW28183   0.212   8.570   2.603  0.2628 -0.4031  0.7011
 5905SOL    HW128184   0.306   8.538   2.611 -0.0556 -1.2872  0.9819
 5905SOL    HW228185   0.150   8.502   2.643 -0.4432  0.4716  1.1090
 5906SOL     OW28186   9.208   8.095   3.960 -0.6321  0.2705 -0.2607
 5906SOL    HW128187   9.278   8.163   3.941  0.6982 -0.9182  0.2790
 5906SOL    HW228188   9.123   8.121   3.915 -0.5561  2.9835  1.0929
 5907SOL     OW28189   2.310   2.540   1.127  0.1952  0.1227  0.5160
 5907SOL    HW128190   2.278   2.456   1.171 -3.1330  0.4158 -1.1814
 5907SOL    HW228191   2.285   2.619   1.184 -0.9266  0.2509 -0.1321
 5908SOL     OW28192   2.494   3.308   2.626  0.6152 -0.1839 -0.1101
 5908SOL    HW128193   2.482   3.319   2.527  0.5589 -0.7185 -0.1641
 5908SOL    HW228194   2.572   3.363   2.656 -1.3832  2.6715  0.1027
 5909SOL     OW28195   9.013   8.177   3.780  0.6476  0.2341  0.1270
 5909SOL    HW128196   8.977   8.266   3.754 -0.4723 -0.3756 -0.4264
 5909SOL    HW228197   8.977   8.107   3.719  0.9663 -0.7015  0.9950
 5910SOL     OW28198   3.113   1.763   0.073  1.0232  0.3095 -0.0843
 5910SOL    HW128199   3.202   1.718   0.073  1.1107  0.4407 -1.6405
 5910SOL    HW228200   3.043   1.696   0.046  0.3517 -0.2946  2.9765
 5911SOL     OW28201   2.726   9.177   3.582 -0.0269 -0.8651 -0.5064
 5911SOL    HW128202   2.752   9.265   3.543  2.2465 -1.8458 -1.3063
 5911SOL    HW228203   2.721   9.109   3.509 -0.9467 -1.6042  0.2226
 5912SOL     OW28204   3.680   4.339   2.133 -0.1076  0.2553 -0.1058
 5912SOL    HW128205   3.666   4.275   2.208  1.0008  1.0289  0.7637
 5912SOL    HW228206   3.600   4.399   2.125 -1.1668 -1.2522 -0.9521
 5913SOL     OW28207   8.243   3.347   3.862 -0.6245 -0.1057 -0.4921
 5913SOL    HW128208   8.252   3.283   3.785  1.6845 -0.3764 -0.0290
 5913SOL    HW228209   8.234   3.440   3.826 -0.2144 -0.2993 -1.1202
 5914SOL     OW28210   0.598   9.825   1.594  0.0180 -0.1369  0.0866
 5914SOL    HW128211   0.638   9.746   1.548  0.9583  0.4426 -0.0946
 5914SOL    HW228212   0.671   9.885   1.627 -0.7105  1.0006 -0.3711
 5915SOL     OW28213   9.903   7.619   3.901 -0.3264 -0.0998  0.0806
 5915SOL    HW128214   9.980   7.679   3.877 -0.1174  0.5737  2.3057
 5915SOL    HW228215   9.860   7.585   3.817  0.3334  2.1487 -1.2163
 5916SOL     OW28216   9.463   0.089   2.066  0.2019 -0.1778 -0.2663
 5916SOL    HW128217   9.472   0.133   1.977 -1.7476 -1.2253 -1.0215
 5916SOL    HW228218   9.484   0.155   2.138  2.3547  0.5241 -1.5069
 5917SOL     OW28219   1.830   7.688   2.246  0.7363  0.0122 -0.3568
 5917SOL    HW128220   1.817   7.700   2.147  0.8141 -0.3427 -0.4104
 5917SOL    HW228221   1.770   7.751   2.295 -0.6498 -1.0746 -0.6086
 5918SOL     OW28222   1.379   6.526   1.421  0.5899  0.1030  0.2248
 5918SOL    HW128223   1.473   6.552   1.440  1.2784 -1.1977 -1.2521
 5918SOL    HW228224   1.341   6.477   1.499  0.4055  2.4294  1.6613
 5919SOL     OW28225   8.936   5.430   1.435  0.0373  0.2066  0.4496
 5919SOL    HW128226   8.856   5.413   1.493 -0.2760 -0.9805 -0.2959
 5919SOL    HW228227   8.911   5.492   1.360 -0.1836 -0.1395  0.2348
 5920SOL     OW28228   0.116   7.589   3.594 -0.7426  0.2079 -0.0356
 5920SOL    HW128229   0.179   7.628   3.662 -0.7361  1.1445 -0.5648
 5920SOL    HW228230   0.145   7.496   3.571  0.3565  0.5702 -0.1586
 5921SOL     OW28231   2.949   7.739   3.699  0.1893 -0.2812 -0.2636
 5921SOL    HW128232   2.973   7.686   3.618 -0.4136 -0.8393 -0.0751
 5921SOL    HW228233   2.939   7.678   3.777  0.2230  0.1952  0.1177
 5922SOL     OW28234   1.480   6.153   3.734 -0.3262 -0.0235  0.9864
 5922SOL    HW128235   1.558   6.101   3.768 -0.0317 -0.4341 -0.2833
 5922SOL    HW228236   1.401   6.138   3.793 -0.0482 -1.3586  1.0207
 5923SOL     OW28237   2.644   9.327   2.324  0.3626  0.0271  0.2374
 5923SOL    HW128238   2.708   9.330   2.248  0.3986 -1.5284  0.2041
 5923SOL    HW228239   2.693   9.345   2.410  0.6456 -0.0490  0.0913
 5924SOL     OW28240   1.380   0.843   1.480 -0.2137 -0.2149 -0.5417
 5924SOL    HW128241   1.447   0.875   1.413  1.7301 -2.7472  0.1172
 5924SOL    HW228242   1.350   0.920   1.536  0.6373  1.3202 -2.1461
 5925SOL     OW28243   3.045   5.920   1.995 -0.6441 -0.3185  0.3678
 5925SOL    HW128244   2.953   5.959   2.004 -0.0964  1.1106 -0.1270
 5925SOL    HW228245   3.059   5.891   1.901 -0.4356 -0.1165  0.3355
 5926SOL     OW28246   2.640   0.693   2.177  0.0171  0.1001  0.3252
 5926SOL    HW128247   2.719   0.753   2.165 -0.2573  0.8214  2.0319
 5926SOL    HW228248   2.623   0.680   2.275 -1.7183 -0.3935 -0.0393
 5927SOL     OW28249   7.739   1.137   2.157 -0.0646  0.4368 -0.8551
 5927SOL    HW128250   7.662   1.197   2.182 -0.5758 -0.3426 -0.5433
 5927SOL    HW228251   7.757   1.073   2.232  2.5027  2.2273  0.1104
 5928SOL     OW28252   8.552   5.811   0.970 -0.0936  0.2448 -0.4663
 5928SOL    HW128253   8.469   5.776   1.013 -0.5362 -0.8873 -2.1763
 5928SOL    HW228254   8.550   5.791   0.872  2.5042 -0.4089 -0.4352
 5929SOL     OW28255   3.641   2.807   0.442 -0.7851 -0.1400  0.1804
 5929SOL    HW128256   3.683   2.772   0.358 -1.4110  1.4535 -0.8246
 5929SOL    HW228257   3.701   2.790   0.519  0.3426 -0.5654 -0.7798
 5930SOL     OW28258   0.252   0.877   1.224 -0.1290  0.2725 -0.1599
 5930SOL    HW128259   0.189   0.811   1.183 -1.8269  1.2826  0.7815
 5930SOL    HW228260   0.335   0.829   1.254 -0.8687 -1.2495 -0.4916
 5931SOL     OW28261   4.619   1.138   1.876 -0.0514 -0.2199  0.2629
 5931SOL    HW128262   4.708   1.093   1.888 -0.4682 -0.8189  1.2077
 5931SOL    HW228263   4.632   1.236   1.864  0.8949 -0.5842 -1.9871
 5932SOL     OW28264   0.953   2.008   2.432 -0.4411 -0.5818  0.6672
 5932SOL    HW128265   1.001   1.954   2.501 -1.1326  0.8541  2.3379
 5932SOL    HW228266   0.895   2.076   2.478 -0.1295  1.1033 -1.3465
 5933SOL     OW28267   9.181   4.084   3.411  0.2443 -0.0361  0.2619
 5933SOL    HW128268   9.260   4.100   3.470  0.3291 -0.1349  0.1731
 5933SOL    HW228269   9.100   4.127   3.452  0.2658 -0.2582  0.5447
 5934SOL     OW28270   5.844   0.208   2.738 -0.1358  0.6458 -0.4945
 5934SOL    HW128271   5.766   0.164   2.693 -0.4990 -0.1811  0.9200
 5934SOL    HW228272   5.813   0.294   2.781 -0.1239  0.6613 -0.5173
 5935SOL     OW28273   5.197   8.750   1.703  0.6880  0.4322 -0.2148
 5935SOL    HW128274   5.126   8.714   1.763  0.2585  1.1240 -0.2972
 5935SOL    HW228275   5.156   8.810   1.635  1.3361  0.7379 -0.3455
 5936SOL     OW28276   0.635   7.572   1.971 -0.2614  0.3054 -0.2173
 5936SOL    HW128277   0.699   7.571   1.895  0.9681 -0.2485  0.8046
 5936SOL    HW228278   0.585   7.658   1.972  3.0464  2.3048  1.0688
 5937SOL     OW28279   5.058   7.907   3.401  0.1147 -0.2289 -0.0422
 5937SOL    HW128280   5.040   7.943   3.492  2.3880  0.0375  0.3443
 5937SOL    HW228281   5.038   7.809   3.399 -2.1961  0.2226  0.0492
 5938SOL     OW28282   1.191   8.898   0.143  0.4957  0.0489 -0.5131
 5938SOL    HW128283   1.196   8.989   0.103 -0.4260  0.8984  1.2496
 5938SOL    HW228284   1.256   8.890   0.218  0.9368 -0.9243 -0.9895
 5939SOL     OW28285   8.645   2.291   3.419 -0.3663  0.0158  0.2429
 5939SOL    HW128286   8.653   2.191   3.421  2.0811  0.1523 -1.2093
 5939SOL    HW228287   8.682   2.329   3.504  3.7317 -0.0577 -1.4285
 5940SOL     OW28288   0.143   2.508   2.000  0.0916  0.3142 -0.4221
 5940SOL    HW128289   0.110   2.601   2.016  1.7597  0.7320  0.6876
 5940SOL    HW228290   0.077   2.442   2.034  0.0411  1.1254  1.0525
 5941SOL     OW28291   1.431   2.838   3.385  0.1648 -0.4152  0.0474
 5941SOL    HW128292   1.340   2.872   3.409  0.0579 -0.6140 -0.0740
 5941SOL    HW228293   1.423   2.746   3.347  0.3783 -0.2812 -0.3230
 5942SOL     OW28294   4.082   8.057   3.470  0.2374  0.1838  0.0528
 5942SOL    HW128295   4.162   8.010   3.432 -0.4822 -0.3986 -0.7809
 5942SOL    HW228296   4.040   8.114   3.399 -1.3411 -1.2091 -0.1818
 5943SOL     OW28297   9.354   1.371   2.168 -0.2329 -0.3044  0.5524
 5943SOL    HW128298   9.385   1.295   2.227 -0.1617 -1.3685 -0.8237
 5943SOL    HW228299   9.257   1.359   2.147 -0.2905  0.1405  0.5737
 5944SOL     OW28300   0.199   0.895   3.576 -0.2214 -0.0063 -0.3736
 5944SOL    HW128301   0.132   0.953   3.530  0.4786 -0.4204 -1.9621
 5944SOL    HW228302   0.269   0.953   3.618 -1.2393  0.4017  0.7791
 5945SOL     OW28303   3.369   7.958   2.559  0.4210  0.5117 -0.1636
 5945SOL    HW128304   3.327   7.989   2.474  0.5925 -3.4253 -1.7638
 5945SOL    HW228305   3.315   7.990   2.636 -2.9231 -0.5009 -1.9949
 5946SOL     OW28306   1.345   9.879   1.058 -0.2641 -0.3128 -0.0467
 5946SOL    HW128307   1.292   9.872   1.142  1.0019 -0.8646  0.7288
 5946SOL    HW228308   1.371   9.787   1.027 -0.3148 -0.0856 -0.7598
 5947SOL     OW28309   2.983   4.283   0.283  0.2710  1.0022 -0.5379
 5947SOL    HW128310   2.888   4.302   0.258 -0.2363 -1.2683 -0.3867
 5947SOL    HW228311   3.041   4.356   0.247 -1.5472  2.5811 -0.3762
 5948SOL     OW28312   2.662   4.146   2.090  0.2218 -0.4416 -0.3373
 5948SOL    HW128313   2.712   4.145   2.003 -0.1753 -1.7936 -0.5631
 5948SOL    HW228314   2.672   4.057   2.135  0.1161  0.1311  0.8233
 5949SOL     OW28315   0.715   1.404   0.784 -0.4898 -0.5219 -0.2773
 5949SOL    HW128316   0.746   1.327   0.728 -0.7705  0.0599 -1.2670
 5949SOL    HW228317   0.635   1.378   0.837  0.2612 -1.3238  0.4649
 5950SOL     OW28318   9.369   0.631   2.136 -0.4972  0.2187  1.0910
 5950SOL    HW128319   9.269   0.640   2.137 -0.3984  1.8756 -0.2575
 5950SOL    HW228320   9.409   0.707   2.187  0.0740 -0.0408  1.0209
 5951SOL     OW28321   0.293   6.249   2.200 -0.4499 -0.5253  0.4303
 5951SOL    HW128322   0.197   6.235   2.175 -0.7865 -1.7417  2.3288
 5951SOL    HW228323   0.347   6.170   2.171 -0.3580 -0.6960  1.0601
 5952SOL     OW28324   4.308   7.334   0.754 -0.3040  0.4853  0.5355
 5952SOL    HW128325   4.241   7.261   0.752  0.6656 -0.3743 -0.9311
 5952SOL    HW228326   4.281   7.402   0.823 -0.9913 -1.4317  2.2107
 5953SOL     OW28327   4.650   4.508   1.348 -0.8280 -0.0588  0.2919
 5953SOL    HW128328   4.658   4.605   1.326  0.6047  0.1352  1.6114
 5953SOL    HW228329   4.637   4.456   1.264 -0.0477  1.1213 -0.5763
 5954SOL     OW28330   3.651   8.372   2.313  0.3175  0.3616  0.4672
 5954SOL    HW128331   3.666   8.418   2.226  0.1026  0.5735  0.5413
 5954SOL    HW228332   3.725   8.307   2.330  0.6891  0.7688  0.4173
 5955SOL     OW28333   0.472   3.225   0.046  0.2348  0.3654  0.5545
 5955SOL    HW128334   0.477   3.304  -0.015 -1.0971 -0.2425 -0.3577
 5955SOL    HW228335   0.532   3.153   0.011 -2.7401 -1.1139 -1.7812
 5956SOL     OW28336   0.868   4.113   3.633 -0.4798  0.4959  0.7166
 5956SOL    HW128337   0.916   4.032   3.600 -0.2417  1.4352 -1.2688
 5956SOL    HW228338   0.776   4.088   3.663 -1.0643 -0.2036 -1.6256
 5957SOL     OW28339   2.996   8.413   2.801 -0.5773 -0.0896  0.7220
 5957SOL    HW128340   3.064   8.379   2.866 -2.4813 -0.5808  2.5062
 5957SOL    HW228341   2.912   8.360   2.809 -1.4923  1.0722 -0.8276
 5958SOL     OW28342   2.336   3.891   0.555 -0.3883 -0.2598  0.1938
 5958SOL    HW128343   2.347   3.962   0.624 -0.0657  0.4849 -0.6127
 5958SOL    HW228344   2.259   3.832   0.580 -1.4154  1.0820  0.2729
 5959SOL     OW28345   3.061   8.501   3.964 -0.8172 -0.4430 -0.4742
 5959SOL    HW128346   3.128   8.451   3.908  0.0646  0.5839 -0.3456
 5959SOL    HW228347   3.018   8.572   3.909  0.0880  0.5996  0.1416
 5960SOL     OW28348   0.324   2.185   1.004 -0.0619  0.3370  0.3835
 5960SOL    HW128349   0.282   2.190   1.095  0.7257  0.7552  0.7328
 5960SOL    HW228350   0.395   2.114   1.004 -0.3867  0.0125 -0.0405
 5961SOL     OW28351   0.067   1.525   0.626  0.2833 -0.0199 -0.1181
 5961SOL    HW128352   0.064   1.482   0.535  1.5614  0.3904 -0.3535
 5961SOL    HW228353   0.011   1.608   0.625  1.5024  0.7973 -0.9549
 5962SOL     OW28354   9.816   0.456   2.982 -0.3723  0.0959 -0.3728
 5962SOL    HW128355   9.738   0.503   3.024  0.4314 -1.1875  2.6390
 5962SOL    HW228356   9.783   0.385   2.920 -1.5950  0.4364 -0.1264
 5963SOL     OW28357   2.453   7.142   3.007 -0.4964  0.3282 -0.0270
 5963SOL    HW128358   2.392   7.143   2.928  0.2650  0.0302 -0.6337
 5963SOL    HW228359   2.412   7.089   3.081  0.3112 -2.4466 -1.4974
 5964SOL     OW28360   0.677   8.845   0.696 -0.1025 -0.6264  0.4546
 5964SOL    HW128361   0.725   8.933   0.706 -0.2664 -0.4776 -0.0626
 5964SOL    HW228362   0.601   8.842   0.761 -0.2115 -0.3050  0.3438
 5965SOL     OW28363   0.010   6.996   0.088  0.1160  0.2236 -0.1589
 5965SOL    HW128364   0.013   6.916   0.028  0.2003  0.4759 -0.4972
 5965SOL    HW228365   0.061   6.978   0.172  1.5319  0.4958 -0.9411
 5966SOL     OW28366   0.469   0.738   1.258 -0.1500  0.0047 -0.4409
 5966SOL    HW128367   0.448   0.687   1.174 -0.3075  0.2354 -0.5421
 5966SOL    HW228368   0.566   0.726   1.280 -0.8406 -3.0216  1.3463
 5967SOL     OW28369   0.098   9.836   0.408 -0.3944 -0.0358 -0.0382
 5967SOL    HW128370   0.122   9.742   0.433  0.0579 -0.3013 -1.4725
 5967SOL    HW228371   0.015   9.863   0.458  0.9467 -0.2627  2.4220
 5968SOL     OW28372   1.075   6.814   0.332 -0.1651  0.8890  0.5759
 5968SOL    HW128373   1.112   6.767   0.252 -1.5773 -2.5281  1.8042
 5968SOL    HW228374   0.983   6.846   0.312 -0.7906 -0.5969  1.0253
 5969SOL     OW28375   9.683   6.199   3.050 -0.2789  0.2257  0.6307
 5969SOL    HW128376   9.753   6.172   3.117  0.1007 -1.2641 -0.3629
 5969SOL    HW228377   9.605   6.138   3.057 -0.0396 -0.2190 -0.6265
 5970SOL     OW28378   1.804   9.005   0.154 -0.1092 -0.4986 -0.0054
 5970SOL    HW128379   1.866   8.957   0.215  0.4077  0.7345  0.4554
 5970SOL    HW228380   1.852   9.081   0.110 -0.6052 -1.0774 -1.5883
 5971SOL     OW28381   7.455   0.536   2.816  0.0926 -0.0065 -0.2644
 5971SOL    HW128382   7.367   0.496   2.844  0.3315  1.5162  2.8043
 5971SOL    HW228383   7.439   0.609   2.750 -0.7937 -0.8390 -0.9963
 5972SOL     OW28384   9.311   6.454   1.909  0.0211  0.3791 -0.0218
 5972SOL    HW128385   9.270   6.535   1.951 -0.7083  1.4861 -2.7886
 5972SOL    HW228386   9.409   6.451   1.931 -0.1435  1.4721  0.9221
 5973SOL     OW28387   3.365   5.880   3.123 -0.3947  0.0580 -0.1759
 5973SOL    HW128388   3.340   5.784   3.112 -3.5614  0.8122 -0.1285
 5973SOL    HW228389   3.447   5.887   3.179  0.9809 -2.6812 -1.7776
 5974SOL     OW28390   8.750   2.358   0.757 -0.1958 -0.2598 -0.6417
 5974SOL    HW128391   8.819   2.342   0.827 -1.6612 -1.5984  0.5494
 5974SOL    HW228392   8.662   2.378   0.801 -1.3168 -1.8638 -2.0647
 5975SOL     OW28393   7.688   6.837   2.406  0.6565  0.0159 -0.5632
 5975SOL    HW128394   7.714   6.740   2.406  0.1118 -0.1546 -2.6820
 5975SOL    HW228395   7.600   6.847   2.454 -0.1124 -0.7924 -1.7719
 5976SOL     OW28396   8.656   7.536   1.634 -0.3136  0.1184  0.0848
 5976SOL    HW128397   8.602   7.614   1.604 -1.6846 -0.2608  1.5498
 5976SOL    HW228398   8.753   7.555   1.617 -0.6752  1.8770 -0.1285
 5977SOL     OW28399   1.227   3.886   1.282  0.0956 -0.2709  0.6494
 5977SOL    HW128400   1.283   3.876   1.200 -3.0886 -2.7752 -1.3379
 5977SOL    HW228401   1.214   3.796   1.325 -1.1666  0.4865  1.9112
 5978SOL     OW28402   3.398   4.332   2.364 -0.0719 -0.2117  0.6470
 5978SOL    HW128403   3.493   4.305   2.379  0.0694  0.4440  0.9765
 5978SOL    HW228404   3.338   4.254   2.380  0.3353 -0.3660  1.4298
 5979SOL     OW28405   3.647   5.774   1.541 -0.5394 -0.1289 -0.4541
 5979SOL    HW128406   3.735   5.728   1.524  0.1904  1.8468 -2.2225
 5979SOL    HW228407   3.576   5.729   1.487  0.0345  0.3715 -1.6401
 5980SOL     OW28408   8.325   3.244   2.037 -0.0921 -0.2526  0.4443
 5980SOL    HW128409   8.380   3.263   2.118  0.6472  0.6980 -0.2699
 5980SOL    HW228410   8.249   3.308   2.032 -0.4588 -0.6659  0.6759
 5981SOL     OW28411   1.559   0.114   0.346  0.2341 -0.1730  0.2024
 5981SOL    HW128412   1.649   0.155   0.362 -0.1554  0.5594  0.5481
 5981SOL    HW228413   1.516   0.159   0.267 -0.0212 -0.1947  0.3280
 5982SOL     OW28414   8.686   6.419   3.010 -0.4644 -0.9653 -0.1200
 5982SOL    HW128415   8.752   6.400   3.082 -1.8703  1.0913  1.7742
 5982SOL    HW228416   8.721   6.385   2.923  2.1155 -1.7904  1.1935
 5983SOL     OW28417   2.096   0.188   0.604  1.1253  0.0983 -0.5525
 5983SOL    HW128418   2.124   0.105   0.651  1.6113 -1.1688 -3.0108
 5983SOL    HW228419   2.002   0.211   0.629  1.0279 -1.1186  0.2261
 5984SOL     OW28420   0.501   4.378   0.638  0.4659 -0.4876  0.3386
 5984SOL    HW128421   0.419   4.382   0.581  0.9988 -1.8748 -0.5619
 5984SOL    HW228422   0.552   4.295   0.616  2.5710  0.8033  0.2523
 5985SOL     OW28423   0.766   2.247   0.643 -0.1114 -0.0875 -0.0377
 5985SOL    HW128424   0.763   2.334   0.692  0.7140  0.9361 -1.7707
 5985SOL    HW228425   0.678   2.200   0.653 -0.1241  0.3272  1.9739
 5986SOL     OW28426   1.177   1.053   4.040 -0.1740 -0.2971 -0.0286
 5986SOL    HW128427   1.199   1.061   3.942 -0.9987 -3.5828 -0.5235
 5986SOL    HW228428   1.255   1.086   4.094  1.2910 -0.8202 -1.7734
 5987SOL     OW28429   9.303   8.556   3.432  0.0473  0.4345 -0.0778
 5987SOL    HW128430   9.355   8.600   3.359  1.9434  0.9417  1.5258
 5987SOL    HW228431   9.316   8.606   3.518 -1.7582 -0.4072  0.7139
 5988SOL     OW28432   2.521   1.706   1.991  0.2083  0.1910 -0.2614
 5988SOL    HW128433   2.557   1.762   1.917  0.8545  0.9778  0.6393
 5988SOL    HW228434   2.576   1.623   2.001  0.5873  0.4557 -0.1588
 5989SOL     OW28435   2.134   7.982   3.974 -0.4706  0.4545  0.3450
 5989SOL    HW128436   2.160   8.007   3.881  0.5439 -2.3129 -0.1560
 5989SOL    HW228437   2.209   8.000   4.037  0.5286 -1.8348 -0.1309
 5990SOL     OW28438   9.932   9.677   2.951  0.2477  0.0789 -0.3065
 5990SOL    HW128439   9.859   9.662   2.885  0.0198  1.4443 -0.3848
 5990SOL    HW228440  10.005   9.731   2.909  1.0620 -0.8246 -0.0703
 5991SOL     OW28441   9.398   0.706   3.700 -0.3425 -0.7672  0.2697
 5991SOL    HW128442   9.352   0.638   3.757  0.5436  0.1904  2.1782
 5991SOL    HW228443   9.330   0.770   3.664 -0.8508 -1.0679  0.6796
 5992SOL     OW28444   3.714   2.521   0.908 -0.4704 -0.0508  0.1598
 5992SOL    HW128445   3.742   2.519   1.004 -0.5706 -0.5802  0.1778
 5992SOL    HW228446   3.648   2.595   0.894 -1.8271 -1.1172  0.8696
 5993SOL     OW28447   9.800   4.312   1.457  0.3309 -0.3342  0.2401
 5993SOL    HW128448   9.884   4.268   1.490  0.0054 -0.1501  1.3308
 5993SOL    HW228449   9.721   4.271   1.503 -0.0806  0.3959  0.1812
 5994SOL     OW28450   8.707   5.871   3.594  0.1584  0.4601 -0.2344
 5994SOL    HW128451   8.656   5.786   3.583 -0.7082  0.9057  0.2287
 5994SOL    HW228452   8.654   5.947   3.555 -0.4737  1.2323  2.0103
 5995SOL     OW28453   3.746   8.011   3.305  0.7126 -0.4068  0.0459
 5995SOL    HW128454   3.655   8.045   3.285  1.2004 -0.0320 -1.5914
 5995SOL    HW228455   3.812   8.085   3.296  1.3088 -0.9178  0.1846
 5996SOL     OW28456   8.686   5.594   3.448 -0.1616  0.2397  0.5241
 5996SOL    HW128457   8.623   5.573   3.373 -0.8842  2.3170  0.5235
 5996SOL    HW228458   8.780   5.586   3.416 -0.4599  0.1936 -0.3518
 5997SOL     OW28459   8.230   6.399   4.019  0.3026  0.0770 -0.0324
 5997SOL    HW128460   8.280   6.384   4.104 -2.3228 -0.8888  1.3914
 5997SOL    HW228461   8.137   6.427   4.039  0.6621  3.4308 -2.6634
 5998SOL     OW28462   3.481   0.359   1.906 -0.4442 -0.0887  0.2208
 5998SOL    HW128463   3.423   0.425   1.954  1.7532  0.7148  1.8142
 5998SOL    HW228464   3.504   0.395   1.816 -3.0000 -0.7567 -0.7583
 5999SOL     OW28465   2.861   2.341   0.338  0.1293  0.3609  0.6701
 5999SOL    HW128466   2.903   2.284   0.409  0.2573  0.3182  0.5577
 5999SOL    HW228467   2.838   2.430   0.377 -0.6690  0.0040  1.0235
 6000SOL     OW28468   4.538   1.614   1.506 -0.4150  0.2192 -0.4146
 6000SOL    HW128469   4.470   1.543   1.524 -0.6614  1.0558  2.2060
 6000SOL    HW228470   4.547   1.673   1.587  2.0561  1.2653 -1.3922
 6001SOL     OW28471   2.264   4.092   2.364 -0.0033  0.3589  0.4973
 6001SOL    HW128472   2.322   4.153   2.309  1.9517 -2.3797 -0.5563
 6001SOL    HW228473   2.189   4.059   2.307  0.1410  0.1225  0.4446
 6002SOL     OW28474   3.519   7.554   3.537 -0.4943 -0.1655  0.3140
 6002SOL    HW128475   3.572   7.543   3.620  0.6025  0.6826 -0.2678
 6002SOL    HW228476   3.577   7.540   3.457 -1.3024  0.0312 -0.3247
 6003SOL     OW28477   5.617   7.858   3.062 -0.0645  0.3728  0.4369
 6003SOL    HW128478   5.632   7.789   2.991 -1.4493 -0.3064  0.7936
 6003SOL    HW228479   5.525   7.848   3.099  0.9437  0.0801  2.9833
 6004SOL     OW28480   9.780   4.814   0.829  0.3724 -0.1188 -0.5012
 6004SOL    HW128481   9.808   4.747   0.761 -1.7500 -0.4855 -1.0651
 6004SOL    HW228482   9.836   4.896   0.821  1.2378 -0.8151 -1.5749
 6005SOL     OW28483   6.719   8.979   3.164  0.0724 -0.9624  0.2011
 6005SOL    HW128484   6.796   8.939   3.212  0.2087  0.2374  0.9963
 6005SOL    HW228485   6.750   9.057   3.110 -0.5114 -0.7258  0.2040
 6006SOL     OW28486   9.717   5.281   1.764  0.0881 -0.1439  0.0626
 6006SOL    HW128487   9.660   5.360   1.787  0.0078 -0.5104  1.1377
 6006SOL    HW228488   9.811   5.297   1.794  0.4583  0.2496 -1.2617
 6007SOL     OW28489   9.232   4.370   1.497 -0.4734  0.7170  0.8730
 6007SOL    HW128490   9.156   4.404   1.442 -0.4113  0.3879  0.5787
 6007SOL    HW228491   9.215   4.274   1.520  0.8126  0.0354 -0.9092
 6008SOL     OW28492   0.515   5.293   1.485 -0.3024  0.2564  0.1091
 6008SOL    HW128493   0.497   5.363   1.417  1.2082  0.2163 -0.3589
 6008SOL    HW228494   0.527   5.336   1.575 -0.3892  0.4942  0.0077
 6009SOL     OW28495   3.842   9.846   3.871  0.6590 -0.2827  0.1415
 6009SOL    HW128496   3.765   9.909   3.859  0.1893 -0.6881  0.9925
 6009SOL    HW228497   3.865   9.839   3.968 -0.0691 -2.3282  0.1797
 6010SOL     OW28498   3.688   8.518   2.574  0.0249  0.2760 -1.3258
 6010SOL    HW128499   3.738   8.460   2.509  1.3583 -0.4886  0.3494
 6010SOL    HW228500   3.625   8.461   2.627 -1.3896  0.9679 -2.2165
 6011SOL     OW28501   8.141   7.108   0.633 -0.1565 -0.0249  0.0359
 6011SOL    HW128502   8.152   7.207   0.631  0.5383 -0.0657  1.4706
 6011SOL    HW228503   8.188   7.068   0.554  0.0679  0.7413 -0.2229
 6012SOL     OW28504   4.007   1.248   3.150  0.1815  0.3873  0.1337
 6012SOL    HW128505   4.026   1.341   3.183 -0.4456  0.1450  1.1953
 6012SOL    HW228506   4.015   1.183   3.225  2.3055 -0.6685 -0.9650
 6013SOL     OW28507   2.723   8.591   3.994  0.2289 -0.0343 -0.0344
 6013SOL    HW128508   2.682   8.673   3.953 -2.1188 -1.3097 -0.3427
 6013SOL    HW228509   2.786   8.618   4.066 -2.7088  2.0402  1.8892
 6014SOL     OW28510   9.780   3.760   2.857  0.2195  0.0309 -0.5123
 6014SOL    HW128511   9.791   3.761   2.957  0.9736 -0.6393 -0.5740
 6014SOL    HW228512   9.725   3.838   2.828 -0.3701 -0.0152  0.4721
 6015SOL     OW28513   1.611   5.360   1.190 -0.6472 -0.0760 -0.3033
 6015SOL    HW128514   1.612   5.264   1.217  0.2364 -0.4534 -1.6059
 6015SOL    HW228515   1.650   5.369   1.098 -0.5413  1.5462 -0.1155
 6016SOL     OW28516   1.564   1.828   2.214 -0.1532  0.0211  0.3696
 6016SOL    HW128517   1.551   1.906   2.153  0.6812  1.0086  1.4496
 6016SOL    HW228518   1.524   1.746   2.172 -1.0094  1.0136 -0.7730
 6017SOL     OW28519   2.644   6.677   2.605  0.1304 -0.0834 -0.0459
 6017SOL    HW128520   2.650   6.609   2.678  1.0031 -0.2555 -0.2730
 6017SOL    HW228521   2.653   6.769   2.643 -0.7317 -0.1037  0.2213
 6018SOL     OW28522   1.651   2.546   1.105  0.4510 -0.2004  0.0535
 6018SOL    HW128523   1.684   2.521   1.196  1.6932  0.9597 -0.0570
 6018SOL    HW228524   1.691   2.634   1.078 -1.7909  0.6432 -0.6140
 6019SOL     OW28525   1.680   9.381   0.777 -0.1997  0.0118  0.2771
 6019SOL    HW128526   1.621   9.438   0.719 -2.1552  0.0041  2.2099
 6019SOL    HW228527   1.671   9.410   0.872  0.1368 -2.3615  1.0611
 6020SOL     OW28528   4.210   3.675   2.595 -0.2345  0.2445  0.1803
 6020SOL    HW128529   4.279   3.654   2.525 -1.1670  0.9043 -0.9553
 6020SOL    HW228530   4.162   3.591   2.621  1.4397 -0.3391  1.4793
 6021SOL     OW28531   7.910   6.984   2.868 -0.1092  0.0425  0.3677
 6021SOL    HW128532   7.865   7.003   2.781 -0.6155  0.0372  0.6290
 6021SOL    HW228533   7.898   7.063   2.929 -0.5529 -0.3290  0.7642
 6022SOL     OW28534   8.913   6.051   2.901  0.0564 -0.1617  0.3722
 6022SOL    HW128535   8.914   5.971   2.841  0.9249 -0.1066  0.3092
 6022SOL    HW228536   8.856   6.123   2.860 -0.8483 -0.7965  0.5020
 6023SOL     OW28537   9.698   0.807   3.738  0.4998 -0.0812 -0.2832
 6023SOL    HW128538   9.602   0.793   3.762  0.6737 -0.1462  0.3938
 6023SOL    HW228539   9.750   0.833   3.820  0.5897  2.5212 -1.1191
 6024SOL     OW28540   3.216   8.740   3.781 -0.0770 -0.4938  0.0397
 6024SOL    HW128541   3.253   8.818   3.831  0.0323 -0.3275 -0.2974
 6024SOL    HW228542   3.116   8.744   3.783 -0.0745  0.7123 -1.6064
 6025SOL     OW28543   1.908   3.320   3.862  0.1528  0.3221  0.2207
 6025SOL    HW128544   1.973   3.267   3.808  1.0122  1.2618  0.3182
 6025SOL    HW228545   1.818   3.316   3.820  0.3849 -0.5780 -0.1901
 6026SOL     OW28546   2.563   3.058   2.726 -0.3038  0.4131  0.0674
 6026SOL    HW128547   2.592   3.068   2.821  0.7835  0.2087 -0.2355
 6026SOL    HW228548   2.529   3.145   2.692  2.2420  1.2938 -0.3106
 6027SOL     OW28549   1.770   3.447   0.711 -0.0189  0.3845 -0.2075
 6027SOL    HW128550   1.747   3.354   0.740 -1.0393  1.1000  1.3583
 6027SOL    HW228551   1.801   3.500   0.791  0.1854  1.4890 -1.0071
 6028SOL     OW28552   8.761   8.597   1.245  0.8149  0.3473 -0.2527
 6028SOL    HW128553   8.720   8.530   1.307  1.1544  0.5154  0.1531
 6028SOL    HW228554   8.861   8.586   1.246  0.7940  0.0739 -1.0811
 6029SOL     OW28555   0.483   6.805   1.414  0.6723  0.1499 -0.3705
 6029SOL    HW128556   0.529   6.840   1.333  0.3252  1.9027  0.1777
 6029SOL    HW228557   0.510   6.858   1.494  0.6070 -1.2288  0.5985
 6030SOL     OW28558   2.554   7.387   2.875 -0.2311  0.2694  0.2548
 6030SOL    HW128559   2.535   7.296   2.911 -0.5491 -0.0313 -0.6538
 6030SOL    HW228560   2.565   7.451   2.951 -3.3340  0.1518  0.8703
 6031SOL     OW28561   3.662   2.735   2.766 -0.0312  0.0760  0.3159
 6031SOL    HW128562   3.727   2.779   2.704 -1.1489  0.7387 -0.3896
 6031SOL    HW228563   3.630   2.801   2.834 -0.8056  0.0476 -0.0158
 6032SOL     OW28564   0.523   5.088   1.855 -0.4818 -0.5632  0.7536
 6032SOL    HW128565   0.588   5.149   1.809  0.3978 -0.3160  2.2874
 6032SOL    HW228566   0.430   5.122   1.842 -0.0017  1.1025  1.5438
 6033SOL     OW28567   2.486   0.598   0.530  0.1848  0.3621  0.2808
 6033SOL    HW128568   2.516   0.571   0.621  0.3963  0.0407  0.1212
 6033SOL    HW228569   2.560   0.645   0.483  0.0183  0.6786  0.3391
 6034SOL     OW28570   0.026   1.002   0.360 -0.1212 -0.0379 -0.3492
 6034SOL    HW128571   0.097   1.072   0.358  0.2789 -0.4673 -1.9323
 6034SOL    HW228572   0.067   0.914   0.387 -0.0500 -0.2688 -1.1874
 6035SOL     OW28573   1.477   1.888   2.613 -0.7960 -0.2921 -0.3230
 6035SOL    HW128574   1.385   1.890   2.652 -1.3949  0.2984 -1.7264
 6035SOL    HW228575   1.544   1.900   2.686 -1.8879  1.0117  0.4942
 6036SOL     OW28576   5.426   8.644   1.840  0.0005  0.2913 -0.4616
 6036SOL    HW128577   5.352   8.666   1.777 -1.5718 -0.0688  1.2110
 6036SOL    HW228578   5.429   8.545   1.855  0.9002  0.2890 -0.6102
 6037SOL     OW28579   9.630   6.415   3.191  0.2876 -0.7796  0.1741
 6037SOL    HW128580   9.668   6.330   3.156  0.6490 -0.5895  0.1129
 6037SOL    HW228581   9.595   6.400   3.284 -1.8209 -1.6125 -0.7030
 6038SOL     OW28582   1.328   2.313   0.914 -0.6452  0.1527 -0.3677
 6038SOL    HW128583   1.254   2.379   0.925 -0.2940  0.4981 -0.0453
 6038SOL    HW228584   1.404   2.356   0.866  0.1829  0.4579  1.1791
 6039SOL     OW28585   2.523   5.152   3.843  0.3239  0.0907 -0.7861
 6039SOL    HW128586   2.577   5.226   3.805 -1.7163  1.3668 -1.2877
 6039SOL    HW228587   2.426   5.170   3.828 -0.2413 -2.4083 -0.4164
 6040SOL     OW28588   2.765   0.135   0.124  0.0914  0.1515 -0.2062
 6040SOL    HW128589   2.704   0.126   0.203 -0.7531 -0.9146 -0.9595
 6040SOL    HW228590   2.831   0.059   0.124 -0.4995 -0.3710 -1.0150
 6041SOL     OW28591   8.344   1.839   2.237  0.0096  0.6012  0.3390
 6041SOL    HW128592   8.308   1.748   2.252  0.4468  0.4308  0.3799
 6041SOL    HW228593   8.270   1.902   2.215 -0.1405 -0.0537 -1.0931
 6042SOL     OW28594   5.002   9.652   3.373 -0.5873  0.6020  0.0056
 6042SOL    HW128595   5.091   9.643   3.418 -0.4787 -1.9141 -0.6249
 6042SOL    HW228596   4.935   9.595   3.421 -0.9229 -0.5740 -1.8229
 6043SOL     OW28597   1.232   0.934   0.826 -0.0583 -0.1850 -0.1729
 6043SOL    HW128598   1.163   0.918   0.896 -0.0085  0.0226 -0.0761
 6043SOL    HW228599   1.213   1.020   0.780  0.1445 -0.1209 -0.1366
 6044SOL     OW28600   1.818   0.659   0.337  0.2225 -0.0432  0.1165
 6044SOL    HW128601   1.728   0.644   0.298  0.3142  2.4112 -1.1590
 6044SOL    HW228602   1.884   0.675   0.264  0.9353  1.9151  1.1435
 6045SOL     OW28603   5.839   8.004   3.374 -0.0965  0.3581 -0.2309
 6045SOL    HW128604   5.791   7.917   3.363  0.9486  0.0236 -2.5151
 6045SOL    HW228605   5.932   7.987   3.407 -1.1344  0.9409  3.2488
 6046SOL     OW28606   0.956   6.230   2.232  0.0789 -0.0351 -0.0415
 6046SOL    HW128607   0.968   6.263   2.138  2.3491 -0.0043  0.2338
 6046SOL    HW228608   1.009   6.146   2.244  0.5415  0.4705  1.4659
 6047SOL     OW28609   3.097   7.513   1.259 -0.0723 -0.0997  0.0825
 6047SOL    HW128610   3.190   7.547   1.274  0.3699 -0.2745 -2.0992
 6047SOL    HW228611   3.052   7.498   1.347  1.0322  2.4905  1.1252
 6048SOL     OW28612   0.836   9.484   3.537 -0.7525  0.3600 -0.5244
 6048SOL    HW128613   0.789   9.471   3.624 -1.4905  2.2543 -0.6252
 6048SOL    HW228614   0.772   9.522   3.470  0.5056  1.4429 -1.1323
 6049SOL     OW28615   2.730   7.009   1.104  0.2929  0.0168 -0.0374
 6049SOL    HW128616   2.714   7.014   1.202 -0.6358  0.8732 -0.2279
 6049SOL    HW228617   2.829   7.005   1.087  0.5681  2.2551  0.8460
 6050SOL     OW28618   2.544   8.595   3.109 -0.0169 -0.4393 -0.3597
 6050SOL    HW128619   2.626   8.545   3.140  0.2339  0.1374 -0.0738
 6050SOL    HW228620   2.482   8.607   3.186 -1.1161 -2.2907 -0.9415
 6051SOL     OW28621   5.606   7.518   2.292 -0.0734 -0.0185  0.0801
 6051SOL    HW128622   5.701   7.507   2.322  0.6241  0.2963 -1.9629
 6051SOL    HW228623   5.548   7.452   2.341  1.4629 -1.4180  0.0504
 6052SOL     OW28624   1.826   7.198   2.325  0.2103  0.6232  0.2417
 6052SOL    HW128625   1.903   7.217   2.386 -0.0255 -0.8852  1.0256
 6052SOL    HW228626   1.758   7.143   2.373 -0.5749  0.5176 -0.9797
 6053SOL     OW28627   1.084   0.103   0.767 -0.4148 -0.6210 -0.5617
 6053SOL    HW128628   1.171   0.105   0.718  0.6803 -1.1755  1.3050
 6053SOL    HW228629   1.025   0.032   0.729 -0.1815 -0.0526 -2.0142
 6054SOL     OW28630   3.165   7.076   2.400 -0.0890  0.3635 -0.1419
 6054SOL    HW128631   3.169   6.976   2.408  0.4228  0.4365  0.5309
 6054SOL    HW228632   3.100   7.112   2.467  1.6152  0.6831  1.3947
 6055SOL     OW28633   4.517   0.268   3.733 -0.6602 -0.4512 -0.1517
 6055SOL    HW128634   4.477   0.294   3.821  0.6475  0.2788  0.2331
 6055SOL    HW228635   4.607   0.228   3.747 -0.4339 -0.3119 -1.1489
 6056SOL     OW28636   1.657   8.284   0.404 -0.5041  0.7517  0.4792
 6056SOL    HW128637   1.752   8.307   0.382  0.0618 -0.7590  1.2507
 6056SOL    HW228638   1.627   8.338   0.482 -0.3667  1.4291  0.0657
 6057SOL     OW28639   4.558   3.299   2.912  0.4088  0.2416 -0.1978
 6057SOL    HW128640   4.528   3.383   2.959  2.1504  0.7121  0.1210
 6057SOL    HW228641   4.589   3.233   2.980  0.9007  0.0992 -0.5639
 6058SOL     OW28642   2.591   2.211   0.659 -0.2287 -0.4477 -0.0645
 6058SOL    HW128643   2.564   2.179   0.568  1.6101 -0.0030 -0.7933
 6058SOL    HW228644   2.548   2.300   0.676  0.3131  0.0083 -0.9898
 6059SOL     OW28645   1.530   7.361   1.693 -0.1993  0.2765 -0.0976
 6059SOL    HW128646   1.488   7.290   1.636  2.2315  0.1937 -1.8590
 6059SOL    HW228647   1.533   7.447   1.642 -3.3169  1.7990  2.0949
 6060SOL     OW28648   0.833   2.911   0.207  0.3818 -0.3566 -0.0187
 6060SOL    HW128649   0.881   2.931   0.122  1.7721  1.2400  1.1096
 6060SOL    HW228650   0.857   2.820   0.239  1.1631 -0.3016 -0.4430
 6061SOL     OW28651   7.971   1.010   3.747  0.2880 -0.6816 -0.0015
 6061SOL    HW128652   7.969   1.031   3.844 -0.0710  3.0484 -0.7590
 6061SOL    HW228653   8.032   0.932   3.731  1.5677 -0.3547  3.0273
 6062SOL     OW28654   2.944   5.449   1.547 -0.5961  0.0862  0.1357
 6062SOL    HW128655   2.904   5.413   1.463 -0.1688 -0.2112  0.0632
 6062SOL    HW228656   3.041   5.426   1.552  0.0950  2.5872 -0.6907
 6063SOL     OW28657   1.279   9.303   2.829 -0.1104  0.3821 -0.0699
 6063SOL    HW128658   1.365   9.293   2.780 -0.5624  0.5832 -0.9062
 6063SOL    HW228659   1.242   9.395   2.815 -0.6549  0.1704 -0.0449
 6064SOL     OW28660   9.829   9.935   3.141  0.2473 -0.4937 -0.4360
 6064SOL    HW128661   9.914   9.946   3.090 -0.3962 -0.3690 -1.4954
 6064SOL    HW228662   9.800  10.023   3.178  0.2463 -0.4298 -0.5965
 6065SOL     OW28663   2.064   2.397   0.136 -0.3378  0.0341  0.2113
 6065SOL    HW128664   2.054   2.491   0.102  0.7070 -0.0542 -0.3729
 6065SOL    HW228665   2.161   2.372   0.136 -0.4241 -0.3943  2.1377
 6066SOL     OW28666   8.053   7.920   0.099 -0.4368 -0.2986 -0.3156
 6066SOL    HW128667   8.027   7.974   0.179  1.5897  0.4020 -0.1044
 6066SOL    HW228668   8.115   7.846   0.128  0.9656  0.4573 -1.3303
 6067SOL     OW28669   2.185   7.682   3.141 -0.1625 -0.3278 -0.5504
 6067SOL    HW128670   2.157   7.598   3.094 -0.6471 -0.1623 -0.5591
 6067SOL    HW228671   2.106   7.743   3.150  0.5463  0.8448 -2.0472
 6068SOL     OW28672   3.617   0.019   0.958  0.2359  0.4941  0.3912
 6068SOL    HW128673   3.695   0.005   0.899 -0.7353  0.2314 -0.8501
 6068SOL    HW228674   3.602   0.117   0.971 -0.2334  0.5777 -0.7354
 6069SOL     OW28675   2.255   8.016   3.735 -0.3370  0.2809 -0.3678
 6069SOL    HW128676   2.348   8.050   3.752 -0.1595 -0.4736  0.1725
 6069SOL    HW228677   2.258   7.917   3.723 -0.7239  0.5502 -2.8763
 6070SOL     OW28678   9.572   2.048   3.085 -0.4823  0.1437  0.0266
 6070SOL    HW128679   9.596   1.995   3.167 -0.2029  0.9664  0.4831
 6070SOL    HW228680   9.544   1.985   3.012  0.4526 -0.6833  0.3553
 6071SOL     OW28681   0.159   9.603   2.023 -0.0427  0.2361 -0.1211
 6071SOL    HW128682   0.234   9.566   2.077 -0.1497  0.1556 -0.0265
 6071SOL    HW228683   0.079   9.616   2.082 -0.3156 -0.3182 -0.3686
 6072SOL     OW28684   7.715   0.566   2.561 -0.1602  0.7724 -0.3876
 6072SOL    HW128685   7.743   0.590   2.654  2.1904 -1.3742 -0.4585
 6072SOL    HW228686   7.640   0.501   2.565 -0.4130  1.0838 -0.0011
 6073SOL     OW28687   3.947   0.148   1.405 -0.2379  0.0041  0.2663
 6073SOL    HW128688   3.915   0.078   1.340 -1.7722  0.6975  0.2428
 6073SOL    HW228689   4.012   0.209   1.359 -1.6184  0.7321 -0.7704
 6074SOL     OW28690   0.489   0.425   1.492 -0.1984 -0.4719 -0.2106
 6074SOL    HW128691   0.406   0.425   1.436  0.4337  1.2686 -1.1939
 6074SOL    HW228692   0.465   0.432   1.588 -1.2103 -0.8628 -0.4306
 6075SOL     OW28693   0.098   8.073   0.525 -0.2284  0.0301  0.3806
 6075SOL    HW128694   0.132   8.160   0.488  1.6014 -1.3890 -1.3894
 6075SOL    HW228695   0.009   8.052   0.484  0.7584 -0.4219 -1.6267
 6076SOL     OW28696   8.002   4.742   0.770 -0.0913 -0.1421  0.0701
 6076SOL    HW128697   7.975   4.651   0.737  0.1334 -0.0675 -0.3233
 6076SOL    HW228698   7.950   4.765   0.852 -2.6937  0.8722 -1.8200
 6077SOL     OW28699   9.971   3.244   1.820  0.3608 -0.2066  0.2217
 6077SOL    HW128700  10.016   3.330   1.798  0.4958  0.0038  1.2789
 6077SOL    HW228701  10.040   3.174   1.841  0.2402 -0.4289 -0.1120
 6078SOL     OW28702   1.283   0.261   3.918 -0.0338  0.4116 -0.0331
 6078SOL    HW128703   1.197   0.311   3.915  0.3599  1.1625  0.8200
 6078SOL    HW228704   1.265   0.163   3.908 -1.1693  0.3885  1.8892
 6079SOL     OW28705   2.215   0.756   2.130  0.0117 -0.1531 -0.3103
 6079SOL    HW128706   2.255   0.684   2.187 -0.2780 -0.6151 -0.6878
 6079SOL    HW228707   2.115   0.756   2.141  0.0382  0.4493 -0.0127
 6080SOL     OW28708   4.255   2.305   2.550  0.2384 -0.0300  0.2703
 6080SOL    HW128709   4.299   2.234   2.604  1.1578 -1.0916 -1.7942
 6080SOL    HW228710   4.165   2.274   2.520  1.0379 -0.7631 -1.4505
 6081SOL     OW28711   0.569   2.916   0.319 -0.1076  0.1515 -0.7333
 6081SOL    HW128712   0.513   2.998   0.313  1.0189  1.0329  0.4436
 6081SOL    HW228713   0.660   2.935   0.281  0.5142 -0.2092  0.5516
 6082SOL     OW28714   8.833   5.879   0.365 -1.1286 -0.4771 -0.3746
 6082SOL    HW128715   8.786   5.792   0.354 -2.8836  0.0294  2.6789
 6082SOL    HW228716   8.929   5.862   0.389 -1.4386 -1.5892  0.1275
 6083SOL     OW28717   3.901   2.742   3.214 -0.2490 -0.3336  0.0942
 6083SOL    HW128718   3.900   2.786   3.124  0.1621 -0.0113  0.2418
 6083SOL    HW228719   3.876   2.646   3.205  0.8434 -0.5674 -0.5176
 6084SOL     OW28720   1.996   0.192   3.859  0.4738 -0.2066 -0.2485
 6084SOL    HW128721   2.064   0.265   3.860 -0.7020  0.9435 -1.7334
 6084SOL    HW228722   1.944   0.193   3.945  0.5302  0.6296 -0.2263
 6085SOL     OW28723   4.534   4.069   1.764 -0.3682  0.5613  0.3694
 6085SOL    HW128724   4.496   4.061   1.855  0.4449  1.6684  0.8262
 6085SOL    HW228725   4.507   4.157   1.724 -1.5383 -0.3371 -0.8538
 6086SOL     OW28726   1.005   2.469   3.766  0.4547 -0.2779 -0.1226
 6086SOL    HW128727   1.040   2.389   3.716  1.3085  1.4734 -2.4097
 6086SOL    HW228728   1.071   2.496   3.835  0.0956 -1.6300  0.7704
 6087SOL     OW28729   9.059   4.760   1.282 -0.0919  0.3028  0.5180
 6087SOL    HW128730   9.004   4.823   1.227  0.9201  1.4191  0.7599
 6087SOL    HW228731   9.079   4.802   1.370  0.5427 -0.3890  0.7091
 6088SOL     OW28732   0.429   1.799   1.158 -0.4112 -0.3015 -0.5680
 6088SOL    HW128733   0.348   1.776   1.105 -0.5108  1.1470 -1.0556
 6088SOL    HW228734   0.465   1.887   1.128  0.8216 -0.5089  0.2599
 6089SOL     OW28735   7.155   8.720   1.675  0.4154  0.4115  0.3173
 6089SOL    HW128736   7.213   8.783   1.725  0.2811  0.8951 -0.1334
 6089SOL    HW228737   7.203   8.685   1.595  0.1967  0.5773  0.1119
 6090SOL     OW28738   0.199   2.361   3.589  0.7372 -0.1432  0.2961
 6090SOL    HW128739   0.220   2.317   3.676  0.8974  1.4665  1.0843
 6090SOL    HW228740   0.271   2.340   3.523 -0.1957 -2.7207  0.0232
 6091SOL     OW28741   2.563   3.911   3.836 -0.5653 -0.2866  0.2899
 6091SOL    HW128742   2.557   3.874   3.743  0.3862  0.7453 -0.1838
 6091SOL    HW228743   2.657   3.902   3.869 -0.2867  1.8327  0.1112
 6092SOL     OW28744   1.422   4.122   0.303  0.0104 -0.3976 -0.0450
 6092SOL    HW128745   1.495   4.150   0.240 -0.6927 -1.1782 -1.2307
 6092SOL    HW228746   1.408   4.193   0.372 -0.1277  1.1049 -1.5950
 6093SOL     OW28747   8.812   7.725   4.025 -0.0357 -0.4850  0.3783
 6093SOL    HW128748   8.886   7.666   3.993  0.1016 -0.0236 -0.1643
 6093SOL    HW228749   8.769   7.769   3.947  0.2788  0.6241  0.8225
 6094SOL     OW28750   8.756   8.040   3.473  0.0780 -0.2661 -0.1200
 6094SOL    HW128751   8.768   8.116   3.408  0.1768  0.1154  0.3472
 6094SOL    HW228752   8.698   7.970   3.431  0.8728 -0.4272 -0.9617
 6095SOL     OW28753   0.868   2.959   3.086 -0.2038 -0.0920  0.0441
 6095SOL    HW128754   0.784   2.994   3.128 -0.0814 -0.3609  0.5112
 6095SOL    HW228755   0.919   3.035   3.046 -0.4815  0.1218  0.0896
 6096SOL     OW28756   9.691   2.270   2.967  0.0750 -0.1755  0.8672
 6096SOL    HW128757   9.650   2.194   3.017  0.2214 -0.4469  0.5800
 6096SOL    HW228758   9.723   2.238   2.878  0.3016  0.1837  0.8171
 6097SOL     OW28759   7.755   7.050   2.648  0.1522 -0.3849 -0.0923
 6097SOL    HW128760   7.733   7.104   2.567 -1.2251 -0.5754  0.1418
 6097SOL    HW228761   7.686   6.978   2.660  2.1578 -2.4785 -0.6254
 6098SOL     OW28762   9.763   9.526   1.575  0.3827 -0.3608 -0.1990
 6098SOL    HW128763   9.749   9.611   1.524  0.5423  0.5747  1.2831
 6098SOL    HW228764   9.759   9.449   1.513  0.2363  0.7378 -1.5735
 6099SOL     OW28765   8.801   8.783   1.567  0.2483  0.5049 -0.5873
 6099SOL    HW128766   8.718   8.781   1.512  0.0415 -0.1304 -0.2563
 6099SOL    HW228767   8.868   8.720   1.527  0.7546  1.3749 -1.1324
 6100SOL     OW28768   8.134   4.329   1.641  0.3901  0.3273  0.4629
 6100SOL    HW128769   8.111   4.238   1.678  2.8506 -0.9291 -0.9606
 6100SOL    HW228770   8.181   4.382   1.711 -1.4327  0.7016  1.4426
 6101SOL     OW28771   0.043   8.390   2.720 -0.1527 -0.3002  0.2351
 6101SOL    HW128772   0.082   8.299   2.705 -0.3933 -0.2531 -0.6946
 6101SOL    HW228773  -0.016   8.387   2.801  0.3374 -0.8114  0.5811
 6102SOL     OW28774   2.061   0.973   4.006  0.0460 -0.3586  0.1529
 6102SOL    HW128775   1.980   1.019   4.041  0.0759 -1.3341  1.5646
 6102SOL    HW228776   2.102   1.027   3.933 -1.6491  0.3366 -0.3100
 6103SOL     OW28777   1.860   4.581   2.630  0.0388 -0.2247  0.3117
 6103SOL    HW128778   1.782   4.643   2.634 -0.0114 -0.4481  3.5617
 6103SOL    HW228779   1.944   4.634   2.613 -0.3675  0.4075  0.2729
 6104SOL     OW28780   8.440   4.363   1.538  0.1655 -0.1746 -0.6228
 6104SOL    HW128781   8.351   4.345   1.495 -0.0382  1.5091 -0.9357
 6104SOL    HW228782   8.425   4.400   1.630  0.5724 -1.1649 -0.1474
 6105SOL     OW28783   9.329   4.930   3.402 -0.1070 -0.0298 -0.3176
 6105SOL    HW128784   9.254   4.943   3.337 -0.5202  2.1997  0.5665
 6105SOL    HW228785   9.397   4.869   3.362 -1.9347 -1.3570 -1.5082
 6106SOL     OW28786   5.035   3.846   1.097  0.2000 -0.5767 -0.0394
 6106SOL    HW128787   5.110   3.781   1.083  2.0158  1.4657 -0.0217
 6106SOL    HW228788   5.052   3.897   1.182 -0.4967  0.8737 -0.7728
 6107SOL     OW28789   0.544   2.022   1.025  0.1628  0.5325 -0.1311
 6107SOL    HW128790   0.548   1.935   0.974  2.4321  0.7491 -0.3750
 6107SOL    HW228791   0.617   2.082   0.993 -0.4198  1.9381  1.1543
 6108SOL     OW28792   2.772   9.881   2.007  0.0779  0.0886  0.0471
 6108SOL    HW128793   2.758   9.919   1.916  0.1660  0.7017  0.2860
 6108SOL    HW228794   2.718   9.797   2.017  0.4526 -0.2462 -0.7335
 6109SOL     OW28795   1.006   5.487   1.793  0.2488  0.2409 -0.1869
 6109SOL    HW128796   1.058   5.571   1.778 -0.0181  1.1529  3.4544
 6109SOL    HW228797   0.909   5.503   1.774  0.5006  0.1087 -1.6193
 6110SOL     OW28798   9.916   1.714   0.455 -0.2636  0.2917 -0.2170
 6110SOL    HW128799   9.856   1.714   0.374  0.2434  1.7588 -0.6210
 6110SOL    HW228800   9.963   1.802   0.460  0.6578 -0.2675  0.9921
 6111SOL     OW28801   9.007   9.777   3.053  0.2480  0.6144 -0.2134
 6111SOL    HW128802   8.987   9.875   3.057  1.0028  0.7452  0.4663
 6111SOL    HW228803   8.983   9.734   3.141  2.6471  0.7239  0.5184
 6112SOL     OW28804   3.095   2.399   1.830 -0.6596  0.1919 -0.5363
 6112SOL    HW128805   3.181   2.438   1.796 -0.8125  0.5531 -0.5127
 6112SOL    HW228806   3.025   2.404   1.759 -1.0452  1.1637 -0.1076
 6113SOL     OW28807   2.547   3.116   1.965  0.2082 -0.5709 -0.0783
 6113SOL    HW128808   2.470   3.178   1.982 -1.2157 -1.9912 -1.2250
 6113SOL    HW228809   2.585   3.087   2.052  0.3278  1.2089  0.4896
 6114SOL     OW28810   6.904   8.223   2.782 -0.6749  0.5430  0.3692
 6114SOL    HW128811   6.909   8.232   2.881  2.1065 -1.4665  0.4798
 6114SOL    HW228812   6.968   8.288   2.739  0.1165 -0.4588  0.0235
 6115SOL     OW28813   3.571   6.289   2.053 -0.4335  0.0132  0.3575
 6115SOL    HW128814   3.586   6.193   2.033  1.2539  0.6789 -1.6481
 6115SOL    HW228815   3.498   6.324   1.994 -1.8911 -0.3041  1.9267
 6116SOL     OW28816   4.552   0.720   3.537 -0.2227  0.8167 -0.0702
 6116SOL    HW128817   4.560   0.655   3.613 -1.7371 -0.4899 -0.9951
 6116SOL    HW228818   4.643   0.738   3.500  0.5478  1.5471  2.0799
 6117SOL     OW28819   0.306   7.278   0.331  0.0142  0.1226 -0.2677
 6117SOL    HW128820   0.275   7.320   0.416 -0.8500 -2.2061  0.6116
 6117SOL    HW228821   0.406   7.275   0.330  0.0552  1.0227  0.2145
 6118SOL     OW28822   8.696   5.380   0.783 -0.1455  0.8413  0.2917
 6118SOL    HW128823   8.603   5.413   0.770 -0.6859 -0.5118  0.5944
 6118SOL    HW228824   8.724   5.397   0.877 -1.1568 -1.2851  1.0130
 6119SOL     OW28825   9.010   5.166   2.064  0.0453 -0.2218 -0.5863
 6119SOL    HW128826   8.967   5.197   2.149  0.2459 -0.9324 -0.2197
 6119SOL    HW228827   9.026   5.244   2.004 -1.8335  0.0479 -0.7657
 6120SOL     OW28828   1.526   9.788   1.932 -0.4190 -0.5034 -0.3017
 6120SOL    HW128829   1.452   9.761   1.870 -0.0562  0.5605 -1.2127
 6120SOL    HW228830   1.609   9.737   1.908 -0.9177 -1.9419  0.9313
 6121SOL     OW28831   2.985   7.373   2.239  0.1225  0.2676 -0.2064
 6121SOL    HW128832   2.908   7.404   2.294  0.1758  0.6004 -0.3174
 6121SOL    HW228833   3.070   7.411   2.275 -0.1720  3.4620 -2.6125
 6122SOL     OW28834   9.785   3.404   1.674 -0.6793 -0.0251 -0.1704
 6122SOL    HW128835   9.832   3.485   1.641 -0.6081  0.1035  0.2501
 6122SOL    HW228836   9.694   3.399   1.632 -0.3640 -0.1831 -0.8485
 6123SOL     OW28837   5.181   7.321   3.520 -0.0350  0.5054 -0.5103
 6123SOL    HW128838   5.213   7.405   3.477 -0.1647  1.3462  1.0178
 6123SOL    HW228839   5.085   7.304   3.494 -0.2419  1.2257 -0.2081
 6124SOL     OW28840   9.469   9.224   2.873  0.4909 -0.2663 -0.2413
 6124SOL    HW128841   9.511   9.178   2.952 -1.1228 -1.5491 -0.1011
 6124SOL    HW228842   9.540   9.267   2.818  1.6754  0.3962  1.7519
 6125SOL     OW28843   0.366   4.033   1.932 -0.0210  0.3340  0.3901
 6125SOL    HW128844   0.406   4.044   2.023  0.1363  0.8936  0.2549
 6125SOL    HW228845   0.414   4.093   1.868 -0.4837  0.3315  0.0443
 6126SOL     OW28846   9.524   5.463   1.474  0.4168 -0.2056 -0.4759
 6126SOL    HW128847   9.596   5.394   1.477 -0.7232 -1.3753  0.1518
 6126SOL    HW228848   9.508   5.499   1.566 -0.3815 -0.5666 -0.4675
 6127SOL     OW28849   1.942   9.856   3.770  0.1753 -0.6336 -0.5451
 6127SOL    HW128850   2.001   9.921   3.818  1.1527 -0.0564 -2.4723
 6127SOL    HW228851   1.979   9.838   3.679 -2.0473 -1.1015 -1.3964
 6128SOL     OW28852   8.208   3.775   1.793 -0.8301  0.1983  0.4060
 6128SOL    HW128853   8.243   3.732   1.709 -2.1597  0.1289 -0.1160
 6128SOL    HW228854   8.188   3.705   1.861 -2.1935  0.0401 -0.1441
 6129SOL     OW28855   6.094   8.612   2.435  0.1918 -0.4629  0.1475
 6129SOL    HW128856   6.152   8.618   2.516  0.7735 -3.5434  0.0084
 6129SOL    HW228857   6.061   8.518   2.424 -2.3788  0.5720 -1.4807
 6130SOL     OW28858   3.486   4.195   0.332 -0.0384  0.1439 -0.4287
 6130SOL    HW128859   3.444   4.173   0.243  0.4979 -0.4019 -0.5538
 6130SOL    HW228860   3.537   4.115   0.364  1.8551  1.1854 -0.8177
 6131SOL     OW28861   5.840   8.199   2.854  0.0442  0.3030  0.2895
 6131SOL    HW128862   5.764   8.206   2.919 -0.0085 -0.0715  0.2685
 6131SOL    HW228863   5.838   8.277   2.792 -0.8448 -0.1668 -0.2715
 6132SOL     OW28864   9.164   4.086   1.512  0.2396 -0.6106 -0.4265
 6132SOL    HW128865   9.243   4.030   1.489  0.7349 -0.4784  0.9397
 6132SOL    HW228866   9.084   4.027   1.526  0.9318 -1.0683  1.7611
 6133SOL     OW28867   3.940   3.180   0.761 -0.1031  0.0306 -0.2432
 6133SOL    HW128868   3.960   3.262   0.815 -2.1146  2.4067 -2.9407
 6133SOL    HW228869   3.846   3.185   0.727  0.3551 -2.5067 -2.0048
 6134SOL     OW28870   8.745   0.684   3.465 -0.1522 -0.0140 -0.2166
 6134SOL    HW128871   8.766   0.778   3.490  2.2222 -0.5236 -0.1871
 6134SOL    HW228872   8.730   0.630   3.549  0.9593 -0.1986 -0.1283
 6135SOL     OW28873   9.144   9.636   3.781  0.2691 -0.0682 -0.1064
 6135SOL    HW128874   9.203   9.716   3.786 -0.6251  0.5424  0.9182
 6135SOL    HW228875   9.172   9.570   3.852 -1.5482  1.1183  1.7677
 6136SOL     OW28876   9.036   4.642   0.436  0.2678 -0.3419  0.3084
 6136SOL    HW128877   8.944   4.616   0.463  0.1983  0.6247  1.0472
 6136SOL    HW228878   9.102   4.574   0.469  0.0749  0.3025  2.0403
 6137SOL     OW28879   9.727   8.456   0.417  0.3872 -0.1593 -0.2261
 6137SOL    HW128880   9.700   8.360   0.419  1.0180 -0.3298  0.4668
 6137SOL    HW228881   9.701   8.500   0.503  0.4782  0.1815 -0.3711
 6138SOL     OW28882   2.314   4.220   3.498  0.0285  0.0422  0.2147
 6138SOL    HW128883   2.273   4.298   3.546 -0.0072  1.5671 -2.1971
 6138SOL    HW228884   2.413   4.219   3.516 -0.3337 -0.8763  2.2711
 6139SOL     OW28885   2.793   3.600   0.482 -0.0603  0.1808  0.1128
 6139SOL    HW128886   2.700   3.631   0.503 -0.0240  0.5536 -0.2746
 6139SOL    HW228887   2.850   3.679   0.460  1.0044  0.2188  2.8247
 6140SOL     OW28888   9.660   6.494   2.528 -0.3226  0.2137 -0.5607
 6140SOL    HW128889   9.733   6.559   2.550 -0.9383  0.6714  0.1384
 6140SOL    HW228890   9.607   6.473   2.610 -0.9162 -0.1963 -1.0414
 6141SOL     OW28891   4.661   3.208   0.586 -0.0674  0.1039  0.4249
 6141SOL    HW128892   4.674   3.133   0.522  0.6482  0.3878  0.2334
 6141SOL    HW228893   4.697   3.292   0.546  1.7168  0.0029  1.7923
 6142SOL     OW28894   9.430   9.399   3.751  0.7192  0.0723 -0.0635
 6142SOL    HW128895   9.397   9.436   3.664  1.2523  0.3606 -0.1463
 6142SOL    HW228896   9.417   9.300   3.753  0.3417  0.1175 -0.3110
 6143SOL     OW28897   0.529   6.447   0.335 -0.5278 -0.0614  0.0427
 6143SOL    HW128898   0.440   6.455   0.379 -0.0880 -0.3683  1.0058
 6143SOL    HW228899   0.590   6.392   0.393  0.2264 -0.0088 -0.6923
 6144SOL     OW28900   9.600   5.353   3.134  0.0465 -0.1689 -0.1946
 6144SOL    HW128901   9.549   5.267   3.121 -0.3472  0.2001 -1.1283
 6144SOL    HW228902   9.536   5.426   3.157  0.1300  0.3509 -1.6227
 6145SOL     OW28903   9.107   3.825   1.268  0.2713 -0.1755 -0.4650
 6145SOL    HW128904   9.159   3.795   1.348  0.6368  0.5994 -0.4139
 6145SOL    HW228905   9.032   3.760   1.251  0.4200 -0.5435  0.2776
 6146SOL     OW28906   9.518   8.505   2.969  0.4876 -0.6905 -0.0277
 6146SOL    HW128907   9.462   8.422   2.974 -1.1908  0.4629  1.0029
 6146SOL    HW228908   9.521   8.537   2.875  0.3852 -1.4103 -0.2797
 6147SOL     OW28909   2.163   3.170   2.106 -0.0956 -0.0092 -0.6303
 6147SOL    HW128910   2.238   3.232   2.080 -1.6493  1.8630 -0.7769
 6147SOL    HW228911   2.140   3.185   2.202  0.6171 -1.5827 -0.1923
 6148SOL     OW28912   8.208   4.558   1.202  0.1270 -0.4776  0.2496
 6148SOL    HW128913   8.183   4.654   1.204 -0.1886 -0.5655  0.6713
 6148SOL    HW228914   8.294   4.547   1.152  0.7233  0.1554  1.1199
 6149SOL     OW28915   0.084   0.603   0.883 -0.6320  0.0397  0.0656
 6149SOL    HW128916   0.174   0.588   0.840 -1.4112 -0.6454 -1.3676
 6149SOL    HW228917   0.015   0.614   0.812 -1.8840 -0.6413  1.1619
 6150SOL     OW28918   3.419   6.687   1.818 -0.5145  0.2316  0.3100
 6150SOL    HW128919   3.371   6.603   1.844 -1.6716  0.9288  0.4913
 6150SOL    HW228920   3.367   6.734   1.746  1.6731 -0.7242 -1.9810
 6151SOL     OW28921   3.904   0.356   3.307 -0.0336  0.0736 -0.4039
 6151SOL    HW128922   4.001   0.336   3.293  0.0625  0.5656 -0.4761
 6151SOL    HW228923   3.853   0.333   3.224 -0.1356 -1.1466 -0.0073
 6152SOL     OW28924   8.450   4.350   0.255 -0.4238  0.0665 -0.2803
 6152SOL    HW128925   8.397   4.428   0.288  0.2213  0.5484 -0.3867
 6152SOL    HW228926   8.525   4.331   0.318  0.8851  1.0602 -1.4971
 6153SOL     OW28927   0.851   3.727   2.294  0.7594  0.3763  0.1866
 6153SOL    HW128928   0.762   3.738   2.250  1.3870 -0.2754 -1.2762
 6153SOL    HW228929   0.915   3.795   2.258  1.2796 -0.1611  0.0918
 6154SOL     OW28930   0.972   8.052   2.993 -0.7270  0.3098  0.0056
 6154SOL    HW128931   1.007   8.084   2.905  0.2661 -0.7147  0.0127
 6154SOL    HW228932   0.978   8.126   3.060  1.1067  0.2848 -0.0969
 6155SOL     OW28933   2.503   9.736   3.411  0.2380 -0.7794 -0.2213
 6155SOL    HW128934   2.492   9.639   3.430  1.4383 -1.0375 -0.7527
 6155SOL    HW228935   2.526   9.749   3.314  1.3040 -0.0819  0.1079
 6156SOL     OW28936   2.812   9.581   3.541 -0.1599  0.4353 -0.5677
 6156SOL    HW128937   2.823   9.523   3.460  1.4887  1.4015 -1.0601
 6156SOL    HW228938   2.815   9.677   3.514 -1.2240  0.7638  0.4524
 6157SOL     OW28939   1.863   6.167   0.504  0.5705  0.1908 -0.4464
 6157SOL    HW128940   1.829   6.132   0.417 -0.8441 -0.4110  0.3327
 6157SOL    HW228941   1.820   6.255   0.523 -1.0538 -0.8422  0.8187
 6158SOL     OW28942   1.086   3.750   0.239 -0.4943 -0.2086  0.3395
 6158SOL    HW128943   1.144   3.831   0.229 -0.0880 -0.5351  0.0060
 6158SOL    HW228944   0.999   3.765   0.193  0.3048 -0.6586 -1.3489
 6159SOL     OW28945   1.467   6.640   2.128 -0.1517 -0.2870 -0.2825
 6159SOL    HW128946   1.535   6.585   2.080 -0.2611 -0.3487 -0.3646
 6159SOL    HW228947   1.379   6.593   2.129 -0.0412 -0.4944  0.3663
 6160SOL     OW28948   3.072   8.243   0.599 -0.7386  0.6036  0.1693
 6160SOL    HW128949   3.167   8.257   0.570 -0.0896 -1.1134  1.3961
 6160SOL    HW228950   3.017   8.217   0.520  0.4125 -1.1557 -0.0867
 6161SOL     OW28951   9.897   3.225   0.208  0.4881 -0.1681  0.1220
 6161SOL    HW128952   9.994   3.234   0.185 -0.1247  0.5754 -2.3520
 6161SOL    HW228953   9.880   3.134   0.246  2.1672 -0.2432  0.7215
 6162SOL     OW28954   9.405   1.522   1.289 -0.3662 -0.1485 -0.0654
 6162SOL    HW128955   9.307   1.509   1.280 -0.5974  1.6501 -0.4443
 6162SOL    HW228956   9.426   1.620   1.284  1.3023 -0.4093  1.3936
 6163SOL     OW28957   0.765   8.393   3.293  0.3944  0.3256  0.3186
 6163SOL    HW128958   0.766   8.370   3.390 -0.7252 -1.5548 -0.0868
 6163SOL    HW228959   0.695   8.338   3.246  0.6255  1.5100 -1.4757
 6164SOL     OW28960   0.536   8.780   1.323  0.3164  0.2896  0.1243
 6164SOL    HW128961   0.466   8.819   1.383  0.9637  0.9948  0.4379
 6164SOL    HW228962   0.607   8.849   1.306  1.0880 -0.5094  0.0694
 6165SOL     OW28963   2.103   7.089   3.419 -0.8451  0.1321 -0.1171
 6165SOL    HW128964   2.170   7.083   3.493  0.0036  0.5743 -0.8357
 6165SOL    HW228965   2.096   7.184   3.389 -0.9893 -0.0841 -0.7720
 6166SOL     OW28966   4.429   7.953   3.099 -0.1463 -0.1679  0.0919
 6166SOL    HW128967   4.512   7.911   3.065 -0.4666 -1.7744  1.2384
 6166SOL    HW228968   4.356   7.945   3.031  0.1412 -0.3913 -0.1863
 6167SOL     OW28969   8.628   7.520   1.911 -0.5130  0.0050 -0.4800
 6167SOL    HW128970   8.573   7.603   1.902  0.9190  0.8962 -1.1152
 6167SOL    HW228971   8.658   7.489   1.821  1.5071  0.5438 -0.0053
 6168SOL     OW28972   4.497   7.634   3.224  0.2962  0.4184 -0.1725
 6168SOL    HW128973   4.584   7.586   3.208  0.0936  0.2345 -0.7237
 6168SOL    HW228974   4.454   7.656   3.137 -1.0614 -1.0478  0.0947
 6169SOL     OW28975   3.367   6.322   3.350 -0.1041 -0.8470 -0.5603
 6169SOL    HW128976   3.333   6.307   3.257 -0.7383 -0.4131 -0.4002
 6169SOL    HW228977   3.382   6.234   3.394 -2.0563 -1.0563 -0.2651
 6170SOL     OW28978   7.968   1.721   0.261 -0.2509  0.6454  0.3366
 6170SOL    HW128979   7.929   1.812   0.275  1.1524  1.4574 -0.8649
 6170SOL    HW228980   8.067   1.726   0.273 -0.1575 -0.7177  0.1762
 6171SOL     OW28981   3.139   3.062   0.864 -0.1217  1.0450  0.3804
 6171SOL    HW128982   3.161   3.121   0.786  0.2049  1.0686  0.4930
 6171SOL    HW228983   3.167   2.968   0.845 -1.2205  0.7903 -0.0627
 6172SOL     OW28984   1.137   1.775   2.516 -0.7272 -0.6292  0.6325
 6172SOL    HW128985   1.162   1.791   2.612  1.5256  1.9667 -0.3182
 6172SOL    HW228986   1.201   1.823   2.456 -1.6361 -2.8446 -2.2356
 6173SOL     OW28987   7.803   1.565   2.636 -0.1744 -0.2004  0.1157
 6173SOL    HW128988   7.760   1.625   2.703 -1.3524 -3.3104  2.2440
 6173SOL    HW228989   7.903   1.570   2.646 -0.3276 -0.4100  1.9156
 6174SOL     OW28990   0.804   7.061   3.234 -0.4512  0.7848 -0.1612
 6174SOL    HW128991   0.793   6.962   3.223  1.0520  0.4414  1.1301
 6174SOL    HW228992   0.858   7.097   3.157 -0.3188  0.4633 -0.2209
 6175SOL     OW28993   8.569   2.521   2.491  0.7700  0.5718  0.1657
 6175SOL    HW128994   8.496   2.493   2.552 -1.7799 -0.1080 -3.0766
 6175SOL    HW228995   8.655   2.479   2.520 -0.4951 -0.2577  2.8312
 6176SOL     OW28996   9.739   7.180   1.085  0.4687  0.5638  0.0873
 6176SOL    HW128997   9.800   7.109   1.119  0.7644 -0.4028 -2.3452
 6176SOL    HW228998   9.683   7.143   1.011 -1.5896  2.0276  0.8750
 6177SOL     OW28999   1.429   2.793   0.548  0.2977  0.3042  0.4608
 6177SOL    HW129000   1.467   2.869   0.600  1.3254  0.1815 -0.1064
 6177SOL    HW229001   1.400   2.826   0.458 -0.6104  0.3234  0.7549
 6178SOL     OW29002   0.067   2.175   4.000 -0.1258 -0.9557  0.2985
 6178SOL    HW129003  -0.001   2.156   3.929  0.8759 -1.4300 -0.5500
 6178SOL    HW229004   0.117   2.091   4.021  0.3129 -0.5720  0.8023
 6179SOL     OW29005   1.486   3.101   3.010 -0.0960  0.0608 -0.0555
 6179SOL    HW129006   1.568   3.138   2.966 -1.3658  3.1046  0.0095
 6179SOL    HW229007   1.432   3.051   2.943 -0.0909  1.3834 -1.0685
 6180SOL     OW29008   0.619   9.646   3.091  0.1834 -0.5887 -0.3797
 6180SOL    HW129009   0.664   9.557   3.090  1.1088 -0.1122 -1.1000
 6180SOL    HW229010   0.614   9.683   2.998 -1.8611 -0.7159 -0.3348
 6181SOL     OW29011   9.755   6.598   3.400  0.4801  0.2519 -0.2522
 6181SOL    HW129012   9.662   6.632   3.414  0.2066 -1.0038  1.0972
 6181SOL    HW229013   9.753   6.526   3.330  0.0629 -1.2628  1.2651
 6182SOL     OW29014   2.375   3.598   3.836 -0.0564  0.0614 -0.0390
 6182SOL    HW129015   2.423   3.551   3.910 -0.9502 -0.5080  0.1873
 6182SOL    HW229016   2.333   3.531   3.775  0.3357  0.5406 -0.8302
 6183SOL     OW29017   2.660   9.817   3.930 -0.5471 -0.1554 -0.6182
 6183SOL    HW129018   2.614   9.899   3.965 -1.7739 -0.5030 -1.3836
 6183SOL    HW229019   2.704   9.769   4.006 -1.7392  0.0177  0.2087
 6184SOL     OW29020   2.263   5.423   2.916 -0.1927  0.1436  0.0425
 6184SOL    HW129021   2.295   5.340   2.870  0.3262  1.3620 -1.8416
 6184SOL    HW229022   2.191   5.465   2.862 -0.5239  0.8848  1.0434
 6185SOL     OW29023   9.239   7.680   1.893 -0.7738  0.0526 -0.3370
 6185SOL    HW129024   9.196   7.722   1.813  0.1129 -0.4962 -1.1023
 6185SOL    HW229025   9.256   7.583   1.875  0.9449  0.3052 -0.1026
 6186SOL     OW29026   2.424   4.361   2.467 -0.0178  0.4740  0.0482
 6186SOL    HW129027   2.362   4.435   2.440 -1.3943  0.1728  2.2261
 6186SOL    HW229028   2.501   4.357   2.403 -0.0821  3.5676 -0.3123
 6187SOL     OW29029   8.966   4.832   3.249  0.1098 -0.2810 -0.8205
 6187SOL    HW129030   9.010   4.891   3.318  2.1777 -0.4149 -1.9732
 6187SOL    HW229031   8.900   4.772   3.294 -0.0851  1.0745  0.7493
 6188SOL     OW29032   1.260   8.538   2.560 -0.1470 -0.6325 -0.7598
 6188SOL    HW129033   1.197   8.497   2.493  1.0775 -0.0311 -2.3075
 6188SOL    HW229034   1.226   8.628   2.586 -1.0734 -1.2169  0.0843
 6189SOL     OW29035   8.660   4.790   1.009 -0.3094  0.1037 -0.3675
 6189SOL    HW129036   8.608   4.740   1.079 -0.1079  2.2437  1.3650
 6189SOL    HW229037   8.612   4.875   0.987  0.6680  0.3974 -1.3992
 6190SOL     OW29038   1.280   6.198   0.872 -0.3052  0.2292 -0.0769
 6190SOL    HW129039   1.311   6.124   0.931  0.0022  1.2441  1.0705
 6190SOL    HW229040   1.320   6.284   0.904 -0.5278  0.8621 -1.4829
 6191SOL     OW29041   1.962   1.694   3.837  0.3024  0.5527 -1.0250
 6191SOL    HW129042   2.000   1.640   3.762  0.8406  0.0797 -0.4267
 6191SOL    HW229043   1.862   1.687   3.836  0.3195  0.3523 -1.5488
 6192SOL     OW29044   3.465   0.069   2.501 -0.2613  0.0789  0.7206
 6192SOL    HW129045   3.450   0.049   2.404 -0.1499  1.7160  0.3574
 6192SOL    HW229046   3.390   0.032   2.554 -0.9772  0.2919 -0.1302
 6193SOL     OW29047   9.184   6.609   0.650  0.0762  0.4140  0.5185
 6193SOL    HW129048   9.113   6.675   0.624  1.5086  1.2935 -1.2624
 6193SOL    HW229049   9.167   6.522   0.603 -0.3765  0.2935  0.8940
 6194SOL     OW29050   1.764   3.936   1.393  0.4719  0.0896  0.3332
 6194SOL    HW129051   1.722   4.026   1.380  0.3735  0.1087  0.7470
 6194SOL    HW229052   1.769   3.916   1.491 -1.2829 -1.1981  0.1794
 6195SOL     OW29053   0.663   3.056   4.004  0.0180  0.0660 -0.2992
 6195SOL    HW129054   0.761   3.047   4.020  0.3034  0.6143 -1.6417
 6195SOL    HW229055   0.635   2.996   3.929 -1.0064 -1.3696  1.1959
 6196SOL     OW29056   3.121   7.142   1.422 -0.0419  0.1917 -0.5026
 6196SOL    HW129057   3.162   7.224   1.460 -0.5138  0.0496  0.3128
 6196SOL    HW229058   3.036   7.165   1.376  0.1088  0.2381 -0.7618
 6197SOL     OW29059   8.551   4.105   3.428  0.2159  0.1275  0.3843
 6197SOL    HW129060   8.613   4.119   3.351  1.9215 -0.8987  1.5449
 6197SOL    HW229061   8.501   4.190   3.446  1.5043  1.0626 -0.3571
 6198SOL     OW29062   9.393   3.005   0.325  0.2102 -0.0400  0.2125
 6198SOL    HW129063   9.363   3.055   0.406 -1.2890 -1.7885  0.7901
 6198SOL    HW229064   9.424   3.069   0.255 -0.2578  1.5880  1.4709
 6199SOL     OW29065   3.561   4.610   3.890  0.0084  0.0021  0.0789
 6199SOL    HW129066   3.561   4.542   3.963  0.6042  1.7656  1.7469
 6199SOL    HW229067   3.475   4.661   3.891 -0.8050 -1.2645 -1.7255
 6200SOL     OW29068   2.034   5.063   1.867  0.4883 -0.0371 -0.0653
 6200SOL    HW129069   2.035   5.088   1.770 -1.4175 -2.3205 -0.7082
 6200SOL    HW229070   1.971   5.122   1.917  2.0292  1.6368 -0.0219
 6201SOL     OW29071   4.237   4.174   2.934 -0.3686 -0.3538 -0.2769
 6201SOL    HW129072   4.324   4.213   2.903 -1.0187  3.0544  1.8866
 6201SOL    HW229073   4.252   4.125   3.020 -0.3229 -1.0411 -0.6789
 6202SOL     OW29074   0.900   0.742   0.699  0.5847 -0.3215  0.1432
 6202SOL    HW129075   0.822   0.744   0.636 -0.7316  0.0837  1.7414
 6202SOL    HW229076   0.956   0.662   0.680  0.1548 -0.2715 -1.4555
 6203SOL     OW29077   8.335   7.209   2.839 -0.2349  0.0647 -0.0921
 6203SOL    HW129078   8.402   7.253   2.898 -0.6300  1.9188 -0.9823
 6203SOL    HW229079   8.260   7.272   2.820 -0.7665 -0.9425 -1.5062
 6204SOL     OW29080   0.700   9.112   4.039  0.0863 -0.1076  0.2641
 6204SOL    HW129081   0.696   9.211   4.026 -0.4086  0.0422  1.5090
 6204SOL    HW229082   0.704   9.067   3.950 -2.7784  0.8835 -0.4106
 6205SOL     OW29083   5.821   8.523   3.377  0.2331  0.0166 -0.2255
 6205SOL    HW129084   5.839   8.433   3.337 -0.2469  0.6198 -1.8382
 6205SOL    HW229085   5.895   8.585   3.354  0.9990 -0.1756  1.6291
 6206SOL     OW29086   8.899   4.391   1.574  0.7401 -0.7534 -0.2714
 6206SOL    HW129087   8.814   4.409   1.526 -0.7032 -1.0290  2.0769
 6206SOL    HW229088   8.976   4.422   1.519 -1.0377  2.5213 -1.0598
 6207SOL     OW29089   3.420   9.993   2.236 -0.0422 -0.4528 -0.7633
 6207SOL    HW129090   3.481  10.059   2.191  0.5596  0.1112  0.8732
 6207SOL    HW229091   3.460   9.902   2.230  0.5864 -0.2076 -0.3861
 6208SOL     OW29092   1.963   2.723   2.253  0.0579 -0.5609  0.5123
 6208SOL    HW129093   2.044   2.744   2.197  0.0080 -0.3315  0.5245
 6208SOL    HW229094   1.916   2.808   2.275  0.1665 -0.6322  1.0339
 6209SOL     OW29095   6.919   0.718   2.928 -0.5588  0.0411 -0.0924
 6209SOL    HW129096   6.869   0.634   2.947 -1.8245  1.2220  2.1071
 6209SOL    HW229097   6.859   0.797   2.943  1.4939  1.4518  1.0757
 6210SOL     OW29098   1.510   3.543   3.855  0.3235  0.2563 -0.6515
 6210SOL    HW129099   1.443   3.577   3.922 -0.1860  0.5438 -1.2975
 6210SOL    HW229100   1.583   3.495   3.903 -0.5323 -0.3776  0.0321
 6211SOL     OW29101   2.347   9.488   1.806  0.1609  0.4050  0.1619
 6211SOL    HW129102   2.280   9.415   1.819  0.7899  0.0449  1.4430
 6211SOL    HW229103   2.350   9.514   1.710 -1.5333  0.1521  0.0229
 6212SOL     OW29104   3.258   2.358   1.003 -0.4894  0.0241 -0.2620
 6212SOL    HW129105   3.186   2.318   1.060  0.5219 -0.5498  0.6441
 6212SOL    HW229106   3.264   2.309   0.917 -3.5625  2.3230 -1.8875
 6213SOL     OW29107   4.136   2.484   0.293 -0.1667 -0.5012 -0.3753
 6213SOL    HW129108   4.141   2.578   0.260  0.1557  0.0047  1.1077
 6213SOL    HW229109   4.227   2.454   0.322 -0.3047 -1.2072 -0.6606
 6214SOL     OW29110   3.373   6.409   1.915 -0.8757 -0.1502 -0.5065
 6214SOL    HW129111   3.298   6.345   1.903 -1.2254  0.3599 -1.0895
 6214SOL    HW229112   3.355   6.468   1.994 -0.6171 -0.6813 -0.0509
 6215SOL     OW29113   9.485   6.091   1.115 -0.2494  0.8459 -0.5054
 6215SOL    HW129114   9.466   6.001   1.155  0.2284  1.0897  0.2811
 6215SOL    HW229115   9.583   6.100   1.098 -0.3699  0.9932 -1.1433
 6216SOL     OW29116   2.988   1.721   1.453  0.7997  0.5035 -0.1807
 6216SOL    HW129117   2.993   1.689   1.548 -1.2441  1.5377  0.3041
 6216SOL    HW229118   3.060   1.789   1.437  1.0631  0.4289  0.6632
 6217SOL     OW29119   3.246   1.342   0.044 -0.2655  0.1128  0.2651
 6217SOL    HW129120   3.213   1.250   0.022  0.6741 -0.4457  1.1621
 6217SOL    HW229121   3.176   1.390   0.098 -1.0696  0.2027 -0.8376
 6218SOL     OW29122   4.262   7.955   1.892 -0.1396  0.3805 -0.2210
 6218SOL    HW129123   4.280   8.054   1.895  1.1601  0.1739 -0.8646
 6218SOL    HW229124   4.164   7.939   1.903 -0.2675  1.6980  0.6941
 6219SOL     OW29125   4.141   0.028   2.332  0.1576  0.3194 -0.5663
 6219SOL    HW129126   4.076  -0.035   2.290 -0.7554  1.6767 -1.2352
 6219SOL    HW229127   4.232  -0.014   2.335 -0.4115 -0.9607 -1.1253
 6220SOL     OW29128   1.884   1.749   2.919 -0.3449 -0.0371 -0.3945
 6220SOL    HW129129   1.897   1.674   2.854  1.7703  0.4723 -0.5987
 6220SOL    HW229130   1.967   1.761   2.973 -0.2867  2.7739 -1.0269
 6221SOL     OW29131   2.184   9.967   0.729  0.3119 -0.3653 -0.1286
 6221SOL    HW129132   2.279   9.961   0.759  0.4741  0.5563 -0.4259
 6221SOL    HW229133   2.163   9.891   0.667  1.7073  0.9434 -2.2928
 6222SOL     OW29134   3.986   1.291   0.436  0.6045  0.5874 -0.2162
 6222SOL    HW129135   3.986   1.385   0.469 -2.5836  0.3010  0.8004
 6222SOL    HW229136   3.927   1.284   0.356 -0.5823 -0.8445  0.7591
 6223SOL     OW29137   1.828   6.382   1.610  0.4226 -0.0726 -0.2807
 6223SOL    HW129138   1.776   6.466   1.623  0.2543  0.0239 -1.5067
 6223SOL    HW229139   1.808   6.318   1.684  0.0892  0.7276  0.3248
 6224SOL     OW29140   3.489   5.609   3.680  0.2505  0.5820  0.3456
 6224SOL    HW129141   3.519   5.672   3.752 -0.7529 -0.1640  1.4493
 6224SOL    HW229142   3.405   5.564   3.709 -0.9167  1.2394 -1.8789
 6225SOL     OW29143   4.039   6.661   2.056  0.2231  0.1093  0.5096
 6225SOL    HW129144   3.995   6.750   2.048 -0.3424 -0.2958 -1.1940
 6225SOL    HW229145   3.969   6.590   2.069  0.5373 -0.2718  0.1491
 6226SOL     OW29146   8.900   3.338   3.920  0.0891  0.0429 -0.2440
 6226SOL    HW129147   8.947   3.265   3.872 -0.0038  0.1326 -0.4705
 6226SOL    HW229148   8.802   3.336   3.897 -0.4342 -1.5697  1.9765
 6227SOL     OW29149   1.243   6.754   1.413  0.3232  0.1292  0.9964
 6227SOL    HW129150   1.281   6.662   1.404  1.4135  0.7103 -0.5296
 6227SOL    HW229151   1.216   6.770   1.508  1.1092 -1.3793  1.4826
 6228SOL     OW29152   3.437   3.113   2.058  0.1618  0.4582  0.3806
 6228SOL    HW129153   3.449   3.048   1.983  0.6170  0.7304  0.2119
 6228SOL    HW229154   3.395   3.067   2.136 -1.2164  0.4064 -0.3859
 6229SOL     OW29155   0.374   6.326   0.731 -0.2615 -0.2089 -0.9960
 6229SOL    HW129156   0.470   6.318   0.761 -0.6561 -1.7806 -0.1045
 6229SOL    HW229157   0.328   6.396   0.786 -0.6550 -2.2294  1.3576
 6230SOL     OW29158   9.744   7.666   1.792  0.0081 -0.1090 -0.2635
 6230SOL    HW129159   9.712   7.749   1.838 -0.1163  0.8849 -2.0822
 6230SOL    HW229160   9.667   7.603   1.778 -0.2142  0.1708 -0.2997
 6231SOL     OW29161   7.613   2.214   0.926 -0.4429 -0.1664 -0.1778
 6231SOL    HW129162   7.519   2.222   0.957 -0.8464 -0.9568 -1.1533
 6231SOL    HW229163   7.623   2.260   0.838  0.0800 -0.1096 -0.0904
 6232SOL     OW29164   9.077   4.178   0.504 -0.3500 -0.1653 -0.4960
 6232SOL    HW129165   9.117   4.239   0.437 -0.1464 -0.7388 -0.9015
 6232SOL    HW229166   9.054   4.091   0.461  1.1169 -1.0641  0.4666
 6233SOL     OW29167   8.652   3.276   3.101 -0.0243 -0.0262  0.3074
 6233SOL    HW129168   8.691   3.345   3.040 -0.4018 -0.8395 -0.8790
 6233SOL    HW229169   8.672   3.185   3.064 -1.2778 -0.4963  0.7902
 6234SOL     OW29170   3.531   3.958   3.930  0.1873 -0.2565 -0.2858
 6234SOL    HW129171   3.466   3.916   3.867  0.4001  0.4094 -0.9712
 6234SOL    HW229172   3.609   3.897   3.942  0.2148 -0.3282 -0.7949
 6235SOL     OW29173   8.605   9.369   2.951  0.0153 -0.8032  0.0655
 6235SOL    HW129174   8.532   9.401   3.012  0.2277  0.0231 -0.1101
 6235SOL    HW229175   8.691   9.411   2.979  0.2428 -0.9932 -0.3612
 6236SOL     OW29176   3.903   5.437   2.701  0.2526 -0.2324  0.1149
 6236SOL    HW129177   3.970   5.418   2.773  0.4367  0.1276  0.0369
 6236SOL    HW229178   3.856   5.352   2.676  0.6292 -0.4720  0.2175
 6237SOL     OW29179   0.201   0.912   2.572  0.5920  0.1759 -0.0880
 6237SOL    HW129180   0.148   0.872   2.647 -1.1020 -2.4266 -2.5897
 6237SOL    HW229181   0.299   0.902   2.591  0.1944  0.0335  1.9840
 6238SOL     OW29182   2.308   3.619   1.411 -0.0160 -0.2068 -0.0254
 6238SOL    HW129183   2.243   3.603   1.485  1.8424 -1.1409  1.4517
 6238SOL    HW229184   2.287   3.559   1.334 -3.4969  2.5037 -1.3321
 6239SOL     OW29185   3.675   7.465   3.759 -0.0317  0.0050  0.8801
 6239SOL    HW129186   3.689   7.375   3.800 -0.1649 -2.9444 -4.9733
 6239SOL    HW229187   3.760   7.518   3.766  0.4323 -0.9842  3.2909
 6240SOL     OW29188   2.397   4.220   2.141  0.3362 -0.3474 -0.2157
 6240SOL    HW129189   2.486   4.190   2.107 -0.5843 -3.8686  0.3351
 6240SOL    HW229190   2.326   4.195   2.075 -0.4785  0.8296  0.1876
 6241SOL     OW29191   8.727   1.642   3.803 -0.6292  0.2334  0.4676
 6241SOL    HW129192   8.733   1.565   3.740 -0.8668  1.0908 -0.6305
 6241SOL    HW229193   8.683   1.719   3.756  1.7269  1.8119  0.7865
 6242SOL     OW29194   0.449   2.298   2.251 -0.5921 -0.1858  0.1878
 6242SOL    HW129195   0.519   2.263   2.189 -0.8322  0.4164 -0.4364
 6242SOL    HW229196   0.484   2.300   2.345  0.3443  0.4410 -0.1719
 6243SOL     OW29197   8.799   2.082   1.241  0.3213 -0.7856 -0.5775
 6243SOL    HW129198   8.895   2.096   1.215  0.1120  0.0326 -0.8942
 6243SOL    HW229199   8.796   2.042   1.333  0.9737 -1.0692 -0.6723
 6244SOL     OW29200   7.419   9.277   2.135  0.4723 -0.0057 -0.5787
 6244SOL    HW129201   7.484   9.248   2.205 -2.2921  0.1583  2.1406
 6244SOL    HW229202   7.425   9.376   2.122 -0.0038  0.1804  0.5309
 6245SOL     OW29203   2.922   4.840   3.340 -0.5390  1.0121 -0.6114
 6245SOL    HW129204   3.000   4.787   3.374 -0.5335  1.0110 -0.6248
 6245SOL    HW229205   2.887   4.898   3.413 -1.1059  0.3356 -0.3450
 6246SOL     OW29206   2.464   8.197   3.489 -0.6122  0.2017  0.6228
 6246SOL    HW129207   2.368   8.209   3.512 -0.9048  3.2083 -1.8690
 6246SOL    HW229208   2.521   8.217   3.569 -1.9616  0.4566  1.5327
 6247SOL     OW29209   8.050   6.972   2.541  0.1250 -0.3951 -0.5380
 6247SOL    HW129210   8.025   6.911   2.466  0.4838 -0.9322 -0.2289
 6247SOL    HW229211   7.973   6.979   2.604  0.4735 -1.4566  0.0249
 6248SOL     OW29212   7.943   8.720   2.009 -0.2646 -0.6111  0.6536
 6248SOL    HW129213   7.942   8.686   1.915 -0.5899  0.6330  0.2001
 6248SOL    HW229214   7.916   8.646   2.071 -0.7617 -1.2323 -0.2865
 6249SOL     OW29215   1.636   8.523   3.900 -0.0627 -0.1349  0.0604
 6249SOL    HW129216   1.597   8.433   3.920  1.9373 -1.2666 -0.9626
 6249SOL    HW229217   1.569   8.594   3.921 -1.4167 -1.8121  1.5940
 6250SOL     OW29218   7.466   9.146   3.371  0.9863  0.2463 -0.0345
 6250SOL    HW129219   7.455   9.209   3.294  1.9254  0.1950 -0.2165
 6250SOL    HW229220   7.457   9.196   3.457 -0.4871  0.2312 -0.1634
 6251SOL     OW29221   0.448   3.818   3.910  0.2460 -0.6754  0.0076
 6251SOL    HW129222   0.357   3.800   3.872  0.4496 -0.5740 -0.5347
 6251SOL    HW229223   0.514   3.752   3.872  0.3283 -0.9876  0.6847
 6252SOL     OW29224   3.319   0.192   0.667 -0.2103 -0.2976  0.3184
 6252SOL    HW129225   3.259   0.237   0.601 -0.6636  0.5227  1.2778
 6252SOL    HW229226   3.330   0.250   0.747 -0.0875 -1.5043  1.1951
 6253SOL     OW29227   8.680   9.740   2.954 -0.2763  0.1766 -0.0135
 6253SOL    HW129228   8.630   9.743   2.867 -2.1695 -0.1985  1.0250
 6253SOL    HW229229   8.746   9.665   2.952 -0.4073  0.0843 -1.0883
 6254SOL     OW29230   9.554   0.198   1.839 -0.3952 -0.5116  0.2786
 6254SOL    HW129231   9.616   0.175   1.764  0.6113  0.7855  0.6878
 6254SOL    HW229232   9.510   0.285   1.819 -0.6852 -0.5289  0.8445
 6255SOL     OW29233   9.405   2.921   2.512 -0.7849  0.5100  0.3805
 6255SOL    HW129234   9.470   2.982   2.466  1.9829 -0.6739  2.5659
 6255SOL    HW229235   9.429   2.826   2.492 -2.8177  0.0471  0.0005
 6256SOL     OW29236   8.555   0.582   2.431 -0.0889  0.1798  0.0406
 6256SOL    HW129237   8.457   0.601   2.438 -0.5081 -0.7645 -2.5775
 6256SOL    HW229238   8.584   0.525   2.507 -1.7538 -0.2016  0.4050
 6257SOL     OW29239   9.485   1.178   3.982 -0.3393 -0.1946 -0.1966
 6257SOL    HW129240   9.525   1.122   4.054  0.5747 -0.0159 -0.5679
 6257SOL    HW229241   9.557   1.220   3.927 -1.0247  0.1485 -0.8523
 6258SOL     OW29242   5.304   9.096   2.119 -0.7653 -0.3215 -0.6838
 6258SOL    HW129243   5.395   9.055   2.117 -1.2720 -1.6455  1.7702
 6258SOL    HW229244   5.242   9.042   2.061 -0.0798  0.4353 -2.1532
 6259SOL     OW29245   2.346   0.484   2.889 -0.3506  0.4563  0.3900
 6259SOL    HW129246   2.275   0.552   2.905 -1.0763  0.2904 -2.0155
 6259SOL    HW229247   2.420   0.524   2.836  0.3512  0.0175  1.0198
 6260SOL     OW29248   1.924   6.350   1.361  0.7514 -0.1030 -0.1097
 6260SOL    HW129249   1.902   6.439   1.320  1.1618  0.4926  0.9345
 6260SOL    HW229250   1.894   6.349   1.456 -2.7694 -2.4981 -1.1508
 6261SOL     OW29251   0.717   5.110   2.245 -0.1065 -0.3311  0.4984
 6261SOL    HW129252   0.666   5.196   2.240 -2.5207 -1.7438 -0.3752
 6261SOL    HW229253   0.775   5.101   2.163 -1.4010 -0.4475 -0.4272
 6262SOL     OW29254   4.759   2.288   2.579 -0.3226  0.2622 -0.8388
 6262SOL    HW129255   4.768   2.189   2.593 -0.1063  0.0418 -2.5014
 6262SOL    HW229256   4.849   2.326   2.555 -0.3794  0.8939 -0.0656
 6263SOL     OW29257   2.023   0.192   1.534 -0.0056  0.3635 -0.2068
 6263SOL    HW129258   2.068   0.276   1.505 -1.5723  1.6900  1.0431
 6263SOL    HW229259   2.087   0.136   1.586  0.6825  1.4649  0.1656
 6264SOL     OW29260   5.457   7.563   3.303  0.4655  0.5177  0.5126
 6264SOL    HW129261   5.474   7.632   3.374  0.5533  0.1700  0.8257
 6264SOL    HW229262   5.379   7.592   3.247  1.6351  1.7727 -0.5051
 6265SOL     OW29263   4.322   7.366   2.643 -0.5284 -0.0979 -0.7947
 6265SOL    HW129264   4.294   7.358   2.738 -1.9309 -0.1846 -1.1883
 6265SOL    HW229265   4.316   7.461   2.614  2.6631  0.3875 -0.0180
 6266SOL     OW29266   2.938   2.475   3.601  0.2978  0.9274  0.4527
 6266SOL    HW129267   2.899   2.397   3.552 -0.6513  1.2756  0.6411
 6266SOL    HW229268   3.004   2.443   3.669 -1.4469  0.1528  1.8046
 6267SOL     OW29269   9.782   9.290   1.391 -0.1880 -0.1258  0.3995
 6267SOL    HW129270   9.795   9.223   1.317  1.1444  0.1484  0.3820
 6267SOL    HW229271   9.712   9.355   1.364 -0.6324 -0.7947 -0.0904
 6268SOL     OW29272   2.295   3.409   2.806 -0.3518  0.1253 -0.1311
 6268SOL    HW129273   2.375   3.457   2.769 -0.0805 -0.1076  0.1488
 6268SOL    HW229274   2.278   3.327   2.751  0.1408 -0.2998  0.3473
 6269SOL     OW29275   3.597   1.314   2.274 -0.3063 -0.2676  0.1122
 6269SOL    HW129276   3.564   1.333   2.366 -0.9740 -1.8294  0.2039
 6269SOL    HW229277   3.691   1.348   2.265  0.3173 -1.4686  1.8553
 6270SOL     OW29278   0.450   8.799   0.853 -0.0630  0.3574  0.1518
 6270SOL    HW129279   0.384   8.863   0.816 -0.5156  0.2749  0.7970
 6270SOL    HW229280   0.426   8.779   0.949  1.8906  1.6704  0.9437
 6271SOL     OW29281   4.430   0.433   3.938 -0.3380 -0.8295 -0.1509
 6271SOL    HW129282   4.338   0.413   3.971  0.3545 -2.6408  0.7427
 6271SOL    HW229283   4.493   0.439   4.015  0.8079 -2.4810 -0.9331
 6272SOL     OW29284   4.842   9.831   0.175  0.1407  0.3104  0.1006
 6272SOL    HW129285   4.837   9.851   0.273  0.2689 -1.0051  0.3908
 6272SOL    HW229286   4.844   9.732   0.162 -0.5040  0.4671 -1.2667
 6273SOL     OW29287   9.403   8.297   3.429 -0.2431 -0.7185  0.0602
 6273SOL    HW129288   9.458   8.281   3.510 -0.3997 -0.9975  0.1130
 6273SOL    HW229289   9.349   8.381   3.440 -0.3972 -0.8540  0.3131
 6274SOL     OW29290   6.459   9.873   2.140  0.2582 -0.1311 -0.1262
 6274SOL    HW129291   6.558   9.882   2.148  0.2733 -1.5419  1.5925
 6274SOL    HW229292   6.424   9.815   2.214 -1.8865  0.5481 -0.5502
 6275SOL     OW29293   4.260   8.402   2.364  0.4799  0.1433 -0.2967
 6275SOL    HW129294   4.187   8.373   2.426 -0.6340 -0.5865 -1.9007
 6275SOL    HW229295   4.219   8.440   2.281  1.8669 -1.9091 -1.9797
 6276SOL     OW29296   7.788   5.246   2.892  0.2656 -0.5831 -0.2948
 6276SOL    HW129297   7.791   5.148   2.871 -0.1659 -0.5573 -0.4840
 6276SOL    HW229298   7.863   5.269   2.954 -1.5460 -1.6994  2.4181
 6277SOL     OW29299   8.273   0.931   0.231  0.3578  0.3741  0.2278
 6277SOL    HW129300   8.331   0.969   0.159  0.0187 -0.0993 -0.2947
 6277SOL    HW229301   8.186   0.980   0.233  0.8211  1.1664  1.0939
 6278SOL     OW29302   2.461   9.940   2.195  0.1546 -0.6842 -0.3748
 6278SOL    HW129303   2.547   9.984   2.221  0.8331 -1.2354 -1.6047
 6278SOL    HW229304   2.460   9.847   2.230  0.1492 -0.7399 -0.5224
 6279SOL     OW29305   2.559   6.753   2.898  0.4947 -1.0649  0.9557
 6279SOL    HW129306   2.605   6.828   2.850 -0.6538 -0.5978  0.5679
 6279SOL    HW229307   2.462   6.775   2.908  0.2080 -2.3725  1.1005
 6280SOL     OW29308   0.155   9.200   3.252 -0.1076 -0.2747  0.2363
 6280SOL    HW129309   0.234   9.138   3.256  0.3497  0.3012  0.1943
 6280SOL    HW229310   0.097   9.175   3.175 -0.3068 -1.1085  0.6490
 6281SOL     OW29311   1.037   1.055   2.094 -0.1232  0.3206  0.1716
 6281SOL    HW129312   1.087   1.071   2.179  0.0739 -0.6885  0.2484
 6281SOL    HW229313   1.101   1.025   2.023 -0.3626  0.6895 -0.2042
 6282SOL     OW29314   8.597   2.120   1.818 -0.4557  0.2850 -0.5015
 6282SOL    HW129315   8.562   2.214   1.813 -0.3441  0.3395 -0.2907
 6282SOL    HW229316   8.591   2.077   1.728 -5.4371 -1.3193  0.4304
 6283SOL     OW29317   7.837   4.037   0.129 -0.1932  0.2183  0.6980
 6283SOL    HW129318   7.934   4.024   0.149 -0.1874  0.1774  0.6426
 6283SOL    HW229319   7.826   4.058   0.032 -0.2724 -0.1362  0.6286
 6284SOL     OW29320   4.615   9.605   2.819 -0.3021 -0.0750 -0.2642
 6284SOL    HW129321   4.581   9.688   2.864 -0.5715 -0.5146  0.3500
 6284SOL    HW229322   4.705   9.624   2.778  0.3318  0.1122  1.1805
 6285SOL     OW29323   2.814   5.517   3.693  0.0103 -0.0711  0.2567
 6285SOL    HW129324   2.847   5.468   3.774  0.5195  0.6632  0.4925
 6285SOL    HW229325   2.719   5.490   3.673  1.0686 -3.0401 -1.0674
 6286SOL     OW29326   2.568   6.037   2.644  0.8622  0.0904  0.0431
 6286SOL    HW129327   2.497   6.023   2.713  1.1986 -2.7273 -0.1089
 6286SOL    HW229328   2.657   6.041   2.688  0.7157  3.0490  0.1760
 6287SOL     OW29329   8.150   4.039   1.685 -0.3376 -0.4421 -0.4433
 6287SOL    HW129330   8.141   3.958   1.744 -2.1497  0.8376  1.1187
 6287SOL    HW229331   8.221   4.100   1.722 -0.6177 -0.2139 -0.2793
 6288SOL     OW29332   6.076   7.951   3.502  0.0961 -0.9342  0.4332
 6288SOL    HW129333   6.166   7.922   3.535 -0.0280  0.4107  1.9781
 6288SOL    HW229334   6.062   8.048   3.521 -1.4634 -0.9876 -0.3082
 6289SOL     OW29335   0.191   6.966   1.695  0.2848 -0.2636 -0.5268
 6289SOL    HW129336   0.154   7.036   1.634 -2.1856 -1.6624 -0.6968
 6289SOL    HW229337   0.257   7.007   1.758  0.0412  1.8888 -1.6585
 6290SOL     OW29338   8.056   0.498   1.266 -0.2622 -0.3778  0.3382
 6290SOL    HW129339   8.062   0.410   1.219 -0.2655 -0.4023  0.3842
 6290SOL    HW229340   7.972   0.545   1.238 -0.0674 -0.2171  0.0156
 6291SOL     OW29341   9.671   1.279   3.756 -0.1637 -0.3016  0.0996
 6291SOL    HW129342   9.739   1.213   3.724  0.4314  0.7812 -0.8865
 6291SOL    HW229343   9.714   1.367   3.772 -1.5897  0.7901 -1.9089
 6292SOL     OW29344   7.953   7.197   3.415  0.1354 -0.0007 -0.0799
 6292SOL    HW129345   7.981   7.111   3.457  0.7438  0.8077  1.2227
 6292SOL    HW229346   8.009   7.216   3.335  0.6336 -0.3564  0.1831
 6293SOL     OW29347   9.551   4.866   2.858  0.7689  0.4598 -0.0283
 6293SOL    HW129348   9.575   4.897   2.950 -1.3399 -0.4447  0.8497
 6293SOL    HW229349   9.607   4.787   2.834 -0.0106 -0.4745  1.2372
 6294SOL     OW29350   2.302   1.372   2.704  0.0043  0.1794 -0.3749
 6294SOL    HW129351   2.240   1.336   2.635  2.5465  2.0117 -3.7566
 6294SOL    HW229352   2.380   1.310   2.716 -0.3521 -0.0622  0.7460
 6295SOL     OW29353   0.445   6.026   2.092  0.7809 -0.9800  0.1514
 6295SOL    HW129354   0.520   6.085   2.063 -0.3991  0.5861  0.1961
 6295SOL    HW229355   0.402   5.984   2.012  2.3930 -2.7909  0.1950
 6296SOL     OW29356   4.076   3.883   3.555 -0.6314  0.0374 -0.0284
 6296SOL    HW129357   4.150   3.934   3.599  0.2153 -0.3017 -1.0184
 6296SOL    HW229358   3.988   3.922   3.581 -0.0109  1.9617 -0.6819
 6297SOL     OW29359   9.649   8.662   0.600 -0.3213  0.2178 -0.5266
 6297SOL    HW129360   9.577   8.688   0.664  2.8528  0.5697  3.1195
 6297SOL    HW229361   9.657   8.731   0.528 -2.6136  0.9060 -0.1522
 6298SOL     OW29362   5.061   9.424   1.767  0.2660 -0.0583  0.4662
 6298SOL    HW129363   5.070   9.405   1.865  0.2674  0.6713  0.6113
 6298SOL    HW229364   5.104   9.512   1.746 -1.4941  0.7651  0.1846
 6299SOL     OW29365   7.664   6.787   3.192  0.2385  0.4536 -0.2534
 6299SOL    HW129366   7.750   6.836   3.201  0.6533 -0.2958 -0.0688
 6299SOL    HW229367   7.676   6.692   3.221 -1.0323  0.7341  1.2333
 6300SOL     OW29368   3.713   0.055   2.167 -0.4840 -0.2544  0.5330
 6300SOL    HW129369   3.780   0.075   2.238  0.0966 -0.3361  0.0148
 6300SOL    HW229370   3.742  -0.026   2.115 -0.6425  0.1001 -0.1153
 6301SOL     OW29371   7.522   0.043   3.583 -0.1067  0.0823  0.1622
 6301SOL    HW129372   7.594   0.021   3.649 -0.7332  1.0299  1.1718
 6301SOL    HW229373   7.540  -0.005   3.497  0.9720 -0.7885  0.8622
 6302SOL     OW29374   3.679   1.730   2.655 -0.0523 -0.2696 -0.3030
 6302SOL    HW129375   3.669   1.763   2.749  0.2574 -0.4144 -0.2188
 6302SOL    HW229376   3.590   1.728   2.611 -0.4796 -2.0920  0.6249
 6303SOL     OW29377   2.454   2.191   0.949  0.2524 -0.7506  0.8663
 6303SOL    HW129378   2.523   2.201   1.021 -0.3828  0.1033  1.3576
 6303SOL    HW229379   2.449   2.275   0.895 -2.1205  0.1315  2.3709
 6304SOL     OW29380   7.608   2.642   3.891  0.1747 -0.5570 -0.4832
 6304SOL    HW129381   7.705   2.644   3.868  0.4687 -0.8753  0.6751
 6304SOL    HW229382   7.590   2.567   3.954 -0.8379 -0.5370 -0.7364
 6305SOL     OW29383   9.296   8.531   3.740 -0.2932  0.0031 -0.1009
 6305SOL    HW129384   9.202   8.528   3.773 -0.2304 -1.8943 -0.0171
 6305SOL    HW229385   9.350   8.593   3.798 -1.3717  0.7189  0.1435
 6306SOL     OW29386   8.398   4.851   3.779  0.4757 -0.0868 -0.1993
 6306SOL    HW129387   8.403   4.919   3.852 -0.2003 -0.6779  0.4127
 6306SOL    HW229388   8.483   4.853   3.726  1.1544  0.0619  0.8680
 6307SOL     OW29389   4.373   2.848   2.911 -0.0477 -0.1760 -0.5074
 6307SOL    HW129390   4.448   2.909   2.887  0.4895 -0.5761  0.1254
 6307SOL    HW229391   4.324   2.820   2.829  1.4857 -1.1699 -1.1033
 6308SOL     OW29392   2.791   2.683   1.870 -0.3409 -0.0282 -0.5098
 6308SOL    HW129393   2.815   2.757   1.933  3.5838 -2.4088  0.9886
 6308SOL    HW229394   2.729   2.619   1.917 -1.4345  0.7553 -0.8453
 6309SOL     OW29395   9.461   2.130   2.578 -0.1012  0.1814  0.0956
 6309SOL    HW129396   9.446   2.202   2.510  1.4764 -0.4117 -0.9030
 6309SOL    HW229397   9.503   2.050   2.534 -0.6796 -0.8861  1.4321
 6310SOL     OW29398   1.414   4.895   2.503  0.1743  0.8408  0.0371
 6310SOL    HW129399   1.321   4.928   2.514 -0.0786 -0.1453  1.0110
 6310SOL    HW229400   1.423   4.806   2.548  1.5760  0.9187 -0.0667
 6311SOL     OW29401   0.618   2.326   0.318  0.2499 -0.3249  0.6921
 6311SOL    HW129402   0.590   2.386   0.244  1.8807 -1.2677 -0.7201
 6311SOL    HW229403   0.620   2.378   0.404 -0.5303  1.0602 -0.1105
 6312SOL     OW29404   2.947   9.344   1.439  0.0620 -0.1852  0.2129
 6312SOL    HW129405   2.940   9.300   1.529  0.1844  2.5394  1.5971
 6312SOL    HW229406   3.039   9.382   1.427 -0.3148  0.5040 -0.5440
 6313SOL     OW29407   1.714   5.286   3.577 -0.3329  0.7608  0.2557
 6313SOL    HW129408   1.705   5.367   3.635  0.2995  1.2739 -0.3513
 6313SOL    HW229409   1.810   5.259   3.572 -0.5924 -0.3132  0.8274
 6314SOL     OW29410   3.729   3.109   3.680 -0.3121  0.0587  0.4251
 6314SOL    HW129411   3.747   3.203   3.651  0.2853  0.1350  1.0296
 6314SOL    HW229412   3.632   3.088   3.667 -0.2435  0.4148 -0.6818
 6315SOL     OW29413   3.847   8.168   1.335  0.4848  0.1355 -0.2484
 6315SOL    HW129414   3.934   8.119   1.330  0.0103 -0.7213 -0.1973
 6315SOL    HW229415   3.778   8.120   1.282  0.3221  1.4376 -1.2444
 6316SOL     OW29416   2.364   7.982   2.562  0.6127  0.4225 -0.0917
 6316SOL    HW129417   2.450   7.931   2.564  0.5851  0.3558 -0.5929
 6316SOL    HW229418   2.310   7.960   2.643  0.7345 -0.1127 -0.1542
 6317SOL     OW29419   4.401   7.757   1.516  0.1876 -0.0589 -0.5348
 6317SOL    HW129420   4.379   7.732   1.610 -1.6257  0.3444 -0.8289
 6317SOL    HW229421   4.466   7.833   1.516  0.6215 -0.4157  0.3731
 6318SOL     OW29422   0.918   4.299   0.568 -0.0605  0.1854  0.3383
 6318SOL    HW129423   1.003   4.322   0.521  1.5779 -3.4327  1.3710
 6318SOL    HW229424   0.912   4.350   0.654  1.5752 -0.3056  0.7537
 6319SOL     OW29425   3.002   1.610   0.373 -0.1590  0.2363 -0.2488
 6319SOL    HW129426   3.037   1.528   0.417 -1.1645 -0.9497 -1.6063
 6319SOL    HW229427   2.902   1.607   0.370 -0.1262  0.5537 -2.0915
 6320SOL     OW29428   1.701   4.537   0.609 -0.5177 -0.4805 -0.1470
 6320SOL    HW129429   1.755   4.614   0.574 -1.1903  0.4665  0.8243
 6320SOL    HW229430   1.620   4.573   0.657 -0.6288 -1.7873  0.6641
 6321SOL     OW29431   4.737   7.592   1.843  0.4240  0.1672 -0.3611
 6321SOL    HW129432   4.809   7.524   1.857  0.1239 -0.0173  0.3138
 6321SOL    HW229433   4.664   7.577   1.910 -0.5438 -0.0523 -1.4393
 6322SOL     OW29434   0.079   2.393   0.447  0.1268  0.5220  0.3838
 6322SOL    HW129435   0.012   2.326   0.477  0.4509 -0.0706 -0.1812
 6322SOL    HW229436   0.114   2.366   0.357  1.5820  0.4719  0.9502
 6323SOL     OW29437   1.195   0.521   2.245  0.2730  0.1957 -0.4359
 6323SOL    HW129438   1.250   0.601   2.269 -1.2869  0.7458  1.4286
 6323SOL    HW229439   1.182   0.464   2.327 -1.4075 -0.2348 -0.9795
 6324SOL     OW29440   2.141   1.172   0.218  0.0061  0.6384 -0.1549
 6324SOL    HW129441   2.151   1.228   0.301 -0.3212  0.0730  0.2711
 6324SOL    HW229442   2.047   1.140   0.211  0.4092 -0.6004  0.0790
 6325SOL     OW29443   3.875   0.201   2.328  0.0692 -0.1717 -0.4910
 6325SOL    HW129444   3.965   0.162   2.311  0.3173  0.4228 -0.5640
 6325SOL    HW229445   3.885   0.295   2.363 -0.4747 -0.6724  1.0708
 6326SOL     OW29446   0.621   7.920   2.618  0.1139  0.2521  0.1680
 6326SOL    HW129447   0.578   7.877   2.539  1.8896  1.1366 -1.3261
 6326SOL    HW229448   0.583   7.881   2.702 -0.1004 -2.4181 -1.1158
 6327SOL     OW29449   8.950   1.614   3.133  0.1542 -0.2829 -0.1669
 6327SOL    HW129450   9.019   1.666   3.081  1.3781 -0.9859  0.7217
 6327SOL    HW229451   8.967   1.625   3.231 -2.5558  1.5981  0.1476
 6328SOL     OW29452   0.530   7.314   2.002  0.1017 -0.4176 -0.6381
 6328SOL    HW129453   0.568   7.289   2.091 -0.2741  0.0162 -0.3530
 6328SOL    HW229454   0.561   7.406   1.977 -1.0679  0.0998 -0.2226
 6329SOL     OW29455   9.994   8.921   0.808  0.0718  0.4963 -0.3772
 6329SOL    HW129456  10.063   8.925   0.880  1.0331  0.3428 -1.2754
 6329SOL    HW229457   9.972   8.825   0.787 -0.0522  0.5348 -0.4346
 6330SOL     OW29458   2.187   5.122   0.059  0.3170  0.1897  0.5207
 6330SOL    HW129459   2.263   5.175   0.096 -0.3960  1.6611 -0.1012
 6330SOL    HW229460   2.113   5.119   0.127  0.9879 -1.4202  1.2114
 6331SOL     OW29461   0.583   0.887   2.159 -0.1182 -0.2085 -0.0586
 6331SOL    HW129462   0.533   0.811   2.201  0.1341 -0.2428  0.1809
 6331SOL    HW229463   0.565   0.970   2.211 -0.4489 -0.0916 -0.3621
 6332SOL     OW29464   9.294   3.150   3.635  0.5766  0.4146  0.4903
 6332SOL    HW129465   9.225   3.081   3.610 -0.5770  1.2322  1.3448
 6332SOL    HW229466   9.383   3.106   3.642  0.0036 -0.8443  0.2164
 6333SOL     OW29467   0.247   1.398   1.570 -0.4683  0.1613 -0.2637
 6333SOL    HW129468   0.235   1.396   1.471 -0.5488 -2.7589 -0.2309
 6333SOL    HW229469   0.344   1.392   1.592 -0.6126 -2.2552 -0.1565
 6334SOL     OW29470   5.698   8.598   2.210  0.2922 -0.2478 -0.1615
 6334SOL    HW129471   5.682   8.538   2.289 -1.3816  1.4553  0.8428
 6334SOL    HW229472   5.754   8.550   2.143 -1.8907 -3.3477  0.1099
 6335SOL     OW29473   8.146   8.060   2.767  0.5022 -0.4198 -0.1055
 6335SOL    HW129474   8.211   7.983   2.767  0.0912 -0.7815  1.5639
 6335SOL    HW229475   8.093   8.058   2.851  0.0355  1.3321 -0.3549
 6336SOL     OW29476   3.345   9.908   2.915  0.2480 -0.4039 -0.2170
 6336SOL    HW129477   3.313   9.992   2.958 -1.0344 -0.5544 -0.8613
 6336SOL    HW229478   3.314   9.905   2.820  0.5276 -1.4589 -0.2845
 6337SOL     OW29479   9.302   3.877   0.578 -0.5171 -0.0522  0.3353
 6337SOL    HW129480   9.225   3.925   0.620 -0.5750  0.3407 -0.2247
 6337SOL    HW229481   9.386   3.927   0.596 -0.4717 -0.1619  0.4283
 6338SOL     OW29482   2.780   4.891   3.550 -0.3005 -0.1222 -0.2564
 6338SOL    HW129483   2.843   4.819   3.580 -0.2145  0.3682  0.7607
 6338SOL    HW229484   2.718   4.914   3.625 -1.1956 -0.0644 -1.0048
 6339SOL     OW29485   7.816   1.322   3.922  0.4203  0.3556  0.2165
 6339SOL    HW129486   7.815   1.362   3.831  1.5914  0.2420  0.1510
 6339SOL    HW229487   7.859   1.385   3.987  1.2940 -0.3349  0.3196
 6340SOL     OW29488   0.652   7.490   1.623  0.3894  0.2749  0.3784
 6340SOL    HW129489   0.748   7.490   1.596  0.7840 -0.3414  1.7709
 6340SOL    HW229490   0.629   7.578   1.665  0.1927  0.6234 -0.4411
 6341SOL     OW29491   1.285   4.837   3.431 -0.2174  0.5034 -0.3092
 6341SOL    HW129492   1.252   4.921   3.474  1.1068  1.4664 -1.1580
 6341SOL    HW229493   1.382   4.847   3.408 -0.0105 -1.3044 -0.3047
 6342SOL     OW29494   2.958   9.701   2.761 -0.5443  0.0363  0.0491
 6342SOL    HW129495   2.956   9.700   2.861 -2.4453  1.7322  0.0516
 6342SOL    HW229496   3.053   9.710   2.730  0.0544 -0.4259  1.6940
 6343SOL     OW29497   0.843   5.793   1.567  0.1079  0.1581  0.5816
 6343SOL    HW129498   0.832   5.769   1.470  1.3286 -0.2197  0.5322
 6343SOL    HW229499   0.761   5.766   1.617 -1.0854  1.5052 -0.5583
 6344SOL     OW29500   4.585   6.999   3.141  0.2978 -0.3871  0.2384
 6344SOL    HW129501   4.683   7.003   3.117  0.6689 -0.8925  1.6110
 6344SOL    HW229502   4.568   6.916   3.195 -0.6420  0.3798  1.1305
 6345SOL     OW29503   9.874   6.209   3.255 -0.0177  0.7592 -0.4064
 6345SOL    HW129504   9.883   6.136   3.323 -1.8834  0.0318 -0.9156
 6345SOL    HW229505   9.882   6.298   3.301 -2.7955  0.3033  1.0757
 6346SOL     OW29506   2.818   6.208   3.482 -0.8112  0.0983  0.6137
 6346SOL    HW129507   2.779   6.273   3.417 -0.2834  0.6922  0.8844
 6346SOL    HW229508   2.751   6.187   3.553 -1.5472 -0.8866 -0.3429
 6347SOL     OW29509   4.190   0.794   3.020 -0.2794 -0.2393  0.1276
 6347SOL    HW129510   4.099   0.822   2.988 -0.5260 -0.3377  0.7355
 6347SOL    HW229511   4.255   0.801   2.944 -1.0285 -1.2808 -0.6406
 6348SOL     OW29512   2.840   9.785   1.602 -0.6387 -0.5840  0.4786
 6348SOL    HW129513   2.829   9.839   1.518  0.4743 -1.2667 -0.1069
 6348SOL    HW229514   2.898   9.835   1.666 -1.3211 -0.1567  0.7749
 6349SOL     OW29515   1.377   8.516   0.376  0.4957  0.7051  0.9220
 6349SOL    HW129516   1.388   8.427   0.332  0.5420  0.7305  0.8816
 6349SOL    HW229517   1.287   8.521   0.419  0.3002  0.8259  0.5008
 6350SOL     OW29518   1.772   4.061   3.660 -0.3277  0.4501  0.9646
 6350SOL    HW129519   1.684   4.016   3.644 -0.3091  0.6151  0.3608
 6350SOL    HW229520   1.808   4.035   3.749 -1.2973  0.8962  1.4902
 6351SOL     OW29521   9.177   6.702   2.005  0.2794 -0.2673  1.0559
 6351SOL    HW129522   9.205   6.741   1.917  0.3083 -0.6444  0.8988
 6351SOL    HW229523   9.163   6.776   2.071  0.3973  0.0066  0.7748
 6352SOL     OW29524   4.408   0.348   1.644  0.3131 -0.2312  0.4527
 6352SOL    HW129525   4.327   0.312   1.597  0.4012  1.8039 -1.3544
 6352SOL    HW229526   4.481   0.280   1.641 -0.4537 -1.0351 -0.3291
 6353SOL     OW29527   8.867   7.728   0.274  0.3211 -0.2524  0.1166
 6353SOL    HW129528   8.779   7.719   0.322  0.2108 -0.0587 -0.0448
 6353SOL    HW229529   8.850   7.758   0.180  0.5936  0.2673  0.2317
 6354SOL     OW29530   0.483   4.980   3.633 -0.6181  0.4308 -0.5863
 6354SOL    HW129531   0.418   5.056   3.630 -0.6600  0.4087 -0.2907
 6354SOL    HW229532   0.433   4.894   3.622 -0.4777  0.4894 -1.6930
 6355SOL     OW29533   4.296   9.715   1.350 -0.1318 -0.1010 -0.0697
 6355SOL    HW129534   4.250   9.638   1.307 -0.0580 -0.6258  0.7729
 6355SOL    HW229535   4.285   9.797   1.294  0.1774 -0.8306 -1.1913
 6356SOL     OW29536   4.945   0.402   3.496  0.4915  0.0066  0.5608
 6356SOL    HW129537   4.958   0.406   3.595  0.7152 -2.2189  0.6421
 6356SOL    HW229538   4.852   0.371   3.476 -0.0950  2.0412  0.0469
 6357SOL     OW29539   4.280   9.754   2.138  0.2058 -0.2266 -0.2273
 6357SOL    HW129540   4.190   9.759   2.182  0.6608 -1.1596  0.8210
 6357SOL    HW229541   4.337   9.687   2.186  0.3874 -1.9965 -2.8707
 6358SOL     OW29542   0.939   4.203   2.300 -0.1428  0.0343  0.3066
 6358SOL    HW129543   0.998   4.284   2.302 -0.3896  0.2191  0.2458
 6358SOL    HW229544   0.875   4.208   2.377 -1.4776  0.9055 -0.8283
 6359SOL     OW29545   2.769   8.357   3.466 -0.3679  0.1628  0.6277
 6359SOL    HW129546   2.843   8.403   3.516  0.1566 -1.4291  1.3253
 6359SOL    HW229547   2.738   8.277   3.517 -2.8644  1.0145  0.5391
 6360SOL     OW29548   2.717   8.183   0.103  0.6265  0.3897 -0.0505
 6360SOL    HW129549   2.663   8.137   0.174  1.4112 -0.0221  0.2897
 6360SOL    HW229550   2.656   8.238   0.046 -0.2835 -0.7656 -0.2277
 6361SOL     OW29551   2.096   1.733   3.123  0.1868 -0.0993  0.2244
 6361SOL    HW129552   2.080   1.793   3.202  1.5469  1.0500 -0.3523
 6361SOL    HW229553   2.193   1.732   3.101 -0.4014  1.2059 -2.6850
 6362SOL     OW29554   4.226   0.680   4.039 -0.2799 -0.2430 -0.0930
 6362SOL    HW129555   4.246   0.631   3.955 -2.4305  1.0671 -1.4290
 6362SOL    HW229556   4.300   0.666   4.105  1.6982 -0.8659 -2.3757
 6363SOL     OW29557   9.415   9.995   0.955  0.0944  0.2101  0.2298
 6363SOL    HW129558   9.399   9.967   0.860 -0.6432 -0.4683  0.5501
 6363SOL    HW229559   9.487   9.937   0.994 -1.8499 -1.6850  1.0796
 6364SOL     OW29560   2.523   8.845   3.546  0.1250 -0.1463 -0.1008
 6364SOL    HW129561   2.592   8.914   3.524  0.1967 -0.4258 -0.7407
 6364SOL    HW229562   2.547   8.758   3.503 -0.4176 -0.3528  0.0080
 6365SOL     OW29563   9.409   8.320   1.010 -0.6888  0.9482  0.1843
 6365SOL    HW129564   9.373   8.324   1.104 -3.5172 -1.7412 -0.6855
 6365SOL    HW229565   9.502   8.283   1.012 -1.0480  0.0572  1.8974
 6366SOL     OW29566   2.266   8.511   4.001 -0.1067  0.0351  0.3785
 6366SOL    HW129567   2.245   8.586   3.938  0.7048  0.1537  0.2458
 6366SOL    HW229568   2.195   8.441   3.994 -0.2350  0.2393 -0.3769
 6367SOL     OW29569   8.202   4.198   0.300 -1.0335  0.3558 -0.0580
 6367SOL    HW129570   8.286   4.239   0.264 -0.2578 -0.9895  0.1505
 6367SOL    HW229571   8.148   4.267   0.346  0.5311  1.0276  0.8261
 6368SOL     OW29572   1.526   0.101   2.077  0.0555 -0.6917 -0.1903
 6368SOL    HW129573   1.447   0.159   2.061  1.4830  0.8208 -1.9697
 6368SOL    HW229574   1.573   0.130   2.160  1.3906  1.4889 -1.6563
 6369SOL     OW29575   1.361   2.269   0.207  0.0291  0.3593  0.0497
 6369SOL    HW129576   1.269   2.243   0.236 -0.9929  1.7633 -1.8072
 6369SOL    HW229577   1.363   2.366   0.183  1.4752 -0.1097 -1.8789
 6370SOL     OW29578   3.619   5.523   3.169 -0.2018  0.6521  0.3434
 6370SOL    HW129579   3.689   5.473   3.220 -1.3865 -2.2924 -0.7918
 6370SOL    HW229580   3.651   5.538   3.075 -2.0409 -3.1323 -1.0024
 6371SOL     OW29581   3.959   1.275   2.159 -0.5053  0.2101  0.4586
 6371SOL    HW129582   3.965   1.345   2.088  1.0654 -0.9651 -0.6177
 6371SOL    HW229583   3.938   1.318   2.247 -0.5718  1.9073 -0.3692
 6372SOL     OW29584   2.158   2.164   2.218 -0.1056  0.2786  0.8055
 6372SOL    HW129585   2.126   2.094   2.154 -2.2518  1.9014 -0.0080
 6372SOL    HW229586   2.254   2.150   2.238 -0.3955 -2.6723  0.3987
 6373SOL     OW29587   4.431   1.096   2.145 -0.4184  0.6654  0.0347
 6373SOL    HW129588   4.421   1.075   2.242 -1.1015 -0.7374 -0.3219
 6373SOL    HW229589   4.341   1.104   2.103 -0.1535 -1.2368 -0.9803
 6374SOL     OW29590   8.840   7.266   1.046  0.0438  0.1433 -0.3503
 6374SOL    HW129591   8.793   7.177   1.046 -0.0723  0.2023  0.2965
 6374SOL    HW229592   8.777   7.337   1.016  0.2091 -0.0292 -1.1128
 6375SOL     OW29593   3.159   9.598   0.589 -0.0874 -0.2962  0.1557
 6375SOL    HW129594   3.078   9.543   0.570 -0.7959  0.1494  1.7397
 6375SOL    HW229595   3.138   9.694   0.574  0.2786 -0.2237  0.1205
 6376SOL     OW29596   8.173   6.064   0.283  0.3601  0.2773 -0.2016
 6376SOL    HW129597   8.181   6.004   0.362 -0.7870  0.0604 -0.2453
 6376SOL    HW229598   8.258   6.115   0.271  0.0584  1.2957  1.9462
 6377SOL     OW29599   9.840   7.107   1.921 -0.3246  0.2671  0.6480
 6377SOL    HW129600   9.885   7.192   1.892 -0.2377 -0.4235 -1.3132
 6377SOL    HW229601   9.860   7.091   2.018  0.2765  2.0926  0.8545
 6378SOL     OW29602   0.292   0.267   0.023 -0.1599  0.0702 -0.3931
 6378SOL    HW129603   0.250   0.222   0.102  0.7559  0.8982  0.5829
 6378SOL    HW229604   0.260   0.362   0.017  0.7091  0.3739 -0.2956
 6379SOL     OW29605   1.379   9.966   3.880  0.4424 -0.1198  0.0276
 6379SOL    HW129606   1.468  10.012   3.889  0.9286 -1.2069  0.9264
 6379SOL    HW229607   1.386   9.892   3.814 -0.5475  1.5510 -2.0052
 6380SOL     OW29608   2.237   7.445   2.779 -0.0264 -0.3819 -0.0670
 6380SOL    HW129609   2.181   7.472   2.700  1.4497  0.2504 -0.9308
 6380SOL    HW229610   2.319   7.503   2.782 -0.2537 -0.1548  2.1632
 6381SOL     OW29611   2.805   7.255   3.395 -0.1388 -0.0665 -0.4605
 6381SOL    HW129612   2.861   7.172   3.400 -0.4366 -0.1496  1.6810
 6381SOL    HW229613   2.863   7.335   3.408 -0.2884 -0.0767  0.2654
 6382SOL     OW29614   3.373   3.789   2.335  0.7384 -0.0781  0.0855
 6382SOL    HW129615   3.405   3.710   2.283  1.8097  0.3747  0.0269
 6382SOL    HW229616   3.429   3.799   2.418  1.6631  1.5172 -0.6941
 6383SOL     OW29617   8.685   0.239   3.122  0.0144  0.3453  0.1824
 6383SOL    HW129618   8.730   0.322   3.088 -0.1502 -0.0192 -0.9196
 6383SOL    HW229619   8.722   0.159   3.075 -0.0639 -0.1827  1.0067
 6384SOL     OW29620   3.773   0.480   0.097 -0.6166  0.3335  0.1142
 6384SOL    HW129621   3.770   0.399   0.038  0.0814  1.9384 -2.2321
 6384SOL    HW229622   3.853   0.535   0.073 -1.1293  1.7624  1.6098
 6385SOL     OW29623   6.015   7.084   3.341  0.2420 -0.6643  0.3272
 6385SOL    HW129624   6.058   7.072   3.252 -0.1320  1.5325 -0.1797
 6385SOL    HW229625   5.916   7.093   3.330  0.1532 -0.7468  1.0127
 6386SOL     OW29626   3.817   3.227   3.377 -0.5033 -0.0609  0.5384
 6386SOL    HW129627   3.806   3.281   3.461 -1.6277  0.2229  0.2118
 6386SOL    HW229628   3.835   3.131   3.402  0.1700  0.2064  1.1056
 6387SOL     OW29629   0.204   1.170   2.070  0.2514 -0.0982  0.8856
 6387SOL    HW129630   0.191   1.196   1.974 -0.3503 -1.6338  0.5280
 6387SOL    HW229631   0.196   1.071   2.079 -1.2680  0.1578  2.7698
 6388SOL     OW29632   3.204   0.047   1.987 -0.3255 -0.3676 -0.1077
 6388SOL    HW129633   3.275   0.034   2.057  1.0714  2.7830 -0.8618
 6388SOL    HW229634   3.247   0.062   1.898 -2.0538 -1.7116 -1.2210
 6389SOL     OW29635   0.477   0.189   3.377  0.4349 -0.0049 -0.4367
 6389SOL    HW129636   0.472   0.258   3.306  3.9210  0.9470  0.1725
 6389SOL    HW229637   0.404   0.205   3.444  0.7740  2.6818 -0.6653
 6390SOL     OW29638   1.147   8.986   3.185 -0.4628  0.4102  0.1233
 6390SOL    HW129639   1.050   8.985   3.161  0.0218 -2.6166 -1.9309
 6390SOL    HW229640   1.203   8.972   3.103  1.6541  0.5514  1.4905
 6391SOL     OW29641   7.957   7.367   2.595 -0.0320  0.4829 -0.1192
 6391SOL    HW129642   7.966   7.288   2.656  1.0751 -0.3653 -1.3475
 6391SOL    HW229643   7.914   7.338   2.509 -1.5849  1.6654  0.2236
 6392SOL     OW29644   0.814   8.179   3.592 -0.2598  0.0694  0.0701
 6392SOL    HW129645   0.870   8.124   3.530  0.4361  0.1039  0.6616
 6392SOL    HW229646   0.872   8.214   3.666 -0.3413  3.0459 -1.2480
 6393SOL     OW29647   3.340   9.928   0.597  0.1677  0.6870  0.0066
 6393SOL    HW129648   3.430   9.894   0.624  0.2317  1.7815  1.1993
 6393SOL    HW229649   3.329  10.022   0.629 -1.7717  0.2432  0.7053
 6394SOL     OW29650   4.120   3.851   1.211  0.3322  0.1451 -0.2325
 6394SOL    HW129651   4.046   3.919   1.208  0.9776  0.8435 -0.3749
 6394SOL    HW229652   4.197   3.883   1.156  0.3350 -1.0656 -0.9514
 6395SOL     OW29653   3.278   4.041   2.342  0.6402 -0.2942  0.0719
 6395SOL    HW129654   3.183   4.039   2.312  0.6681  1.9505 -0.2344
 6395SOL    HW229655   3.325   3.958   2.312 -1.5211 -1.9780  1.2739
 6396SOL     OW29656   4.986   2.424   2.513  0.1118 -0.0616 -0.3057
 6396SOL    HW129657   5.001   2.500   2.576 -1.5904  0.0541 -0.0058
 6396SOL    HW229658   5.038   2.440   2.429  0.1133  1.2378 -0.0795
 6397SOL     OW29659   2.426   5.532   0.861  0.1778  0.0223 -0.2416
 6397SOL    HW129660   2.439   5.436   0.887  0.4828  0.8318  2.8517
 6397SOL    HW229661   2.350   5.540   0.797 -1.2261 -2.0544  1.1131
 6398SOL     OW29662   0.181   7.672   1.394  0.1630 -0.1842 -0.3592
 6398SOL    HW129663   0.118   7.595   1.405  0.8075 -0.7673 -0.6500
 6398SOL    HW229664   0.141   7.741   1.334 -0.1312 -0.6331 -0.6824
 6399SOL     OW29665   0.075   6.268   0.753 -0.4741  0.0352 -0.5249
 6399SOL    HW129666   0.017   6.244   0.675 -0.8354  0.0538 -0.2651
 6399SOL    HW229667   0.167   6.290   0.721  0.1666 -2.6592 -0.7022
 6400SOL     OW29668   2.891   8.780   1.656 -0.4456 -0.0633 -0.5451
 6400SOL    HW129669   2.803   8.735   1.641  0.1760 -1.7525  0.6382
 6400SOL    HW229670   2.878   8.879   1.660 -2.3774 -0.3296  0.2496
 6401SOL     OW29671   4.251   4.018   0.147 -0.6496  0.3260 -0.5370
 6401SOL    HW129672   4.206   4.060   0.226 -1.4872  0.5335 -1.1152
 6401SOL    HW229673   4.328   3.963   0.178 -1.4367 -0.2070  0.4890
 6402SOL     OW29674   0.943   6.776   0.988  0.2349 -0.3516  0.0467
 6402SOL    HW129675   0.920   6.697   1.044 -1.8988 -0.4484 -0.9350
 6402SOL    HW229676   1.026   6.756   0.935  0.5304 -1.3827  0.8852
 6403SOL     OW29677   1.192   8.237   1.944 -0.6090 -0.0274 -0.2312
 6403SOL    HW129678   1.278   8.257   1.897  0.9704 -2.4781  1.4435
 6403SOL    HW229679   1.189   8.289   2.030 -0.6480 -0.1922 -0.1329
 6404SOL     OW29680   3.393   9.208   2.964 -0.0236 -0.5761  0.2058
 6404SOL    HW129681   3.445   9.123   2.959  0.6736 -0.1047 -0.5936
 6404SOL    HW229682   3.408   9.252   3.053  1.0591 -0.3753 -0.0710
 6405SOL     OW29683   8.167   6.873   1.231 -0.1299  0.7987  0.5531
 6405SOL    HW129684   8.070   6.855   1.247 -0.4261  2.8957  1.1870
 6405SOL    HW229685   8.202   6.933   1.303  1.3038  1.1984 -0.4715
 6406SOL     OW29686   4.139   7.828   2.183  0.2184  0.2650  0.2771
 6406SOL    HW129687   4.112   7.834   2.086 -1.5483  0.6561  0.7623
 6406SOL    HW229688   4.199   7.904   2.206  1.6281 -0.5012 -0.8003
 6407SOL     OW29689   3.031   1.361   0.473  0.2506 -0.5636 -0.8476
 6407SOL    HW129690   2.991   1.347   0.564  1.2005 -1.2456 -0.5159
 6407SOL    HW229691   3.077   1.277   0.445  0.9692  0.0295 -1.4496
 6408SOL     OW29692   6.022   0.013   2.596 -0.1517  0.2474 -0.1936
 6408SOL    HW129693   5.972   0.093   2.631 -1.2392  0.1234 -1.3999
 6408SOL    HW229694   6.111   0.042   2.561  0.1838  0.6507  0.9782
 6409SOL     OW29695   3.102   4.567   0.931  0.2831  0.0465 -0.4920
 6409SOL    HW129696   3.039   4.526   0.865  1.3046 -0.0933 -1.4086
 6409SOL    HW229697   3.117   4.664   0.907 -1.5442  0.7807  1.2246
 6410SOL     OW29698   1.512   3.556   1.956  0.0433  0.3655 -0.5203
 6410SOL    HW129699   1.450   3.530   2.031 -0.9440  0.1165 -1.4155
 6410SOL    HW229700   1.561   3.639   1.981  1.0127 -0.6594  1.1357
 6411SOL     OW29701   7.804   8.015   2.362 -0.6034  0.1501  1.0245
 6411SOL    HW129702   7.844   8.020   2.453  0.8652  0.4688  0.3832
 6411SOL    HW229703   7.833   7.930   2.317  0.2821  0.8870  0.1526
 6412SOL     OW29704   2.648   8.416   1.083 -0.4194  0.9114 -0.7568
 6412SOL    HW129705   2.675   8.388   1.175 -2.0078 -1.3417 -0.9453
 6412SOL    HW229706   2.730   8.439   1.030  0.8332 -1.6612 -0.0081
 6413SOL     OW29707   3.748   1.939   3.628  0.1927 -0.1823  0.1606
 6413SOL    HW129708   3.763   1.979   3.537 -0.6928  1.1441  0.5775
 6413SOL    HW229709   3.728   1.841   3.618  2.2369 -0.5243 -0.8913
 6414SOL     OW29710   1.247   7.927   3.928 -0.2838  0.1357  0.4351
 6414SOL    HW129711   1.302   7.856   3.972  0.0970 -0.3598 -0.8364
 6414SOL    HW229712   1.169   7.885   3.881  0.9226  0.3503 -1.8357
 6415SOL     OW29713   1.125   1.685   0.738  0.3553 -0.2994 -0.1918
 6415SOL    HW129714   1.096   1.590   0.730 -0.6941 -0.0825  0.8975
 6415SOL    HW229715   1.119   1.729   0.649 -1.6801 -0.5600 -0.2085
 6416SOL     OW29716   3.040   2.862   3.918  0.1453 -0.6199  0.7400
 6416SOL    HW129717   3.060   2.764   3.910 -1.4520 -0.8529 -0.7431
 6416SOL    HW229718   2.946   2.874   3.948  0.0954  0.4640  0.1657
 6417SOL     OW29719   7.805   9.265   1.568  0.7228  0.2609  0.1717
 6417SOL    HW129720   7.730   9.277   1.634 -0.5594  1.4648 -1.4540
 6417SOL    HW229721   7.810   9.169   1.542  0.1200  0.0722  0.7262
 6418SOL     OW29722   9.247   2.275   3.253  0.3189 -0.2068  0.0161
 6418SOL    HW129723   9.280   2.200   3.310  0.4458  0.5490  0.9532
 6418SOL    HW229724   9.324   2.313   3.201  0.6114  0.5027  0.9722
 6419SOL     OW29725   7.546   7.952   1.654  0.4049 -0.4368 -0.7229
 6419SOL    HW129726   7.629   7.974   1.603  0.0833  3.0349  0.1164
 6419SOL    HW229727   7.470   7.939   1.591  0.7025  0.5566 -1.2892
 6420SOL     OW29728   1.151   6.589   0.087 -0.0873  0.1068 -0.3754
 6420SOL    HW129729   1.168   6.560  -0.007  1.7743  0.4805 -0.1866
 6420SOL    HW229730   1.212   6.538   0.148 -1.7883 -0.6560  0.7055
 6421SOL     OW29731   0.989   5.083   2.363  0.0882  0.9910  0.0156
 6421SOL    HW129732   0.968   5.174   2.397 -0.9559  1.4325 -1.7562
 6421SOL    HW229733   0.904   5.034   2.343  0.6617  0.1618 -0.4228
 6422SOL     OW29734   5.473   9.253   3.297  0.1473 -0.5062 -0.6605
 6422SOL    HW129735   5.406   9.324   3.316  0.7607 -0.1184  0.0740
 6422SOL    HW229736   5.429   9.163   3.300 -0.2670 -0.2743  0.1544
 6423SOL     OW29737   1.277   7.341   3.651 -0.6527  0.0975  0.0395
 6423SOL    HW129738   1.354   7.334   3.588  0.1712  0.8409  0.9358
 6423SOL    HW229739   1.243   7.435   3.652 -0.5256  0.1371  0.8507
 6424SOL     OW29740   4.107   9.434   2.104  0.3144  0.1411 -0.2882
 6424SOL    HW129741   4.044   9.411   2.178  1.6694  0.9743  1.1487
 6424SOL    HW229742   4.160   9.353   2.080  0.8084  0.1986  0.5839
 6425SOL     OW29743   2.759   9.372   1.714 -0.5044 -0.4312 -0.2547
 6425SOL    HW129744   2.691   9.379   1.787 -1.7616 -1.5861 -1.2861
 6425SOL    HW229745   2.799   9.462   1.698 -1.4166  0.1690  0.7326
 6426SOL     OW29746   9.151   4.416   3.866 -0.2537  1.0155 -0.3180
 6426SOL    HW129747   9.072   4.405   3.926 -0.6481  1.5558 -0.7253
 6426SOL    HW229748   9.178   4.327   3.830 -0.1001  0.7120  0.5509
 6427SOL     OW29749   1.770   8.376   2.080 -0.1617 -0.1073 -0.5303
 6427SOL    HW129750   1.795   8.287   2.119 -0.0309  0.4342  0.6126
 6427SOL    HW229751   1.802   8.449   2.139 -1.0448  0.6866 -1.0178
 6428SOL     OW29752   0.479   8.761   1.849 -0.2000  0.5741  0.2209
 6428SOL    HW129753   0.425   8.768   1.933 -0.9691 -0.1131 -0.2139
 6428SOL    HW229754   0.438   8.819   1.778 -0.0492  0.4810  0.0583
 6429SOL     OW29755   3.946   1.687   2.587  0.1021 -0.1185  0.6203
 6429SOL    HW129756   3.969   1.746   2.510  1.6189 -0.8703  0.4716
 6429SOL    HW229757   3.847   1.683   2.598 -0.0367  2.5593  0.7280
 6430SOL     OW29758   2.645   2.755   0.030 -0.0995  0.3549  0.1258
 6430SOL    HW129759   2.660   2.811   0.112  0.7063 -1.6987  1.4493
 6430SOL    HW229760   2.698   2.792  -0.046  1.2325  0.8268  1.2537
 6431SOL     OW29761   1.294   8.841   2.671 -0.1757  0.0557  0.4069
 6431SOL    HW129762   1.206   8.878   2.702  0.5449  3.1137 -0.9560
 6431SOL    HW229763   1.300   8.850   2.572  1.2402 -1.1163  0.3826
 6432SOL     OW29764   2.055   5.942   0.366 -0.5394 -0.4174 -0.0995
 6432SOL    HW129765   2.123   5.940   0.439 -0.3535  1.0348 -0.2160
 6432SOL    HW229766   1.963   5.938   0.406 -0.4059 -1.4338  0.1089
 6433SOL     OW29767   0.627   2.063   2.710 -0.3455  0.3441 -0.0785
 6433SOL    HW129768   0.588   2.133   2.770  0.7219  0.6631  0.2447
 6433SOL    HW229769   0.616   1.973   2.753 -1.7728  0.2940 -0.5227
 6434SOL     OW29770   2.243   6.688   1.965 -0.5701  0.4657 -0.8698
 6434SOL    HW129771   2.196   6.601   1.973  1.0734 -0.4857 -1.3074
 6434SOL    HW229772   2.295   6.690   1.879 -0.1507  1.6447 -0.6012
 6435SOL     OW29773   4.621   1.410   1.827  0.8873  0.2186  0.0410
 6435SOL    HW129774   4.563   1.450   1.756 -0.2813 -0.3399  0.6507
 6435SOL    HW229775   4.635   1.476   1.900 -0.6688 -0.2907  0.8354
 6436SOL     OW29776   4.015   3.382   3.199  0.2560 -0.0507  0.2378
 6436SOL    HW129777   3.945   3.332   3.250  0.1710 -1.4540 -1.2389
 6436SOL    HW229778   4.077   3.317   3.155  1.0504  1.1615 -0.4594
 6437SOL     OW29779   1.963   1.278   3.576 -0.8498  0.7194  0.3208
 6437SOL    HW129780   2.036   1.337   3.541 -0.3842  0.3159  0.5993
 6437SOL    HW229781   1.995   1.184   3.579 -2.5431 -0.0261 -2.8298
 6438SOL     OW29782   4.940   2.770   0.409  0.3645  0.7022 -0.4667
 6438SOL    HW129783   4.862   2.710   0.425  0.1580  1.1070  0.0625
 6438SOL    HW229784   4.957   2.776   0.310  0.3334 -0.1500 -0.5260
 6439SOL     OW29785   0.226   6.902   1.337 -0.3973  0.7389 -0.3748
 6439SOL    HW129786   0.320   6.885   1.366 -0.1642  0.7869 -1.1031
 6439SOL    HW229787   0.219   6.993   1.297 -0.3215 -0.0165 -2.1481
 6440SOL     OW29788   8.979   8.206   0.915 -0.1201  0.1100 -0.4184
 6440SOL    HW129789   9.076   8.182   0.928 -0.4650 -1.5440 -0.7782
 6440SOL    HW229790   8.941   8.151   0.841 -1.1825  1.2156 -0.7033
 6441SOL     OW29791   8.749   5.651   1.086 -0.4379 -0.4080 -0.4955
 6441SOL    HW129792   8.707   5.718   1.025 -0.8388 -0.3153 -0.1144
 6441SOL    HW229793   8.733   5.677   1.181  0.3419 -0.4570 -0.3471
 6442SOL     OW29794   2.500   9.161   2.036 -0.2461  0.0909  0.4893
 6442SOL    HW129795   2.403   9.138   2.043 -0.4103  0.4605 -0.4905
 6442SOL    HW229796   2.555   9.085   2.072 -0.9314  0.6098  2.6871
 6443SOL     OW29797   8.353   0.857   1.227  0.0299  0.4869  0.2893
 6443SOL    HW129798   8.315   0.908   1.150  0.4702  1.9797  1.0269
 6443SOL    HW229799   8.453   0.864   1.225  0.0527  0.3237  0.8495
 6444SOL     OW29800   3.634   5.154   1.742  0.0523  0.6141 -0.2550
 6444SOL    HW129801   3.666   5.079   1.683 -1.0164  0.3845 -0.5623
 6444SOL    HW229802   3.579   5.116   1.817  1.4022  0.9086  0.8948
 6445SOL     OW29803   9.684   0.004   1.628  0.1641 -0.2636  0.1026
 6445SOL    HW129804   9.667   0.089   1.580  1.5492 -0.3849 -0.6383
 6445SOL    HW229805   9.720  -0.064   1.564 -0.0177 -1.1000  0.8786
 6446SOL     OW29806   1.977   7.665   3.919 -0.0340 -0.1669  0.3995
 6446SOL    HW129807   2.031   7.750   3.916  3.3025 -2.1412  1.6760
 6446SOL    HW229808   1.990   7.621   4.008 -2.0779 -1.8178 -0.0956
 6447SOL     OW29809   5.058   7.508   2.189 -0.2391 -0.1090 -0.0614
 6447SOL    HW129810   5.119   7.587   2.188  0.7229 -0.8419 -0.2017
 6447SOL    HW229811   4.992   7.517   2.263 -0.3347  0.9772 -0.2775
 6448SOL     OW29812   4.370   9.932   0.768  0.4742  0.2037  0.7391
 6448SOL    HW129813   4.274   9.960   0.766  0.2386 -0.4653  1.8256
 6448SOL    HW229814   4.416   9.977   0.844  0.4943 -1.0595  1.4879
 6449SOL     OW29815   4.659   1.402   2.327 -0.2717 -0.1847 -0.3905
 6449SOL    HW129816   4.662   1.501   2.339  0.4267 -0.3645  1.1156
 6449SOL    HW229817   4.588   1.364   2.387  1.3972 -0.8579  1.2179
 6450SOL     OW29818   1.771   2.604   2.730  0.0884 -0.5204  0.7001
 6450SOL    HW129819   1.776   2.640   2.823  1.3797  0.9977  0.0655
 6450SOL    HW229820   1.854   2.552   2.710  0.5203  0.4537 -0.1035
 6451SOL     OW29821   1.918   4.447   2.854 -0.4980 -0.0632  0.1944
 6451SOL    HW129822   1.886   4.490   2.769  1.2504  0.2442 -0.3289
 6451SOL    HW229823   1.954   4.356   2.834  1.1495  0.5206  0.3539
 6452SOL     OW29824   8.350   7.982   0.395 -0.6845 -0.2354 -0.2874
 6452SOL    HW129825   8.304   8.004   0.309 -0.4020  0.1968 -0.3266
 6452SOL    HW229826   8.447   8.005   0.388 -0.5134 -0.8720 -0.1045
 6453SOL     OW29827   5.213   1.490   1.378  0.3340 -0.3665 -0.5344
 6453SOL    HW129828   5.226   1.552   1.300  1.2547  0.8467  0.5502
 6453SOL    HW229829   5.165   1.408   1.348  1.2604 -0.2076 -2.5122
 6454SOL     OW29830   1.026   3.950   2.635  0.2097 -0.5477  0.2766
 6454SOL    HW129831   1.109   3.920   2.682 -0.1230 -1.0130  0.5707
 6454SOL    HW229832   1.048   4.027   2.576  1.3200 -2.0849 -1.3887
 6455SOL     OW29833   9.180   2.797   2.928 -0.3330  0.0449 -0.0330
 6455SOL    HW129834   9.137   2.784   2.838 -1.8259  1.4628  0.4617
 6455SOL    HW229835   9.186   2.894   2.949 -0.3762 -0.2933  1.5984
 6456SOL     OW29836   4.658   8.337   1.882  0.1410 -0.3679  0.1653
 6456SOL    HW129837   4.596   8.400   1.929  0.5097 -0.5456  0.8834
 6456SOL    HW229838   4.608   8.291   1.809 -0.1994  0.5703 -0.2092
 6457SOL     OW29839   8.957   3.464   3.639  0.0329 -0.1973  0.1406
 6457SOL    HW129840   8.858   3.458   3.651  0.1067 -0.2512  0.7233
 6457SOL    HW229841   8.980   3.553   3.600 -0.2143 -0.0423  0.3443
 6458SOL     OW29842   7.965   0.116   3.295 -0.0863  0.0467 -0.0415
 6458SOL    HW129843   8.061   0.101   3.274 -0.4674  0.7101 -2.3855
 6458SOL    HW229844   7.926   0.181   3.231 -1.3712  2.1495  2.7640
 6459SOL     OW29845   7.679   1.406   0.671 -0.0399  0.0103  0.3302
 6459SOL    HW129846   7.668   1.504   0.657  0.4714  0.3212  2.0602
 6459SOL    HW229847   7.759   1.373   0.620 -0.6526  0.3296 -0.8635
 6460SOL     OW29848   2.041   4.431   2.153 -0.1619 -0.0475 -0.1219
 6460SOL    HW129849   2.073   4.434   2.248  0.6551 -1.2810 -0.3478
 6460SOL    HW229850   2.085   4.355   2.106 -0.0372  0.9760 -1.6866
 6461SOL     OW29851   8.619   6.067   1.104 -0.1518  0.7170 -0.3225
 6461SOL    HW129852   8.647   6.058   1.199 -1.3340  2.9827  0.2808
 6461SOL    HW229853   8.601   5.976   1.066 -2.5236 -0.0811  2.5146
 6462SOL     OW29854   6.584   9.295   1.957 -0.6784  0.3777  0.4105
 6462SOL    HW129855   6.588   9.195   1.962  1.4456  0.3762 -0.8840
 6462SOL    HW229856   6.491   9.323   1.931 -1.1264 -1.2780  0.1720
 6463SOL     OW29857   3.392   4.486   0.884  0.7890 -0.0730 -0.6726
 6463SOL    HW129858   3.293   4.494   0.895  0.8982  2.0284 -0.9097
 6463SOL    HW229859   3.433   4.456   0.970  0.0914  0.6225 -0.0889
 6464SOL     OW29860   9.163   7.923   3.293  0.3364  0.6727  0.5488
 6464SOL    HW129861   9.250   7.896   3.251 -0.2057 -0.5814  0.1969
 6464SOL    HW229862   9.177   7.936   3.391  0.8319  0.0216  0.5714
 6465SOL     OW29863   4.726   8.110   2.020 -0.1737  0.3864  0.1061
 6465SOL    HW129864   4.699   8.051   1.943  3.3024  0.1388 -0.9940
 6465SOL    HW229865   4.723   8.205   1.992 -1.9248  0.5190  0.6675
 6466SOL     OW29866   8.036   9.322   0.192  0.1356  0.0905 -0.1762
 6466SOL    HW129867   8.031   9.371   0.279  2.2346  0.2869 -0.1469
 6466SOL    HW229868   8.041   9.223   0.210  1.1273  0.1601 -0.0387
 6467SOL     OW29869   7.538   7.088   3.252 -0.0032 -0.0687 -0.1522
 6467SOL    HW129870   7.544   7.086   3.153  1.8890 -0.3505 -0.0348
 6467SOL    HW229871   7.528   6.995   3.287 -1.1180  0.0609 -0.0829
 6468SOL     OW29872   9.823   4.685   1.897  0.3723  0.6864  0.1782
 6468SOL    HW129873   9.761   4.678   1.975 -0.8052  0.8492 -0.7153
 6468SOL    HW229874   9.773   4.659   1.814  2.1590 -1.4647 -0.2624
 6469SOL     OW29875   9.305   1.241   0.594 -0.1090  0.2439  0.4404
 6469SOL    HW129876   9.250   1.162   0.566  2.2545 -1.1102 -0.4545
 6469SOL    HW229877   9.324   1.298   0.514  0.6938  0.1610  0.5762
 6470SOL     OW29878   7.750   9.190   3.954  0.4897 -0.4141 -0.4595
 6470SOL    HW129879   7.737   9.167   4.050  0.9921 -0.4758 -0.4061
 6470SOL    HW229880   7.836   9.241   3.943  0.6914 -0.8632 -0.9477
 6471SOL     OW29881   2.241   2.333   1.413  0.1108  0.2351 -0.0367
 6471SOL    HW129882   2.286   2.251   1.378  1.1068  0.1994  1.2850
 6471SOL    HW229883   2.182   2.308   1.490  0.4007  0.7513  0.3524
 6472SOL     OW29884   6.681   9.068   2.264  0.3274  0.1872  0.1194
 6472SOL    HW129885   6.610   9.121   2.218  0.2882 -2.1910 -2.7011
 6472SOL    HW229886   6.768   9.118   2.260  0.0339  0.5986 -1.4185
 6473SOL     OW29887   5.683   9.278   2.667 -0.5785  0.0015 -0.5688
 6473SOL    HW129888   5.686   9.377   2.659 -1.5398 -0.0129 -1.1525
 6473SOL    HW229889   5.741   9.237   2.596 -0.1716  0.1391 -0.3184
 6474SOL     OW29890   5.660   8.967   2.351 -0.6060  0.1737 -0.2903
 6474SOL    HW129891   5.656   8.987   2.253  1.7233  0.3874 -0.3701
 6474SOL    HW229892   5.584   9.013   2.397 -1.0389  1.0467 -1.8281
 6475SOL     OW29893   1.644   0.301   1.922 -0.6244 -0.2618  0.8031
 6475SOL    HW129894   1.692   0.292   1.834 -0.7217 -0.4876  0.7720
 6475SOL    HW229895   1.587   0.220   1.937 -1.7506  0.4362  0.3749
 6476SOL     OW29896   4.159   8.291   0.721  0.2667  0.2913  0.3435
 6476SOL    HW129897   4.159   8.243   0.633  0.1138 -0.3449  0.6855
 6476SOL    HW229898   4.248   8.278   0.765  0.4657  0.9050  0.1222
 6477SOL     OW29899   2.476   7.228   1.218 -0.2162 -0.0214  0.0463
 6477SOL    HW129900   2.391   7.281   1.225 -0.1615  0.1804 -0.7105
 6477SOL    HW229901   2.539   7.276   1.157  0.8628  0.3840  1.4565
 6478SOL     OW29902   1.393   2.541   0.103  0.1627 -0.1829 -0.5598
 6478SOL    HW129903   1.413   2.503   0.013  0.8456 -1.7127  0.2271
 6478SOL    HW229904   1.426   2.636   0.107 -1.0281  0.3228 -2.3321
 6479SOL     OW29905   2.581   1.869   1.763  0.4411  0.4137 -0.5274
 6479SOL    HW129906   2.636   1.924   1.701 -0.9219  0.1552 -2.0076
 6479SOL    HW229907   2.486   1.866   1.730  0.3305 -2.1884 -0.0966
 6480SOL     OW29908   2.268   6.519   1.392  0.5848  0.5123  0.1298
 6480SOL    HW129909   2.189   6.529   1.452  0.9520  0.3381  0.6476
 6480SOL    HW229910   2.289   6.607   1.349  1.9071  1.2980  2.2764
 6481SOL     OW29911   0.649   0.789   3.692 -0.1610  0.4100  0.1218
 6481SOL    HW129912   0.571   0.739   3.731  1.0422 -0.1845  1.8058
 6481SOL    HW229913   0.699   0.728   3.629  1.4865 -0.6650  2.4114
 6482SOL     OW29914   9.732   9.935   3.517 -0.0107 -0.4443  0.0791
 6482SOL    HW129915   9.674   9.919   3.437 -0.1937 -1.3835  0.3893
 6482SOL    HW229916   9.788  10.016   3.502 -0.6000 -0.1692 -0.6844
 6483SOL     OW29917   7.129   0.474   2.501 -0.2389  0.0675 -0.3609
 6483SOL    HW129918   7.038   0.483   2.541  0.3624  1.8937  0.6615
 6483SOL    HW229919   7.191   0.436   2.569  0.6586  2.6494  0.3277
 6484SOL     OW29920   8.797   4.094   1.966 -0.7693 -0.0473  0.0086
 6484SOL    HW129921   8.697   4.099   1.968 -0.8242 -0.4509 -1.3732
 6484SOL    HW229922   8.833   4.160   1.901 -0.2323 -1.0528 -0.7235
 6485SOL     OW29923   9.025   1.218   3.312 -0.1050  0.3655  0.3843
 6485SOL    HW129924   8.936   1.262   3.296 -0.1133 -0.2396 -1.3717
 6485SOL    HW229925   9.097   1.288   3.307 -0.2283  0.4063 -1.1781
 6486SOL     OW29926   9.853   9.034   0.218 -0.1825 -0.5547 -0.3364
 6486SOL    HW129927   9.790   8.962   0.246 -0.8646  0.5356  0.9766
 6486SOL    HW229928   9.924   9.045   0.289 -0.0404  0.0217 -0.5709
 6487SOL     OW29929   9.355   0.193   2.783  0.4749  0.0788  0.6698
 6487SOL    HW129930   9.378   0.240   2.868 -0.5823  0.1212  0.9421
 6487SOL    HW229931   9.290   0.249   2.731  0.5571 -0.2855  0.1666
 6488SOL     OW29932   8.814   0.771   0.149  0.0093 -0.5036  0.7929
 6488SOL    HW129933   8.779   0.781   0.242 -1.8797 -0.0455  0.0525
 6488SOL    HW229934   8.840   0.676   0.132 -0.4290 -0.7527  1.5169
 6489SOL     OW29935   1.336   4.520   1.355 -0.2341 -0.3203 -0.6133
 6489SOL    HW129936   1.285   4.443   1.391 -0.3800 -0.4911 -1.1840
 6489SOL    HW229937   1.321   4.528   1.256  0.9704 -0.4751 -0.8179
 6490SOL     OW29938   2.794   7.915   3.476 -0.3475  0.0969 -0.5742
 6490SOL    HW129939   2.792   7.841   3.408 -0.6278 -1.7992  1.4614
 6490SOL    HW229940   2.884   7.957   3.477  0.6035 -1.8883 -0.0142
 6491SOL     OW29941   9.044   7.343   3.915 -0.1341  0.0093  0.3416
 6491SOL    HW129942   9.140   7.337   3.886 -0.1286 -1.0501  0.5506
 6491SOL    HW229943   9.026   7.274   3.985 -0.7333  1.0525  1.2202
 6492SOL     OW29944   1.875   6.830   2.893 -0.2054  0.2583 -0.7006
 6492SOL    HW129945   1.806   6.801   2.960 -1.6689 -0.8594 -2.6086
 6492SOL    HW229946   1.922   6.749   2.857  0.4382  0.8308 -1.1548
 6493SOL     OW29947   8.640   4.639   1.753  0.0830 -0.1659 -0.2031
 6493SOL    HW129948   8.562   4.588   1.788 -1.5835  2.0362 -0.5822
 6493SOL    HW229949   8.719   4.622   1.812 -0.6927 -2.3161  0.2730
 6494SOL     OW29950   9.468   6.911   0.131 -0.2315 -0.0941 -0.1748
 6494SOL    HW129951   9.504   6.949   0.046 -0.4048 -0.1354 -0.2675
 6494SOL    HW229952   9.442   6.815   0.116 -0.3067 -0.0869 -0.0894
 6495SOL     OW29953   8.977   3.163   2.075  0.0050 -0.3262 -0.2386
 6495SOL    HW129954   8.979   3.164   1.975 -0.4878  0.8410 -0.2473
 6495SOL    HW229955   9.044   3.097   2.109  1.6525  0.7638 -1.3027
 6496SOL     OW29956   9.796   1.063   1.565  0.4140 -0.2723 -0.4104
 6496SOL    HW129957   9.821   1.152   1.603  1.5924 -0.0506 -1.6555
 6496SOL    HW229958   9.719   1.074   1.502  0.8535 -0.0631 -0.9121
 6497SOL     OW29959   8.086   9.539   2.122 -0.1857  0.6586  0.0883
 6497SOL    HW129960   8.184   9.557   2.129 -0.1069 -0.0209  0.7679
 6497SOL    HW229961   8.046   9.537   2.213 -0.9946  1.7709 -0.2305
 6498SOL     OW29962   1.988   6.604   2.829 -0.0855  0.0346 -0.7404
 6498SOL    HW129963   1.929   6.546   2.885 -1.8584  0.3229 -2.2557
 6498SOL    HW229964   2.079   6.563   2.824  0.0226 -0.1397  2.0625
 6499SOL     OW29965   8.932   4.216   1.771  0.3133  0.5301 -0.4487
 6499SOL    HW129966   8.912   4.269   1.689 -1.0211  1.1834  0.2726
 6499SOL    HW229967   9.007   4.153   1.753 -1.3419 -0.8475 -2.8156
 6500SOL     OW29968   0.582   5.543   0.826 -0.6600  0.2517  0.4855
 6500SOL    HW129969   0.601   5.630   0.780 -2.1215  0.7804  0.8403
 6500SOL    HW229970   0.509   5.496   0.777 -0.1014 -0.6291  0.4973
 6501SOL     OW29971   3.304   8.970   3.934 -0.0823 -0.1653 -0.3184
 6501SOL    HW129972   3.258   9.044   3.884  1.0688  0.1771 -0.9024
 6501SOL    HW229973   3.400   8.966   3.905  0.2271 -0.9331  0.7987
 6502SOL     OW29974   7.081   9.367   3.988 -0.1454  0.3994  0.5731
 6502SOL    HW129975   7.083   9.286   3.930  3.2542 -0.1899  1.4239
 6502SOL    HW229976   7.047   9.342   4.079 -0.5317  0.2585  0.3924
 6503SOL     OW29977   0.327   3.773   1.856 -0.5008  0.0190  0.6471
 6503SOL    HW129978   0.358   3.864   1.882 -1.0580 -0.1960  2.1303
 6503SOL    HW229979   0.260   3.740   1.923 -0.5000 -1.3710 -0.0089
 6504SOL     OW29980   4.582   6.927   2.702  0.0174  0.4228 -0.3733
 6504SOL    HW129981   4.514   6.941   2.773 -0.1219  0.5306 -0.5265
 6504SOL    HW229982   4.583   6.831   2.673  1.1448  0.0510  0.8583
 6505SOL     OW29983   8.794   6.264   3.556  0.6431  0.4062  0.1014
 6505SOL    HW129984   8.803   6.332   3.484 -0.4809 -0.9942 -1.3861
 6505SOL    HW229985   8.732   6.299   3.627  0.6319  1.2055 -0.2947
 6506SOL     OW29986   6.697   9.944   2.639  0.3060  0.5172  0.2103
 6506SOL    HW129987   6.656   9.989   2.559  0.1424 -0.8028 -0.4730
 6506SOL    HW229988   6.677   9.997   2.721 -1.7747  0.5231 -0.2744
 6507SOL     OW29989   3.885   4.568   1.111 -0.6747 -0.0942 -0.1894
 6507SOL    HW129990   3.906   4.660   1.078 -0.6140 -0.8301 -2.2763
 6507SOL    HW229991   3.801   4.570   1.166 -0.4719  1.2501  0.0819
 6508SOL     OW29992   2.051   8.923   2.347 -0.0276 -0.3074 -0.0683
 6508SOL    HW129993   2.028   8.826   2.337  0.4689 -0.4045 -0.3149
 6508SOL    HW229994   2.147   8.931   2.376  0.3311  0.1403 -1.3673
 6509SOL     OW29995   8.720   5.055   2.075  0.1210 -0.2415  0.3284
 6509SOL    HW129996   8.814   5.054   2.040 -0.6901  0.1627 -1.9208
 6509SOL    HW229997   8.660   5.008   2.011 -1.3341  0.1108  1.4240
 6510SOL     OW29998   9.254   4.501   0.512 -0.3245  0.4592  0.0491
 6510SOL    HW129999   9.325   4.460   0.455 -0.9452 -0.6725  0.0925
 6510SOL    HW230000   9.290   4.515   0.604  0.5170  1.8273 -0.4653
 6511SOL     OW30001   9.760   4.411   3.369 -0.0057 -0.1081  0.2883
 6511SOL    HW130002   9.796   4.348   3.438 -1.2748 -0.4388  0.6554
 6511SOL    HW230003   9.705   4.482   3.414  2.0975  1.7731 -0.0306
 6512SOL     OW30004   3.619   4.581   3.363  0.2237 -0.0075 -0.8187
 6512SOL    HW130005   3.586   4.498   3.318 -1.8959  1.0076 -1.2312
 6512SOL    HW230006   3.638   4.651   3.294 -1.1394  0.9056 -0.2995
 6513SOL     OW30007   5.040   2.554   1.613 -0.1257 -0.2691  0.1825
 6513SOL    HW130008   5.060   2.615   1.536  1.1919  0.0425  0.7481
 6513SOL    HW230009   5.032   2.460   1.580 -0.1970 -0.0545 -0.4196
 6514SOL     OW30010   9.283   1.870   3.307 -0.4055 -0.6222  0.0683
 6514SOL    HW130011   9.232   1.937   3.253 -0.2509 -2.0925 -1.9473
 6514SOL    HW230012   9.316   1.913   3.391 -1.8496  1.3269 -0.3390
 6515SOL     OW30013   3.374   9.195   3.252  0.7853 -0.3288  0.0852
 6515SOL    HW130014   3.464   9.156   3.270  1.4171  0.1231 -2.0102
 6515SOL    HW230015   3.377   9.294   3.268 -0.1362 -0.6970  2.8518
 6516SOL     OW30016   3.728   7.832   3.562  0.2627 -0.1595 -0.0709
 6516SOL    HW130017   3.647   7.841   3.620  0.7837  0.9241  0.5014
 6516SOL    HW230018   3.754   7.923   3.527  0.3815 -0.7011 -1.4073
 6517SOL     OW30019   1.548   0.655   0.240 -0.1147 -0.5436 -0.1313
 6517SOL    HW130020   1.492   0.738   0.247  0.1041 -0.4635  0.6976
 6517SOL    HW230021   1.504   0.581   0.291  0.0962 -0.7215 -0.2066
 6518SOL     OW30022   3.780   2.577   1.325 -0.0533  0.5943  0.2901
 6518SOL    HW130023   3.711   2.526   1.377 -0.5393 -3.1296 -3.6778
 6518SOL    HW230024   3.735   2.639   1.261  0.1450 -1.7350 -2.2032
 6519SOL     OW30025   0.144   6.145   1.901 -0.3677  0.3418 -0.0844
 6519SOL    HW130026   0.236   6.167   1.868 -0.5604  0.5564 -0.4916
 6519SOL    HW230027   0.101   6.081   1.839  0.2358 -1.3150  1.1795
 6520SOL     OW30028   0.276   8.926   1.382  0.4426 -0.0051 -0.1534
 6520SOL    HW130029   0.197   8.895   1.329  0.5495 -0.1182 -0.2500
 6520SOL    HW230030   0.261   8.909   1.479  0.5041 -0.3746 -0.2067
 6521SOL     OW30031   7.284   7.410   2.577  0.0607  0.4886 -0.1983
 6521SOL    HW130032   7.267   7.507   2.560 -0.8725  0.6809  1.8030
 6521SOL    HW230033   7.383   7.394   2.584  0.1419  1.5700  1.0956
 6522SOL     OW30034   1.300   5.728   3.752 -0.4763 -0.1167 -0.0397
 6522SOL    HW130035   1.209   5.692   3.728  0.0553 -0.1297 -2.1270
 6522SOL    HW230036   1.355   5.655   3.792 -0.7245 -0.6054 -0.5898
 6523SOL     OW30037   9.918   9.902   3.998 -0.1470 -0.0829 -0.1269
 6523SOL    HW130038   9.847   9.900   3.928 -1.7289 -1.9342  1.4788
 6523SOL    HW230039   9.976   9.982   3.984 -0.4537 -0.3911 -3.4862
 6524SOL     OW30040   8.708   5.324   3.979 -0.5255 -0.0142  0.3287
 6524SOL    HW130041   8.696   5.247   3.917 -1.4590 -0.4758  1.0622
 6524SOL    HW230042   8.716   5.409   3.926  0.6721 -0.6201 -0.4884
 6525SOL     OW30043   2.589   8.561   3.493  0.1681 -0.5583 -0.5693
 6525SOL    HW130044   2.519   8.533   3.559 -0.1275  2.3878  0.4588
 6525SOL    HW230045   2.668   8.500   3.500 -0.3669 -1.0417  1.6394
 6526SOL     OW30046   9.810   8.919   1.004 -0.6862  0.2574 -0.1978
 6526SOL    HW130047   9.860   8.943   0.921  0.1891 -0.7066  0.0316
 6526SOL    HW230048   9.752   8.839   0.987  1.8100 -1.8693  0.8817
 6527SOL     OW30049   2.666   9.383   1.371  0.2308  0.5495 -0.3569
 6527SOL    HW130050   2.650   9.393   1.272 -0.9338 -2.1100 -0.4874
 6527SOL    HW230051   2.764   9.383   1.389  0.5232 -1.0052 -1.8000
 6528SOL     OW30052   4.820   2.478   1.764 -0.3921  0.0288 -0.2999
 6528SOL    HW130053   4.740   2.475   1.704 -0.7370 -1.5456  0.2003
 6528SOL    HW230054   4.889   2.539   1.725 -2.4540  2.7303  0.0531
 6529SOL     OW30055   8.115   6.842   1.739 -0.2379 -0.2514  0.1740
 6529SOL    HW130056   8.137   6.935   1.711  0.2296 -0.0613  1.1759
 6529SOL    HW230057   8.170   6.777   1.685 -0.7695  0.0265 -0.7218
 6530SOL     OW30058   3.009   3.477   0.131 -0.0470  0.3301  0.0515
 6530SOL    HW130059   2.960   3.426   0.201 -0.6180 -0.4527 -0.9148
 6530SOL    HW230060   3.093   3.428   0.106  0.2822  0.7321  0.3712
 6531SOL     OW30061   0.764   9.205   2.327 -0.3651 -0.4791  0.1065
 6531SOL    HW130062   0.847   9.177   2.278  0.5240  1.4495  0.4578
 6531SOL    HW230063   0.699   9.245   2.262 -0.3252 -0.4281  0.0984
 6532SOL     OW30064   2.619   1.362   0.081  0.5344  0.5230 -0.5795
 6532SOL    HW130065   2.621   1.361   0.181  0.3950 -1.1619 -0.5900
 6532SOL    HW230066   2.572   1.445   0.049  1.0633  1.3357  0.7328
 6533SOL     OW30067   0.368   9.028   3.263 -0.4982  0.1487 -0.2214
 6533SOL    HW130068   0.450   9.035   3.319 -0.5809  0.8509 -0.1878
 6533SOL    HW230069   0.332   8.935   3.269 -0.4467  0.1877  0.8145
 6534SOL     OW30070   8.755   6.261   2.786 -0.2979  0.2094 -0.3307
 6534SOL    HW130071   8.776   6.285   2.692 -0.4875  2.0316  0.0701
 6534SOL    HW230072   8.671   6.206   2.789  0.0460 -0.3722 -1.2574
 6535SOL     OW30073   7.474   9.778   3.157  0.1998  0.2340  0.3954
 6535SOL    HW130074   7.507   9.871   3.170  0.1084  0.2941  0.2057
 6535SOL    HW230075   7.473   9.730   3.245 -0.5475  0.6759  0.6386
 6536SOL     OW30076   7.292   9.773   3.374  0.0306 -0.2366 -0.0625
 6536SOL    HW130077   7.387   9.768   3.403  0.6008 -0.2726 -1.9234
 6536SOL    HW230078   7.278   9.856   3.320 -0.6988 -0.8854 -0.8702
 6537SOL     OW30079   7.926   0.516   3.239 -0.3443 -0.3597  0.0849
 6537SOL    HW130080   7.845   0.561   3.275  0.2721  0.2490  0.7273
 6537SOL    HW230081   7.900   0.433   3.190 -1.2458 -0.7862  1.2880
 6538SOL     OW30082   0.976   6.859   2.882 -0.2792  0.3414 -0.1602
 6538SOL    HW130083   0.948   6.933   2.943  0.7376  0.5611  0.0599
 6538SOL    HW230084   0.902   6.793   2.873 -0.4065  0.2560  1.4086
 6539SOL     OW30085   4.186   9.168   2.074  0.1070 -0.0117  0.0366
 6539SOL    HW130086   4.133   9.084   2.063  1.0090 -0.3650 -1.8319
 6539SOL    HW230087   4.268   9.149   2.127  1.0035 -0.6484 -1.5346
 6540SOL     OW30088   1.357   2.358   2.183 -0.3675 -0.2381 -0.4573
 6540SOL    HW130089   1.456   2.359   2.194 -0.3007  3.0704 -0.7790
 6540SOL    HW230090   1.334   2.335   2.088  0.1570  0.1418 -0.6766
 6541SOL     OW30091   5.367   8.441   2.387 -0.0706  0.4531  0.0166
 6541SOL    HW130092   5.299   8.393   2.442  0.3426 -0.0535  0.0847
 6541SOL    HW230093   5.377   8.396   2.299  3.0102 -1.8506  1.4634
 6542SOL     OW30094   0.188   6.196   1.141 -0.0902 -0.2049 -0.5202
 6542SOL    HW130095   0.192   6.294   1.160  0.0178 -0.3926  0.4422
 6542SOL    HW230096   0.093   6.166   1.139 -0.0543 -0.7399  2.7268
 6543SOL     OW30097   2.420   1.879   2.203  0.5808 -0.0949 -0.3112
 6543SOL    HW130098   2.370   1.827   2.273  2.0694 -0.1816  0.7110
 6543SOL    HW230099   2.445   1.818   2.128  2.0641 -0.8252  0.7454
 6544SOL     OW30100   7.687   9.510   2.975  0.1721 -0.2182 -0.6059
 6544SOL    HW130101   7.762   9.577   2.970  0.0688  0.1171  1.7879
 6544SOL    HW230102   7.673   9.483   3.070 -1.1346 -2.1552 -1.3170
 6545SOL     OW30103   3.336   8.651   3.315 -0.1722 -0.0091 -0.0389
 6545SOL    HW130104   3.243   8.652   3.278  0.3362 -1.5845 -1.4033
 6545SOL    HW230105   3.398   8.611   3.248  1.1415 -0.9538  1.6948
 6546SOL     OW30106   8.086   2.979   0.280  0.2912 -0.3391  0.0321
 6546SOL    HW130107   8.086   3.079   0.270  0.3903 -0.2801  0.5606
 6546SOL    HW230108   8.156   2.939   0.220  1.6848  0.0852  1.3260
 6547SOL     OW30109   2.839   9.925   2.900 -0.5851 -0.1795 -0.1982
 6547SOL    HW130110   2.862   9.850   2.837  0.9213  0.6605 -0.6720
 6547SOL    HW230111   2.740   9.939   2.900 -0.9966 -2.8276  0.6695
 6548SOL     OW30112   8.446   6.337   3.376 -0.8300  0.0615 -0.2573
 6548SOL    HW130113   8.347   6.344   3.371 -0.8547 -0.0557  0.0923
 6548SOL    HW230114   8.472   6.244   3.401 -0.6359  0.1419 -0.1601
 6549SOL     OW30115   4.536   2.760   2.401 -0.5319  0.4791 -0.2369
 6549SOL    HW130116   4.547   2.666   2.432 -1.1565  0.4717 -0.0479
 6549SOL    HW230117   4.606   2.780   2.332 -0.6782 -0.2623 -0.6123
 6550SOL     OW30118   0.671   0.267   2.613  0.0488 -0.2032  0.4205
 6550SOL    HW130119   0.655   0.169   2.599  0.2384 -0.1146 -0.4430
 6550SOL    HW230120   0.586   0.309   2.645  0.8387 -1.2130  4.0175
 6551SOL     OW30121   2.943   6.286   3.880  0.0538 -0.4522 -0.0827
 6551SOL    HW130122   3.018   6.270   3.815 -1.1186  0.1777 -1.5941
 6551SOL    HW230123   2.972   6.354   3.947  0.9081 -0.3679 -0.5221
 6552SOL     OW30124   6.563   9.940   3.207 -0.0437  0.2983 -0.1640
 6552SOL    HW130125   6.611  10.028   3.204 -0.4502  0.6015  1.7085
 6552SOL    HW230126   6.465   9.954   3.189 -0.2198  0.3321  0.7836
 6553SOL     OW30127   9.554   0.870   0.621  0.5996 -0.3241 -0.7280
 6553SOL    HW130128   9.636   0.914   0.586  1.1996 -0.0925  0.9217
 6553SOL    HW230129   9.479   0.881   0.555  1.6639  0.1577 -1.8746
 6554SOL     OW30130   8.061   2.515   2.041 -0.3508 -0.2222  0.4358
 6554SOL    HW130131   8.003   2.577   2.093 -1.5984 -0.7605 -0.3089
 6554SOL    HW230132   8.144   2.496   2.093  0.5636  2.9314  0.2023
 6555SOL     OW30133   1.507   3.034   0.680 -0.2325  0.0556  0.2221
 6555SOL    HW130134   1.536   3.004   0.771  0.0173 -0.2856  0.0319
 6555SOL    HW230135   1.428   3.095   0.688  1.7361  2.5694  0.8905
 6556SOL     OW30136   3.162   6.568   0.956  0.0802  0.1202  0.2945
 6556SOL    HW130137   3.069   6.560   0.920 -1.0933  1.6262  2.7899
 6556SOL    HW230138   3.180   6.492   1.019  0.1564  0.3787  0.5878
 6557SOL     OW30139   1.834   7.865   1.011 -0.3826  0.0615 -0.1802
 6557SOL    HW130140   1.784   7.780   1.022 -0.7830  0.1972 -0.9017
 6557SOL    HW230141   1.876   7.891   1.098  0.3803 -1.2618 -0.1405
 6558SOL     OW30142   9.773   2.779   1.069 -1.1092 -0.7906  0.4303
 6558SOL    HW130143   9.837   2.755   1.141 -0.2730 -2.4950 -0.8319
 6558SOL    HW230144   9.681   2.748   1.094 -1.4430  1.5115  2.1667
 6559SOL     OW30145   9.419   2.830   3.340  0.0684 -0.4223  0.5237
 6559SOL    HW130146   9.432   2.804   3.245  0.4110  1.0787  0.1342
 6559SOL    HW230147   9.397   2.750   3.395 -1.3369 -1.1189 -1.0369
 6560SOL     OW30148   1.109   6.986   3.832 -0.1278  0.2877 -0.1501
 6560SOL    HW130149   1.023   6.962   3.877  0.1180  2.6643  1.6952
 6560SOL    HW230150   1.128   7.083   3.846  2.3830  0.0128 -1.3584
 6561SOL     OW30151   4.422   3.049   2.148  0.2891  0.4780  0.1608
 6561SOL    HW130152   4.461   3.131   2.105 -1.1770  1.2703  0.2816
 6561SOL    HW230153   4.482   2.971   2.132  2.1482  1.7454  0.7770
 6562SOL     OW30154   4.294   0.456   1.854 -0.8516  0.7565 -0.9983
 6562SOL    HW130155   4.352   0.430   1.777 -2.0139  0.9559 -1.9465
 6562SOL    HW230156   4.206   0.489   1.821 -2.4156 -1.6891  0.4598
 6563SOL     OW30157   9.788   4.744   3.029 -0.1008 -0.1333  0.2874
 6563SOL    HW130158   9.805   4.699   2.941 -3.3236 -0.8166 -0.0585
 6563SOL    HW230159   9.827   4.836   3.028 -0.3129 -0.0320 -1.9604
 6564SOL     OW30160   3.088   8.955   0.065 -0.0641 -0.9642 -0.3363
 6564SOL    HW130161   3.004   8.924   0.019  0.9182 -1.0599 -2.0877
 6564SOL    HW230162   3.162   8.961  -0.001  0.9791  0.4754  0.9327
 6565SOL     OW30163   9.038   0.627   3.483  0.2428  0.9433 -0.1155
 6565SOL    HW130164   8.944   0.627   3.514  0.4212  2.8833  0.5282
 6565SOL    HW230165   9.072   0.722   3.479  1.2468  0.5404 -3.0840
 6566SOL     OW30166   2.945   7.450   0.076 -0.2096 -0.6786  0.2831
 6566SOL    HW130167   2.904   7.457   0.167 -0.0288  1.4065  0.2169
 6566SOL    HW230168   3.034   7.405   0.084  0.0484 -0.0283  1.2311
 6567SOL     OW30169   0.217   1.535   3.919  0.1620  0.0855 -0.9262
 6567SOL    HW130170   0.262   1.601   3.979  1.8780 -0.4505 -1.5738
 6567SOL    HW230171   0.118   1.538   3.934  0.2207  2.5778 -0.7349
 6568SOL     OW30172   3.226   4.501   1.560 -0.3786 -0.2659 -0.2364
 6568SOL    HW130173   3.188   4.516   1.468  0.2946 -1.9982 -0.8203
 6568SOL    HW230174   3.213   4.406   1.587  1.2012 -0.2670  0.6292
 6569SOL     OW30175   9.669   7.014   2.692  0.0728  0.0114 -0.2104
 6569SOL    HW130176   9.610   6.953   2.640 -1.0340  0.2922  0.6844
 6569SOL    HW230177   9.703   6.966   2.773 -0.0750  0.3000  0.0228
 6570SOL     OW30178   9.457   8.976   1.415  0.5226 -0.0943  0.3937
 6570SOL    HW130179   9.461   8.939   1.322  3.1777 -2.0945  1.2640
 6570SOL    HW230180   9.500   9.067   1.417  1.5064 -0.5431 -0.1189
 6571SOL     OW30181   0.174   5.717   2.109  0.4287  0.2161 -0.5075
 6571SOL    HW130182   0.270   5.744   2.093  0.2616 -0.4159 -2.7855
 6571SOL    HW230183   0.167   5.668   2.195  1.6788  2.6951  1.0595
 6572SOL     OW30184   2.898   4.399   1.078  0.0445  0.6009  0.2245
 6572SOL    HW130185   2.920   4.378   0.983  1.5843  0.1219  0.6598
 6572SOL    HW230186   2.905   4.498   1.093  2.5050  0.4347  0.4487
 6573SOL     OW30187   2.521   7.171   3.376  0.3402 -0.0218 -0.1133
 6573SOL    HW130188   2.455   7.236   3.336 -1.1042 -1.4126 -0.0275
 6573SOL    HW230189   2.614   7.203   3.357 -0.3463  1.6451 -0.7897
 6574SOL     OW30190   1.814   2.857   0.636 -0.4892 -0.0330  0.6009
 6574SOL    HW130191   1.910   2.859   0.605 -0.7797  0.9297 -0.2549
 6574SOL    HW230192   1.758   2.913   0.574 -1.3498  0.6335  1.9657
 6575SOL     OW30193   8.735   9.302   0.915  0.6999  0.4163 -0.1754
 6575SOL    HW130194   8.639   9.296   0.943  0.6748  1.0265 -0.1353
 6575SOL    HW230195   8.765   9.212   0.883  0.6507 -0.2282  1.5129
 6576SOL     OW30196   4.617   2.425   2.774  0.0533  0.4345 -0.5559
 6576SOL    HW130197   4.547   2.473   2.722 -0.1563 -0.3164 -0.9876
 6576SOL    HW230198   4.661   2.356   2.715  0.6951  0.4471 -0.1036
 6577SOL     OW30199   3.965   3.598   1.893 -0.4441  0.2737 -0.3158
 6577SOL    HW130200   4.017   3.525   1.938  1.0809  0.2113 -2.1192
 6577SOL    HW230201   4.006   3.686   1.915 -1.4494  0.4699  0.7516
 6578SOL     OW30202   1.264   2.979   0.910 -0.5809  0.8074  0.5311
 6578SOL    HW130203   1.219   3.068   0.918 -1.7788  0.3431 -0.8616
 6578SOL    HW230204   1.214   2.922   0.845  0.1328 -0.9195  1.4681
 6579SOL     OW30205   2.993   2.831   3.128  0.7082  0.0956 -0.2029
 6579SOL    HW130206   2.911   2.887   3.114  0.3914 -0.3283 -0.0393
 6579SOL    HW230207   2.969   2.734   3.122  1.2868 -0.0266 -0.6499
 6580SOL     OW30208   6.449   7.353   2.974  0.2089  0.0668 -0.6761
 6580SOL    HW130209   6.365   7.307   3.001 -0.1178  1.2226  0.3440
 6580SOL    HW230210   6.523   7.327   3.036  0.5062 -0.6189 -1.3129
 6581SOL     OW30211   2.013   3.734   3.864  0.1043  0.1252  0.0984
 6581SOL    HW130212   2.023   3.707   3.768  1.9093 -0.6599  0.4737
 6581SOL    HW230213   2.103   3.755   3.901 -0.7473  1.8128  1.2386
 6582SOL     OW30214   9.079   5.703   2.533  0.3004 -0.5407 -0.1602
 6582SOL    HW130215   9.103   5.731   2.441  0.5720 -0.8642 -0.1875
 6582SOL    HW230216   9.156   5.720   2.594 -0.0821  0.2185  0.1245
 6583SOL     OW30217   8.393   9.216   2.613  0.0222  0.0096 -0.4478
 6583SOL    HW130218   8.350   9.213   2.523  0.7506  0.9080 -0.8318
 6583SOL    HW230219   8.476   9.271   2.609  0.7341 -0.9722  0.4973
 6584SOL     OW30220   9.562   1.535   4.014  0.2460 -0.6960 -0.2798
 6584SOL    HW130221   9.586   1.632   4.010 -0.8646 -0.3501  1.3311
 6584SOL    HW230222   9.607   1.487   3.938  1.0618  1.0060 -0.8994
 6585SOL     OW30223   1.290   8.348   0.894  0.6065  0.0117 -0.0411
 6585SOL    HW130224   1.326   8.256   0.876 -2.1218 -0.5322 -3.1480
 6585SOL    HW230225   1.213   8.341   0.957  0.4175  0.1608 -0.2552
 6586SOL     OW30226   2.201   3.355   0.496  0.3930  0.0348  0.6016
 6586SOL    HW130227   2.258   3.422   0.448 -1.8087  2.6057  1.3953
 6586SOL    HW230228   2.178   3.280   0.434  0.3242  1.6176 -1.3654
 6587SOL     OW30229   0.580   0.965   0.654 -0.2985  1.0383 -0.1371
 6587SOL    HW130230   0.641   0.935   0.580 -0.6172 -0.2304  0.0950
 6587SOL    HW230231   0.527   0.886   0.686 -0.7520  1.7616  0.8856
 6588SOL     OW30232   4.313   2.441   1.157  0.5568  0.0003  0.2295
 6588SOL    HW130233   4.351   2.534   1.157  1.5814 -0.4157  0.0119
 6588SOL    HW230234   4.246   2.433   1.082  1.1845  0.2765 -0.3703
 6589SOL     OW30235   8.101   2.152   2.204  0.5837 -0.1216 -0.2803
 6589SOL    HW130236   8.181   2.211   2.191 -0.6907  1.4628 -0.9698
 6589SOL    HW230237   8.088   2.096   2.122  0.7122 -0.0845 -0.3271
 6590SOL     OW30238   0.016   2.640   0.753  0.7806 -0.1846  0.3343
 6590SOL    HW130239  -0.013   2.655   0.658 -0.0656 -0.6102  0.5201
 6590SOL    HW230240  -0.028   2.558   0.788  0.0998  0.6703  1.5127
 6591SOL     OW30241   1.666   4.163   0.167 -0.6806 -0.3235  0.2915
 6591SOL    HW130242   1.707   4.215   0.241  0.2118 -2.8675  1.6627
 6591SOL    HW230243   1.680   4.211   0.080 -2.2025  2.9564  1.7521
 6592SOL     OW30244   7.155   2.475   0.776  0.2895  0.4866  0.2427
 6592SOL    HW130245   7.073   2.445   0.727  0.3376 -1.5370  1.3546
 6592SOL    HW230246   7.227   2.497   0.710  0.0131 -1.1909 -0.6556
 6593SOL     OW30247   0.582   2.681   2.060 -0.6895  0.3042 -0.2837
 6593SOL    HW130248   0.655   2.643   2.004 -1.8495  0.3599 -1.8834
 6593SOL    HW230249   0.505   2.617   2.062 -1.7201  1.4751 -1.0309
 6594SOL     OW30250   2.386   8.887   3.944  0.0340 -0.2774  0.2484
 6594SOL    HW130251   2.336   8.972   3.932 -1.0388 -0.9918 -0.4155
 6594SOL    HW230252   2.333   8.811   3.905  1.5745 -1.0582 -0.3691
 6595SOL     OW30253   7.995   8.565   1.774  0.5835  0.0157  0.0907
 6595SOL    HW130254   7.943   8.616   1.705  1.0359 -1.2416 -1.2062
 6595SOL    HW230255   8.087   8.548   1.740  0.7807 -0.7037  0.9780
 6596SOL     OW30256   8.953   8.916   2.192 -0.7588 -0.1495 -0.4229
 6596SOL    HW130257   8.914   8.826   2.211  0.2544 -0.6595 -0.7556
 6596SOL    HW230258   9.052   8.914   2.208 -0.7899  1.0248 -0.0047
 6597SOL     OW30259   1.526   2.487   0.880 -0.2404  0.3288 -0.2389
 6597SOL    HW130260   1.599   2.505   0.946  1.0201 -0.7926 -1.2839
 6597SOL    HW230261   1.551   2.527   0.792  0.3561 -2.2447 -1.2834
 6598SOL     OW30262   2.612   6.969   0.839  0.0711  0.4415 -0.2909
 6598SOL    HW130263   2.640   6.873   0.833  0.1373  0.5451 -1.8275
 6598SOL    HW230264   2.646   7.008   0.925  3.1731  0.0709 -1.2635
 6599SOL     OW30265   0.970   2.403   1.586  0.1235 -0.7896  0.2889
 6599SOL    HW130266   0.878   2.364   1.588 -0.0039 -0.5398 -0.3517
 6599SOL    HW230267   0.964   2.503   1.579  0.4452 -0.7403  0.6691
 6600SOL     OW30268   9.469   2.235   0.511 -0.5119  0.4822  0.4571
 6600SOL    HW130269   9.386   2.195   0.551 -0.5259  1.6327  1.6386
 6600SOL    HW230270   9.446   2.281   0.425 -0.3865 -2.4929 -1.2219
 6601SOL     OW30271   7.757   5.240   3.469 -0.7835 -0.2182  0.2471
 6601SOL    HW130272   7.806   5.240   3.556  0.1913 -0.1599 -0.2944
 6601SOL    HW230273   7.820   5.265   3.395 -1.8330  0.7356 -0.3398
 6602SOL     OW30274   8.266   8.584   3.587 -0.3654 -0.2997  0.5649
 6602SOL    HW130275   8.274   8.515   3.659 -0.2061 -0.8233  0.0436
 6602SOL    HW230276   8.264   8.540   3.498 -0.1096  0.3818  0.2169
 6603SOL     OW30277   1.895   7.636   2.872  0.0067  0.0155 -0.2906
 6603SOL    HW130278   1.817   7.581   2.902  0.4556 -0.7550 -0.5075
 6603SOL    HW230279   1.916   7.704   2.942  0.5022 -1.1931  0.7668
 6604SOL     OW30280   3.503   7.119   0.002 -0.0209 -0.5579  0.5146
 6604SOL    HW130281   3.461   7.030   0.019  1.2331 -1.1708  0.4685
 6604SOL    HW230282   3.433   7.185  -0.024 -0.7461 -1.9633 -1.1853
 6605SOL     OW30283   6.748   9.483   1.612  0.3750 -0.0041  0.1915
 6605SOL    HW130284   6.751   9.456   1.516 -0.6328 -0.0449  0.1701
 6605SOL    HW230285   6.761   9.582   1.619  2.0993 -0.2068  0.1365
 6606SOL     OW30286   0.908   3.420   2.631 -0.5032 -0.0489 -0.1408
 6606SOL    HW130287   0.921   3.517   2.606 -0.1895 -0.5887 -2.1939
 6606SOL    HW230288   0.811   3.398   2.628 -0.4925 -0.0359 -0.6212
 6607SOL     OW30289   6.605   9.592   2.383  0.0063  0.5113 -0.3693
 6607SOL    HW130290   6.669   9.668   2.379 -0.6568  1.2244  1.6374
 6607SOL    HW230291   6.636   9.526   2.451 -0.5905  0.1215 -0.4703
 6608SOL     OW30292   6.547   9.366   1.419 -0.0371 -0.0224 -0.0975
 6608SOL    HW130293   6.569   9.347   1.515  0.0322  0.6843  0.0282
 6608SOL    HW230294   6.631   9.388   1.369 -0.2992  1.6365  0.1454
 6609SOL     OW30295   9.824   8.372   2.940  1.3665  0.5409  0.2205
 6609SOL    HW130296   9.817   8.318   3.024  0.9166 -0.0292 -0.1767
 6609SOL    HW230297   9.735   8.374   2.895  1.6287  0.7793 -0.2905
 6610SOL     OW30298   1.594   5.288   0.378 -0.2723 -0.4506 -0.5920
 6610SOL    HW130299   1.549   5.345   0.309 -0.8166 -0.3137 -0.1238
 6610SOL    HW230300   1.527   5.262   0.448 -0.0726 -1.8145 -0.9008
 6611SOL     OW30301   1.357   6.751   2.388  0.0994 -0.4193 -0.0200
 6611SOL    HW130302   1.394   6.696   2.314  0.0989 -0.8521  0.2973
 6611SOL    HW230303   1.413   6.738   2.470  1.2786  1.5681 -0.4668
 6612SOL     OW30304   3.333   1.219   2.890 -0.6248 -0.2017  0.0839
 6612SOL    HW130305   3.426   1.181   2.889 -0.5384  0.0009 -1.9081
 6612SOL    HW230306   3.284   1.188   2.808 -1.4983  1.6402 -0.1003
 6613SOL     OW30307   9.643   2.403   1.448 -0.2529  0.4606  0.0937
 6613SOL    HW130308   9.628   2.489   1.401 -0.1631 -0.0749 -0.9210
 6613SOL    HW230309   9.731   2.406   1.496 -0.3299  0.9922  0.2032
 6614SOL     OW30310   5.233   8.368   2.810 -0.4013  0.2421 -0.0015
 6614SOL    HW130311   5.210   8.402   2.901  0.4089 -0.0943  0.3337
 6614SOL    HW230312   5.290   8.436   2.763 -3.0345  1.6322 -1.3008
 6615SOL     OW30313   1.634   0.062   3.844 -0.4482 -0.3187  0.8033
 6615SOL    HW130314   1.638  -0.038   3.848  0.9466 -0.2570  1.2264
 6615SOL    HW230315   1.697   0.100   3.911  1.2700  0.8257 -1.3917
 6616SOL     OW30316   7.051   0.771   2.687 -0.5042  0.5832  0.0275
 6616SOL    HW130317   7.002   0.750   2.772  0.3777  0.1902  0.4510
 6616SOL    HW230318   7.020   0.711   2.614 -0.1772 -0.1262  0.4665
 6617SOL     OW30319   9.118   2.086   3.941  1.4342  0.2935 -0.9930
 6617SOL    HW130320   9.027   2.085   3.983  1.3233  1.8418 -1.1556
 6617SOL    HW230321   9.118   2.029   3.859  1.1600 -1.3026  0.1028
 6618SOL     OW30322   2.914   7.830   0.583 -0.2835 -0.1402 -0.5970
 6618SOL    HW130323   2.871   7.918   0.603 -0.4572 -0.4395  0.3423
 6618SOL    HW230324   2.843   7.760   0.573 -0.0406 -0.5359  0.4656
 6619SOL     OW30325   0.959   2.055   1.861  0.2654 -0.3004  0.2899
 6619SOL    HW130326   0.904   2.114   1.801  0.6577 -0.5308 -0.2990
 6619SOL    HW230327   0.903   1.978   1.893 -0.1866  0.2737  0.8941
 6620SOL     OW30328   1.759   5.421   0.937  0.2123 -0.0837 -0.4181
 6620SOL    HW130329   1.854   5.415   0.905 -0.2232 -0.3316 -1.7214
 6620SOL    HW230330   1.698   5.408   0.859 -0.8917  0.2127  0.3962
 6621SOL     OW30331   3.772   2.064   0.670  0.2395 -0.2463  0.1852
 6621SOL    HW130332   3.813   2.083   0.580  0.3530 -0.3985  0.2050
 6621SOL    HW230333   3.750   2.151   0.715 -1.2671 -0.1743 -0.6495
 6622SOL     OW30334   1.159   6.729   0.813  0.1784 -0.3763  0.1568
 6622SOL    HW130335   1.194   6.793   0.881  0.7938  0.4881 -0.9617
 6622SOL    HW230336   1.185   6.759   0.721 -2.3252 -0.4657 -0.6189
 6623SOL     OW30337   1.353   5.834   3.177 -0.2212 -0.2649 -0.5078
 6623SOL    HW130338   1.290   5.879   3.241  0.3509  1.2627 -0.9872
 6623SOL    HW230339   1.433   5.801   3.226 -0.1793  0.1509 -0.2918
 6624SOL     OW30340   4.120   3.615   3.111 -0.4514  0.4292  0.0972
 6624SOL    HW130341   4.188   3.583   3.046  0.4234  1.7425  0.3408
 6624SOL    HW230342   4.076   3.537   3.156  1.5931 -0.4134  0.6525
 6625SOL     OW30343   9.848   0.906   1.820  0.0209 -0.1549 -0.3318
 6625SOL    HW130344   9.925   0.843   1.828 -0.3220 -0.6359 -0.8017
 6625SOL    HW230345   9.863   0.968   1.743 -0.6265 -1.0431 -1.1806
 6626SOL     OW30346   8.943   6.543   3.203 -0.0322 -0.5960  0.1843
 6626SOL    HW130347   8.913   6.637   3.185  1.4074 -0.1344  0.1043
 6626SOL    HW230348   8.999   6.510   3.127 -0.9585 -1.7136 -0.0250
 6627SOL     OW30349   7.121   9.141   3.124 -0.5474  0.3782  0.0159
 6627SOL    HW130350   7.203   9.196   3.142 -0.0335 -0.8387  1.6199
 6627SOL    HW230351   7.146   9.044   3.128 -2.0172  0.0063  0.2843
 6628SOL     OW30352   8.039   5.444   3.373  0.0770 -0.5455 -0.3116
 6628SOL    HW130353   8.085   5.450   3.461  0.5457  0.4027 -0.6107
 6628SOL    HW230354   8.029   5.348   3.346 -0.7444 -0.8711  1.1123
 6629SOL     OW30355   8.215   5.649   3.263 -0.0278  0.2406  0.2077
 6629SOL    HW130356   8.283   5.722   3.268 -1.3578  1.5635 -0.3679
 6629SOL    HW230357   8.166   5.643   3.350  0.9392 -0.8396  0.6867
 6630SOL     OW30358   7.514   6.567   3.483  0.1172  0.5643 -0.4099
 6630SOL    HW130359   7.580   6.523   3.423  0.2899  0.0327  0.1533
 6630SOL    HW230360   7.540   6.662   3.499 -1.0963  1.3505 -2.8744
 6631SOL     OW30361   9.081   9.119   3.175  0.4847  0.0250 -0.4163
 6631SOL    HW130362   9.013   9.138   3.245 -0.8059  0.1318 -1.6874
 6631SOL    HW230363   9.055   9.164   3.090  1.6003 -0.8064 -1.2134
 6632SOL     OW30364   3.690   0.220   3.156 -0.0621  0.0195 -0.0413
 6632SOL    HW130365   3.651   0.261   3.073 -0.2431  0.1423  0.1065
 6632SOL    HW230366   3.617   0.180   3.211  0.1978 -1.3076 -0.6253
 6633SOL     OW30367   0.729   4.497   0.300 -0.0348  0.0025 -0.1326
 6633SOL    HW130368   0.650   4.475   0.358 -0.2472  1.2394  0.0423
 6633SOL    HW230369   0.798   4.545   0.354  0.1007  0.4757 -0.7257
 6634SOL     OW30370   0.328   8.572   0.337  0.2299  0.2760  0.3073
 6634SOL    HW130371   0.406   8.533   0.385 -0.9148 -0.8866  1.2463
 6634SOL    HW230372   0.316   8.526   0.249 -0.7712 -1.1136  1.1631
 6635SOL     OW30373   9.055   5.696   3.552 -0.4870  0.3492 -0.0414
 6635SOL    HW130374   8.994   5.755   3.499 -1.6861 -1.1822 -0.4035
 6635SOL    HW230375   9.011   5.671   3.638 -0.2501 -0.5341 -0.1732
 6636SOL     OW30376   2.233   6.128   2.754 -0.3239 -0.0909  0.2328
 6636SOL    HW130377   2.261   6.118   2.659  2.2091 -2.6270  1.1616
 6636SOL    HW230378   2.249   6.222   2.785 -0.6417  0.5906 -1.6446
 6637SOL     OW30379   7.898   7.751   2.313  0.0889 -0.0302 -0.1667
 6637SOL    HW130380   7.987   7.786   2.282 -0.3657  0.1758 -1.2875
 6637SOL    HW230381   7.907   7.710   2.403  1.0701  1.0880  0.2456
 6638SOL     OW30382   9.716   9.800   1.467  0.2519 -0.1064 -0.2565
 6638SOL    HW130383   9.638   9.772   1.410 -0.3617  2.3577 -0.7093
 6638SOL    HW230384   9.798   9.808   1.409  0.0156  0.7581 -0.4772
 6639SOL     OW30385   2.917   9.957   2.382  0.0414  0.0761  0.1104
 6639SOL    HW130386   2.933  10.036   2.441 -0.2949 -1.3152  2.1085
 6639SOL    HW230387   2.996   9.942   2.323  0.4587  1.3738  0.3298
 6640SOL     OW30388   0.807   0.674   0.951 -0.3499  0.1754 -0.4335
 6640SOL    HW130389   0.754   0.591   0.936  1.1360 -0.7092 -0.8916
 6640SOL    HW230390   0.826   0.718   0.863  0.4580 -0.0026 -0.3476
 6641SOL     OW30391   1.695   3.326   2.618 -0.1963  0.2786 -0.0293
 6641SOL    HW130392   1.693   3.279   2.706 -1.4945  1.6469  0.6853
 6641SOL    HW230393   1.780   3.302   2.570  2.7688  2.9661  3.5201
 6642SOL     OW30394   3.569   1.932   1.867  0.6178  0.5693 -0.0467
 6642SOL    HW130395   3.622   2.016   1.855 -2.2868  2.4832  0.0771
 6642SOL    HW230396   3.528   1.905   1.780  2.3767 -1.3627 -0.3218
 6643SOL     OW30397   0.885   8.189   2.396  0.3326 -0.2169  0.7478
 6643SOL    HW130398   0.972   8.152   2.364 -0.5502 -1.5149 -0.2104
 6643SOL    HW230399   0.871   8.279   2.356  0.2671 -0.8932 -0.7899
 6644SOL     OW30400   8.477   7.970   2.964  0.0936  0.4947  0.2165
 6644SOL    HW130401   8.547   7.902   2.987  1.7811  2.2105  0.2396
 6644SOL    HW230402   8.399   7.923   2.922  1.9232 -1.2824 -1.3431
 6645SOL     OW30403   1.627   0.756   0.650 -0.7754  0.2122  0.0293
 6645SOL    HW130404   1.533   0.778   0.625 -0.7829 -0.2856 -0.3981
 6645SOL    HW230405   1.637   0.657   0.659  0.3141  0.0537 -2.5010
 6646SOL     OW30406   0.511   8.699   3.749  0.2645 -0.2578  0.2723
 6646SOL    HW130407   0.491   8.754   3.831 -0.4110 -1.9180  1.2434
 6646SOL    HW230408   0.427   8.681   3.699  0.4122 -0.8106  0.2171
 6647SOL     OW30409   9.316   8.158   0.461  0.7811  0.2303 -0.4417
 6647SOL    HW130410   9.319   8.089   0.533  0.3884  0.7158  0.0386
 6647SOL    HW230411   9.297   8.113   0.373  0.2237 -0.2332 -0.0853
 6648SOL     OW30412   3.911   1.490   1.907 -0.5169  0.3568  0.0170
 6648SOL    HW130413   3.885   1.578   1.947 -0.8700  0.2178  0.0932
 6648SOL    HW230414   3.839   1.458   1.846  0.0191  0.5679 -0.7424
 6649SOL     OW30415   8.107   6.957   3.499 -0.3103 -0.0973 -0.2827
 6649SOL    HW130416   8.125   6.893   3.424 -1.2060 -0.4549 -0.1950
 6649SOL    HW230417   8.153   6.925   3.582  1.4557  0.7840 -0.8821
 6650SOL     OW30418   1.509   2.371   1.907  0.7704 -0.4756  0.3299
 6650SOL    HW130419   1.488   2.468   1.922 -0.8024 -0.8114  0.4288
 6650SOL    HW230420   1.573   2.339   1.976 -2.4937 -0.7439  3.4128
 6651SOL     OW30421   2.798   4.619   2.279 -0.1079  0.0431  0.2273
 6651SOL    HW130422   2.734   4.544   2.293  1.0056 -0.8484  0.5846
 6651SOL    HW230423   2.804   4.640   2.181 -0.3911 -0.3572  0.1244
 6652SOL     OW30424   1.189   9.764   1.272  0.3615 -0.7427 -0.1185
 6652SOL    HW130425   1.258   9.798   1.335 -0.4902  0.0232  0.4174
 6652SOL    HW230426   1.113   9.829   1.267  1.1234 -0.0031 -3.1262
 6653SOL     OW30427   9.076   1.267   2.420  0.1488  0.0160  0.5956
 6653SOL    HW130428   9.017   1.348   2.423 -0.5358 -0.4779  0.5168
 6653SOL    HW230429   9.169   1.293   2.447  0.7253  1.4858 -2.6171
 6654SOL     OW30430   7.706   8.056   2.842  0.3105 -0.6272 -0.3505
 6654SOL    HW130431   7.703   7.969   2.793  0.6478 -1.1409  0.5228
 6654SOL    HW230432   7.741   8.040   2.935 -1.3368  0.1412  0.4207
 6655SOL     OW30433   1.046   0.056   1.052 -0.1889  0.3188  0.7330
 6655SOL    HW130434   1.100   0.051   0.968 -1.9533 -3.5658 -0.2823
 6655SOL    HW230435   0.948   0.058   1.029 -0.6982 -1.0461  2.6413
 6656SOL     OW30436   3.910   3.353   3.620  0.0297  0.2441 -0.5772
 6656SOL    HW130437   3.979   3.312   3.680  1.0651  0.3246 -1.6995
 6656SOL    HW230438   3.931   3.450   3.605 -1.4889  0.8013  0.7341
 6657SOL     OW30439   8.792   3.323   1.762 -0.0898  0.2258  0.0965
 6657SOL    HW130440   8.815   3.226   1.751  0.4002  0.4099 -0.5310
 6657SOL    HW230441   8.867   3.379   1.726 -0.1685  0.8382  0.8864
 6658SOL     OW30442   3.485   6.487   2.624  0.8227  0.4153  0.2384
 6658SOL    HW130443   3.444   6.487   2.715 -0.1674  0.4313 -0.1964
 6658SOL    HW230444   3.412   6.489   2.555  1.5380 -0.3353 -0.5537
 6659SOL     OW30445   9.714   0.303   3.467 -0.3463  0.0334 -0.4393
 6659SOL    HW130446   9.794   0.260   3.509 -0.7308  1.7975  2.1783
 6659SOL    HW230447   9.741   0.390   3.425 -0.6032 -0.0879 -0.8544
 6660SOL     OW30448   1.724   4.762   3.021  0.1482  0.4605 -0.6788
 6660SOL    HW130449   1.748   4.665   3.013 -0.0385  0.4297 -0.8705
 6660SOL    HW230450   1.625   4.773   3.006 -0.1728  0.4400  1.2649
 6661SOL     OW30451   7.838   8.863   2.457 -0.2631  0.6953 -0.3912
 6661SOL    HW130452   7.871   8.957   2.454 -0.8058  0.8770 -0.8476
 6661SOL    HW230453   7.770   8.849   2.385 -1.6518  0.5183  0.9049
 6662SOL     OW30454   0.850   3.010   0.657 -0.3180  0.4569  0.2201
 6662SOL    HW130455   0.753   3.014   0.679 -0.2273 -1.4063  1.1282
 6662SOL    HW230456   0.867   3.056   0.570 -2.5429 -1.9540 -1.5705
 6663SOL     OW30457   0.313   8.226   1.574 -0.3334  0.1713 -0.0303
 6663SOL    HW130458   0.390   8.181   1.619  0.9114  1.0198 -1.2746
 6663SOL    HW230459   0.255   8.157   1.530 -1.1264 -0.5929  2.1587
 6664SOL     OW30460   1.736   6.146   2.666  0.3401  0.3735 -0.4511
 6664SOL    HW130461   1.663   6.134   2.733  0.7912 -0.0370 -0.0313
 6664SOL    HW230462   1.807   6.078   2.681 -0.2586 -0.6993 -2.2908
 6665SOL     OW30463   7.952   5.184   3.301 -0.0546 -0.5449 -0.4255
 6665SOL    HW130464   7.931   5.087   3.309  0.1924 -0.6571 -1.0795
 6665SOL    HW230465   7.972   5.206   3.205  2.0847 -0.3034  0.0396
 6666SOL     OW30466   8.325   8.943   2.964 -0.0857  0.0775 -0.4633
 6666SOL    HW130467   8.273   9.022   2.994  0.9761  0.0496  1.4952
 6666SOL    HW230468   8.422   8.967   2.956  0.3130 -1.1286  0.5785
 6667SOL     OW30469   3.674   0.432   2.332 -0.2154  0.1733 -0.2358
 6667SOL    HW130470   3.767   0.449   2.365 -0.1045  1.1543 -1.0260
 6667SOL    HW230471   3.677   0.413   2.234 -0.9736  1.3897 -0.4936
 6668SOL     OW30472   2.895   2.144   3.909  0.1641  0.2976 -0.6823
 6668SOL    HW130473   2.904   2.075   3.981 -0.4838 -0.1500 -1.0224
 6668SOL    HW230474   2.985   2.182   3.888  0.5198 -0.4037 -0.4478
 6669SOL     OW30475   3.422   9.256   0.905  0.1237 -0.0045  0.7897
 6669SOL    HW130476   3.377   9.345   0.914  2.2954  0.9834  2.3004
 6669SOL    HW230477   3.389   9.194   0.977  0.0742  0.2392  0.9775
 6670SOL     OW30478   4.115   9.696   3.512  0.4512  0.0722  0.3445
 6670SOL    HW130479   4.172   9.695   3.594  0.5781 -0.3733  0.2507
 6670SOL    HW230480   4.033   9.752   3.529  0.9978  0.8525  0.4179
 6671SOL     OW30481   1.342   6.665   3.959 -0.1489 -0.1071  0.1631
 6671SOL    HW130482   1.284   6.591   3.925 -0.6149  0.1172  0.4687
 6671SOL    HW230483   1.294   6.715   4.031 -0.2598  1.1642 -0.7786
 6672SOL     OW30484   9.783   9.967   1.891  0.2527  0.0665  0.6821
 6672SOL    HW130485   9.812  10.061   1.906 -3.7588  1.3478  1.1669
 6672SOL    HW230486   9.748   9.957   1.798  2.1230 -1.3888  0.1178
 6673SOL     OW30487   4.420   2.847   0.523  0.3366 -0.3770 -0.0225
 6673SOL    HW130488   4.413   2.854   0.622  0.6152  0.3557 -0.0451
 6673SOL    HW230489   4.363   2.918   0.481  0.9449 -0.0941 -0.3674
 6674SOL     OW30490   2.790   7.891   0.332 -0.2031  0.1746  0.4993
 6674SOL    HW130491   2.715   7.826   0.320 -0.9905  1.2479 -0.5655
 6674SOL    HW230492   2.845   7.865   0.411 -0.9454 -1.3497  0.5305
 6675SOL     OW30493   1.467   4.883   0.871 -0.0152 -0.6111  0.2810
 6675SOL    HW130494   1.392   4.853   0.930 -2.2395  3.6362 -0.1746
 6675SOL    HW230495   1.508   4.965   0.909  1.5078 -0.3822 -1.7690
 6676SOL     OW30496   9.368   1.417   0.786 -0.4373  0.5207 -0.0638
 6676SOL    HW130497   9.468   1.427   0.785 -0.4045  0.2263  0.2118
 6676SOL    HW230498   9.342   1.339   0.729 -0.6373  1.6871 -1.6002
 6677SOL     OW30499   3.375   5.163   0.160  0.7827 -0.3422 -0.5886
 6677SOL    HW130500   3.400   5.215   0.078  0.8089  0.0983 -0.3034
 6677SOL    HW230501   3.429   5.079   0.163  0.9684 -0.2374 -0.8881
 6678SOL     OW30502   8.358   0.484   1.931  0.5121 -0.0595  0.1752
 6678SOL    HW130503   8.330   0.411   1.868 -2.4956  0.1591  1.2144
 6678SOL    HW230504   8.403   0.556   1.879 -1.3127 -0.1937 -1.6732
 6679SOL     OW30505   0.458   2.742   3.747  0.4897 -0.3382 -0.3548
 6679SOL    HW130506   0.442   2.720   3.651  0.0160 -2.0766  0.1087
 6679SOL    HW230507   0.441   2.661   3.803  1.4059  0.4785  1.1335
 6680SOL     OW30508   0.698   1.043   2.536 -1.0803 -0.1944 -0.0224
 6680SOL    HW130509   0.781   1.020   2.486  0.6079  1.9594  1.7145
 6680SOL    HW230510   0.686   0.979   2.612 -2.7190 -2.3832 -2.0088
 6681SOL     OW30511   9.796   1.013   0.556 -0.2161 -0.4847 -0.0262
 6681SOL    HW130512   9.849   0.986   0.637  1.5093  2.2231 -0.2054
 6681SOL    HW230513   9.852   1.001   0.474 -1.2921 -1.3827 -0.6433
 6682SOL     OW30514   1.174   8.813   1.208 -0.2442 -0.1989 -0.1155
 6682SOL    HW130515   1.121   8.732   1.182 -0.7647  0.8221 -2.4099
 6682SOL    HW230516   1.267   8.785   1.231 -0.7314 -1.5849  0.2507
 6683SOL     OW30517   1.974   2.907   1.343 -0.0939 -0.0310  0.2811
 6683SOL    HW130518   1.910   2.837   1.374 -1.5498  0.8729 -0.6352
 6683SOL    HW230519   1.943   2.997   1.376  0.2001  0.5168 -0.9329
 6684SOL     OW30520   0.431   7.870   1.615 -0.1753  0.4384 -0.0261
 6684SOL    HW130521   0.493   7.944   1.591  1.0514 -0.6522 -0.2972
 6684SOL    HW230522   0.421   7.808   1.537 -0.7163 -0.0051  0.3878
 6685SOL     OW30523   2.461   4.775   3.594 -0.5391 -0.0318 -0.6514
 6685SOL    HW130524   2.497   4.752   3.684  2.2010  1.2869 -1.3666
 6685SOL    HW230525   2.463   4.694   3.535 -3.7331 -1.2836  0.8539
 6686SOL     OW30526   1.049   6.405   1.168  0.4890 -0.5498 -0.8397
 6686SOL    HW130527   1.107   6.467   1.114 -0.2482  2.8394  2.1122
 6686SOL    HW230528   1.098   6.377   1.250  0.3030 -2.9004 -1.4999
 6687SOL     OW30529   1.767   5.699   0.966  0.5477 -0.3415 -0.2021
 6687SOL    HW130530   1.749   5.604   0.938 -3.4789 -0.1246  1.2928
 6687SOL    HW230531   1.849   5.702   1.022  1.1801 -2.8382 -0.9206
 6688SOL     OW30532   8.498   9.057   3.611  0.2941 -0.2260 -0.2190
 6688SOL    HW130533   8.492   9.147   3.568  0.4859 -0.3679 -0.5391
 6688SOL    HW230534   8.451   8.990   3.554 -0.1839 -0.2590  0.2101
 6689SOL     OW30535   0.920   2.425   2.717 -0.4520 -0.4873  0.2219
 6689SOL    HW130536   0.899   2.439   2.813 -2.1518  0.8470 -0.3128
 6689SOL    HW230537   1.018   2.411   2.705  0.1812  2.2432  1.8339
 6690SOL     OW30538   0.243   3.271   2.189  0.3076 -0.6328 -0.1358
 6690SOL    HW130539   0.181   3.214   2.135  1.4112  1.1680 -3.3732
 6690SOL    HW230540   0.337   3.255   2.160  1.0506 -0.4833  2.0886
 6691SOL     OW30541   9.433   5.341   0.039  0.2806  0.0096 -0.4137
 6691SOL    HW130542   9.496   5.400  -0.013  1.0167 -0.5277 -0.1470
 6691SOL    HW230543   9.383   5.282  -0.024  1.6595 -1.1135 -0.4825
 6692SOL     OW30544   4.127   8.797   3.257  0.5936 -0.1266 -0.6539
 6692SOL    HW130545   4.140   8.712   3.206 -1.0758 -0.5607 -0.3823
 6692SOL    HW230546   4.062   8.855   3.209  1.6504  0.9700 -0.7853
 6693SOL     OW30547   8.810   2.894   2.619  0.3616 -0.3223  0.2486
 6693SOL    HW130548   8.790   2.854   2.529 -0.5469  0.4616  0.0981
 6693SOL    HW230549   8.901   2.936   2.617  0.1815  0.0364 -0.4193
 6694SOL     OW30550   4.851   1.774   2.122 -0.2146  0.5985  0.3892
 6694SOL    HW130551   4.848   1.736   2.029 -0.9606  2.4666 -0.3846
 6694SOL    HW230552   4.907   1.857   2.122 -0.4033  0.7357  1.5808
 6695SOL     OW30553   1.039   5.052   3.894  0.2323  0.0262 -0.0787
 6695SOL    HW130554   1.138   5.066   3.904  0.2885 -1.3587  1.4309
 6695SOL    HW230555   1.019   5.021   3.801  1.5510 -2.3767  0.3981
 6696SOL     OW30556   0.425   2.802   2.249  0.0488  0.0901 -0.3796
 6696SOL    HW130557   0.473   2.768   2.167  1.9089 -0.3900  0.8691
 6696SOL    HW230558   0.461   2.756   2.330 -2.3107  0.0196  0.6511
 6697SOL     OW30559   3.903   8.558   3.179 -0.1426 -0.2732  0.2208
 6697SOL    HW130560   3.884   8.519   3.269 -0.7501  2.2256  1.1937
 6697SOL    HW230561   3.942   8.649   3.189  0.2214 -0.1461 -2.0423
 6698SOL     OW30562   8.370   4.729   2.480  0.0137  0.4807 -0.6103
 6698SOL    HW130563   8.369   4.651   2.544 -1.3571  1.0823  0.1121
 6698SOL    HW230564   8.447   4.789   2.502  0.2927  0.0226 -0.3248
 6699SOL     OW30565   2.880   0.952   2.510 -0.2400  0.4102  0.3747
 6699SOL    HW130566   2.781   0.951   2.494 -0.2580  0.5122  0.4781
 6699SOL    HW230567   2.898   0.989   2.601 -0.1472 -0.3305  0.6594
 6700SOL     OW30568   2.820   2.833   3.400 -0.2431 -0.1529 -0.0282
 6700SOL    HW130569   2.756   2.774   3.449  0.4621  0.3134  1.4700
 6700SOL    HW230570   2.906   2.785   3.384  0.1501  0.2897  0.7417
 6701SOL     OW30571   3.786   7.738   1.441  0.1288 -0.1830 -0.2373
 6701SOL    HW130572   3.747   7.646   1.444 -0.9023  0.2679  1.1321
 6701SOL    HW230573   3.726   7.798   1.389  0.1047  0.0249  0.0289
 6702SOL     OW30574   3.968   2.947   3.651 -0.1826  0.1257  0.4555
 6702SOL    HW130575   3.955   2.869   3.712  0.4612 -1.1697 -1.0207
 6702SOL    HW230576   3.879   2.986   3.627 -0.6340 -1.3644 -0.3187
 6703SOL     OW30577   0.102   2.941   3.066  0.1595 -0.4662 -0.0665
 6703SOL    HW130578   0.154   3.010   3.016 -0.4852  0.9915  1.2316
 6703SOL    HW230579   0.112   2.853   3.021 -0.0607  0.7186 -2.5170
 6704SOL     OW30580   1.537   8.524   1.024  0.2006 -0.2249  0.3609
 6704SOL    HW130581   1.463   8.535   0.958  0.9696 -2.0528 -0.8380
 6704SOL    HW230582   1.499   8.510   1.116 -0.9197 -0.9550 -0.2097
 6705SOL     OW30583   9.832   9.055   2.859 -0.0360 -0.6208 -0.3138
 6705SOL    HW130584   9.752   9.002   2.888  1.5099 -1.3904  2.7151
 6705SOL    HW230585   9.841   9.049   2.759 -2.2001 -2.7346 -0.4321
 6706SOL     OW30586   2.891   6.263   1.609 -0.4118  0.1218 -0.1997
 6706SOL    HW130587   2.893   6.362   1.593  1.2068  0.3027  0.9875
 6706SOL    HW230588   2.799   6.229   1.593 -1.2262  1.9841  0.3261
 6707SOL     OW30589   8.227   7.020   0.136  0.1743  0.2225 -0.0238
 6707SOL    HW130590   8.209   7.027   0.235 -1.3839 -2.7214 -0.0302
 6707SOL    HW230591   8.201   7.105   0.091 -0.6997  1.0045  1.9006
 6708SOL     OW30592   1.890   9.857   2.859 -0.5104 -0.2641  0.5821
 6708SOL    HW130593   1.944   9.936   2.829 -0.9007 -0.2545 -0.0987
 6708SOL    HW230594   1.802   9.888   2.893  0.2702 -0.1883  2.6065
 6709SOL     OW30595   8.359   3.965   2.175  0.1993 -0.7260  0.5713
 6709SOL    HW130596   8.391   3.896   2.239  0.2174 -0.1781  1.1532
 6709SOL    HW230597   8.391   3.942   2.082  1.3771 -0.7635  0.9707
 6710SOL     OW30598   1.574   4.687   0.109  0.0164 -0.5108 -0.3356
 6710SOL    HW130599   1.527   4.603   0.134 -0.4174  0.0368  0.7186
 6710SOL    HW230600   1.643   4.667   0.039 -0.1087 -1.7324 -0.1218
 6711SOL     OW30601   9.480   0.333   3.603 -0.4008 -0.1035 -0.4102
 6711SOL    HW130602   9.567   0.309   3.560 -1.0990  0.4187 -2.1612
 6711SOL    HW230603   9.428   0.250   3.622  1.2818 -0.5927  2.5155
 6712SOL     OW30604   9.414   9.429   0.694 -0.2374  0.3773 -0.0858
 6712SOL    HW130605   9.455   9.520   0.703  0.7979 -0.0255 -0.7604
 6712SOL    HW230606   9.450   9.369   0.766 -0.0984  0.1943 -0.3094
 6713SOL     OW30607   0.763   6.731   3.214  0.3204  0.7838  0.2016
 6713SOL    HW130608   0.675   6.718   3.259 -0.1093  3.6703  0.3236
 6713SOL    HW230609   0.837   6.724   3.281 -0.0963  1.8553  0.7868
 6714SOL     OW30610   2.088   2.923   0.567  0.4029 -0.1147  0.0535
 6714SOL    HW130611   2.036   3.007   0.552 -0.7121 -0.6034  1.0956
 6714SOL    HW230612   2.097   2.874   0.480  0.8637  0.9600 -0.5161
 6715SOL     OW30613   4.646   0.957   0.695  0.4794  0.4525 -0.1351
 6715SOL    HW130614   4.690   0.918   0.615  0.6237 -0.9606  0.6036
 6715SOL    HW230615   4.557   0.994   0.670  0.5933  0.1653 -0.9675
 6716SOL     OW30616   9.266   2.276   2.376 -0.1799  0.5098 -0.3839
 6716SOL    HW130617   9.324   2.342   2.423  1.0703 -1.9789  1.7269
 6716SOL    HW230618   9.176   2.274   2.419  0.6758 -1.1104  1.4263
 6717SOL     OW30619   8.982   3.720   1.870 -0.0944 -0.1909 -0.0593
 6717SOL    HW130620   8.975   3.673   1.782  1.5285  0.1544 -0.4017
 6717SOL    HW230621   8.902   3.700   1.926 -1.2279 -0.2866 -1.6820
 6718SOL     OW30622   4.195   8.416   2.930 -0.3323  0.0030  0.3187
 6718SOL    HW130623   4.235   8.362   2.855  1.4168  0.2416  1.0412
 6718SOL    HW230624   4.112   8.371   2.963 -0.0593 -1.1285 -0.4977
 6719SOL     OW30625   0.959   7.330   2.221  0.1045 -0.3039 -0.3605
 6719SOL    HW130626   0.926   7.341   2.315  0.4934  0.7801 -0.3414
 6719SOL    HW230627   1.023   7.404   2.200  0.5414 -0.9329 -1.2532
 6720SOL     OW30628   7.819   8.313   1.815  0.1441 -0.1177 -0.6651
 6720SOL    HW130629   7.867   8.400   1.822  1.4307 -0.8625 -0.1169
 6720SOL    HW230630   7.752   8.306   1.890  0.7470 -0.0311 -0.1115
 6721SOL     OW30631   1.238   2.766   2.363 -0.6840 -0.0974  0.3986
 6721SOL    HW130632   1.215   2.672   2.385  0.0567 -0.5614 -0.7789
 6721SOL    HW230633   1.163   2.808   2.312 -0.6703 -0.3242  0.1878
 6722SOL     OW30634   1.621   1.085   3.212  0.9594  0.2069 -0.4720
 6722SOL    HW130635   1.628   1.003   3.270 -1.6308  1.2659  1.4352
 6722SOL    HW230636   1.689   1.152   3.241  0.3579  0.3246  0.7039
 6723SOL     OW30637   9.648   6.019   3.380 -0.3631 -0.0197  0.5112
 6723SOL    HW130638   9.727   5.960   3.365 -0.7154  0.1679 -2.3867
 6723SOL    HW230639   9.677   6.114   3.384 -0.4318  0.0803 -0.9091
 6724SOL     OW30640   1.891   0.898   3.748 -0.1548  0.3424  0.0276
 6724SOL    HW130641   1.962   0.828   3.741 -0.8629 -0.3576 -0.1871
 6724SOL    HW230642   1.875   0.919   3.844  0.4435  0.6073  0.0713
 6725SOL     OW30643   8.414   0.299   3.138  0.2558 -0.5153 -0.1221
 6725SOL    HW130644   8.507   0.276   3.113  1.6059  4.3282 -0.1147
 6725SOL    HW230645   8.413   0.332   3.233 -1.6236 -1.2727  0.1410
 6726SOL     OW30646   1.320   6.382   0.165 -0.2599  0.7100 -0.0669
 6726SOL    HW130647   1.345   6.352   0.257 -1.0195  0.6561  0.1208
 6726SOL    HW230648   1.396   6.434   0.126 -0.0334  0.9550  0.6896
 6727SOL     OW30649   8.514   8.145   3.648 -0.0638 -0.2803 -0.2840
 6727SOL    HW130650   8.517   8.142   3.748 -1.4583  0.7101 -0.2030
 6727SOL    HW230651   8.605   8.125   3.611 -0.1251 -3.3765  1.0942
 6728SOL     OW30652   1.827   2.466   1.640 -0.0114  0.2358  0.2850
 6728SOL    HW130653   1.864   2.454   1.733  1.0352  0.3384 -0.1164
 6728SOL    HW230654   1.729   2.446   1.641 -0.0612  0.4635  1.4659
 6729SOL     OW30655   1.585   4.595   2.182  0.0153  0.1440 -0.0359
 6729SOL    HW130656   1.513   4.633   2.240  0.3117  0.1714  0.3106
 6729SOL    HW230657   1.640   4.531   2.235 -0.9416 -1.3543 -0.8001
 6730SOL     OW30658   1.688   1.417   1.504 -0.3209  0.4945  0.4065
 6730SOL    HW130659   1.783   1.434   1.478 -0.8481  0.8022 -1.3593
 6730SOL    HW230660   1.627   1.447   1.431 -1.6623 -2.0001  0.4447
 6731SOL     OW30661   9.897   4.981   3.442 -0.6380  0.1190  0.0042
 6731SOL    HW130662   9.952   4.953   3.363 -0.4072 -0.3106  0.3188
 6731SOL    HW230663   9.809   4.933   3.439 -0.8495  0.5248 -0.2958
 6732SOL     OW30664   1.410   5.902   3.575 -0.0427 -0.1901  0.0597
 6732SOL    HW130665   1.375   5.832   3.638  1.8518 -0.9439  0.2968
 6732SOL    HW230666   1.361   5.988   3.591  0.4593 -0.3315  2.6415
 6733SOL     OW30667   1.911   4.614   1.551  0.4991 -0.1253 -0.2280
 6733SOL    HW130668   1.815   4.590   1.537  1.2577 -2.2204 -1.9994
 6733SOL    HW230669   1.969   4.542   1.514  2.7684  0.8213  1.4185
 6734SOL     OW30670   9.072   5.556   1.704  0.3291 -0.2844  0.5742
 6734SOL    HW130671   9.094   5.652   1.721 -0.0653 -0.0078 -0.4729
 6734SOL    HW230672   9.076   5.538   1.606 -2.0842 -0.7319  0.5371
 6735SOL     OW30673   3.704   2.823   1.556 -0.1420 -0.4301 -0.1782
 6735SOL    HW130674   3.684   2.728   1.533  2.7564 -1.1801  0.2525
 6735SOL    HW230675   3.678   2.882   1.479 -1.2245 -1.6255 -0.7465
 6736SOL     OW30676   7.722   9.367   1.846  0.1343  0.0295  0.7904
 6736SOL    HW130677   7.783   9.320   1.910  1.0885 -0.0493 -0.1553
 6736SOL    HW230678   7.740   9.465   1.848  0.4203 -0.0107  0.3945
 6737SOL     OW30679   9.874   5.941   2.829  0.0457 -0.1864 -0.1101
 6737SOL    HW130680   9.786   5.977   2.800  0.9299  0.7057 -1.7640
 6737SOL    HW230681   9.921   5.899   2.751  1.3284 -0.1187  0.6051
 6738SOL     OW30682   8.709   3.043   1.285  0.2747 -0.5313 -0.1599
 6738SOL    HW130683   8.657   3.031   1.200 -1.6622  0.2734  0.8580
 6738SOL    HW230684   8.660   2.999   1.360  1.2094  0.0085  0.7788
 6739SOL     OW30685   9.923   3.731   3.488 -0.1726  0.0767  0.0920
 6739SOL    HW130686   9.859   3.793   3.534  0.0138  0.2516  0.1162
 6739SOL    HW230687   9.873   3.675   3.421 -0.3867  0.0563  0.2680
 6740SOL     OW30688   7.955   1.933   3.433 -0.3173 -0.0182 -0.2229
 6740SOL    HW130689   8.018   2.010   3.439 -1.2755  0.6286  1.7031
 6740SOL    HW230690   7.881   1.956   3.369  0.2297  0.0637 -0.8265
 6741SOL     OW30691   9.179   9.046   2.427 -0.5220 -0.3040 -0.2506
 6741SOL    HW130692   9.204   9.027   2.332  1.6238  1.6657 -0.1167
 6741SOL    HW230693   9.220   8.977   2.487  0.0710 -0.1833 -0.5225
 6742SOL     OW30694   3.931   0.607   2.063 -0.1764 -0.4251  0.5232
 6742SOL    HW130695   3.898   0.622   2.157  0.0734  0.7653  0.4378
 6742SOL    HW230696   3.857   0.625   1.999  0.0365  0.1543  0.4333
 6743SOL     OW30697   3.722   8.568   3.831 -0.2567  0.3108  0.2392
 6743SOL    HW130698   3.640   8.510   3.821 -0.2165  0.1622  0.7330
 6743SOL    HW230699   3.700   8.662   3.805 -0.4460  0.1682 -0.1274
 6744SOL     OW30700   1.100   0.549   3.915  0.5358  0.0165 -0.5547
 6744SOL    HW130701   1.046   0.633   3.920  0.7952  0.1595 -0.1548
 6744SOL    HW230702   1.185   0.561   3.965  0.4665 -0.5646 -0.2904
 6745SOL     OW30703   8.639   2.014   3.468  0.5401  0.3670 -0.1593
 6745SOL    HW130704   8.712   1.946   3.461  0.3192  0.2329 -1.1369
 6745SOL    HW230705   8.555   1.978   3.429 -0.0376  0.5607  0.8736
 6746SOL     OW30706   4.295   8.302   2.704 -0.2970 -0.2448  0.2830
 6746SOL    HW130707   4.394   8.313   2.699 -0.4218  0.0088 -2.0325
 6746SOL    HW230708   4.264   8.240   2.631 -2.0085  0.9869 -0.0693
 6747SOL     OW30709   8.635   8.268   0.336  0.0418 -1.0061  0.0570
 6747SOL    HW130710   8.674   8.349   0.291  0.6401 -2.2248 -1.6445
 6747SOL    HW230711   8.645   8.188   0.277  0.5936 -2.6069  2.2318
 6748SOL     OW30712   0.798   0.305   1.839 -0.5503 -0.5399 -0.7355
 6748SOL    HW130713   0.780   0.363   1.759  0.2837 -0.4597 -0.8659
 6748SOL    HW230714   0.892   0.319   1.871 -1.1297  0.0303  0.7681
 6749SOL     OW30715   4.312   0.662   0.831  0.5090  0.2219  0.4092
 6749SOL    HW130716   4.217   0.630   0.831  0.1586  1.1772  1.9060
 6749SOL    HW230717   4.371   0.591   0.870  0.0133  0.6235  1.9359
 6750SOL     OW30718   8.797   5.651   1.774 -0.4757  0.0844 -0.0825
 6750SOL    HW130719   8.869   5.618   1.714  0.1779 -2.2569  1.9321
 6750SOL    HW230720   8.837   5.696   1.853 -1.2898  0.8313 -0.0760
 6751SOL     OW30721   0.782   3.311   0.012  0.0510 -0.2810  0.1724
 6751SOL    HW130722   0.748   3.228   0.057  1.1721  0.3461  2.2602
 6751SOL    HW230723   0.740   3.320  -0.078 -2.5692 -1.3970  1.2304
 6752SOL     OW30724   2.083   9.514   1.263  0.3288 -0.0991  0.5267
 6752SOL    HW130725   2.051   9.459   1.185  0.5746  1.5249 -0.7534
 6752SOL    HW230726   2.175   9.549   1.243  0.6091 -0.0942  1.7907
 6753SOL     OW30727   1.954   7.620   1.280  0.0019  0.0818 -0.1974
 6753SOL    HW130728   1.893   7.639   1.203 -0.6602 -0.4035  0.2023
 6753SOL    HW230729   1.901   7.579   1.354  0.9387 -0.9296 -0.0894
 6754SOL     OW30730   3.907   3.328   2.927  0.5174 -0.0277 -0.6769
 6754SOL    HW130731   3.871   3.345   3.019 -0.5046  1.7262 -1.3624
 6754SOL    HW230732   3.852   3.257   2.883  0.0748  0.1669 -0.4495
 6755SOL     OW30733   1.916   8.866   1.698  0.9671 -0.2589  0.1386
 6755SOL    HW130734   2.010   8.832   1.691  1.2538  0.1321  2.0547
 6755SOL    HW230735   1.853   8.796   1.662  1.8540 -1.2134  0.4379
 6756SOL     OW30736   2.147   6.941   1.932 -0.1032 -0.6219 -0.4167
 6756SOL    HW130737   2.150   6.843   1.952 -1.0418 -0.9137 -1.6394
 6756SOL    HW230738   2.158   6.993   2.017  0.1105 -1.7792  0.2740
 6757SOL     OW30739   2.420   0.966   0.278 -0.3251 -0.1962  0.1560
 6757SOL    HW130740   2.442   1.019   0.196  0.0607 -0.3459  0.1632
 6757SOL    HW230741   2.322   0.976   0.298 -0.4915 -0.4174 -0.5105
 6758SOL     OW30742   5.135   7.478   2.670 -0.0928 -0.0990 -0.2453
 6758SOL    HW130743   5.158   7.385   2.642  1.1627  0.5502 -1.4902
 6758SOL    HW230744   5.049   7.478   2.720 -0.3663 -1.8552 -0.6812
 6759SOL     OW30745   9.050   8.603   0.899 -0.3731 -0.3107  0.4377
 6759SOL    HW130746   9.126   8.623   0.838 -0.4019 -0.4472  0.3582
 6759SOL    HW230747   8.967   8.645   0.863 -0.3176 -0.0792  0.5745
 6760SOL     OW30748   1.953   7.106   1.010 -0.3040  0.0681  0.2368
 6760SOL    HW130749   1.946   7.204   0.995  0.7843 -0.0923 -1.3896
 6760SOL    HW230750   1.925   7.085   1.104 -0.9976  1.8572  0.4591
 6761SOL     OW30751   7.746   8.012   1.454 -0.5246  0.0085 -0.1219
 6761SOL    HW130752   7.774   8.042   1.363 -1.5424  0.3356 -0.3293
 6761SOL    HW230753   7.819   7.956   1.494 -1.0001 -2.0033 -2.0142
 6762SOL     OW30754   9.162   3.506   1.198 -0.1168  0.6174 -0.1484
 6762SOL    HW130755   9.162   3.572   1.123 -0.0331  2.8518  1.7645
 6762SOL    HW230756   9.235   3.527   1.262 -0.0742 -1.3634  0.5140
 6763SOL     OW30757   1.921   6.103   0.057 -0.4746  0.2564 -0.1054
 6763SOL    HW130758   1.832   6.108   0.013 -0.6786 -1.4280  0.0889
 6763SOL    HW230759   1.910   6.114   0.156 -0.4866 -0.1141 -0.0653
 6764SOL     OW30760   5.027   0.583   2.037  0.1396 -0.1871  0.4464
 6764SOL    HW130761   5.002   0.674   2.070  0.6540 -0.1227  0.6714
 6764SOL    HW230762   5.079   0.592   1.952  0.3571 -0.2539  0.5701
 6765SOL     OW30763   8.182   2.901   0.638 -0.6998  0.2631 -0.2345
 6765SOL    HW130764   8.134   2.971   0.586  0.4834  0.8191 -0.5857
 6765SOL    HW230765   8.280   2.911   0.626 -0.4727 -0.7419  0.6414
 6766SOL     OW30766   9.364   0.208   1.107  0.6611 -0.1080  0.1082
 6766SOL    HW130767   9.378   0.139   1.037  2.4912 -0.4399  0.7730
 6766SOL    HW230768   9.367   0.299   1.064 -0.4778 -0.3769 -0.5675
 6767SOL     OW30769   3.213   2.787   0.745 -0.2016  0.5524  0.2855
 6767SOL    HW130770   3.301   2.774   0.700  0.1520  1.8564  0.5669
 6767SOL    HW230771   3.165   2.700   0.752  1.1971 -0.2160  0.3868
 6768SOL     OW30772   8.518   5.426   2.243  0.1505 -0.0573 -0.6515
 6768SOL    HW130773   8.477   5.437   2.153 -0.7003 -1.5446 -0.4642
 6768SOL    HW230774   8.448   5.436   2.314  1.1575  3.0291 -0.0305
 6769SOL     OW30775   3.983   4.155   3.746 -0.3461  0.5845 -0.1136
 6769SOL    HW130776   3.932   4.081   3.703 -1.8670  0.7468  1.3473
 6769SOL    HW230777   4.046   4.116   3.813  0.0151  0.5087 -0.4970
 6770SOL     OW30778   5.187   7.237   2.595  0.1138 -0.4281 -0.4265
 6770SOL    HW130779   5.131   7.204   2.519  1.5363 -0.3070 -1.5608
 6770SOL    HW230780   5.276   7.190   2.593  1.6021  2.2976 -1.1604
 6771SOL     OW30781   8.118   2.898   1.935  0.3436 -0.2179  0.8029
 6771SOL    HW130782   8.050   2.957   1.977 -1.3224 -1.8133  0.4039
 6771SOL    HW230783   8.128   2.922   1.838 -0.2557 -0.5047  0.6671
 6772SOL     OW30784   3.837   1.194   0.892 -0.8583 -0.3356  0.1160
 6772SOL    HW130785   3.810   1.128   0.962 -0.8649 -0.8791 -0.3883
 6772SOL    HW230786   3.835   1.149   0.802  0.1271  0.0798 -0.1144
 6773SOL     OW30787   9.955   5.250   2.413 -1.3334 -0.1727 -0.0856
 6773SOL    HW130788   9.992   5.300   2.335 -2.5640  2.6244  1.0172
 6773SOL    HW230789   9.970   5.152   2.401  0.0583  0.3385 -2.9587
 6774SOL     OW30790   1.934   7.482   0.545  0.0839  0.1502  0.3180
 6774SOL    HW130791   1.936   7.400   0.603 -0.8260  0.0281  0.1847
 6774SOL    HW230792   2.014   7.482   0.485 -1.1770 -1.9273 -1.4187
 6775SOL     OW30793   0.556   0.988   2.791 -0.3838  0.4840  0.4706
 6775SOL    HW130794   0.643   0.939   2.800  0.4093  1.8591  0.3453
 6775SOL    HW230795   0.513   0.995   2.881 -0.8261 -0.9934  0.3989
 6776SOL     OW30796   2.491   3.044   0.797  0.1243  0.3667  0.4806
 6776SOL    HW130797   2.392   3.032   0.803  0.1878  0.3818  1.5525
 6776SOL    HW230798   2.521   3.028   0.702 -0.5819 -1.9877  0.6280
 6777SOL     OW30799   4.295   0.922   3.908 -0.1527 -0.1385  0.6003
 6777SOL    HW130800   4.358   0.921   3.830  1.7173  1.0472  2.0432
 6777SOL    HW230801   4.286   0.829   3.944  0.5853 -0.3716  0.2105
 6778SOL     OW30802   2.152   2.019   3.571 -0.2428 -0.2168 -0.0971
 6778SOL    HW130803   2.059   1.991   3.594 -0.0518 -1.4764 -0.8310
 6778SOL    HW230804   2.167   2.113   3.604 -1.3898 -0.4041  1.0347
 6779SOL     OW30805   8.248   1.812   3.154 -0.1798  0.0203 -0.5559
 6779SOL    HW130806   8.239   1.785   3.058 -0.3385 -0.2177 -0.4735
 6779SOL    HW230807   8.188   1.890   3.172  0.1357  0.3092 -0.7441
 6780SOL     OW30808   8.519   2.476   1.738  0.1913 -0.4997  0.2865
 6780SOL    HW130809   8.437   2.427   1.768 -0.0354  0.5097  1.3442
 6780SOL    HW230810   8.565   2.423   1.666 -2.2491 -0.3217 -1.4739
 6781SOL     OW30811   9.638   0.984   2.835  0.2512 -0.2423 -0.7276
 6781SOL    HW130812   9.663   1.080   2.824  0.1222 -0.0839  0.3702
 6781SOL    HW230813   9.688   0.945   2.912  0.5711 -1.1587 -1.3904
 6782SOL     OW30814   2.965   7.027   0.122 -0.3566  0.5341 -0.2014
 6782SOL    HW130815   3.058   6.991   0.130 -0.7463 -0.7489 -1.2513
 6782SOL    HW230816   2.954   7.104   0.184  0.4806 -1.1992  2.2063
 6783SOL     OW30817   1.561   7.359   3.604 -0.2137 -0.0062 -0.8086
 6783SOL    HW130818   1.632   7.345   3.674  0.2133  0.9316 -1.0417
 6783SOL    HW230819   1.593   7.321   3.517  1.5438  3.4777 -1.7878
 6784SOL     OW30820   4.245   7.935   2.900 -0.4380  0.3291 -0.0817
 6784SOL    HW130821   4.267   7.937   2.802 -1.4265 -0.2591 -0.3115
 6784SOL    HW230822   4.172   8.000   2.919  1.4055  2.2656  0.6916
 6785SOL     OW30823   8.614   4.711   3.578 -0.1829  0.4861  0.5487
 6785SOL    HW130824   8.688   4.752   3.632 -0.5025  1.7382  0.0575
 6785SOL    HW230825   8.571   4.782   3.523  0.5273 -0.8682 -1.8058
 6786SOL     OW30826   1.250   1.752   2.998  0.0713 -0.1615 -0.0517
 6786SOL    HW130827   1.156   1.724   2.982 -0.3631  1.7123 -0.9928
 6786SOL    HW230828   1.309   1.672   3.007 -1.2849 -1.3194 -1.4324
 6787SOL     OW30829   9.318   5.266   3.305  0.0782 -0.0782 -0.0505
 6787SOL    HW130830   9.220   5.283   3.303  0.0811 -0.1723 -1.8849
 6787SOL    HW230831   9.344   5.208   3.228  1.9152  1.8459 -0.9312
 6788SOL     OW30832   2.257   9.065   1.761  0.0788 -0.1150  0.0105
 6788SOL    HW130833   2.349   9.062   1.799  0.0338 -0.3485  0.1005
 6788SOL    HW230834   2.211   8.977   1.775  0.5613 -0.6988 -1.8556
 6789SOL     OW30835   4.067   9.444   0.882  0.1463 -0.1943 -0.1567
 6789SOL    HW130836   4.009   9.402   0.952 -0.1216 -4.0005 -2.4914
 6789SOL    HW230837   4.154   9.471   0.922 -0.4613 -1.2147  1.8868
 6790SOL     OW30838   2.994   3.379   2.057  0.2787 -0.2261 -0.1583
 6790SOL    HW130839   3.082   3.413   2.023  0.5758 -1.8519 -1.0318
 6790SOL    HW230840   2.920   3.429   2.012  0.7225  0.2167 -0.4075
 6791SOL     OW30841   9.447   5.765   3.098 -0.5128 -0.1757 -0.3402
 6791SOL    HW130842   9.448   5.696   3.171  0.7254 -0.0522 -0.2178
 6791SOL    HW230843   9.469   5.721   3.011 -2.6664 -0.4414 -0.7680
 6792SOL     OW30844   0.689   3.964   3.345  0.0170 -0.2892  0.0634
 6792SOL    HW130845   0.718   3.869   3.354  0.3275 -0.0414  1.7494
 6792SOL    HW230846   0.663   4.000   3.434  1.0995  1.5867 -0.3462
 6793SOL     OW30847   2.973   3.197   1.301 -0.3273  0.4533  0.0501
 6793SOL    HW130848   2.887   3.220   1.345 -1.1852  1.8477 -2.2739
 6793SOL    HW230849   2.962   3.199   1.201  2.5609  1.3422 -0.3128
 6794SOL     OW30850   9.420   1.425   1.891 -0.1985 -0.8064 -0.2936
 6794SOL    HW130851   9.405   1.523   1.877 -1.5438 -0.7494  1.4556
 6794SOL    HW230852   9.405   1.402   1.987  1.2331 -2.5393 -0.4596
 6795SOL     OW30853   3.309   2.951   2.200  0.2284 -0.5722  0.5301
 6795SOL    HW130854   3.344   2.859   2.181  0.1085 -0.1510 -1.8945
 6795SOL    HW230855   3.214   2.958   2.170 -0.5010 -0.3106  2.8062
 6796SOL     OW30856   1.092   7.298   0.629  0.5156 -0.4334  0.1588
 6796SOL    HW130857   1.035   7.281   0.549 -0.6751  1.3231  0.6180
 6796SOL    HW230858   1.034   7.315   0.709  1.6549  0.7513  0.7587
 6797SOL     OW30859   0.477   8.309   2.127  0.5157  0.5925  0.0980
 6797SOL    HW130860   0.564   8.347   2.096  0.6335  1.3414  1.3011
 6797SOL    HW230861   0.467   8.216   2.091  1.6411  0.6374 -0.3569
 6798SOL     OW30862   7.613   9.698   0.312  0.0376  0.2694  0.5984
 6798SOL    HW130863   7.532   9.691   0.253  0.2920  1.3127  0.1097
 6798SOL    HW230864   7.693   9.667   0.261 -0.2893 -2.4074  1.6463
 6799SOL     OW30865   1.593   2.241   3.521  0.2535 -0.3355 -0.1015
 6799SOL    HW130866   1.617   2.318   3.580  0.4071 -0.0377 -0.5415
 6799SOL    HW230867   1.643   2.160   3.549  2.0628  0.3661 -1.2131
 6800SOL     OW30868   9.864   7.660   0.871 -0.4162  0.1910 -0.7121
 6800SOL    HW130869   9.888   7.757   0.865 -0.7686  0.2757 -0.7542
 6800SOL    HW230870   9.849   7.624   0.779 -0.6688  0.1948 -0.6739
 6801SOL     OW30871   0.246   0.519   1.321  0.0257 -0.2625 -0.1628
 6801SOL    HW130872   0.151   0.527   1.292 -0.0250 -1.0962 -0.2413
 6801SOL    HW230873   0.264   0.583   1.396 -0.0597  1.2999 -1.4690
 6802SOL     OW30874   8.590   0.915   3.139 -0.1995  0.1441 -0.2799
 6802SOL    HW130875   8.538   0.952   3.216  0.3874 -0.2594  0.3096
 6802SOL    HW230876   8.527   0.893   3.064 -0.5643  2.4607 -0.7096
 6803SOL     OW30877   9.980   5.285   1.926 -0.2250  0.1573  0.6328
 6803SOL    HW130878  10.040   5.224   1.875 -1.6098  0.5575 -1.5901
 6803SOL    HW230879   9.919   5.232   1.985 -0.1067 -0.4829  0.1755
 6804SOL     OW30880   0.487   9.612   2.729 -0.4748 -0.2006 -0.3612
 6804SOL    HW130881   0.486   9.512   2.737  0.5367 -0.3232 -1.6378
 6804SOL    HW230882   0.437   9.651   2.806 -0.2024 -1.6644  0.5990
 6805SOL     OW30883   1.570   7.361   0.089  0.2734  0.5386 -0.4765
 6805SOL    HW130884   1.655   7.391   0.046  1.5263  1.1318  2.3040
 6805SOL    HW230885   1.511   7.440   0.104 -0.1957  0.3232 -1.1938
 6806SOL     OW30886   0.181   6.036   3.953  0.1948  0.1022 -0.4773
 6806SOL    HW130887   0.220   5.969   4.016  1.7258  0.5996 -0.8729
 6806SOL    HW230888   0.192   6.004   3.859  0.6558  0.7528 -0.6518
 6807SOL     OW30889   8.257   2.535   4.019 -0.3778 -0.3425  0.0974
 6807SOL    HW130890   8.315   2.616   4.029 -0.0418 -0.5692 -0.0390
 6807SOL    HW230891   8.260   2.482   4.104  0.6682 -1.0554 -0.3790
 6808SOL     OW30892   3.673   3.665   2.947 -0.1027 -0.0302  0.4835
 6808SOL    HW130893   3.611   3.591   2.973 -0.4048 -0.7291 -2.1030
 6808SOL    HW230894   3.767   3.639   2.969 -0.1059 -1.6049 -1.2608
 6809SOL     OW30895   2.080   5.123   2.825 -0.1908  0.4257 -0.3307
 6809SOL    HW130896   2.066   5.034   2.782  0.3575  0.2267 -0.0998
 6809SOL    HW230897   2.146   5.176   2.772 -0.1932  0.5301 -0.2315
 6810SOL     OW30898   1.996   9.252   2.940 -0.2295  0.4974  0.0309
 6810SOL    HW130899   2.088   9.261   2.904  0.5945 -2.1639  1.3366
 6810SOL    HW230900   1.997   9.261   3.039 -1.2393 -0.2929  0.1316
 6811SOL     OW30901   5.953   9.422   3.133  0.2349  0.2582 -0.3860
 6811SOL    HW130902   5.875   9.484   3.135  0.3826  0.4262  0.1917
 6811SOL    HW230903   5.922   9.329   3.115  0.1527  0.7321 -2.8451
 6812SOL     OW30904   4.191   6.889   3.125  0.0937 -0.0928 -0.3796
 6812SOL    HW130905   4.152   6.889   3.217 -1.2982 -0.4543 -0.9603
 6812SOL    HW230906   4.122   6.917   3.059  0.2463 -2.5717 -1.6604
 6813SOL     OW30907   9.616   6.487   1.920  0.4045  0.0054  0.0063
 6813SOL    HW130908   9.641   6.460   1.827 -1.2390  0.2334 -0.5172
 6813SOL    HW230909   9.698   6.506   1.973  1.4020 -1.2499 -1.0668
 6814SOL     OW30910   8.045   3.516   0.879 -0.3191 -0.4226  0.5881
 6814SOL    HW130911   7.952   3.484   0.863 -0.4525  0.5461 -0.6824
 6814SOL    HW230912   8.043   3.614   0.900  0.4835 -0.2151 -0.2762
 6815SOL     OW30913   9.808   4.035   3.377 -0.1202 -0.0775  0.8144
 6815SOL    HW130914   9.762   3.983   3.449  0.0244 -1.7007 -0.2397
 6815SOL    HW230915   9.864   4.108   3.418 -0.4295 -0.6713  2.3028
 6816SOL     OW30916   0.951   1.233   2.699  0.2143 -0.3151 -0.2205
 6816SOL    HW130917   0.915   1.197   2.785  0.2152  0.5063  0.1235
 6816SOL    HW230918   0.875   1.248   2.635  0.1813 -0.6399 -0.2583
 6817SOL     OW30919   0.104   4.198   3.269 -0.0576  0.8667 -0.0241
 6817SOL    HW130920   0.094   4.255   3.187 -0.5646  0.0612 -0.5345
 6817SOL    HW230921   0.136   4.107   3.241 -1.3189  0.2366  0.5555
 6818SOL     OW30922   8.904   7.053   2.835  0.0933 -0.0347 -0.2137
 6818SOL    HW130923   8.986   7.109   2.819 -0.1900  0.4452  0.0028
 6818SOL    HW230924   8.918   6.962   2.796  0.7806  0.0038 -0.0792
 6819SOL     OW30925   9.608   6.685   3.948  0.3460  0.0665  0.0851
 6819SOL    HW130926   9.584   6.708   3.853  1.1369 -0.8928 -0.3489
 6819SOL    HW230927   9.528   6.643   3.992 -0.2714  1.2188  0.0882
 6820SOL     OW30928   0.430   6.730   3.493 -0.0512 -0.3449  0.0129
 6820SOL    HW130929   0.347   6.787   3.490 -0.8094 -1.4871 -6.2357
 6820SOL    HW230930   0.505   6.778   3.447  1.3695 -1.4296  1.1629
 6821SOL     OW30931   1.122   2.512   4.010  0.5496 -0.0173 -0.0684
 6821SOL    HW130932   1.113   2.601   4.056 -0.1407  0.3618 -0.9279
 6821SOL    HW230933   1.042   2.456   4.031  0.3567  0.0596 -0.6035
 6822SOL     OW30934   1.176   0.849   2.409  0.4903 -0.9666  0.2169
 6822SOL    HW130935   1.257   0.800   2.376  0.2477 -0.6317 -0.8834
 6822SOL    HW230936   1.171   0.939   2.367  0.0197 -0.6395  0.9591
 6823SOL     OW30937   3.480   9.213   0.187  0.5543 -0.5973  0.1709
 6823SOL    HW130938   3.481   9.284   0.116  0.6275 -1.4876 -0.7270
 6823SOL    HW230939   3.524   9.248   0.270 -0.9696  1.0175  0.3418
 6824SOL     OW30940   1.631   9.043   1.300 -0.2791  0.2521 -0.0885
 6824SOL    HW130941   1.691   8.975   1.257 -0.3262 -0.0401  0.3057
 6824SOL    HW230942   1.677   9.132   1.300 -0.4778  0.3721 -1.1947
 6825SOL     OW30943   2.359   8.569   3.295  0.8377 -0.2487  0.3925
 6825SOL    HW130944   2.295   8.499   3.262  1.5631 -0.5061 -0.4817
 6825SOL    HW230945   2.415   8.530   3.369  0.7490 -0.3661  0.3988
 6826SOL     OW30946   8.175   9.556   3.490  0.2823 -0.1214  1.0609
 6826SOL    HW130947   8.143   9.543   3.396 -0.9262 -1.2315  1.6087
 6826SOL    HW230948   8.142   9.644   3.524 -1.6150 -0.9271  1.3630
 6827SOL     OW30949   8.077   9.918   1.604 -0.1087 -0.1143  0.0538
 6827SOL    HW130950   8.045   9.989   1.666  2.6568  0.3896  0.9821
 6827SOL    HW230951   8.074   9.829   1.651 -0.6039 -0.1471 -0.0371
 6828SOL     OW30952   1.016   2.019   3.499 -0.8889  0.2725  0.0439
 6828SOL    HW130953   0.963   1.981   3.423 -0.1838  1.1714 -0.9169
 6828SOL    HW230954   1.066   1.945   3.545 -0.9845 -0.2211 -0.6345
 6829SOL     OW30955   7.917   0.310   2.570 -0.2260 -0.0155 -0.2128
 6829SOL    HW130956   7.902   0.352   2.480  0.5115 -1.4300 -1.0120
 6829SOL    HW230957   7.863   0.226   2.577  1.4593 -1.1123 -0.2128
 6830SOL     OW30958   3.176   2.102   1.841 -0.1006  1.0218 -0.0345
 6830SOL    HW130959   3.157   2.199   1.831 -0.3353  0.9734 -0.0753
 6830SOL    HW230960   3.237   2.087   1.919 -0.8753  1.1103  0.5924
 6831SOL     OW30961   7.478   9.223   1.882  0.2185 -0.6703  0.0211
 6831SOL    HW130962   7.455   9.204   1.978  0.3978 -4.1245 -0.5731
 6831SOL    HW230963   7.569   9.265   1.878  0.2570 -0.6066  1.3590
 6832SOL     OW30964   4.703   1.038   1.224  0.1758 -0.2559  0.3578
 6832SOL    HW130965   4.773   1.108   1.210  1.1866 -1.4297 -0.6170
 6832SOL    HW230966   4.658   1.019   1.137 -1.5329  0.6501  1.0219
 6833SOL     OW30967   8.284   9.430   0.487 -0.1218 -0.5992 -0.3874
 6833SOL    HW130968   8.329   9.350   0.526 -0.2278 -0.1338  0.7108
 6833SOL    HW230969   8.346   9.475   0.422  0.2256 -1.1232 -0.4222
 6834SOL     OW30970   2.325   1.680   2.388 -0.0152 -0.0970 -0.2332
 6834SOL    HW130971   2.402   1.692   2.450 -0.4142  2.3133 -0.1649
 6834SOL    HW230972   2.239   1.694   2.438 -0.3434  1.5899 -1.2396
 6835SOL     OW30973   8.933   4.318   4.008 -0.1481  0.3741  0.4836
 6835SOL    HW130974   8.878   4.296   3.928 -0.0577 -1.8453  0.9998
 6835SOL    HW230975   8.874   4.339   4.085 -0.2389  0.4181  0.4032
 6836SOL     OW30976   2.526   3.495   4.017 -0.4689  0.4184 -0.2913
 6836SOL    HW130977   2.517   3.413   4.074  1.1204  1.4229  1.4994
 6836SOL    HW230978   2.618   3.498   3.978  0.5488  2.7614  2.0766
 6837SOL     OW30979   9.293   4.884   1.815 -0.1245 -0.3829 -0.4771
 6837SOL    HW130980   9.373   4.939   1.792  1.0779 -0.9504  2.1328
 6837SOL    HW230981   9.212   4.944   1.818  1.0385  1.1653  1.6098
 6838SOL     OW30982   0.312   9.404   3.373  0.3590 -0.3235  0.5765
 6838SOL    HW130983   0.266   9.343   3.309  2.3036  1.2850 -2.4681
 6838SOL    HW230984   0.250   9.427   3.448 -1.4424 -3.4845  0.1379
 6839SOL     OW30985   4.022   8.096   2.935  0.2567 -0.0107 -0.6455
 6839SOL    HW130986   3.982   8.181   2.969 -1.3389 -1.6269  1.6897
 6839SOL    HW230987   3.972   8.064   2.855  1.8429  2.0284 -2.4895
 6840SOL     OW30988   3.450   9.364   2.743  0.0258  0.2625  0.1705
 6840SOL    HW130989   3.440   9.325   2.835  0.0376 -0.2614 -0.0509
 6840SOL    HW230990   3.435   9.463   2.747  1.7262  0.5108  1.0392
 6841SOL     OW30991   3.000   9.789   2.144 -0.0705 -0.4554  0.0599
 6841SOL    HW130992   3.057   9.738   2.079  1.7275  1.2586  0.2703
 6841SOL    HW230993   2.926   9.834   2.095 -0.4852 -1.5999 -0.3894
 6842SOL     OW30994   2.898   0.191   3.670  0.1138  0.2285  0.4311
 6842SOL    HW130995   2.910   0.099   3.709  0.1139  0.3330  0.6769
 6842SOL    HW230996   2.867   0.254   3.741 -1.6312  0.0273 -0.1347
 6843SOL     OW30997   4.094   4.098   3.984  0.1708 -0.2019  0.0437
 6843SOL    HW130998   3.999   4.080   4.010  0.1952 -0.7302 -0.2185
 6843SOL    HW230999   4.156   4.058   4.052  0.2140 -0.5745 -0.2078
 6844SOL     OW31000   2.758   2.391   2.799  0.6200 -0.3850  0.0286
 6844SOL    HW131001   2.717   2.471   2.842 -0.8616 -0.7030 -0.7288
 6844SOL    HW231002   2.810   2.339   2.866  1.7230  1.2946  0.4857
 6845SOL     OW31003   1.442   3.480   3.394 -0.1158 -0.0431  0.3274
 6845SOL    HW131004   1.449   3.380   3.395 -1.0554 -0.1103  0.0183
 6845SOL    HW231005   1.517   3.518   3.448  0.7267 -0.8832 -0.2087
 6846SOL     OW31006   4.436   0.666   0.564  0.6261  0.3072  0.4518
 6846SOL    HW131007   4.494   0.728   0.512  0.4366 -1.7022 -2.2654
 6846SOL    HW231008   4.476   0.650   0.655  3.4224  0.3111 -0.7361
 6847SOL     OW31009   2.191   8.405   3.120  0.3340 -0.2297  0.1999
 6847SOL    HW131010   2.210   8.474   3.049  0.9360 -0.3690  0.2217
 6847SOL    HW231011   2.276   8.357   3.143 -0.0403 -0.8191  0.3557
 6848SOL     OW31012   7.330   9.432   0.119 -0.3771  0.3945 -0.0209
 6848SOL    HW131013   7.253   9.437   0.055 -0.2264  1.2041 -0.1461
 6848SOL    HW231014   7.315   9.496   0.194 -0.2161 -0.0434  0.3884
 6849SOL     OW31015   0.563   9.755   0.839 -0.3580  0.0494  0.4579
 6849SOL    HW131016   0.520   9.755   0.930 -1.9537 -1.8840 -0.2694
 6849SOL    HW231017   0.509   9.812   0.777 -0.5614 -0.5169  0.1197
 6850SOL     OW31018   2.183   3.660   1.057 -0.6635 -0.8676  0.1861
 6850SOL    HW131019   2.186   3.637   0.960  2.5194 -1.3320  0.3523
 6850SOL    HW231020   2.116   3.733   1.072 -0.5310 -0.1644 -2.4657
 6851SOL     OW31021   4.751   0.236   3.134  0.2571  0.1296 -0.3118
 6851SOL    HW131022   4.758   0.237   3.234 -0.7137 -0.6267 -0.2269
 6851SOL    HW231023   4.839   0.205   3.095  0.9834  1.4584  0.2544
 6852SOL     OW31024   8.158   2.136   3.486 -0.1442 -0.2348 -0.0867
 6852SOL    HW131025   8.164   2.106   3.581 -0.4791  0.2466  0.0878
 6852SOL    HW231026   8.229   2.203   3.467  0.5903 -1.1003 -0.4716
 6853SOL     OW31027   3.378   6.994   0.892  0.4011  0.1099 -0.1099
 6853SOL    HW131028   3.439   7.036   0.824  1.4997 -0.4338  0.5265
 6853SOL    HW231029   3.371   6.896   0.874 -0.0049  0.1158  0.0295
 6854SOL     OW31030   2.080   3.111   2.373 -0.3187 -0.0484  0.0557
 6854SOL    HW131031   1.985   3.093   2.348 -0.5027  1.4231 -0.3214
 6854SOL    HW231032   2.127   3.024   2.391 -1.1766 -0.9059 -1.7508
 6855SOL     OW31033   4.599   2.102   2.374 -0.1842  0.6289 -0.1402
 6855SOL    HW131034   4.594   2.191   2.418  0.0243  1.2068 -1.2506
 6855SOL    HW231035   4.565   2.109   2.280 -0.2524 -0.4809 -0.2095
 6856SOL     OW31036   8.640   0.017   0.359 -0.1975  0.9778  0.0532
 6856SOL    HW131037   8.600   0.100   0.397  0.2155 -0.0079  2.7406
 6856SOL    HW231038   8.731   0.003   0.398 -0.6467 -1.2385  0.3927
 6857SOL     OW31039   5.133   3.416   0.883 -0.2440 -0.0379 -0.0184
 6857SOL    HW131040   5.146   3.496   0.941 -1.3662 -0.6608  1.1337
 6857SOL    HW231041   5.037   3.386   0.889 -0.4886  0.1679 -2.5823
 6858SOL     OW31042   8.064   2.629   1.788 -0.3816 -0.5164 -0.5558
 6858SOL    HW131043   8.069   2.707   1.851  2.8480  0.2137 -1.6134
 6858SOL    HW231044   8.088   2.545   1.837  1.5096 -0.0388 -0.6219
 6859SOL     OW31045   2.698   3.490   1.421  0.0704 -0.6227  0.7501
 6859SOL    HW131046   2.704   3.390   1.424 -1.6609 -0.8472 -2.1650
 6859SOL    HW231047   2.682   3.520   1.328 -3.3736  2.1346  2.1034
 6860SOL     OW31048   7.887   8.484   2.535 -0.0466 -0.5506  0.3713
 6860SOL    HW131049   7.811   8.506   2.596  1.1613 -0.9879  2.0559
 6860SOL    HW231050   7.935   8.568   2.510 -1.8558 -0.1030 -1.7899
 6861SOL     OW31051   0.754   3.673   0.737 -0.6561  0.2407  0.4646
 6861SOL    HW131052   0.776   3.578   0.714  0.7801  0.6776  0.0041
 6861SOL    HW231053   0.772   3.732   0.658 -1.3073  0.9387  0.8255
 6862SOL     OW31054   0.618   0.630   3.159  0.0476 -0.2066  0.2506
 6862SOL    HW131055   0.579   0.703   3.216  0.8983  0.0863  0.4761
 6862SOL    HW231056   0.548   0.561   3.141 -1.1511  1.3078 -1.0721
 6863SOL     OW31057   9.950   6.817   3.410  0.0831  0.5691 -0.4151
 6863SOL    HW131058   9.935   6.718   3.411  1.6900  0.3052  0.6798
 6863SOL    HW231059   9.987   6.844   3.322 -0.4996  0.2186 -0.7721
 6864SOL     OW31060   2.216   3.019   0.792 -0.4952 -0.5095  0.2132
 6864SOL    HW131061   2.174   3.001   0.703  0.2198 -2.4941  0.2457
 6864SOL    HW231062   2.202   2.940   0.852  1.9121 -0.5828  0.7325
 6865SOL     OW31063   9.007   4.632   1.718  0.1788  0.3395  0.7904
 6865SOL    HW131064   9.102   4.609   1.742  0.1201  0.8965  1.5715
 6865SOL    HW231065   8.953   4.548   1.714  0.2059  0.2119  2.5593
 6866SOL     OW31066   8.417   3.480   0.418 -0.4386 -0.0115 -0.3618
 6866SOL    HW131067   8.351   3.548   0.449 -1.7846 -1.6195  0.3778
 6866SOL    HW231068   8.417   3.402   0.481  2.5025  0.1410 -0.0893
 6867SOL     OW31069   7.958   0.409   2.294 -0.6111  0.6244 -0.0208
 6867SOL    HW131070   7.893   0.377   2.225 -1.0975 -0.8529  1.0652
 6867SOL    HW231071   8.049   0.415   2.255 -0.5430 -1.9879 -0.3576
 6868SOL     OW31072   4.118   0.888   2.314 -0.1350 -0.1725  0.2493
 6868SOL    HW131073   4.033   0.896   2.364 -1.0235 -0.4068 -1.1822
 6868SOL    HW231074   4.098   0.872   2.217  1.5197  0.7183 -0.2588
 6869SOL     OW31075   0.661   0.632   2.891  0.1401 -0.3467 -0.1469
 6869SOL    HW131076   0.651   0.632   2.991 -0.1472 -0.1715 -0.1770
 6869SOL    HW231077   0.711   0.714   2.862  0.7015 -0.6714 -0.0971
 6870SOL     OW31078   1.118   3.963   0.670  0.4214  0.0812  0.0358
 6870SOL    HW131079   1.084   4.026   0.740  0.6870 -0.6125  0.7961
 6870SOL    HW231080   1.099   4.001   0.580  0.0565  0.9775  0.4791
 6871SOL     OW31081   1.244   6.485   2.054  0.4749  0.1162  0.6361
 6871SOL    HW131082   1.223   6.475   2.151  1.0071 -0.3732  0.6997
 6871SOL    HW231083   1.161   6.474   2.000  0.1962  0.2947  1.0297
 6872SOL     OW31084   1.654   8.704   3.560  0.3759 -0.2505  0.1891
 6872SOL    HW131085   1.736   8.755   3.583 -0.3078  0.7880  0.3477
 6872SOL    HW231086   1.581   8.728   3.624 -0.3549 -0.3738 -0.5947
 6873SOL     OW31087   2.834   7.480   0.326 -0.3901  0.0953 -0.4509
 6873SOL    HW131088   2.770   7.554   0.344  1.1538  0.5748  3.5705
 6873SOL    HW231089   2.829   7.412   0.400  1.3946 -1.5113 -1.7532
 6874SOL     OW31090   1.150   9.730   2.757 -0.1404  0.0153  0.8168
 6874SOL    HW131091   1.186   9.655   2.702  0.0953  0.1843  0.7396
 6874SOL    HW231092   1.088   9.785   2.703  0.5659  0.5415  0.5349
 6875SOL     OW31093   2.759   6.230   2.613 -0.1841 -0.4073 -0.0714
 6875SOL    HW131094   2.685   6.223   2.545  0.6298  4.3445 -1.6602
 6875SOL    HW231095   2.842   6.189   2.576 -0.1382  0.8445 -1.4269
 6876SOL     OW31096   4.044   1.858   2.919  0.3418 -0.5145  0.1631
 6876SOL    HW131097   4.012   1.899   2.834  0.1295  0.7306  0.8359
 6876SOL    HW231098   3.966   1.842   2.980  0.7133  0.3419  0.8672
 6877SOL     OW31099   8.758   1.431   2.041 -0.3307  0.2421  0.0917
 6877SOL    HW131100   8.766   1.513   2.098  1.7808  0.6953 -0.8421
 6877SOL    HW231101   8.787   1.351   2.094 -0.4594  0.3610  0.3461
 6878SOL     OW31102   8.907   9.461   2.657  0.0178  0.4639  0.2776
 6878SOL    HW131103   8.981   9.460   2.590  2.1265 -0.5568  2.5347
 6878SOL    HW231104   8.877   9.367   2.675  0.0812  0.6565  1.4153
 6879SOL     OW31105   1.431   5.731   1.538  0.4318 -0.5552 -0.2741
 6879SOL    HW131106   1.432   5.819   1.491 -1.4193  0.0508  0.7882
 6879SOL    HW231107   1.343   5.686   1.523  0.6064 -1.2961  0.8976
 6880SOL     OW31108   2.328   7.061   1.751  0.5170 -0.8687 -0.0213
 6880SOL    HW131109   2.254   7.009   1.792  0.6366 -0.4582  0.7131
 6880SOL    HW231110   2.416   7.016   1.771  0.4726 -1.4424 -1.0197
 6881SOL     OW31111   1.235   0.763   3.510 -0.0492 -0.1966  0.3858
 6881SOL    HW131112   1.328   0.755   3.544 -0.0892 -0.7887  0.3481
 6881SOL    HW231113   1.225   0.711   3.425 -0.0472  0.9783 -0.3454
 6882SOL     OW31114   0.169   6.068   2.639 -0.2614  0.5018 -0.1730
 6882SOL    HW131115   0.259   6.095   2.675  0.1677  1.0439 -1.6186
 6882SOL    HW231116   0.182   6.009   2.560 -1.2004 -1.2199  0.9196
 6883SOL     OW31117   8.721   1.324   0.851 -0.2330  0.0135 -0.2419
 6883SOL    HW131118   8.788   1.304   0.922  0.9263 -1.7406 -1.7830
 6883SOL    HW231119   8.739   1.414   0.813  0.9965 -0.2767 -0.3646
 6884SOL     OW31120   2.002   6.345   3.974  0.3298 -0.0097 -0.0341
 6884SOL    HW131121   1.991   6.249   4.001 -1.0935  0.5825  1.5771
 6884SOL    HW231122   1.932   6.370   3.909  0.0521  0.2177  0.3497
 6885SOL     OW31123   8.025   2.035   1.550 -0.4593 -0.5517 -0.0116
 6885SOL    HW131124   8.015   2.116   1.608  2.6551  0.1891 -0.4046
 6885SOL    HW231125   8.105   1.982   1.580 -1.1216 -2.2490 -1.1798
 6886SOL     OW31126   3.808   7.735   2.007 -0.2379 -0.2167  0.3592
 6886SOL    HW131127   3.802   7.699   2.100 -1.6032 -0.5204  0.1763
 6886SOL    HW231128   3.784   7.663   1.942  0.1086  0.1608 -0.1863
 6887SOL     OW31129   8.951   8.088   2.508  0.3533 -0.9641 -0.1715
 6887SOL    HW131130   8.987   8.002   2.544 -1.1129 -1.2700  0.6375
 6887SOL    HW231131   9.011   8.163   2.533  1.3072 -1.6752 -0.3196
 6888SOL     OW31132   9.009   4.361   2.010 -0.3978  0.0785  0.0107
 6888SOL    HW131133   9.104   4.391   2.005 -1.1084  2.0921 -2.2439
 6888SOL    HW231134   8.984   4.316   1.924 -2.0676  1.3822 -0.2147
 6889SOL     OW31135   2.786   2.285   3.430  0.2427 -0.3539  0.5470
 6889SOL    HW131136   2.808   2.209   3.491 -0.9527 -2.9180 -2.1376
 6889SOL    HW231137   2.687   2.294   3.422  0.3891  0.3683 -0.5439
 6890SOL     OW31138   8.051   4.846   3.853  0.3465 -0.0667  0.2570
 6890SOL    HW131139   8.098   4.934   3.853 -0.2076  0.2299  0.4540
 6890SOL    HW231140   8.069   4.799   3.766  1.2054 -0.0667  0.4261
 6891SOL     OW31141   8.242   8.114   3.584  0.3762 -0.2549  0.3988
 6891SOL    HW131142   8.338   8.123   3.612  0.9887  1.4318 -2.1041
 6891SOL    HW231143   8.194   8.199   3.603 -0.1829 -0.4823  0.0113
 6892SOL     OW31144   0.257   7.038   1.011 -0.0596  0.4220 -0.6555
 6892SOL    HW131145   0.204   7.009   0.930 -0.1500  0.6636 -0.6836
 6892SOL    HW231146   0.338   7.087   0.981 -0.6048  1.3830 -0.5807
 6893SOL     OW31147   4.010   2.677   1.420  0.7804  0.1921 -0.1818
 6893SOL    HW131148   3.921   2.641   1.393  0.6251 -0.9069  1.6979
 6893SOL    HW231149   4.074   2.602   1.433  1.7203  0.9127 -0.5368
 6894SOL     OW31150   7.514   1.712   0.467 -0.0550  0.4934 -0.0948
 6894SOL    HW131151   7.476   1.694   0.376 -1.4253  0.7952  0.4072
 6894SOL    HW231152   7.465   1.657   0.535 -0.3089  1.6884  0.7003
 6895SOL     OW31153   4.608   9.088   1.581  0.2197  0.1453  0.1716
 6895SOL    HW131154   4.522   9.064   1.626 -0.4822  0.3048 -1.0662
 6895SOL    HW231155   4.685   9.057   1.637 -0.6505 -0.8651  0.8204
 6896SOL     OW31156   1.564   1.955   1.442 -0.1634 -0.0418 -0.0890
 6896SOL    HW131157   1.514   1.871   1.464 -0.0799  0.1064  0.6908
 6896SOL    HW231158   1.506   2.015   1.386 -1.0974  0.3832  1.2928
 6897SOL     OW31159   3.227   2.806   2.522 -0.5904 -0.0200 -0.8081
 6897SOL    HW131160   3.201   2.725   2.468 -0.7524 -0.2455 -0.3953
 6897SOL    HW231161   3.299   2.781   2.587 -0.7912  0.1165 -0.5316
 6898SOL     OW31162   9.782   7.661   2.828 -0.2604 -0.0295 -0.0751
 6898SOL    HW131163   9.715   7.722   2.787  2.1048  2.6719 -0.0863
 6898SOL    HW231164   9.846   7.629   2.758  0.1920 -0.2333  0.4233
 6899SOL     OW31165   0.847   6.588   1.169 -0.6863 -0.0044  0.0520
 6899SOL    HW131166   0.900   6.503   1.177 -1.9963 -0.7630  1.0399
 6899SOL    HW231167   0.800   6.605   1.256 -4.7337 -1.1705 -1.8019
 6900SOL     OW31168   8.647   1.259   2.764  0.4305 -0.3303  0.5819
 6900SOL    HW131169   8.725   1.233   2.822  0.4474  0.3316  0.8587
 6900SOL    HW231170   8.600   1.176   2.733  1.0111 -0.7212  0.7338
 6901SOL     OW31171   9.860   3.659   3.119 -0.3171 -0.0402  0.1940
 6901SOL    HW131172   9.776   3.630   3.164  0.7199 -2.5692  0.5859
 6901SOL    HW231173   9.883   3.752   3.147 -1.0189 -0.6776  2.9432
 6902SOL     OW31174   0.982   8.624   3.840  0.0003  0.5025  0.5945
 6902SOL    HW131175   1.037   8.552   3.884  1.8703  0.0869 -2.3425
 6902SOL    HW231176   0.897   8.583   3.805  0.5202 -0.0612 -0.0297
 6903SOL     OW31177   7.387   9.283   2.560 -0.2282 -0.2308  0.4764
 6903SOL    HW131178   7.329   9.346   2.509 -0.0924 -0.7776 -0.3589
 6903SOL    HW231179   7.353   9.275   2.654 -1.1008 -0.0316  0.1810
 6904SOL     OW31180   0.957   9.141   0.100 -0.1225  0.3067 -0.2007
 6904SOL    HW131181   0.986   9.094   0.183  1.8507 -0.6230 -1.3932
 6904SOL    HW231182   0.872   9.101   0.066 -0.8431  0.5834  1.2710
 6905SOL     OW31183   0.563   9.929   3.243 -0.1171 -1.2229  0.1777
 6905SOL    HW131184   0.472   9.889   3.251 -0.7182  0.3107  1.3343
 6905SOL    HW231185   0.565  10.017   3.291  1.6632 -0.7187 -0.7724
 6906SOL     OW31186   4.440   1.802   2.146 -0.7407  0.0901  0.4000
 6906SOL    HW131187   4.346   1.772   2.131 -0.9722  1.7546 -1.6785
 6906SOL    HW231188   4.466   1.784   2.241 -2.4084 -2.3759  0.4363
 6907SOL     OW31189   3.760   3.765   2.673 -0.5407  0.3543 -0.4408
 6907SOL    HW131190   3.854   3.790   2.697 -0.0564 -0.1707 -1.7684
 6907SOL    HW231191   3.705   3.760   2.757  0.6472  0.5097  0.3658
 6908SOL     OW31192   2.658   1.974   3.189  0.1306  0.4896 -0.0072
 6908SOL    HW131193   2.750   1.979   3.149 -0.0646  0.0578 -0.5107
 6908SOL    HW231194   2.666   1.973   3.289  0.6860  0.2412 -0.0485
 6909SOL     OW31195   2.828   8.433   1.581 -0.1946  0.1777  0.1113
 6909SOL    HW131196   2.846   8.518   1.629 -0.8042  0.0846  0.5142
 6909SOL    HW231197   2.759   8.381   1.631  1.0235 -1.0925  0.5082
 6910SOL     OW31198   8.133   9.400   2.793 -0.0603  0.5084 -0.3645
 6910SOL    HW131199   8.068   9.324   2.796 -0.1173  0.5737  0.0677
 6910SOL    HW231200   8.153   9.423   2.698 -3.3224  2.7163 -0.6193
 6911SOL     OW31201   7.745   2.861   1.104 -0.5091  0.8726  0.0476
 6911SOL    HW131202   7.759   2.770   1.067 -0.3545  1.0724 -0.3894
 6911SOL    HW231203   7.756   2.859   1.204  0.7778  0.6689 -0.0944
 6912SOL     OW31204   2.458   0.599   1.228 -0.3842 -0.0646  0.4446
 6912SOL    HW131205   2.384   0.541   1.260 -0.3765  0.5748  1.6526
 6912SOL    HW231206   2.441   0.626   1.133 -1.7326  0.1575  0.7404
 6913SOL     OW31207   4.077   4.724   2.797  0.2474 -0.0927 -0.4336
 6913SOL    HW131208   3.993   4.716   2.744  0.2429 -1.5424 -0.2370
 6913SOL    HW231209   4.140   4.786   2.751 -0.5228  0.2037 -1.1083
 6914SOL     OW31210   7.844   2.823   4.013 -0.0097 -0.9621 -0.7179
 6914SOL    HW131211   7.883   2.897   3.958 -1.4780 -0.2583 -0.8409
 6914SOL    HW231212   7.892   2.738   3.994  1.5862 -0.0876 -0.7176
 6915SOL     OW31213   3.080   0.836   0.433 -0.7353  0.4952  0.2499
 6915SOL    HW131214   3.004   0.787   0.474 -0.9611  0.0084 -0.7322
 6915SOL    HW231215   3.166   0.792   0.459 -0.8621  0.3302  0.3906
 6916SOL     OW31216   1.261   0.406   1.598  0.7192  0.4953  0.1594
 6916SOL    HW131217   1.227   0.377   1.508 -0.4432 -0.8538  1.0278
 6916SOL    HW231218   1.360   0.396   1.600  0.7748  0.6459 -1.0014
 6917SOL     OW31219   4.425   2.572   2.134 -0.0756 -0.4963  0.0258
 6917SOL    HW131220   4.412   2.516   2.053  1.0690 -1.3391  0.4154
 6917SOL    HW231221   4.402   2.519   2.216 -2.7362  0.8273  0.1938
 6918SOL     OW31222   3.603   0.148   3.528  0.9111  0.2432  0.7511
 6918SOL    HW131223   3.692   0.188   3.503  1.0126 -0.0664  0.6021
 6918SOL    HW231224   3.563   0.105   3.447 -0.2945  2.0872  0.3498
 6919SOL     OW31225   9.083   7.046   0.785  0.1320  0.0496  0.0250
 6919SOL    HW131226   9.127   6.997   0.709  1.9419  1.2009  0.2913
 6919SOL    HW231227   9.115   7.007   0.871 -0.6633 -0.1807  0.2177
 6920SOL     OW31228   1.700   0.892   1.586  0.1019 -0.0885 -0.1814
 6920SOL    HW131229   1.617   0.843   1.614  0.2321 -0.9654 -1.2840
 6920SOL    HW231230   1.754   0.916   1.667 -0.9686  0.0385  0.5073
 6921SOL     OW31231   9.361   7.905   2.570  0.8184 -0.0017 -0.2142
 6921SOL    HW131232   9.296   7.839   2.607 -2.3616  2.5262 -1.0871
 6921SOL    HW231233   9.367   7.895   2.470  1.1557  0.3009 -0.2287
 6922SOL     OW31234   9.265   2.843   3.983  0.3885 -0.0584 -0.1826
 6922SOL    HW131235   9.207   2.854   3.902 -0.6851 -2.6977  0.1691
 6922SOL    HW231236   9.241   2.912   4.051 -0.9470  0.1586 -0.8432
 6923SOL     OW31237   9.826   9.267   0.868 -0.3012  0.1190  0.0100
 6923SOL    HW131238   9.770   9.206   0.813  0.4694 -1.2945  0.7680
 6923SOL    HW231239   9.767   9.326   0.923 -1.0947 -2.2665  1.8147
 6924SOL     OW31240   2.836   7.044   2.362  0.2724  0.0525 -0.3327
 6924SOL    HW131241   2.889   7.065   2.445 -0.5122 -0.0407  0.2027
 6924SOL    HW231242   2.866   7.103   2.288 -1.0871  2.3069  0.8384
 6925SOL     OW31243   3.812   9.733   1.776  0.4630 -0.3462  0.2927
 6925SOL    HW131244   3.904   9.758   1.748  0.3811  1.7997  1.8098
 6925SOL    HW231245   3.746   9.771   1.712  0.5919 -1.5292 -0.5592
 6926SOL     OW31246   4.008   2.523   1.113 -0.1200  0.2369 -0.5651
 6926SOL    HW131247   4.001   2.623   1.118  2.2048  0.3654  1.0542
 6926SOL    HW231248   3.972   2.483   1.197 -0.4087 -0.2760 -0.9262
 6927SOL     OW31249   5.609   9.009   2.096 -0.0814 -0.4739  0.4812
 6927SOL    HW131250   5.576   8.915   2.089 -0.4064 -0.2530 -1.0215
 6927SOL    HW231251   5.658   9.034   2.013 -0.7908  0.9982  0.4822
 6928SOL     OW31252   4.212   2.929   0.067  0.7670  0.0458  0.4882
 6928SOL    HW131253   4.158   2.984   0.003 -0.0419  0.7210  1.7224
 6928SOL    HW231254   4.260   2.857   0.017 -0.4010  0.1245 -0.7872
 6929SOL     OW31255   9.293   2.043   1.043  0.1842  0.4182  0.1591
 6929SOL    HW131256   9.354   2.028   0.965  1.0826  0.1129  0.9133
 6929SOL    HW231257   9.272   1.956   1.087  0.2601  0.6733  0.6988
 6930SOL     OW31258   3.072   5.182   1.757  0.2039 -0.3989  0.1983
 6930SOL    HW131259   3.120   5.095   1.743 -1.1313 -1.5517  2.3598
 6930SOL    HW231260   3.137   5.251   1.789  0.8752 -1.2924  0.8211
 6931SOL     OW31261   0.892   3.714   3.899  0.1497 -0.5628 -0.6714
 6931SOL    HW131262   0.799   3.682   3.882  0.2267 -1.8496  1.1830
 6931SOL    HW231263   0.893   3.772   3.980  0.6920  0.8863 -1.6979
 6932SOL     OW31264   0.314   5.847   0.136 -0.0669  0.7380  0.3646
 6932SOL    HW131265   0.307   5.909   0.214  0.8022 -0.6056  1.5510
 6932SOL    HW231266   0.228   5.798   0.123 -0.3088  1.1844  0.2814
 6933SOL     OW31267   1.605   5.777   2.549  0.0533 -0.2176 -0.3916
 6933SOL    HW131268   1.598   5.836   2.629 -1.1347 -0.1000 -0.5617
 6933SOL    HW231269   1.675   5.811   2.487  1.6268 -0.8315  1.0271
 6934SOL     OW31270   2.851   8.528   0.641 -0.3050  0.4365  0.3866
 6934SOL    HW131271   2.905   8.451   0.608 -1.0056 -0.3022  0.9661
 6934SOL    HW231272   2.897   8.614   0.616 -0.3694 -0.1123 -1.7373
 6935SOL     OW31273   1.449   8.710   3.992 -0.0344 -0.4097  0.4827
 6935SOL    HW131274   1.362   8.689   4.036 -0.1185  0.4279  0.7165
 6935SOL    HW231275   1.497   8.781   4.044  0.7147 -0.7444  0.2669
 6936SOL     OW31276   7.985   7.907   1.616  0.0066 -0.2290  0.0422
 6936SOL    HW131277   8.009   7.818   1.655  0.0573 -0.6415 -0.9260
 6936SOL    HW231278   7.957   7.968   1.690  0.3244 -0.9298  0.7575
 6937SOL     OW31279   4.530   9.510   1.953 -0.2382  0.3292  0.2799
 6937SOL    HW131280   4.504   9.559   2.036  0.9208  1.1129  0.1912
 6937SOL    HW231281   4.462   9.440   1.933  1.4543 -2.6597  4.1999
 6938SOL     OW31282   4.459   0.273   1.175  0.4310 -0.1825  0.4931
 6938SOL    HW131283   4.394   0.282   1.100  0.8101 -0.9118  0.0664
 6938SOL    HW231284   4.462   0.178   1.205  2.7129 -0.5647 -0.8027
 6939SOL     OW31285   7.775   6.687   3.777  0.3389 -0.1487 -0.6256
 6939SOL    HW131286   7.750   6.726   3.688 -1.5049 -0.5070 -0.2793
 6939SOL    HW231287   7.869   6.652   3.773 -0.0348 -0.9736 -2.6998
 6940SOL     OW31288   9.447   1.853   2.909  0.0049  0.0660  0.1230
 6940SOL    HW131289   9.477   1.790   2.838 -1.6679 -0.7386  0.1109
 6940SOL    HW231290   9.373   1.910   2.874 -1.6401 -1.1346  1.5524
 6941SOL     OW31291   0.074   2.436   1.504  0.3349 -0.3148  0.4095
 6941SOL    HW131292   0.110   2.401   1.591 -0.6854 -2.9793 -0.1731
 6941SOL    HW231293   0.009   2.369   1.467  1.2055  0.5198 -2.6901
 6942SOL     OW31294   1.838   7.992   2.615  0.2301  0.3812 -0.3450
 6942SOL    HW131295   1.877   8.081   2.590 -1.1992  1.5946  1.5835
 6942SOL    HW231296   1.785   8.002   2.699  2.2380 -2.8883  1.3740
 6943SOL     OW31297   7.918   4.460   0.751 -0.4035 -0.1945 -0.1990
 6943SOL    HW131298   8.005   4.411   0.743  0.6398  1.7782 -1.1144
 6943SOL    HW231299   7.843   4.397   0.729  0.9850 -1.0158 -2.8027
 6944SOL     OW31300   0.467   9.372   2.869 -0.6240  0.2335  0.1923
 6944SOL    HW131301   0.465   9.277   2.901 -0.1300  0.1574 -0.0044
 6944SOL    HW231302   0.442   9.433   2.944 -2.6428 -0.1646 -0.1180
 6945SOL     OW31303   8.514   4.916   1.941 -0.0661  0.4640 -0.4900
 6945SOL    HW131304   8.557   4.835   1.901  0.2536  0.3747  0.0400
 6945SOL    HW231305   8.433   4.888   1.993 -0.5215  0.5883 -1.1119
 6946SOL     OW31306   4.665   0.760   2.970  0.1429 -0.1103 -0.6085
 6946SOL    HW131307   4.625   0.801   3.052  0.8975 -1.2738  0.3515
 6946SOL    HW231308   4.597   0.701   2.925 -1.0225  2.2784 -2.1172
 6947SOL     OW31309   3.056   2.648   1.510 -0.1385 -0.3954 -0.1101
 6947SOL    HW131310   3.029   2.682   1.420  0.8026  0.0340 -0.2386
 6947SOL    HW231311   3.156   2.647   1.516 -0.1647 -1.7133  0.4306
 6948SOL     OW31312   4.916   0.227   2.779  0.1516  0.0263  0.2641
 6948SOL    HW131313   4.941   0.224   2.876 -1.5185 -2.5672  0.6632
 6948SOL    HW231314   4.995   0.202   2.723  0.9889  1.0616  0.9668
 6949SOL     OW31315   3.118   2.037   3.175 -0.5182 -0.0644  0.1331
 6949SOL    HW131316   3.157   2.010   3.087  2.8979 -1.3338  1.9261
 6949SOL    HW231317   3.151   2.128   3.199  0.2262 -0.5614  1.0190
 6950SOL     OW31318   3.245   0.977   1.096 -0.4518 -0.3353 -0.5590
 6950SOL    HW131319   3.215   1.066   1.131 -1.4719 -0.9325  0.0873
 6950SOL    HW231320   3.198   0.958   1.010 -0.2722 -0.2714 -0.6711
 6951SOL     OW31321   2.241   7.498   3.851 -0.4276 -0.4320 -0.1929
 6951SOL    HW131322   2.186   7.523   3.931 -0.2208 -1.3981  0.2653
 6951SOL    HW231323   2.216   7.406   3.821  1.3295 -1.1226  0.3841
 6952SOL     OW31324   5.751   9.587   3.221 -0.2229  0.2308  0.0869
 6952SOL    HW131325   5.679   9.522   3.197 -0.3910  0.2594  0.5082
 6952SOL    HW231326   5.757   9.595   3.321  1.7054 -1.3183  0.1423
 6953SOL     OW31327   0.943   7.198   1.986  0.2658 -0.5365  0.0435
 6953SOL    HW131328   1.027   7.147   2.001  0.6396 -0.1937 -0.8393
 6953SOL    HW231329   0.921   7.251   2.068  0.7092 -0.9054  0.4049
 6954SOL     OW31330   8.192   6.434   2.955  0.1816 -0.4600  0.0833
 6954SOL    HW131331   8.188   6.386   2.867  1.2946 -1.0860  0.3645
 6954SOL    HW231332   8.282   6.420   2.997  0.0184  0.6940  0.8436
 6955SOL     OW31333   8.483   4.915   3.479  0.8910 -0.0982 -0.1421
 6955SOL    HW131334   8.540   4.988   3.443 -1.4171  1.6596 -0.3731
 6955SOL    HW231335   8.404   4.902   3.419 -1.2231  0.5381  2.4036
 6956SOL     OW31336   0.823   9.930   3.207  0.2785  0.1893 -1.1557
 6956SOL    HW131337   0.856  10.001   3.270  1.6762 -0.1468 -1.4837
 6956SOL    HW231338   0.728   9.909   3.227  0.6227  0.3024  0.6546
 6957SOL     OW31339   1.581   7.865   3.795 -0.0068  0.0838 -0.0196
 6957SOL    HW131340   1.582   7.773   3.755 -0.0638 -0.0187  0.2146
 6957SOL    HW231341   1.613   7.861   3.890 -2.1339 -0.0535  0.7352
 6958SOL     OW31342   0.117   4.217   3.947  0.0197 -0.1818  0.2578
 6958SOL    HW131343   0.192   4.175   3.999  0.7617  0.4942 -0.2610
 6958SOL    HW231344   0.098   4.308   3.984  0.6507  0.3635 -0.7446
 6959SOL     OW31345   3.642   2.298   3.857  0.3077  0.4432  0.0004
 6959SOL    HW131346   3.614   2.221   3.914  0.9360 -0.2783 -0.6529
 6959SOL    HW231347   3.711   2.267   3.792 -0.0306  1.3823 -0.8065
 6960SOL     OW31348   8.744   3.380   1.177  0.3649  0.2086  0.5347
 6960SOL    HW131349   8.667   3.350   1.233 -0.3997  3.0734  1.1178
 6960SOL    HW231350   8.712   3.444   1.107  1.7591 -1.0618 -1.3267
 6961SOL     OW31351   0.941   1.087   3.571 -0.0894  0.2172  0.2540
 6961SOL    HW131352   1.022   1.050   3.525 -0.6076 -0.7553  0.1146
 6961SOL    HW231353   0.858   1.048   3.531 -0.6530  1.4924  0.1541
 6962SOL     OW31354   3.117   3.781   2.415 -0.1936 -0.0957 -0.0991
 6962SOL    HW131355   3.211   3.807   2.393  0.5238 -0.3684  2.4748
 6962SOL    HW231356   3.092   3.700   2.362  0.5534  0.7315 -1.7497
 6963SOL     OW31357   4.464   9.561   2.240 -0.2965  0.3632 -0.3772
 6963SOL    HW131358   4.444   9.472   2.282  1.5182 -0.2879 -0.8693
 6963SOL    HW231359   4.543   9.602   2.284  0.0671  0.8379 -1.4511
 6964SOL     OW31360   4.484   1.392   1.215  0.3735  0.7717  0.4165
 6964SOL    HW131361   4.508   1.341   1.297  0.9445 -0.7497 -0.6632
 6964SOL    HW231362   4.523   1.484   1.219  0.0114  0.8617  2.0278
 6965SOL     OW31363   1.777   9.098   3.635 -0.0788  0.1717 -0.5463
 6965SOL    HW131364   1.779   9.119   3.537 -1.1976 -0.9306 -0.8169
 6965SOL    HW231365   1.862   9.052   3.660 -0.0624 -0.1292 -1.1315
 6966SOL     OW31366   0.080   3.448   1.358  0.0341 -0.3225  0.3392
 6966SOL    HW131367   0.067   3.404   1.269  1.1972  2.1530 -1.1068
 6966SOL    HW231368   0.067   3.381   1.430 -1.3927 -2.2821 -1.6754
 6967SOL     OW31369   9.990   2.465   3.013  0.3607  0.3689 -0.3418
 6967SOL    HW131370   9.918   2.482   2.946  0.4117 -0.9079 -0.7444
 6967SOL    HW231371   9.959   2.395   3.078  1.2502 -0.2243 -0.5467
 6968SOL     OW31372   0.390   5.334   2.775  0.0825  0.0006  0.0653
 6968SOL    HW131373   0.369   5.319   2.872 -0.5811  0.1765 -0.0489
 6968SOL    HW231374   0.444   5.418   2.766 -1.2107  0.8429  0.1321
 6969SOL     OW31375   1.199   3.729   3.542 -0.0275  0.2604 -0.1768
 6969SOL    HW131376   1.261   3.738   3.464  0.9789 -0.2005  0.5581
 6969SOL    HW231377   1.240   3.774   3.622 -0.2394 -0.8052  0.5338
 6970SOL     OW31378   9.213   4.491   3.471 -0.4458  0.2526  0.0509
 6970SOL    HW131379   9.188   4.496   3.374 -1.7813 -1.1687  0.3020
 6970SOL    HW231380   9.280   4.419   3.484  0.4167  1.0484  0.0587
 6971SOL     OW31381   0.971   1.552   0.392  0.4455  0.1557 -0.1005
 6971SOL    HW131382   0.893   1.551   0.453  0.4579  1.4911 -0.0329
 6971SOL    HW231383   0.995   1.459   0.365  0.9196 -0.5098  2.5155
 6972SOL     OW31384   2.684   0.863   3.788  0.5918 -0.2247 -0.1390
 6972SOL    HW131385   2.634   0.844   3.873 -0.3158 -0.0883 -0.6369
 6972SOL    HW231386   2.737   0.782   3.762 -1.5962 -1.3703 -1.1132
 6973SOL     OW31387   8.710   2.867   0.264 -0.2038 -0.0930  0.3771
 6973SOL    HW131388   8.631   2.853   0.324 -1.0133  1.3825 -0.3030
 6973SOL    HW231389   8.739   2.963   0.269 -1.6815  0.6110 -3.1947
 6974SOL     OW31390   9.730   6.930   2.962  0.7578 -0.0631  0.2986
 6974SOL    HW131391   9.732   6.846   3.015  0.3018  1.1118  2.2226
 6974SOL    HW231392   9.812   6.984   2.982  1.1203 -0.0938 -1.0336
 6975SOL     OW31393   1.926   7.951   0.088  0.4563 -0.6596  0.0205
 6975SOL    HW131394   1.926   8.033   0.144  0.0709 -1.5213  1.2981
 6975SOL    HW231395   2.007   7.950   0.029  0.4980  0.5886  0.0545
 6976SOL     OW31396   0.687   9.780   2.825  0.4108  0.0997  0.1455
 6976SOL    HW131397   0.622   9.721   2.778 -0.2681  0.4575  0.6398
 6976SOL    HW231398   0.777   9.735   2.827  1.1853  1.2695 -3.9411
 6977SOL     OW31399   7.409   8.088   2.525 -0.0041  0.0308 -0.1835
 6977SOL    HW131400   7.403   8.024   2.601 -0.6387  0.6629  0.3109
 6977SOL    HW231401   7.499   8.132   2.526  0.9548 -1.8264 -1.3458
 6978SOL     OW31402   4.408   8.621   2.877 -0.3700  0.0191  0.2221
 6978SOL    HW131403   4.309   8.609   2.875 -0.1534 -2.7528  2.1805
 6978SOL    HW231404   4.434   8.671   2.960 -0.1007  0.6251 -0.2209
 6979SOL     OW31405   3.339   4.419   3.592 -0.2191 -0.0011  0.3677
 6979SOL    HW131406   3.362   4.353   3.521  0.4124  1.1308 -0.4804
 6979SOL    HW231407   3.396   4.500   3.583 -2.8151  1.7932 -0.2236
 6980SOL     OW31408   8.154   8.054   1.881  0.8974 -0.5196  0.2495
 6980SOL    HW131409   8.191   8.119   1.815  2.6890 -0.2820  1.4540
 6980SOL    HW231410   8.059   8.032   1.857  1.1159  0.5222 -1.6545
 6981SOL     OW31411   0.038   6.128   3.029  0.8443 -0.2233  0.5436
 6981SOL    HW131412  -0.028   6.105   2.957  1.6338  0.0787 -0.2850
 6981SOL    HW231413  -0.010   6.159   3.111 -0.1416 -2.1295  0.7154
 6982SOL     OW31414   3.504   3.430   3.003 -0.0474 -0.2132  0.0492
 6982SOL    HW131415   3.549   3.358   3.057  0.7267  0.0044 -0.2895
 6982SOL    HW231416   3.444   3.388   2.935  0.4815 -0.5472 -0.2156
 6983SOL     OW31417   4.025   2.175   2.414 -0.2528 -0.8657 -0.0875
 6983SOL    HW131418   4.085   2.098   2.435 -0.9631 -1.2590  0.5335
 6983SOL    HW231419   3.991   2.167   2.320 -0.8997 -1.7058  0.2108
 6984SOL     OW31420   9.115   6.271   2.717  0.0481  1.0035  0.0467
 6984SOL    HW131421   9.094   6.238   2.808  0.6019  1.5943  0.3991
 6984SOL    HW231422   9.030   6.295   2.670 -0.3704 -1.0085 -0.2732
 6985SOL     OW31423   9.817   5.770   1.362 -0.4249  0.1727  0.0013
 6985SOL    HW131424   9.736   5.713   1.351 -0.7963  0.6078  0.4888
 6985SOL    HW231425   9.801   5.839   1.432  0.6258 -0.2033  0.6252
 6986SOL     OW31426   2.139   0.917   0.352  0.0480 -0.2263  0.3874
 6986SOL    HW131427   2.137   0.989   0.283  3.5657 -0.7299 -0.3194
 6986SOL    HW231428   2.110   0.955   0.441 -1.0975  1.2631 -0.5979
 6987SOL     OW31429   2.179   9.160   3.938  0.1872 -0.7022 -0.6253
 6987SOL    HW131430   2.155   9.133   4.031  0.3290  1.4408  0.0696
 6987SOL    HW231431   2.245   9.236   3.941  0.0808 -0.5005 -2.4597
 6988SOL     OW31432   4.188   1.761   2.089  0.0824 -0.2032  0.1614
 6988SOL    HW131433   4.188   1.697   2.013 -0.3061 -1.1215  0.9263
 6988SOL    HW231434   4.140   1.845   2.062  1.1432  0.0285 -1.0461
 6989SOL     OW31435   4.307   5.086   1.686 -0.0319 -0.0501 -0.4509
 6989SOL    HW131436   4.370   5.042   1.750  1.3372  1.1701 -0.9131
 6989SOL    HW231437   4.334   5.064   1.592 -0.5923  0.0855 -0.6451
 6990SOL     OW31438   9.463   9.500   0.212 -0.6106  0.6051 -0.1512
 6990SOL    HW131439   9.386   9.493   0.276  0.1122  0.9036  0.7617
 6990SOL    HW231440   9.465   9.592   0.173  0.2785  1.1189  1.0999
 6991SOL     OW31441   2.589   4.091   0.388 -0.4826 -0.4484  0.4093
 6991SOL    HW131442   2.620   4.010   0.340  0.3049 -0.2341  0.5502
 6991SOL    HW231443   2.496   4.114   0.358 -0.5371 -1.1341  0.0436
 6992SOL     OW31444   3.228   7.593   0.740 -0.0276  0.0859 -0.1013
 6992SOL    HW131445   3.218   7.690   0.719 -2.2361 -0.0792  0.1449
 6992SOL    HW231446   3.154   7.563   0.799  0.5043 -1.8213 -0.3553
 6993SOL     OW31447   1.353   2.182   3.640  0.5270 -0.4015  0.1977
 6993SOL    HW131448   1.355   2.144   3.733  0.3232 -0.1398  0.3126
 6993SOL    HW231449   1.446   2.184   3.603  0.7231  0.1885  0.6925
 6994SOL     OW31450   7.734   7.781   2.815 -0.3093 -0.3103  0.3331
 6994SOL    HW131451   7.807   7.732   2.861  0.5772  1.1712  0.5284
 6994SOL    HW231452   7.700   7.726   2.738  1.4311 -0.7411 -0.1380
 6995SOL     OW31453   2.080   5.369   1.864  0.2746 -0.6037  0.1722
 6995SOL    HW131454   2.107   5.288   1.811  0.9517 -0.9320  1.0069
 6995SOL    HW231455   2.096   5.353   1.961 -2.8837 -0.7600  0.7103
 6996SOL     OW31456   4.850   8.047   0.547  0.2226 -0.0028 -0.4313
 6996SOL    HW131457   4.798   8.130   0.570 -0.6147 -0.4219 -0.8122
 6996SOL    HW231458   4.792   7.984   0.496  0.9828 -0.6599 -0.4930
 6997SOL     OW31459   2.065   8.072   2.965  0.1438  0.1032 -0.6581
 6997SOL    HW131460   2.005   8.151   2.952 -0.4808 -0.3347 -0.4507
 6997SOL    HW231461   2.104   8.075   3.057  0.3782  0.3463 -0.7654
 6998SOL     OW31462   1.878   5.438   1.309 -0.5302 -0.2310  0.4398
 6998SOL    HW131463   1.889   5.447   1.408 -1.1914 -1.0799  0.5992
 6998SOL    HW231464   1.782   5.452   1.285 -0.0863  1.6688 -0.2887
 6999SOL     OW31465   6.429   8.522   2.435 -0.0354 -0.5490  0.3729
 6999SOL    HW131466   6.470   8.525   2.526  0.9159 -0.0935 -0.0656
 6999SOL    HW231467   6.346   8.465   2.438 -1.4447  1.5073  2.0658
 7000SOL     OW31468   1.689   7.835   2.416  0.4008 -0.6573 -0.4460
 7000SOL    HW131469   1.686   7.750   2.468  0.2708 -0.0786  0.5095
 7000SOL    HW231470   1.726   7.908   2.473  2.5599 -0.5372 -1.9507
 7001SOL     OW31471   3.970   5.697   2.645 -0.1167  0.8334 -0.1817
 7001SOL    HW131472   3.940   5.603   2.661  0.0423  1.1351  2.0276
 7001SOL    HW231473   4.054   5.715   2.696 -1.0006  2.6319  0.6972
 7002SOL     OW31474   8.909   0.505   1.694 -0.2995  0.6264  0.2711
 7002SOL    HW131475   8.988   0.465   1.648 -0.4815  0.8803 -0.2646
 7002SOL    HW231476   8.833   0.440   1.691  0.8238 -1.0236  3.6639
 7003SOL     OW31477   9.172   6.716   1.254  0.5082  0.8070  0.0945
 7003SOL    HW131478   9.165   6.617   1.257  1.4291  0.7217 -0.3413
 7003SOL    HW231479   9.230   6.747   1.330 -2.0085  1.2510  1.9002
 7004SOL     OW31480   9.953   5.561   1.972  0.1962 -0.3145  0.1387
 7004SOL    HW131481  10.012   5.622   2.024  3.1256 -2.1213 -0.9028
 7004SOL    HW231482  10.009   5.501   1.915 -2.6802 -2.0844 -0.9723
 7005SOL     OW31483   8.028   9.742   3.616  0.2378  0.1024 -0.3059
 7005SOL    HW131484   8.053   9.803   3.691  1.1350  0.1690 -0.6534
 7005SOL    HW231485   7.944   9.692   3.640  0.4303  0.2376  0.6662
 7006SOL     OW31486   6.761   8.998   2.763 -0.0371 -0.2255 -0.5472
 7006SOL    HW131487   6.748   8.901   2.785 -0.9343  0.1411  0.6066
 7006SOL    HW231488   6.841   9.032   2.811 -0.3767 -0.1201 -0.0518
 7007SOL     OW31489   1.664   7.586   2.550  0.6532 -0.6929  0.4066
 7007SOL    HW131490   1.571   7.590   2.585 -0.2833  0.2907 -2.0495
 7007SOL    HW231491   1.672   7.510   2.485  1.5797 -0.7887  0.6185
 7008SOL     OW31492   1.966   9.504   2.537  0.0122  0.3177  0.1250
 7008SOL    HW131493   2.008   9.538   2.453 -0.2334  1.7729  0.5660
 7008SOL    HW231494   1.914   9.421   2.518  1.1507 -0.1624 -0.8707
 7009SOL     OW31495   4.176   0.760   0.485  0.2144  0.1743 -0.6575
 7009SOL    HW131496   4.252   0.706   0.522 -0.8467 -1.5320 -0.8875
 7009SOL    HW231497   4.128   0.806   0.560  2.2512  2.3477 -0.6381
 7010SOL     OW31498   9.894   1.928   2.697 -0.1131  0.2902  0.6086
 7010SOL    HW131499   9.888   1.882   2.609 -0.5323  0.7181  0.4183
 7010SOL    HW231500   9.834   2.008   2.698 -0.2021  0.2157  1.3227
 7011SOL     OW31501   9.119   3.908   0.179 -0.6882  0.0424  0.7082
 7011SOL    HW131502   9.072   3.939   0.262 -0.8429  1.0601  0.2532
 7011SOL    HW231503   9.076   3.824   0.145  1.4690 -2.2904  3.4947
 7012SOL     OW31504   3.115   3.798   2.696  0.5470  0.1281 -0.0040
 7012SOL    HW131505   3.102   3.779   2.599 -0.6540  0.4210  0.0940
 7012SOL    HW231506   3.209   3.775   2.722 -0.0830 -3.2170 -0.4600
 7013SOL     OW31507   1.833   4.118   1.921  0.2385 -0.5987 -0.4026
 7013SOL    HW131508   1.741   4.146   1.951  0.5675 -1.7496  1.8027
 7013SOL    HW231509   1.825   4.054   1.845 -0.6536  1.8902 -2.4755
 7014SOL     OW31510   2.590   7.488   1.516 -0.8074  0.5473 -0.1807
 7014SOL    HW131511   2.560   7.434   1.594 -0.9872  0.6089 -0.2063
 7014SOL    HW231512   2.545   7.577   1.518  0.0051  0.9513  0.2332
 7015SOL     OW31513   0.118   9.959   2.628  0.7861 -0.0394 -0.4520
 7015SOL    HW131514   0.142   9.908   2.710  1.4446  1.3909  0.2699
 7015SOL    HW231515   0.200   9.981   2.576  0.3888 -0.8089 -1.4288
 7016SOL     OW31516   1.028   4.869   0.066 -0.0342  0.1993 -0.0087
 7016SOL    HW131517   1.063   4.891  -0.025 -0.2557 -0.5664 -0.2866
 7016SOL    HW231518   0.928   4.876   0.065 -0.1069 -0.7383 -0.0913
 7017SOL     OW31519   4.111   4.708   3.065  0.0058  0.5642  0.4043
 7017SOL    HW131520   4.109   4.733   2.969 -0.2712 -1.0228 -0.0086
 7017SOL    HW231521   4.157   4.620   3.076  0.4731  0.9669  1.7726
 7018SOL     OW31522   2.625   1.048   3.191 -0.6239 -0.1553  0.3651
 7018SOL    HW131523   2.681   1.064   3.110 -0.1337 -3.1294  0.0436
 7018SOL    HW231524   2.607   1.134   3.237 -0.5904  1.5612 -2.6873
 7019SOL     OW31525   3.080   2.791   1.264 -0.5352  0.2165  0.1484
 7019SOL    HW131526   2.994   2.793   1.213 -0.4835  0.7357  0.0845
 7019SOL    HW231527   3.122   2.882   1.263  1.3112 -0.5867 -2.0572
 7020SOL     OW31528   3.379   0.610   1.081 -0.3078  0.3482  0.2519
 7020SOL    HW131529   3.453   0.619   1.014 -0.1624 -0.0067  0.3612
 7020SOL    HW231530   3.412   0.638   1.171 -0.1881 -0.1826  0.3760
 7021SOL     OW31531   4.932   2.922   0.143 -0.4578  0.6155  0.3090
 7021SOL    HW131532   4.897   3.004   0.097 -0.3599 -0.1224 -1.1282
 7021SOL    HW231533   5.030   2.933   0.161 -0.1725  0.3629 -0.9797
 7022SOL     OW31534   0.556   2.456   0.562  0.2646 -0.1259  0.2866
 7022SOL    HW131535   0.464   2.423   0.583  1.3773 -3.0779  0.9219
 7022SOL    HW231536   0.604   2.480   0.647  0.6446 -0.2539  0.1135
 7023SOL     OW31537   9.107   5.403   1.949  0.4000 -0.2222  0.2882
 7023SOL    HW131538   9.200   5.417   1.983 -0.2210  1.9163  1.2305
 7023SOL    HW231539   9.087   5.471   1.879 -0.9283  0.2953  1.1436
 7024SOL     OW31540   1.639   7.142   3.327 -0.5010  0.2498 -0.1055
 7024SOL    HW131541   1.646   7.242   3.324  0.4924  0.1330 -3.3968
 7024SOL    HW231542   1.544   7.115   3.317 -0.5051  0.8357 -1.7763
 7025SOL     OW31543   8.515   8.654   0.449  0.1368  0.7434  0.5302
 7025SOL    HW131544   8.562   8.576   0.491 -1.2760  0.1837  1.1163
 7025SOL    HW231545   8.529   8.652   0.350 -1.5801 -1.4766  0.2763
 7026SOL     OW31546   0.725   5.054   3.544 -0.4415  0.6773 -0.1254
 7026SOL    HW131547   0.720   5.153   3.539 -0.6139  0.6448 -0.6169
 7026SOL    HW231548   0.641   5.017   3.584 -0.1389  0.7688  0.5878
 7027SOL     OW31549   4.092   8.897   2.148 -0.5240 -0.3931 -0.1271
 7027SOL    HW131550   4.032   8.823   2.119  1.6444 -1.4254 -2.1001
 7027SOL    HW231551   4.182   8.887   2.104  0.4707  2.2210  1.2027
 7028SOL     OW31552   3.209   9.000   3.130 -0.0983 -0.6786  0.8709
 7028SOL    HW131553   3.280   9.058   3.169  1.2226  0.0452 -2.4472
 7028SOL    HW231554   3.125   9.007   3.185 -0.2711  5.0602  0.1220
 7029SOL     OW31555   9.492   8.804   0.772  0.1017 -0.2443 -0.6092
 7029SOL    HW131556   9.407   8.781   0.818  1.6423 -0.4389  2.2163
 7029SOL    HW231557   9.520   8.896   0.798  2.6274 -1.5385  1.4059
 7030SOL     OW31558   8.848   9.174   0.043 -0.1528  0.7433 -0.0876
 7030SOL    HW131559   8.836   9.091  -0.011  1.8765  0.8892 -0.7846
 7030SOL    HW231560   8.918   9.232   0.001  0.6732  1.3640  2.0636
 7031SOL     OW31561   0.128   7.734   1.665  0.2601 -0.1368  0.3749
 7031SOL    HW131562   0.135   7.831   1.690 -1.1417 -0.1025  0.6806
 7031SOL    HW231563   0.120   7.726   1.566 -1.0391  0.1688  0.4394
 7032SOL     OW31564   0.603   3.207   0.521  0.3337  0.1980 -0.1865
 7032SOL    HW131565   0.584   3.150   0.601  1.5604  1.2922  0.9043
 7032SOL    HW231566   0.529   3.195   0.454 -0.2794 -1.3713  0.7301
 7033SOL     OW31567   4.700   0.302   0.123 -0.1588 -0.6270 -0.1195
 7033SOL    HW131568   4.705   0.267   0.216 -2.1139  0.8007  0.5551
 7033SOL    HW231569   4.791   0.299   0.081  0.3666 -3.0762  1.1496
 7034SOL     OW31570   6.854   0.284   2.040 -0.0064 -0.5301  0.6818
 7034SOL    HW131571   6.919   0.358   2.061  0.0873 -0.1878 -0.7486
 7034SOL    HW231572   6.902   0.196   2.040  0.9235 -0.0918 -2.2437
 7035SOL     OW31573   1.913   5.938   2.692  0.7865  0.3328 -0.4598
 7035SOL    HW131574   1.970   5.928   2.773 -0.3308 -1.2872  0.1604
 7035SOL    HW231575   1.947   5.878   2.620 -0.0759 -0.6054 -0.1028
 7036SOL     OW31576   9.170   7.436   3.458  0.6143  0.0936  0.1300
 7036SOL    HW131577   9.138   7.342   3.455 -1.8834  0.8816  1.0285
 7036SOL    HW231578   9.216   7.453   3.545 -0.3205  0.1175  0.6281
 7037SOL     OW31579   2.397   8.458   0.980  0.3993  0.0031 -0.6369
 7037SOL    HW131580   2.406   8.495   0.888  1.3669 -2.3271 -1.5175
 7037SOL    HW231581   2.486   8.459   1.025  0.1321  0.1432 -0.1078
 7038SOL     OW31582   2.832   0.753   0.063 -0.1911 -0.1670  0.4659
 7038SOL    HW131583   2.732   0.754   0.057 -0.1355  0.9915 -0.4831
 7038SOL    HW231584   2.870   0.724  -0.025  0.3145 -0.2561  0.7155
 7039SOL     OW31585   1.611   9.454   3.502  0.4116  0.2231  0.3371
 7039SOL    HW131586   1.583   9.550   3.499  2.8342  0.9380 -1.2522
 7039SOL    HW231587   1.622   9.420   3.409 -0.1269 -1.5310  0.8986
 7040SOL     OW31588   7.885   6.095   3.976 -0.0993 -0.6417 -0.4120
 7040SOL    HW131589   7.858   6.162   4.046 -0.2900 -1.2565  0.1062
 7040SOL    HW231590   7.968   6.048   4.006 -1.2858 -2.3139  0.3319
 7041SOL     OW31591   1.367   4.899   1.172 -0.2068 -0.8186  0.0344
 7041SOL    HW131592   1.452   4.949   1.190 -0.5590  0.4385 -1.7034
 7041SOL    HW231593   1.315   4.891   1.258  0.4194  0.7548  0.5806
 7042SOL     OW31594   1.180   9.298   2.079  0.0077 -0.4660 -0.3639
 7042SOL    HW131595   1.149   9.292   1.984 -2.8406 -1.9490  0.6096
 7042SOL    HW231596   1.243   9.223   2.099 -0.4878 -0.9717 -0.7022
 7043SOL     OW31597   3.521   4.941   0.252  0.1271  0.8183 -0.2555
 7043SOL    HW131598   3.560   4.927   0.343  4.5433  0.7100 -2.0272
 7043SOL    HW231599   3.482   4.855   0.219  1.5661 -0.0564  0.2343
 7044SOL     OW31600   2.738   8.413   3.188 -0.0192  0.3034  0.1169
 7044SOL    HW131601   2.694   8.328   3.155  1.1697 -0.0305 -0.6379
 7044SOL    HW231602   2.760   8.404   3.285  3.3285 -1.6722 -0.7433
 7045SOL     OW31603   1.758   2.725   3.793  0.3226  1.2500 -0.3423
 7045SOL    HW131604   1.855   2.750   3.789  0.4954  0.7422  0.6409
 7045SOL    HW231605   1.734   2.697   3.886 -0.5893  0.6501 -0.7492
 7046SOL     OW31606   4.703   2.123   1.545 -0.6259  0.1230  0.7179
 7046SOL    HW131607   4.683   2.035   1.502 -2.6615  0.6197  0.6006
 7046SOL    HW231608   4.643   2.135   1.624 -1.2081  1.9551  0.0078
 7047SOL     OW31609   4.679   0.239   1.018 -0.2403  0.0189 -0.1678
 7047SOL    HW131610   4.739   0.318   1.011 -0.4613  0.0519 -1.8125
 7047SOL    HW231611   4.601   0.261   1.076 -0.0889  0.8721 -0.2870
 7048SOL     OW31612   8.578   1.348   0.532 -0.9383 -0.0543 -0.0864
 7048SOL    HW131613   8.555   1.260   0.490  1.6367 -0.6047 -0.4326
 7048SOL    HW231614   8.649   1.393   0.478 -1.2964  1.6352  0.8216
 7049SOL     OW31615   3.732   4.946   1.580 -0.2799 -0.4010  0.2554
 7049SOL    HW131616   3.820   4.899   1.586 -0.5083 -1.1605 -1.8394
 7049SOL    HW231617   3.708   4.960   1.484 -0.6963  3.1462  0.8189
 7050SOL     OW31618   8.151   0.925   3.343  0.7759 -0.4984 -0.0057
 7050SOL    HW131619   8.132   1.020   3.319  1.3898 -0.0903  1.0896
 7050SOL    HW231620   8.111   0.864   3.274  0.5789  0.5579 -0.8277
 7051SOL     OW31621   9.018   8.820   3.120  0.3136  0.0342  0.1582
 7051SOL    HW131622   9.073   8.898   3.149  1.4731 -0.3806 -0.8655
 7051SOL    HW231623   8.948   8.850   3.055  0.8265  0.2143 -0.3182
 7052SOL     OW31624   8.438   4.318   4.015  0.0022  0.0024 -0.3168
 7052SOL    HW131625   8.431   4.340   4.113  0.3509  2.1089 -0.7480
 7052SOL    HW231626   8.455   4.401   3.963 -0.1672 -1.1057 -2.1960
 7053SOL     OW31627   3.215   5.935   2.240 -0.3437  0.2792 -0.0886
 7053SOL    HW131628   3.130   5.891   2.213  0.7663 -2.0307  0.0321
 7053SOL    HW231629   3.287   5.867   2.247  2.1864  2.5143 -2.8220
 7054SOL     OW31630   2.228   8.819   3.260  0.2805 -0.0646  0.2754
 7054SOL    HW131631   2.219   8.847   3.355 -0.4132  1.0006 -0.0917
 7054SOL    HW231632   2.298   8.747   3.253  1.1745  0.6638  1.4309
 7055SOL     OW31633   2.198   4.061   0.101  0.4739  0.3709  0.1364
 7055SOL    HW131634   2.199   3.984   0.165  1.2442  0.9406  0.8288
 7055SOL    HW231635   2.240   4.032   0.015  0.6642 -0.0130  0.3540
 7056SOL     OW31636   7.892   2.443   1.753 -0.2518 -0.2835 -0.2962
 7056SOL    HW131637   7.954   2.521   1.743 -0.0511 -0.3959  0.0659
 7056SOL    HW231638   7.838   2.432   1.669  0.4948 -0.4241 -0.7651
 7057SOL     OW31639   1.019   4.138   0.840  0.3516  0.0992  0.2773
 7057SOL    HW131640   0.982   4.205   0.776  0.4850  0.9015  1.0218
 7057SOL    HW231641   0.976   4.152   0.930  1.6549  0.3291  0.8758
 7058SOL     OW31642   7.801   1.923   3.209 -0.1131  0.7664 -0.1875
 7058SOL    HW131643   7.876   1.915   3.143 -0.1890 -1.2553 -0.0792
 7058SOL    HW231644   7.714   1.922   3.160 -0.1464  0.0069 -0.1260
 7059SOL     OW31645   1.064   0.091   2.810 -0.4219  0.1712  0.5420
 7059SOL    HW131646   1.049   0.070   2.906  0.2106 -0.4066  0.5213
 7059SOL    HW231647   1.162   0.097   2.792 -0.5656  3.5694  0.6181
 7060SOL     OW31648   0.111   9.863   0.146 -0.3053  0.1757  0.0937
 7060SOL    HW131649   0.101   9.861   0.246 -0.0856  1.1192  0.1454
 7060SOL    HW231650   0.029   9.905   0.106 -0.2394  0.1215 -0.0953
 7061SOL     OW31651   1.911   8.278   3.330 -0.2523  0.0945  0.5857
 7061SOL    HW131652   1.855   8.360   3.324  0.4835  0.6375  1.1581
 7061SOL    HW231653   2.008   8.303   3.338  0.0460 -0.8316  0.0283
 7062SOL     OW31654   9.783   9.669   0.453  0.2163 -0.0126  0.1630
 7062SOL    HW131655   9.798   9.580   0.410  0.8270  0.2320 -0.1273
 7062SOL    HW231656   9.758   9.735   0.382 -3.3354 -0.6467  0.7367
 7063SOL     OW31657   9.663   4.170   4.007 -0.1585 -0.0799  0.4998
 7063SOL    HW131658   9.717   4.250   4.031  1.5565 -1.9092  2.9446
 7063SOL    HW231659   9.613   4.137   4.087 -0.8777 -1.4187 -0.4715
 7064SOL     OW31660   0.306   0.443   0.712 -0.1703  0.5388  0.1196
 7064SOL    HW131661   0.353   0.355   0.717  1.8771  1.6876  2.2554
 7064SOL    HW231662   0.358   0.505   0.653 -1.3483  0.4980 -0.9894
 7065SOL     OW31663   2.642   7.561   0.079 -0.2424  0.2374  0.1839
 7065SOL    HW131664   2.597   7.557  -0.010  0.5659 -0.9904 -0.1901
 7065SOL    HW231665   2.733   7.518   0.073 -0.6037 -0.8552  1.8402
 7066SOL     OW31666   7.255   8.539   2.521 -0.2417 -0.0053  0.0410
 7066SOL    HW131667   7.257   8.619   2.581  0.8409 -0.4012  0.5567
 7066SOL    HW231668   7.250   8.456   2.578  0.5367 -0.3723 -0.4165
 7067SOL     OW31669   8.273   9.837   0.609  0.0274  0.0815 -0.1392
 7067SOL    HW131670   8.271   9.918   0.667 -0.2415 -1.0120  1.4138
 7067SOL    HW231671   8.226   9.761   0.655 -0.2400 -0.7943 -1.8120
 7068SOL     OW31672   0.214   2.588   2.454  0.2143  0.3377  0.1842
 7068SOL    HW131673   0.310   2.614   2.462  0.7032 -0.8663 -1.4581
 7068SOL    HW231674   0.208   2.499   2.409 -1.6476  0.0462  0.9785
 7069SOL     OW31675   0.688   6.803   0.263  0.2654  0.7206  0.1334
 7069SOL    HW131676   0.598   6.794   0.304  0.3112 -1.6800 -0.2245
 7069SOL    HW231677   0.715   6.716   0.223  2.6101  1.5075 -0.0628
 7070SOL     OW31678   7.640   2.545   0.187  0.4554 -0.7578  0.0715
 7070SOL    HW131679   7.676   2.636   0.206 -0.0444 -0.7161  0.8272
 7070SOL    HW231680   7.693   2.503   0.113  0.3524  0.3533 -0.6456
 7071SOL     OW31681   0.177   1.924   0.009 -0.3438 -0.4973  0.0864
 7071SOL    HW131682   0.250   1.910  -0.057 -0.0541  0.6544  0.1642
 7071SOL    HW231683   0.193   1.866   0.089  0.7206  0.0718  0.2970
 7072SOL     OW31684   9.015   9.564   1.605  0.2414  0.2901  0.4918
 7072SOL    HW131685   9.020   9.465   1.590  0.2485  0.4477 -0.5836
 7072SOL    HW231686   8.937   9.585   1.664 -0.3648 -0.2654 -0.1021
 7073SOL     OW31687   9.542   6.535   2.277  0.0233  0.1617  0.3388
 7073SOL    HW131688   9.587   6.532   2.366  0.4863  0.7582  0.1270
 7073SOL    HW231689   9.503   6.445   2.257  2.0540 -0.6763  0.0407
 7074SOL     OW31690   3.556   7.308   0.233  0.3973  0.4239 -0.6315
 7074SOL    HW131691   3.564   7.229   0.172 -1.6830  0.5472 -1.1203
 7074SOL    HW231692   3.479   7.364   0.203  0.0997  1.1302  1.4107
 7075SOL     OW31693   0.879   8.239   1.969 -0.2777  0.1939  0.1468
 7075SOL    HW131694   0.967   8.238   2.017  0.2512  0.1191 -0.8116
 7075SOL    HW231695   0.840   8.147   1.969 -1.0709  0.4969  1.8366
 7076SOL     OW31696   3.464   9.814   3.343  0.6472 -0.1164 -0.1877
 7076SOL    HW131697   3.429   9.901   3.309  1.8940 -0.3791 -2.2733
 7076SOL    HW231698   3.561   9.824   3.366  0.3073 -0.4713  1.4059
 7077SOL     OW31699   3.067   0.724   2.457  0.3565  0.4156  0.2943
 7077SOL    HW131700   3.045   0.682   2.545 -0.2294 -0.3262 -0.2065
 7077SOL    HW231701   3.012   0.807   2.446 -0.8264 -0.4118 -0.1170
 7078SOL     OW31702   8.881   3.080   1.692 -0.3262 -0.5677 -0.6089
 7078SOL    HW131703   8.805   3.017   1.707 -0.8769  0.0996 -0.5530
 7078SOL    HW231704   8.905   3.082   1.595 -2.1366  1.1880 -1.0585
 7079SOL     OW31705   8.501   1.790   1.421  1.0387 -0.7550 -0.3014
 7079SOL    HW131706   8.486   1.741   1.335  2.0118  0.0747 -0.9683
 7079SOL    HW231707   8.503   1.724   1.497 -0.9865 -1.3675 -0.7495
 7080SOL     OW31708   3.381   1.620   1.237  0.6950 -0.1885  0.7320
 7080SOL    HW131709   3.406   1.717   1.244 -3.4542  0.9235  1.2972
 7080SOL    HW231710   3.425   1.569   1.312  2.0221  1.4321  1.0914
 7081SOL     OW31711   2.764   4.599   2.008 -0.2383  0.3078  0.3071
 7081SOL    HW131712   2.682   4.547   2.033  0.3037 -0.9035 -0.3966
 7081SOL    HW231713   2.843   4.537   2.004 -0.0950  0.6403 -3.3911
 7082SOL     OW31714   7.646   9.414   3.227  0.0167  0.3624 -0.3002
 7082SOL    HW131715   7.567   9.378   3.277  1.3660 -0.5858  1.2163
 7082SOL    HW231716   7.725   9.417   3.288  1.2543  0.9398 -1.8961
 7083SOL     OW31717   0.417   3.140   0.315  0.3476  0.3956 -0.0082
 7083SOL    HW131718   0.345   3.170   0.377 -0.2323  0.7760 -0.8606
 7083SOL    HW231719   0.409   3.189   0.228  1.2453 -0.0234 -0.3373
 7084SOL     OW31720   2.338   8.110   2.929  0.8012 -0.3169 -0.2974
 7084SOL    HW131721   2.353   8.020   2.889 -0.5581 -0.8920  0.4703
 7084SOL    HW231722   2.241   8.131   2.929  0.7942 -0.2427  2.5562
 7085SOL     OW31723   3.993   7.886   1.881 -0.0339 -0.3029  0.3449
 7085SOL    HW131724   4.021   7.848   1.793  0.7047  0.4052  0.2604
 7085SOL    HW231725   3.908   7.843   1.911 -1.0241  0.4231 -1.3624
 7086SOL     OW31726   1.075   5.886   0.537 -0.6598 -0.5874  0.8311
 7086SOL    HW131727   1.094   5.816   0.468  1.6375  0.6448  0.1203
 7086SOL    HW231728   1.052   5.843   0.624 -1.1930 -2.1973 -0.0932
 7087SOL     OW31729   5.143   0.574   1.783 -0.3710 -0.4295 -0.3010
 7087SOL    HW131730   5.236   0.574   1.745  0.3161 -0.7304  1.3017
 7087SOL    HW231731   5.085   0.511   1.731  0.1410  0.2626 -1.7331
 7088SOL     OW31732   9.005   6.722   1.741  0.2125  0.3556 -0.3896
 7088SOL    HW131733   9.019   6.770   1.654 -1.2602 -1.8486 -1.9052
 7088SOL    HW231734   9.063   6.640   1.744  0.2466  0.4063  0.7206
 7089SOL     OW31735   3.166   6.467   3.369  0.0262  0.4618 -0.2736
 7089SOL    HW131736   3.124   6.487   3.458  0.2160 -0.0635 -0.0593
 7089SOL    HW231737   3.244   6.406   3.383 -1.7440 -2.0634 -1.1017
 7090SOL     OW31738   2.677   4.352   2.324  0.0056 -0.9360  0.4023
 7090SOL    HW131739   2.751   4.348   2.390 -0.4297  1.4233  1.0970
 7090SOL    HW231740   2.674   4.267   2.271  1.1501 -2.3551  2.5412
 7091SOL     OW31741   3.065   6.514   3.977  0.0856 -0.0134  0.3629
 7091SOL    HW131742   3.011   6.598   3.971 -1.9436 -1.4080 -2.1479
 7091SOL    HW231743   3.142   6.518   3.914 -0.4140 -0.3064 -0.2684
 7092SOL     OW31744   9.576   9.897   2.248 -0.2001 -0.2416  0.3595
 7092SOL    HW131745   9.577   9.931   2.342  1.8201  0.5043  0.1106
 7092SOL    HW231746   9.560   9.973   2.186  2.0387 -0.0864 -0.0728
 7093SOL     OW31747   3.771   0.942   0.251 -0.3741 -0.1853 -0.3934
 7093SOL    HW131748   3.746   1.001   0.328  0.7476  1.5531 -1.3240
 7093SOL    HW231749   3.699   0.946   0.181 -0.4800 -0.2174 -0.2858
 7094SOL     OW31750   4.544   8.044   2.729  0.3364 -0.3288 -0.0645
 7094SOL    HW131751   4.546   8.130   2.678  0.4171  0.0292  0.5410
 7094SOL    HW231752   4.463   7.991   2.702 -0.0052  0.1804 -0.0526
 7095SOL     OW31753   2.335   7.628   2.254 -0.0885  0.0208 -0.2922
 7095SOL    HW131754   2.250   7.674   2.229 -0.2823  1.3359  2.6255
 7095SOL    HW231755   2.407   7.695   2.267  0.8108 -0.9047 -0.4334
 7096SOL     OW31756   0.556   5.438   1.714 -0.0277 -0.1183 -0.1525
 7096SOL    HW131757   0.627   5.396   1.770  0.3128 -0.4634 -0.8246
 7096SOL    HW231758   0.593   5.519   1.667 -0.3746  0.3055  0.3014
 7097SOL     OW31759   4.506   3.916   0.203  0.4513 -0.4023  0.4080
 7097SOL    HW131760   4.599   3.907   0.168  0.0607 -0.5029 -0.6058
 7097SOL    HW231761   4.463   3.826   0.207 -0.0224 -0.2016 -0.2677
 7098SOL     OW31762   7.476   7.843   3.447 -0.6460 -0.4796 -0.2941
 7098SOL    HW131763   7.562   7.799   3.423 -0.3042  0.3547 -0.6058
 7098SOL    HW231764   7.400   7.784   3.420 -0.1947 -0.8099 -0.8605
 7099SOL     OW31765   4.943   1.383   2.239 -0.2963  0.1069  0.1459
 7099SOL    HW131766   4.859   1.365   2.290  0.6639 -1.0470  1.3207
 7099SOL    HW231767   4.968   1.480   2.249 -1.1880  0.3291  0.2380
 7100SOL     OW31768   4.836   7.296   2.520 -0.4901  0.3061  0.1051
 7100SOL    HW131769   4.740   7.318   2.533 -0.6997 -1.0118  0.8474
 7100SOL    HW231770   4.862   7.219   2.580  0.5854 -0.4711 -1.3164
 7101SOL     OW31771   3.656   8.111   2.576 -0.1731 -0.2230  0.7633
 7101SOL    HW131772   3.707   8.060   2.507 -0.4776 -1.5936  1.5186
 7101SOL    HW231773   3.563   8.127   2.544 -0.2022 -0.5222  0.6968
 7102SOL     OW31774   7.698   8.584   3.983 -0.1633  0.5906 -0.3054
 7102SOL    HW131775   7.705   8.674   4.028  0.0780  0.1646  0.5268
 7102SOL    HW231776   7.715   8.512   4.050 -0.4946 -0.0889 -0.9392
 7103SOL     OW31777   0.332   3.889   0.702  0.1525 -0.3805  0.1824
 7103SOL    HW131778   0.369   3.805   0.663  0.1707 -0.2033 -0.1863
 7103SOL    HW231779   0.408   3.950   0.727  0.1238 -0.2635 -0.0195
 7104SOL     OW31780   2.669   6.576   3.067  0.0840 -0.4290  0.2413
 7104SOL    HW131781   2.650   6.482   3.039 -1.3350 -0.3287  0.8066
 7104SOL    HW231782   2.628   6.640   3.003 -0.2667 -0.1939  0.6980
 7105SOL     OW31783   3.258   4.358   0.201 -0.3724 -0.4042 -0.4028
 7105SOL    HW131784   3.226   4.272   0.160  2.2339 -2.7588  2.2881
 7105SOL    HW231785   3.352   4.376   0.171 -0.3111  0.6325  0.3837
 7106SOL     OW31786   9.258   2.151   0.708 -0.4796 -0.2555 -0.3992
 7106SOL    HW131787   9.192   2.118   0.641 -1.0156  0.1035 -0.0474
 7106SOL    HW231788   9.273   2.249   0.694 -1.4883  0.0727  0.7609
 7107SOL     OW31789   5.850   8.500   2.001  0.0932  0.2278  0.1119
 7107SOL    HW131790   5.855   8.408   1.962  0.6024 -0.1124  0.9459
 7107SOL    HW231791   5.775   8.550   1.959  0.0172 -0.4610 -0.5881
 7108SOL     OW31792   2.934   1.562   3.997 -0.3779  0.1258  0.1222
 7108SOL    HW131793   2.853   1.520   3.955 -0.6875  0.5226  0.3236
 7108SOL    HW231794   2.965   1.506   4.074 -0.6815  0.1681  0.2755
 7109SOL     OW31795   4.169   0.382   0.620 -0.4760 -0.4149 -0.1200
 7109SOL    HW131796   4.191   0.476   0.646  0.0251 -1.4595  3.5382
 7109SOL    HW231797   4.242   0.345   0.563 -0.5165  1.2785 -1.3041
 7110SOL     OW31798   8.673   2.063   0.221  0.8239 -0.5269 -0.0433
 7110SOL    HW131799   8.649   1.972   0.186 -1.3224  0.5873 -1.6391
 7110SOL    HW231800   8.589   2.115   0.236  2.0453  1.3518  0.3914
 7111SOL     OW31801   4.171   1.103   2.043  0.2627  0.0026 -0.3478
 7111SOL    HW131802   4.162   1.112   1.944  0.0782 -0.7091 -0.3947
 7111SOL    HW231803   4.104   1.162   2.088  0.0753  0.0227 -0.6484
 7112SOL     OW31804   1.333   8.226   3.900  0.2388  0.4502  0.5744
 7112SOL    HW131805   1.301   8.141   3.941 -0.1689 -0.3926 -1.4369
 7112SOL    HW231806   1.327   8.220   3.800  1.5858  2.2937  0.3455
 7113SOL     OW31807   9.176   0.398   3.471 -0.0853  0.6641  0.6984
 7113SOL    HW131808   9.272   0.414   3.493 -0.1295  0.3398  1.1415
 7113SOL    HW231809   9.127   0.485   3.471  0.6664  1.1108 -1.8367
 7114SOL     OW31810   0.392   3.912   2.362  0.2293 -0.8791  0.1367
 7114SOL    HW131811   0.310   3.934   2.414  0.1363  0.4228 -0.5210
 7114SOL    HW231812   0.430   3.996   2.323  0.7791 -1.7079 -1.1768
 7115SOL     OW31813   3.239   2.770   3.598 -0.7186 -0.2052 -0.5200
 7115SOL    HW131814   3.161   2.795   3.540 -0.3902  0.1249 -0.8162
 7115SOL    HW231815   3.306   2.844   3.598 -0.5048 -0.3974 -0.0844
 7116SOL     OW31816   9.444   9.403   3.171 -0.5858  0.0337  0.5758
 7116SOL    HW131817   9.481   9.483   3.218  0.9718  0.3565 -1.1329
 7116SOL    HW231818   9.345   9.399   3.184 -0.0905 -0.6252  4.9311
 7117SOL     OW31819   2.479   8.774   0.586 -0.4285 -0.0680 -0.4109
 7117SOL    HW131820   2.509   8.741   0.496 -1.1212 -0.8155 -0.3736
 7117SOL    HW231821   2.491   8.701   0.654  0.7149  0.7104  0.2416
 7118SOL     OW31822   2.309   0.218   2.784 -0.2357  0.5696  0.3561
 7118SOL    HW131823   2.289   0.316   2.783  0.1036  0.6306 -0.1957
 7118SOL    HW231824   2.406   0.204   2.765 -0.5938  0.0411 -1.1488
 7119SOL     OW31825   1.330   0.612   0.009 -0.6373  0.1236  0.2100
 7119SOL    HW131826   1.406   0.569  -0.039 -0.2890  0.0726  0.7957
 7119SOL    HW231827   1.340   0.596   0.107 -0.6820  1.2482  0.4089
 7120SOL     OW31828   9.308   5.704   3.644 -0.1318  0.1227  0.1476
 7120SOL    HW131829   9.315   5.668   3.738 -1.0304  0.8558  0.4977
 7120SOL    HW231830   9.213   5.700   3.614  0.1323  0.0468 -0.6836
 7121SOL     OW31831   9.136   9.540   0.208  0.2473  0.4847  0.0020
 7121SOL    HW131832   9.167   9.535   0.303 -2.4259 -1.7221  0.8350
 7121SOL    HW231833   9.067   9.613   0.200 -1.1198 -0.7568  0.2786
 7122SOL     OW31834   4.874   0.838   1.338  0.1545 -0.2556  0.2707
 7122SOL    HW131835   4.824   0.918   1.303  0.3314  0.3271  1.3241
 7122SOL    HW231836   4.957   0.868   1.384 -0.3584 -0.9629  1.6715
 7123SOL     OW31837   0.856   1.703   3.854  0.5129 -0.0142 -0.1699
 7123SOL    HW131838   0.845   1.802   3.849 -0.9995 -0.2081 -0.9302
 7123SOL    HW231839   0.889   1.678   3.945  1.4954  1.2174 -0.1589
 7124SOL     OW31840   2.781   8.694   2.637  0.3233 -0.3082  0.0119
 7124SOL    HW131841   2.856   8.630   2.619  1.3814  0.3631  1.8087
 7124SOL    HW231842   2.719   8.655   2.704  0.5245  0.1981  0.5017
 7125SOL     OW31843   0.836   0.070   2.106  0.0657 -0.4872  0.8480
 7125SOL    HW131844   0.830  -0.026   2.132  0.2174  0.2781  3.8756
 7125SOL    HW231845   0.905   0.081   2.034  1.1166 -2.4426  1.5271
 7126SOL     OW31846   0.796   4.236   1.000  0.4492  0.3173 -0.0239
 7126SOL    HW131847   0.728   4.297   1.039  2.8808  1.8557  1.9786
 7126SOL    HW231848   0.822   4.167   1.068  1.4362  0.2253 -0.4812
 7127SOL     OW31849   1.145   1.037   3.379 -0.5952  0.0285 -0.7353
 7127SOL    HW131850   1.123   1.134   3.364 -1.2567 -0.1515 -0.9399
 7127SOL    HW231851   1.244   1.027   3.390 -0.6720  0.9377  0.9003
 7128SOL     OW31852   1.263   8.068   1.006 -0.0184 -0.1735 -0.7857
 7128SOL    HW131853   1.348   8.053   1.058 -0.1336  1.6494 -0.0397
 7128SOL    HW231854   1.213   7.981   0.998  0.6191 -0.7362  1.0654
 7129SOL     OW31855   4.667   9.212   1.321 -0.2366  0.1610  0.0646
 7129SOL    HW131856   4.612   9.295   1.308 -0.0885  0.3699  0.7397
 7129SOL    HW231857   4.645   9.171   1.409  0.2678 -0.0801  0.0790
 7130SOL     OW31858   9.860   5.668   0.219  0.0690  0.4451  0.4210
 7130SOL    HW131859   9.761   5.659   0.221  0.0918  0.1240  0.1477
 7130SOL    HW231860   9.895   5.671   0.313 -0.0519 -1.1492  0.5269
 7131SOL     OW31861   7.887   8.054   1.819 -0.1118  0.3382  0.0303
 7131SOL    HW131862   7.816   8.012   1.874  1.1539 -1.6876  0.1799
 7131SOL    HW231863   7.870   8.152   1.811 -0.9522  0.4741  3.0149
 7132SOL     OW31864   2.820   5.312   2.086 -0.5352 -0.2949 -0.1106
 7132SOL    HW131865   2.801   5.296   1.989 -0.9370 -0.1420 -0.0602
 7132SOL    HW231866   2.737   5.292   2.139  0.0237 -1.5562  0.3234
 7133SOL     OW31867   0.438   2.079   1.972  0.3024 -0.2155 -0.1349
 7133SOL    HW131868   0.524   2.129   1.960 -0.3992  1.1226  0.3539
 7133SOL    HW231869   0.454   1.999   2.031  1.4936 -0.7838 -1.1901
 7134SOL     OW31870   1.478   4.258   2.887 -0.0871  0.0186  0.7163
 7134SOL    HW131871   1.413   4.285   2.958 -0.5889 -0.2863  0.3685
 7134SOL    HW231872   1.556   4.212   2.929 -0.7621 -0.8705  0.9892
 7135SOL     OW31873   3.730   0.700   2.636 -0.3108 -0.1170  0.1061
 7135SOL    HW131874   3.662   0.636   2.670 -0.8746 -0.2169 -1.1641
 7135SOL    HW231875   3.821   0.672   2.666 -0.8268  0.1020  1.9533
 7136SOL     OW31876   0.184   8.460   0.064 -0.2790 -0.2900  0.6996
 7136SOL    HW131877   0.200   8.367   0.097 -1.2674  0.0701  2.2616
 7136SOL    HW231878   0.106   8.460   0.002  1.2187 -0.8719 -1.2631
 7137SOL     OW31879   7.756   9.310   3.687  0.1263 -0.8023  0.8520
 7137SOL    HW131880   7.760   9.235   3.753 -0.0148 -1.0162  0.6185
 7137SOL    HW231881   7.663   9.317   3.650  0.2403 -0.7768  0.5691
 7138SOL     OW31882   4.139   1.617   2.984  0.1197 -0.2131 -0.1441
 7138SOL    HW131883   4.110   1.711   2.963  1.4124  0.4034  0.7724
 7138SOL    HW231884   4.113   1.594   3.077  1.1785 -0.2097  0.1578
 7139SOL     OW31885   3.442   6.942   2.299  1.3361 -0.9028  0.3575
 7139SOL    HW131886   3.468   7.036   2.274  0.5272 -0.6789  0.3374
 7139SOL    HW231887   3.453   6.930   2.397  3.3103 -1.3931  0.0963
 7140SOL     OW31888   9.318   1.316   0.109  0.0142  0.1444 -0.2616
 7140SOL    HW131889   9.280   1.397   0.065 -1.2437 -0.6728 -0.7328
 7140SOL    HW231890   9.396   1.283   0.055 -0.3857  0.1956 -0.8800
 7141SOL     OW31891   2.922   8.613   0.193  0.1705  0.2652 -0.1725
 7141SOL    HW131892   2.945   8.559   0.113 -2.1210 -0.0562 -0.6408
 7141SOL    HW231893   2.961   8.570   0.275 -0.3866 -1.3040 -0.7173
 7142SOL     OW31894   7.824   1.041   1.748 -0.0731  0.1705 -0.7363
 7142SOL    HW131895   7.906   0.989   1.725 -0.8258 -1.1520 -0.5370
 7142SOL    HW231896   7.767   0.987   1.811 -0.9093  1.2125 -0.5842
 7143SOL     OW31897   9.366   4.095   2.247 -0.4435 -0.5707 -0.1993
 7143SOL    HW131898   9.266   4.096   2.242 -0.4565 -3.2138 -1.1493
 7143SOL    HW231899   9.395   4.032   2.319  0.5557 -0.8611 -0.8427
 7144SOL     OW31900   8.423   1.095   0.464 -0.1115 -0.3657 -0.4225
 7144SOL    HW131901   8.508   1.049   0.489 -0.0439  0.3561  0.7042
 7144SOL    HW231902   8.373   1.039   0.398  1.1196 -0.9051 -0.9101
 7145SOL     OW31903   1.833   2.684   2.976 -0.4644  0.3965  0.0855
 7145SOL    HW131904   1.751   2.741   2.985 -0.1510  0.8732 -0.0730
 7145SOL    HW231905   1.905   2.719   3.036  0.3671  1.3193 -1.4196
 7146SOL     OW31906   8.026   0.285   1.923 -0.6274  1.1935  0.2258
 7146SOL    HW131907   7.962   0.305   1.850 -0.0843  1.6445 -0.1332
 7146SOL    HW231908   8.046   0.368   1.975 -2.0261  0.6141  1.7263
 7147SOL     OW31909   9.096   2.824   1.161  0.4740  0.4192 -0.7657
 7147SOL    HW131910   9.067   2.874   1.078  0.3316  0.1889 -0.8534
 7147SOL    HW231911   9.148   2.886   1.220  0.0724  0.7470 -0.7530
 7148SOL     OW31912   3.760   1.310   0.242  0.3695 -0.0256 -0.0842
 7148SOL    HW131913   3.769   1.410   0.243  3.8608 -0.1913 -2.6770
 7148SOL    HW231914   3.683   1.284   0.184  0.1906  1.1720 -0.4006
 7149SOL     OW31915   0.605   4.861   3.833 -0.4149 -0.4528 -0.4534
 7149SOL    HW131916   0.658   4.789   3.789  0.0391  0.3391 -1.2088
 7149SOL    HW231917   0.570   4.924   3.764  1.5392  1.6213  0.4004
 7150SOL     OW31918   1.585   8.275   3.972 -0.2775  0.4930  0.3302
 7150SOL    HW131919   1.617   8.235   4.057  0.5274  0.0499 -0.1709
 7150SOL    HW231920   1.490   8.247   3.955 -0.5503  0.8449  1.2293
 7151SOL     OW31921   8.088   3.312   0.607  0.5124  0.5661 -0.3392
 7151SOL    HW131922   8.075   3.264   0.520 -0.3176  0.5185 -0.1869
 7151SOL    HW231923   8.070   3.249   0.683 -1.6847  1.4107 -0.1306
 7152SOL     OW31924   7.687   8.878   0.075  0.0697  0.0367 -0.1606
 7152SOL    HW131925   7.674   8.977   0.084 -0.7639  0.0571 -1.5001
 7152SOL    HW231926   7.771   8.860   0.024  0.3614  0.0449  0.3128
 7153SOL     OW31927   4.087   6.764   3.352  0.0887 -0.4689 -0.0126
 7153SOL    HW131928   3.995   6.767   3.392  0.5874 -1.3753  1.2497
 7153SOL    HW231929   4.086   6.703   3.273 -0.1084 -1.6416  0.8627
 7154SOL     OW31930   4.485   0.024   1.001 -0.0068 -0.4656  0.5651
 7154SOL    HW131931   4.529  -0.056   1.042 -1.4225 -0.7280  1.6029
 7154SOL    HW231932   4.554   0.093   0.980  0.9014 -0.8554  2.2087
 7155SOL     OW31933   4.304   7.416   1.366 -0.5274  0.2798 -0.6158
 7155SOL    HW131934   4.252   7.331   1.378 -1.3695  0.9621  0.7108
 7155SOL    HW231935   4.359   7.433   1.447  0.4850  0.4475 -1.3314
 7156SOL     OW31936   8.454   2.137   3.854 -0.3478 -0.4522 -0.1321
 7156SOL    HW131937   8.382   2.095   3.799 -0.4939  0.2929 -0.5221
 7156SOL    HW231938   8.446   2.108   3.949 -1.6374  0.2247 -0.0219
 7157SOL     OW31939   0.031   7.334   1.023  0.3023  0.6673 -0.2091
 7157SOL    HW131940  -0.037   7.406   1.036  1.5595  1.5274  1.6385
 7157SOL    HW231941   0.017   7.262   1.091 -0.4103 -0.4570 -1.5077
 7158SOL     OW31942   3.526   5.194   1.338 -0.2157 -0.3575  0.2620
 7158SOL    HW131943   3.466   5.224   1.264 -1.4989 -0.6182  1.1579
 7158SOL    HW231944   3.589   5.268   1.363 -0.6864  0.1986 -0.1886
 7159SOL     OW31945   3.822   9.987   1.238 -0.4733  0.6902  0.5422
 7159SOL    HW131946   3.733   9.943   1.251 -0.9221  1.1802 -0.7183
 7159SOL    HW231947   3.891   9.918   1.217 -0.7809  0.4135  0.4414
 7160SOL     OW31948   6.896   9.771   3.852 -0.1433 -0.6313  0.3144
 7160SOL    HW131949   6.826   9.836   3.881 -0.4468 -0.9645  0.3414
 7160SOL    HW231950   6.983   9.818   3.838 -0.1211 -0.3816  1.2638
 7161SOL     OW31951   8.574   6.077   2.744 -0.3787  0.1552  0.6364
 7161SOL    HW131952   8.550   6.014   2.818 -2.1023 -0.8505 -0.7545
 7161SOL    HW231953   8.619   6.027   2.670 -2.4126  0.3735 -0.7916
 7162SOL     OW31954   3.118   8.562   1.294  0.7154  0.4684  0.0987
 7162SOL    HW131955   3.088   8.492   1.360  1.1883 -0.7437 -0.9486
 7162SOL    HW231956   3.126   8.650   1.341  3.0396 -0.7650  2.1417
 7163SOL     OW31957   1.203   5.602   1.472  0.5414  0.1371 -0.2616
 7163SOL    HW131958   1.169   5.655   1.393  0.2162 -1.0990 -0.9550
 7163SOL    HW231959   1.270   5.535   1.440  1.4053  0.5172  0.7072
 7164SOL     OW31960   2.082   0.597   1.108  0.4136  0.0725 -0.1625
 7164SOL    HW131961   2.100   0.509   1.150  0.2201 -0.2810 -0.8081
 7164SOL    HW231962   2.018   0.585   1.032 -0.4929  0.9305  0.4557
 7165SOL     OW31963   0.956   7.437   1.815  0.0505 -0.0129  0.3564
 7165SOL    HW131964   0.979   7.354   1.866  0.6876  0.5970  1.0632
 7165SOL    HW231965   0.961   7.516   1.876 -0.5534  0.5450 -0.3181
 7166SOL     OW31966   7.359   0.913   2.953  0.2125  0.5680 -0.1863
 7166SOL    HW131967   7.310   0.831   2.981  1.1215  0.7526  2.0368
 7166SOL    HW231968   7.421   0.891   2.878 -0.6720 -0.4310 -0.6331
 7167SOL     OW31969   4.484   8.870   2.366  0.0573 -0.2671 -0.1842
 7167SOL    HW131970   4.403   8.816   2.342  0.4111  0.2248 -2.5299
 7167SOL    HW231971   4.566   8.817   2.349  0.2883 -0.5692  1.7052
 7168SOL     OW31972   2.595   0.695   2.454  0.3667 -0.3819 -0.3821
 7168SOL    HW131973   2.629   0.789   2.456 -1.1755  0.2061 -1.3800
 7168SOL    HW231974   2.592   0.658   2.547 -1.5946  1.4885  0.3180
 7169SOL     OW31975   4.285   1.043   1.385  0.2481  0.2007 -0.1758
 7169SOL    HW131976   4.185   1.041   1.395  0.3949  0.6261  1.4882
 7169SOL    HW231977   4.319   0.950   1.377 -0.0664 -0.1035  1.7460
 7170SOL     OW31978   2.743   6.045   2.906 -0.0315  0.0856 -0.3948
 7170SOL    HW131979   2.773   5.954   2.880  0.8448  0.3400 -0.2914
 7170SOL    HW231980   2.819   6.109   2.898  0.3025  0.1626  2.7630
 7171SOL     OW31981   9.155   0.646   0.071 -0.1785  0.4869  0.3022
 7171SOL    HW131982   9.160   0.712  -0.004  0.4210  0.3239  0.1963
 7171SOL    HW231983   9.242   0.643   0.119  0.8265 -2.3855 -1.5673
 7172SOL     OW31984   2.401   4.746   2.099  0.3503 -0.6514 -0.0469
 7172SOL    HW131985   2.470   4.758   2.171 -0.0895 -2.1189  0.6460
 7172SOL    HW231986   2.395   4.649   2.075 -1.9582 -0.6379  0.3820
 7173SOL     OW31987   3.167   3.065   2.495 -0.0490  0.6044  0.4440
 7173SOL    HW131988   3.216   2.978   2.489  2.1830  1.8437  0.3676
 7173SOL    HW231989   3.121   3.072   2.584 -0.5236 -0.7721  0.3201
 7174SOL     OW31990   4.233   3.380   3.513 -0.6044  0.2214  0.4539
 7174SOL    HW131991   4.315   3.372   3.457 -1.4365 -0.5490 -0.6658
 7174SOL    HW231992   4.230   3.305   3.579 -1.4420 -0.9237 -0.8752
 7175SOL     OW31993   0.477   5.589   3.994 -0.0373  0.2464  0.2055
 7175SOL    HW131994   0.563   5.560   4.036 -0.4856  0.1211  1.0474
 7175SOL    HW231995   0.404   5.583   4.061 -0.6789  0.5001 -0.4676
 7176SOL     OW31996   9.384   2.984   2.078 -0.0467  0.1354 -0.2533
 7176SOL    HW131997   9.320   3.028   2.015 -0.7565  1.7618  1.5566
 7176SOL    HW231998   9.332   2.940   2.152  0.9005  1.7540  1.4127
 7177SOL     OW31999   3.682   8.793   3.107  0.0252 -0.1701  0.2949
 7177SOL    HW132000   3.675   8.769   3.203 -0.3053 -0.9566  0.0758
 7177SOL    HW232001   3.630   8.728   3.052  2.1965 -1.1705 -0.6408
 7178SOL     OW32002   3.993   9.544   3.298  0.1676  0.0318  0.7101
 7178SOL    HW132003   4.052   9.573   3.373  1.0868 -0.2885  0.1391
 7178SOL    HW232004   3.986   9.617   3.231  1.5213 -0.6041 -0.1588
 7179SOL     OW32005   4.553   6.753   3.264 -0.3215 -0.5484 -0.4731
 7179SOL    HW132006   4.618   6.718   3.331 -0.7664 -0.8256 -0.1837
 7179SOL    HW232007   4.527   6.680   3.201 -0.3467 -0.4372 -0.5928
 7180SOL     OW32008   0.010   5.995   1.709 -0.8480 -0.0539  0.7028
 7180SOL    HW132009   0.059   5.911   1.683 -0.0026  0.1173  1.6772
 7180SOL    HW232010  -0.083   5.992   1.673 -0.9540 -1.6031  1.0711
 7181SOL     OW32011   3.180   8.841   0.673 -0.4860  0.0208 -0.4478
 7181SOL    HW132012   3.097   8.822   0.619 -0.6223 -0.3650 -0.1084
 7181SOL    HW232013   3.188   8.939   0.688 -1.5259 -0.0185  0.5115
 7182SOL     OW32014   4.638   7.409   3.149  0.3372 -0.7032 -0.3043
 7182SOL    HW132015   4.585   7.381   3.069 -0.6533  0.1792  0.0369
 7182SOL    HW232016   4.625   7.342   3.222  0.3144 -0.9015 -0.4911
 7183SOL     OW32017   2.309   8.250   0.755  0.0630 -0.8159 -0.2387
 7183SOL    HW132018   2.290   8.159   0.793  0.3993  0.4408  3.0830
 7183SOL    HW232019   2.328   8.314   0.830 -0.3823  2.0599 -2.5159
 7184SOL     OW32020   2.374   6.707   3.750 -0.0198  0.0488  0.4184
 7184SOL    HW132021   2.376   6.789   3.807 -1.7053  0.2583  0.2008
 7184SOL    HW232022   2.326   6.634   3.798 -0.8862  0.0299 -0.4666
 7185SOL     OW32023   9.131   2.559   2.175  0.6242 -0.3433 -0.4330
 7185SOL    HW132024   9.090   2.527   2.261  0.3774  0.8362 -0.1052
 7185SOL    HW232025   9.166   2.480   2.124 -2.1182 -1.4182 -0.7635
 7186SOL     OW32026   3.307   7.810   3.127 -0.0417 -0.3728  0.0352
 7186SOL    HW132027   3.393   7.860   3.139 -0.3968  0.1169  0.6258
 7186SOL    HW232028   3.316   7.746   3.051  0.6558  0.0950 -0.2920
 7187SOL     OW32029   9.988   1.889   1.936  0.0663  0.0225 -0.2926
 7187SOL    HW132030  10.052   1.837   1.879  1.1638 -0.6776  1.5157
 7187SOL    HW232031   9.911   1.919   1.881  0.5967 -1.4878 -1.9138
 7188SOL     OW32032   9.244   9.062   0.418 -0.4045 -0.4647  0.1852
 7188SOL    HW132033   9.212   9.125   0.348  0.2163 -1.2220 -0.8059
 7188SOL    HW232034   9.169   9.001   0.445 -0.8091  0.2301  0.6208
 7189SOL     OW32035   7.811   9.325   0.500  0.0467 -0.1024 -0.0264
 7189SOL    HW132036   7.784   9.358   0.590  1.1442  1.0792 -0.1225
 7189SOL    HW232037   7.872   9.391   0.456 -1.0120 -0.3293 -1.9214
 7190SOL     OW32038   0.922   7.411   1.180 -0.3016  0.0511 -0.2891
 7190SOL    HW132039   0.938   7.339   1.248 -0.2360  0.0217 -0.3354
 7190SOL    HW232040   0.958   7.381   1.092 -0.8115 -0.1133 -0.4474
 7191SOL     OW32041   1.169   0.662   2.837  0.0873 -0.2736 -0.3645
 7191SOL    HW132042   1.153   0.694   2.930 -2.0441  0.4682 -0.9540
 7191SOL    HW232043   1.127   0.571   2.825 -0.9619  0.2780 -0.9989
 7192SOL     OW32044   8.153   8.333   0.380 -0.5335  0.1059 -0.6896
 7192SOL    HW132045   8.102   8.347   0.296 -0.7073 -0.7543 -0.7329
 7192SOL    HW232046   8.115   8.391   0.452  0.1340  1.4444 -1.4037
 7193SOL     OW32047   9.331   4.640   1.450  0.6975 -0.5977  0.1709
 7193SOL    HW132048   9.283   4.553   1.452 -2.1182  0.8733 -1.1364
 7193SOL    HW232049   9.404   4.637   1.381 -0.3060 -1.4368 -0.8526
 7194SOL     OW32050   1.056   0.058   1.918 -0.0307 -0.1293 -0.6547
 7194SOL    HW132051   1.128  -0.007   1.940 -0.8115 -1.0059 -0.6354
 7194SOL    HW232052   1.096   0.148   1.900  0.9683 -0.3338  0.4418
 7195SOL     OW32053   8.356   0.353   3.494  0.0055 -0.1590  0.1746
 7195SOL    HW132054   8.346   0.386   3.588  1.5901  0.1361  0.2533
 7195SOL    HW232055   8.427   0.406   3.448  0.5658 -1.5656 -0.5928
 7196SOL     OW32056   9.616   9.819   0.826 -0.3123 -0.5700  0.6656
 7196SOL    HW132057   9.617   9.777   0.916 -0.7606 -1.5484  0.2245
 7196SOL    HW232058   9.612   9.748   0.756  1.1511  0.1338 -0.1690
 7197SOL     OW32059   8.522   9.626   1.348 -0.3202  0.1544  0.1596
 7197SOL    HW132060   8.553   9.698   1.411 -0.9734  2.1540 -1.7444
 7197SOL    HW232061   8.512   9.541   1.398 -3.3491  2.2683  3.4245
 7198SOL     OW32062   0.266   4.271   0.472 -0.2020 -0.0384 -0.0607
 7198SOL    HW132063   0.271   4.283   0.373  0.9187  0.8981  0.0988
 7198SOL    HW232064   0.243   4.176   0.493  0.2270 -0.4029 -1.2074
 7199SOL     OW32065   1.982   5.457   0.486  0.3794  0.2697 -0.1557
 7199SOL    HW132066   2.051   5.522   0.456 -1.9860  1.2835 -3.6835
 7199SOL    HW232067   1.941   5.488   0.572  2.8149  0.6627  0.9227
 7200SOL     OW32068   3.230   9.836   1.397 -0.5723 -0.2183 -0.3542
 7200SOL    HW132069   3.325   9.804   1.398 -0.8684 -1.1276 -0.5251
 7200SOL    HW232070   3.216   9.901   1.471  0.1234 -0.2575 -0.1801
 7201SOL     OW32071   2.369   3.257   3.215 -0.5153 -0.5560  0.2203
 7201SOL    HW132072   2.364   3.357   3.217  1.1649 -0.4844  1.8867
 7201SOL    HW232073   2.382   3.222   3.308 -0.8925 -2.3265 -0.3671
 7202SOL     OW32074   0.668   5.767   2.932  0.1100 -0.5882  0.7434
 7202SOL    HW132075   0.694   5.855   2.892  0.3982 -0.6897  0.7039
 7202SOL    HW232076   0.569   5.760   2.937  0.0945 -0.0821  1.1443
 7203SOL     OW32077   6.341   9.673   1.967  0.6717 -0.6597  0.2055
 7203SOL    HW132078   6.344   9.664   1.867 -0.6447 -0.5545  0.1470
 7203SOL    HW232079   6.393   9.754   1.994 -0.9628  0.6993 -0.6159
 7204SOL     OW32080   0.907   0.349   0.011  0.2375  0.2955  0.0060
 7204SOL    HW132081   0.963   0.426  -0.019  0.9399  0.2367  1.1199
 7204SOL    HW232082   0.944   0.264  -0.027 -0.0417  0.4205 -0.5476
 7205SOL     OW32083   2.732   6.717   0.848  0.5946 -0.3530  0.1689
 7205SOL    HW132084   2.743   6.664   0.932  0.9464 -2.5081 -1.2155
 7205SOL    HW232085   2.807   6.783   0.840  1.5747 -1.4031  0.6411
 7206SOL     OW32086   2.222   3.891   1.463  0.5971 -0.5164  0.7531
 7206SOL    HW132087   2.226   3.796   1.432 -1.2282 -0.2299 -0.4422
 7206SOL    HW232088   2.178   3.947   1.393 -0.4744  0.7768  2.4151
 7207SOL     OW32089   9.783   4.530   0.368 -0.8461 -0.2214  0.5913
 7207SOL    HW132090   9.874   4.491   0.355 -0.4266  0.7817  0.5424
 7207SOL    HW232091   9.750   4.507   0.460 -0.0141  0.5116  1.0707
 7208SOL     OW32092   9.848   2.126   3.836 -0.0335 -0.2414 -0.2898
 7208SOL    HW132093   9.882   2.187   3.765 -0.1822  0.2427  0.0535
 7208SOL    HW232094   9.878   2.032   3.817  2.6041  0.3514  0.6968
 7209SOL     OW32095   9.054   0.196   2.905 -0.2373  0.4275 -0.2571
 7209SOL    HW132096   9.072   0.110   2.860 -0.4298  0.2288  0.0385
 7209SOL    HW232097   9.080   0.272   2.846  0.3925  0.1630 -0.3198
 7210SOL     OW32098   8.350   5.241   1.223 -0.1580  0.1126 -0.3543
 7210SOL    HW132099   8.313   5.180   1.153 -0.9312 -0.0178  0.1574
 7210SOL    HW232100   8.356   5.334   1.188  1.4987 -0.3375 -1.3097
 7211SOL     OW32101   2.059   8.031   1.003  0.4230 -0.2568  0.3502
 7211SOL    HW132102   2.014   7.942   1.000  0.6735 -0.3754 -0.0388
 7211SOL    HW232103   2.013   8.093   0.939  2.3103 -1.1055 -1.9087
 7212SOL     OW32104   4.364   2.572   0.799 -0.5553 -0.3463 -0.5293
 7212SOL    HW132105   4.383   2.559   0.702  0.4031  0.4006 -0.4460
 7212SOL    HW232106   4.380   2.667   0.824 -0.4916 -0.6014  0.4234
 7213SOL     OW32107   9.964   2.681   1.250 -0.2087 -0.5174  0.4921
 7213SOL    HW132108  10.053   2.637   1.262 -0.4176 -0.5629  2.0333
 7213SOL    HW232109   9.933   2.717   1.338 -0.9251  1.0248 -0.3714
 7214SOL     OW32110   8.475   8.310   1.165  0.2815  0.6167 -0.0838
 7214SOL    HW132111   8.507   8.216   1.154 -0.1640  0.3032  1.1302
 7214SOL    HW232112   8.451   8.348   1.076  1.2331 -0.1419 -0.6704
 7215SOL     OW32113   3.345   2.619   0.079  0.2157 -0.3344  0.3362
 7215SOL    HW132114   3.300   2.537   0.116 -1.9181  1.0994  1.0249
 7215SOL    HW232115   3.344   2.691   0.147  0.2871  0.9188 -0.9688
 7216SOL     OW32116   2.792   1.697   2.895  0.3692 -0.1005 -0.6710
 7216SOL    HW132117   2.707   1.746   2.915  0.0877 -0.2145 -1.5612
 7216SOL    HW232118   2.798   1.616   2.954 -0.7185 -0.7425 -1.4284
 7217SOL     OW32119   1.305   9.563   1.943 -0.0094  0.0554  0.6452
 7217SOL    HW132120   1.405   9.557   1.949  0.0802  2.0171  1.2425
 7217SOL    HW232121   1.265   9.558   2.034 -0.4316 -0.3206  0.4403
 7218SOL     OW32122   0.906   5.343   2.623  0.2717  0.2248 -0.8499
 7218SOL    HW132123   0.888   5.302   2.712  1.6251  0.2269 -0.5684
 7218SOL    HW232124   0.827   5.398   2.595  1.2784  3.2779  2.0727
 7219SOL     OW32125   0.471   9.461   1.668  0.0531  0.0409 -0.0082
 7219SOL    HW132126   0.497   9.531   1.601  2.0008  1.0897  1.7873
 7219SOL    HW232127   0.376   9.476   1.696  0.8603  2.8824  1.4121
 7220SOL     OW32128   1.521   0.152   3.033  0.0018 -0.3219  0.2217
 7220SOL    HW132129   1.521   0.241   2.987  0.3772 -2.2072 -3.5934
 7220SOL    HW232130   1.454   0.153   3.107 -2.5185  2.0408 -1.9900
 7221SOL     OW32131   3.786   2.547   3.901 -0.6964  0.6700  0.1960
 7221SOL    HW132132   3.871   2.496   3.886 -0.8361  0.2285  0.8672
 7221SOL    HW232133   3.709   2.495   3.867 -1.0225 -0.3836  2.4841
 7222SOL     OW32134   9.254   5.489   2.418 -0.0522  0.4191  0.8740
 7222SOL    HW132135   9.265   5.413   2.483 -0.4257  0.0737  0.5348
 7222SOL    HW232136   9.158   5.517   2.415 -0.2363 -0.3163 -0.3655
 7223SOL     OW32137   2.315   1.584   0.698  0.1623  0.3049  0.1301
 7223SOL    HW132138   2.306   1.658   0.631 -0.0160  1.5383  1.4804
 7223SOL    HW232139   2.224   1.558   0.730  0.3268  0.7503  0.9764
 7224SOL     OW32140   1.755   9.703   2.545 -0.6850  0.6853 -0.0868
 7224SOL    HW132141   1.684   9.719   2.612 -1.3282 -0.0501 -0.5834
 7224SOL    HW232142   1.817   9.631   2.578 -0.3377  1.1178  0.2124
 7225SOL     OW32143   9.212   5.957   3.766 -0.1037 -0.5717 -0.2160
 7225SOL    HW132144   9.133   6.009   3.736 -1.2200 -1.6290  0.8310
 7225SOL    HW232145   9.236   5.889   3.697 -0.9220 -1.1212  0.0389
 7226SOL     OW32146   3.723   2.529   2.934 -0.4442  0.0871 -0.2169
 7226SOL    HW132147   3.711   2.570   2.844  1.2710 -1.5024 -1.1893
 7226SOL    HW232148   3.795   2.460   2.931 -1.4488 -1.1296  2.0029
 7227SOL     OW32149   9.022   0.970   3.326 -0.4992 -0.1175  0.3629
 7227SOL    HW132150   9.024   0.936   3.420 -3.0345  0.8392  0.8171
 7227SOL    HW232151   9.013   1.070   3.327  0.0923 -0.0372 -0.9021
 7228SOL     OW32152   2.759   9.959   1.380  0.0477 -0.0666  0.2071
 7228SOL    HW132153   2.768   9.902   1.298  0.2790 -0.6559  0.6343
 7228SOL    HW232154   2.834  10.025   1.384  1.9402 -2.2160  1.6289
 7229SOL     OW32155   2.311   5.825   0.531  0.5427 -0.5486  0.2452
 7229SOL    HW132156   2.331   5.860   0.623  0.4974 -0.1072  0.0902
 7229SOL    HW232157   2.362   5.879   0.464 -0.6129  0.1422 -0.1038
 7230SOL     OW32158   4.076   3.326   1.857 -0.4122  0.3351 -0.0590
 7230SOL    HW132159   4.025   3.298   1.776  0.2649  0.9222 -0.7046
 7230SOL    HW232160   4.057   3.264   1.933 -0.3103 -0.7845 -0.9456
 7231SOL     OW32161   0.377   4.692   3.668 -0.1456 -0.3069  0.0498
 7231SOL    HW132162   0.409   4.629   3.739 -1.0260 -1.1354 -0.2774
 7231SOL    HW232163   0.391   4.650   3.578 -3.3272 -1.2651 -0.0594
 7232SOL     OW32164   0.484   9.146   3.018  0.3048  0.2394  0.1365
 7232SOL    HW132165   0.556   9.081   2.996 -0.9323 -0.2211 -2.7919
 7232SOL    HW232166   0.421   9.105   3.084  1.4828 -0.1716  1.0197
 7233SOL     OW32167   3.192   4.452   1.160  0.0264 -0.2895  0.1665
 7233SOL    HW132168   3.204   4.534   1.215  0.5752 -1.0887  1.2563
 7233SOL    HW232169   3.147   4.476   1.074  1.3642  1.3354 -0.0984
 7234SOL     OW32170   4.455   3.067   1.023  0.1359  0.1930 -0.6564
 7234SOL    HW132171   4.443   3.092   1.119  0.5334 -1.1702 -0.2503
 7234SOL    HW232172   4.524   3.127   0.982 -0.8488  1.5240 -0.3984
 7235SOL     OW32173   9.755   1.773   1.021 -0.3320 -0.2772  0.1861
 7235SOL    HW132174   9.757   1.683   0.978 -0.0049  0.4166 -1.2895
 7235SOL    HW232175   9.834   1.782   1.082 -0.2498 -0.9086  0.1770
 7236SOL     OW32176   5.771   7.303   2.534 -0.8138  0.2674 -0.1932
 7236SOL    HW132177   5.812   7.293   2.444  1.9914 -0.4499  1.1099
 7236SOL    HW232178   5.738   7.397   2.545  2.2926  1.4658 -0.6120
 7237SOL     OW32179   4.978   7.952   3.655 -0.3989  0.5177 -0.0336
 7237SOL    HW132180   5.047   7.926   3.723 -0.1477 -1.5616 -1.0578
 7237SOL    HW232181   4.887   7.935   3.691 -0.3373  1.3022  0.5193
 7238SOL     OW32182   1.837   0.994   1.812  0.1408  0.3602 -0.5885
 7238SOL    HW132183   1.937   0.990   1.812  0.1801  1.1603 -0.9734
 7238SOL    HW232184   1.808   1.090   1.804 -0.6552  0.1136 -0.6686
 7239SOL     OW32185   5.124   8.881   2.916  0.7209  0.4932 -0.1409
 7239SOL    HW132186   5.138   8.799   2.971  2.3392 -0.7236 -2.2752
 7239SOL    HW232187   5.211   8.931   2.907  0.0157  1.7891  0.1401
 7240SOL     OW32188   9.058   5.875   2.286  0.4548  0.0734 -0.6700
 7240SOL    HW132189   9.121   5.877   2.208  1.9209  0.8853  0.5321
 7240SOL    HW232190   9.016   5.965   2.298 -1.7307 -0.7107 -2.0736
 7241SOL     OW32191   2.907   4.398   0.789 -0.5850  0.1604  0.3451
 7241SOL    HW132192   2.914   4.342   0.707 -0.2547  1.1785 -0.3303
 7241SOL    HW232193   2.811   4.412   0.812 -0.7503  2.1967 -1.4867
 7242SOL     OW32194   3.814   3.551   0.962  0.4763 -0.7526  0.3011
 7242SOL    HW132195   3.737   3.495   0.929  0.1814  0.4233 -1.0645
 7242SOL    HW232196   3.779   3.619   1.027  0.7443 -1.7759  1.5199
 7243SOL     OW32197   2.800   9.372   0.307  0.4639  0.3097 -0.3746
 7243SOL    HW132198   2.804   9.275   0.284  0.5237  0.4517 -0.9743
 7243SOL    HW232199   2.710   9.408   0.286  0.7543  0.6158 -1.0952
 7244SOL     OW32200   9.761   0.265   2.788  0.0145 -0.1590  0.5219
 7244SOL    HW132201   9.774   0.167   2.806  0.1868 -0.3307 -0.4705
 7244SOL    HW232202   9.788   0.284   2.693  1.5279  1.1431  1.1963
 7245SOL     OW32203   0.692   0.428   0.905  0.2622 -0.1011 -0.3209
 7245SOL    HW132204   0.756   0.402   0.833  1.3210 -0.0013  0.5723
 7245SOL    HW232205   0.714   0.378   0.989 -0.7551  0.0259  0.0306
 7246SOL     OW32206   9.486   6.934   0.923  0.1914  0.4103 -0.0727
 7246SOL    HW132207   9.405   6.891   0.885  0.1975 -0.0257  0.4088
 7246SOL    HW232208   9.474   6.947   1.022 -0.3179  2.6303 -0.3997
 7247SOL     OW32209   3.821   0.693   2.300  0.6740  0.2152  0.4706
 7247SOL    HW132210   3.846   0.765   2.365 -0.0288  0.3117  0.6326
 7247SOL    HW232211   3.722   0.684   2.296  0.6484  1.1535 -1.6229
 7248SOL     OW32212   1.084   0.723   3.096 -0.2859 -0.3062 -0.3381
 7248SOL    HW132213   1.047   0.659   3.164  0.4575 -0.7041 -0.3024
 7248SOL    HW232214   1.146   0.787   3.142 -1.7339  1.0302 -0.2163
 7249SOL     OW32215   3.272   3.984   1.181  0.8295 -0.4634 -0.7339
 7249SOL    HW132216   3.223   4.071   1.182  0.7685 -0.4839  0.9189
 7249SOL    HW232217   3.215   3.914   1.225  2.1801 -0.5731  0.8902
 7250SOL     OW32218   8.299   2.796   2.150 -0.4984  0.3047 -0.6596
 7250SOL    HW132219   8.255   2.861   2.088 -0.7991  0.3159 -0.4342
 7250SOL    HW232220   8.373   2.842   2.200 -1.5254  0.8026  0.4215
 7251SOL     OW32221   1.565   4.497   3.837  0.3032 -0.7896  0.1571
 7251SOL    HW132222   1.504   4.495   3.916  0.3945 -1.9055  0.2047
 7251SOL    HW232223   1.630   4.572   3.848  0.5789 -1.1908  1.3469
 7252SOL     OW32224   1.291   9.376   3.554 -0.2858 -0.4092  0.3427
 7252SOL    HW132225   1.238   9.451   3.514 -0.4768 -1.4252 -1.3515
 7252SOL    HW232226   1.388   9.402   3.557 -0.2259 -0.4254 -1.0627
 7253SOL     OW32227   1.300   5.101   3.889 -0.2986 -0.3980  0.1675
 7253SOL    HW132228   1.377   5.045   3.920  0.3178  0.2346 -0.1938
 7253SOL    HW232229   1.328   5.154   3.809 -0.8233  0.5527  0.6021
 7254SOL     OW32230   1.623   2.137   0.242  0.2144  0.1400 -0.2681
 7254SOL    HW132231   1.525   2.158   0.249  0.4322  0.6901  1.2716
 7254SOL    HW232232   1.667   2.155   0.330  1.4264 -1.5417 -0.5135
 7255SOL     OW32233   2.247   9.274   1.317 -0.0647  0.0388 -0.3331
 7255SOL    HW132234   2.183   9.198   1.306  0.4669 -0.5319  0.5095
 7255SOL    HW232235   2.195   9.360   1.326 -0.6693 -0.2565 -0.9296
 7256SOL     OW32236   3.670   7.303   1.424 -0.4671 -0.4844  0.0906
 7256SOL    HW132237   3.583   7.263   1.398 -0.5488 -0.2305 -0.0205
 7256SOL    HW232238   3.660   7.402   1.434 -0.1792 -0.4484  0.0243
 7257SOL     OW32239   7.608   1.366   0.387  0.8389 -0.2442  0.0798
 7257SOL    HW132240   7.644   1.456   0.410  0.8623 -0.2469  0.0535
 7257SOL    HW232241   7.681   1.310   0.348  0.8499 -0.3102  0.1939
 7258SOL     OW32242   0.155   4.717   3.181  0.4406 -0.0458 -0.6725
 7258SOL    HW132243   0.114   4.653   3.246 -0.3808 -0.0277 -1.1668
 7258SOL    HW232244   0.122   4.809   3.199  0.2178 -0.0388 -1.1103
 7259SOL     OW32245   2.559   5.944   3.105  0.1740  0.8822 -0.5681
 7259SOL    HW132246   2.632   5.977   3.046 -0.3278  1.5303 -0.8329
 7259SOL    HW232247   2.492   5.894   3.051  0.5463  0.0734 -0.2864
 7260SOL     OW32248   5.577   1.334   2.063  0.4848 -0.2832  1.0420
 7260SOL    HW132249   5.556   1.276   1.985  0.9560 -0.4572  1.0434
 7260SOL    HW232250   5.668   1.312   2.098  1.5184  1.8198 -0.2246
 7261SOL     OW32251   9.570   3.192   2.125  0.5064  0.2246  0.4120
 7261SOL    HW132252   9.506   3.119   2.104  0.0914  0.5695  0.4820
 7261SOL    HW232253   9.642   3.195   2.055 -1.1975  1.7605 -1.3135
 7262SOL     OW32254   8.166   7.856   0.567  0.0114  0.1102  0.4223
 7262SOL    HW132255   8.234   7.898   0.506 -1.1326  1.5609  0.1165
 7262SOL    HW232256   8.163   7.907   0.653 -1.5184  0.7767 -0.0162
 7263SOL     OW32257   1.455   9.643   0.926  0.4877  0.4342 -0.4794
 7263SOL    HW132258   1.488   9.556   0.962  0.8148  0.6138 -0.3512
 7263SOL    HW232259   1.494   9.659   0.835  0.5047  0.4967 -0.4613
 7264SOL     OW32260   3.254   9.644   2.054 -0.1787 -0.3954 -0.0491
 7264SOL    HW132261   3.263   9.587   2.136  0.1600 -0.3527 -0.0592
 7264SOL    HW232262   3.308   9.604   1.980  0.0778 -0.0450 -0.0494
 7265SOL     OW32263   8.071   8.906   0.839  0.2467 -0.2253 -0.2083
 7265SOL    HW132264   8.087   8.936   0.745 -0.7938  3.3600  0.6649
 7265SOL    HW232265   7.979   8.867   0.847  0.7604 -1.6242 -0.8726
 7266SOL     OW32266   7.984   9.853   1.364 -0.1181  0.2542  0.0259
 7266SOL    HW132267   7.983   9.875   1.461 -1.6202  1.9748 -0.3672
 7266SOL    HW232268   7.900   9.805   1.339 -0.5985  1.4683 -0.7695
 7267SOL     OW32269   0.427   8.373   2.655  0.2978  0.1050  0.1821
 7267SOL    HW132270   0.337   8.330   2.658 -0.1401  1.0284  0.4765
 7267SOL    HW232271   0.495   8.312   2.695 -0.0919 -0.8479 -0.6106
 7268SOL     OW32272   1.666   6.430   0.397 -0.0639 -0.4648  0.2486
 7268SOL    HW132273   1.705   6.458   0.309  1.2454 -0.2470  0.8880
 7268SOL    HW232274   1.617   6.344   0.386  0.0701 -0.4204 -0.7060
 7269SOL     OW32275   7.731   4.844   3.458 -0.4812 -0.0111 -0.1255
 7269SOL    HW132276   7.648   4.899   3.458 -0.5637 -0.1333  0.0607
 7269SOL    HW232277   7.798   4.884   3.521 -0.8490 -0.5796  0.6304
 7270SOL     OW32278   8.635   1.484   2.590 -0.3104 -0.5195 -0.2662
 7270SOL    HW132279   8.648   1.414   2.659  0.3528 -0.1255  0.0046
 7270SOL    HW232280   8.606   1.441   2.504  0.7462 -1.1798 -0.2919
 7271SOL     OW32281   2.411   7.789   2.938 -0.1006 -0.2814 -0.0654
 7271SOL    HW132282   2.431   7.723   2.866 -1.0495  0.8979 -1.4313
 7271SOL    HW232283   2.341   7.751   2.999  0.6383 -1.2470  0.1809
 7272SOL     OW32284   3.576   0.577   2.124 -0.0360  0.1234 -0.0649
 7272SOL    HW132285   3.553   0.550   2.217 -0.6735  1.8389  0.2946
 7272SOL    HW232286   3.494   0.577   2.067  0.7087 -3.0497 -1.2041
 7273SOL     OW32287   2.057   4.733   2.217  0.4192 -0.0605 -0.3006
 7273SOL    HW132288   2.070   4.655   2.156  1.8305  0.3192 -0.5068
 7273SOL    HW232289   2.017   4.809   2.165 -0.5348 -0.4911 -0.2049
 7274SOL     OW32290   1.956   3.867   3.360  0.1867 -0.1948 -0.5757
 7274SOL    HW132291   1.910   3.799   3.303 -0.5221 -0.9479  0.8575
 7274SOL    HW232292   1.893   3.941   3.381  0.9265  0.8857 -2.0447
 7275SOL     OW32293   4.055   9.815   1.730  0.0843 -0.0911 -0.2569
 7275SOL    HW132294   4.136   9.770   1.766 -0.9057  0.0185  2.1959
 7275SOL    HW232295   4.066   9.915   1.738 -0.6283 -0.0963  0.8841
 7276SOL     OW32296   0.013   4.551   3.339 -0.3768 -0.6149  0.2355
 7276SOL    HW132297   0.022   4.544   3.439 -3.1178  2.4110  0.8211
 7276SOL    HW232298  -0.063   4.494   3.309  0.6361 -1.7519 -0.1678
 7277SOL     OW32299   9.806   3.136   1.553  0.2830 -0.0885  0.5503
 7277SOL    HW132300   9.713   3.165   1.531 -0.0152 -1.6919 -0.3843
 7277SOL    HW232301   9.842   3.192   1.628 -1.4074  0.5758  0.8853
 7278SOL     OW32302   7.929   5.075   0.169  0.4038 -0.3704  0.0068
 7278SOL    HW132303   7.925   5.094   0.267 -0.9176  1.6016 -0.3963
 7278SOL    HW232304   7.990   4.997   0.153 -1.1872 -2.2300  2.5845
 7279SOL     OW32305   1.356   4.627   2.331 -0.4795 -0.5749  0.1409
 7279SOL    HW132306   1.298   4.629   2.412 -1.0287  0.3761 -0.2618
 7279SOL    HW232307   1.299   4.632   2.249  0.2306  1.7966 -0.2327
 7280SOL     OW32308   9.851   7.524   1.112  0.2032  0.4080  0.1288
 7280SOL    HW132309   9.782   7.545   1.180  0.2752  0.5632  0.1551
 7280SOL    HW232310   9.837   7.581   1.031  0.4778  0.6516  0.2505
 7281SOL     OW32311   1.123   9.472   0.846  0.3077 -0.0464 -0.0044
 7281SOL    HW132312   1.054   9.518   0.903 -1.4792 -1.2402 -1.1567
 7281SOL    HW232313   1.156   9.390   0.894 -0.7628 -0.7279 -0.4168
 7282SOL     OW32314   4.521   7.335   1.175 -0.0327  0.9269 -0.4301
 7282SOL    HW132315   4.421   7.328   1.177  0.2291 -4.4572 -0.0896
 7282SOL    HW232316   4.555   7.350   1.268 -0.4000  0.8224 -0.2784
 7283SOL     OW32317   1.811   6.874   1.543 -0.0456 -0.5449  0.0835
 7283SOL    HW132318   1.765   6.952   1.502  0.4231 -1.8075 -3.0146
 7283SOL    HW232319   1.855   6.902   1.628 -0.7210  2.3022 -0.4441
 7284SOL     OW32320   9.479   0.971   3.427  0.6200 -0.8551  0.3979
 7284SOL    HW132321   9.401   0.952   3.487 -0.2882  4.0791  0.9648
 7284SOL    HW232322   9.448   0.975   3.332 -0.0583  1.7638  0.6826
 7285SOL     OW32323   9.257   2.541   1.248  0.3748  0.2976  0.3300
 7285SOL    HW132324   9.278   2.467   1.185  0.5604  1.1416 -0.6029
 7285SOL    HW232325   9.209   2.614   1.201  1.8643  1.6144  0.7773
 7286SOL     OW32326   0.226   1.450   2.169 -0.2293 -0.4279 -0.4872
 7286SOL    HW132327   0.217   1.360   2.128  0.7603 -1.7907  2.2014
 7286SOL    HW232328   0.161   1.459   2.245  0.1798  0.8779 -0.2735
 7287SOL     OW32329   9.690   2.912   0.839  0.2153  0.3360  0.3358
 7287SOL    HW132330   9.707   2.852   0.762  1.1459  1.5680 -0.4438
 7287SOL    HW232331   9.707   2.863   0.925 -0.7958 -1.0217 -0.2255
 7288SOL     OW32332   9.440   2.937   0.702 -0.8844  0.1321 -0.2908
 7288SOL    HW132333   9.424   3.028   0.663 -0.3283 -0.5263 -2.0957
 7288SOL    HW232334   9.512   2.943   0.771 -1.1877  1.1396 -0.0444
 7289SOL     OW32335   9.259   7.424   1.825  0.0120  0.2446  0.1081
 7289SOL    HW132336   9.229   7.330   1.839 -0.2505  0.1204 -1.1859
 7289SOL    HW232337   9.351   7.424   1.785 -0.2753  0.5036 -0.5739
 7290SOL     OW32338   7.459   2.474   0.374  0.5129 -0.0630 -0.1316
 7290SOL    HW132339   7.497   2.385   0.398  0.7211  0.5347  1.9536
 7290SOL    HW232340   7.502   2.508   0.291  0.1518 -2.0499 -1.1676
 7291SOL     OW32341   3.567   4.500   1.790  0.4164 -0.7585 -0.4507
 7291SOL    HW132342   3.639   4.555   1.747 -0.0947  0.7663  0.6151
 7291SOL    HW232343   3.558   4.526   1.886  0.2252 -2.7865  0.0860
 7292SOL     OW32344   9.028   1.005   0.045  0.3394  0.4207 -0.6933
 7292SOL    HW132345   8.960   0.931   0.042 -0.1360  0.8221 -0.0227
 7292SOL    HW232346   9.046   1.038  -0.047 -0.9400  0.8164 -0.8074
 7293SOL     OW32347   2.053   1.998   0.233 -0.3566  0.3397  0.4147
 7293SOL    HW132348   1.985   1.989   0.160 -0.2835 -1.2648  0.5174
 7293SOL    HW232349   2.013   2.049   0.309 -0.1042  2.8905 -1.1315
 7294SOL     OW32350   2.150   7.087   0.332  0.5156 -0.2084  0.3255
 7294SOL    HW132351   2.249   7.086   0.314  0.7154  0.9846  1.2679
 7294SOL    HW232352   2.134   7.091   0.430 -0.4421  1.2969  0.1289
 7295SOL     OW32353   2.609   5.679   1.239 -0.4769 -0.2733 -0.4036
 7295SOL    HW132354   2.552   5.735   1.299 -0.8905  0.6988 -1.6787
 7295SOL    HW232355   2.591   5.703   1.144  0.7391 -1.2441 -0.8959
 7296SOL     OW32356   0.699   5.138   2.526  0.8612 -0.1245  0.3127
 7296SOL    HW132357   0.633   5.080   2.574 -1.5812  0.8711 -1.7377
 7296SOL    HW232358   0.703   5.111   2.430  1.6050  1.4413 -0.1029
 7297SOL     OW32359   3.201   0.262   1.243  0.7768 -0.2341 -0.4213
 7297SOL    HW132360   3.182   0.296   1.151  1.3910 -1.2555 -0.9287
 7297SOL    HW232361   3.178   0.333   1.310 -2.6602 -0.5389 -1.1420
 7298SOL     OW32362   2.782   4.358   1.322 -0.3880  0.8966  0.1413
 7298SOL    HW132363   2.836   4.375   1.240  0.2448  0.3728  0.4484
 7298SOL    HW232364   2.712   4.289   1.302  0.6628 -0.2621  0.4093
 7299SOL     OW32365   1.708   9.661   3.167  0.3667  0.4496  0.0797
 7299SOL    HW132366   1.786   9.721   3.154  0.8776 -0.4266 -1.0844
 7299SOL    HW232367   1.626   9.703   3.127 -0.0222  1.8790  2.3197
 7300SOL     OW32368   0.251   6.349   3.238 -0.5157 -0.2496  0.4369
 7300SOL    HW132369   0.312   6.295   3.296  0.0651  0.7082  0.7263
 7300SOL    HW232370   0.197   6.288   3.181 -0.2762 -1.1599  1.1763
 7301SOL     OW32371   2.096   9.543   3.866  0.2433  0.3987 -0.1178
 7301SOL    HW132372   2.162   9.615   3.843 -0.6866  1.0452 -0.8319
 7301SOL    HW232373   2.133   9.454   3.840 -0.4007  1.0290 -3.4313
 7302SOL     OW32374   3.484   1.006   0.664 -0.0068 -0.3622 -0.2273
 7302SOL    HW132375   3.404   0.987   0.720  0.6248  1.1428  1.2381
 7302SOL    HW232376   3.456   1.035   0.573 -1.0913 -0.7017 -0.0022
 7303SOL     OW32377   1.901   8.812   3.617  0.1603 -0.7488  0.1203
 7303SOL    HW132378   1.973   8.824   3.685 -0.5105  1.2403  0.5120
 7303SOL    HW232379   1.927   8.739   3.553  1.2344 -1.9477  1.9040
 7304SOL     OW32380   2.772   5.903   2.108 -0.0470  0.3390 -0.1198
 7304SOL    HW132381   2.822   5.972   2.160  0.2289 -0.2347  0.3806
 7304SOL    HW232382   2.679   5.896   2.144  0.3185 -0.4748  0.6994
 7305SOL     OW32383   3.003   6.147   2.495 -0.2478 -0.1268  0.2951
 7305SOL    HW132384   3.041   6.234   2.466  1.4264 -0.9783 -0.1452
 7305SOL    HW232385   3.070   6.074   2.480 -1.0234 -1.2670  2.0686
 7306SOL     OW32386   1.485   2.402   3.924 -0.0140  0.2845  0.6329
 7306SOL    HW132387   1.526   2.415   3.834  0.2593  0.4944  0.7860
 7306SOL    HW232388   1.539   2.336   3.976  0.4788  1.0206  1.0572
 7307SOL     OW32389   4.580   0.012   3.102  0.4469 -0.0031  0.0178
 7307SOL    HW132390   4.483   0.025   3.125  0.6444  0.7534  0.4646
 7307SOL    HW232391   4.634   0.084   3.147  1.0241  0.5689 -1.5583
 7308SOL     OW32392   3.555   7.238   0.967 -0.6192  0.5400  0.1078
 7308SOL    HW132393   3.529   7.148   1.001  1.5702  0.4735  1.7476
 7308SOL    HW232394   3.476   7.283   0.926 -1.4948 -2.5599 -1.7706
 7309SOL     OW32395   9.154   6.447   1.252  0.0870  0.1976 -0.1075
 7309SOL    HW132396   9.242   6.400   1.251 -0.4897 -0.9129 -1.6574
 7309SOL    HW232397   9.087   6.393   1.200 -1.1114  1.7631 -0.2314
 7310SOL     OW32398   4.159   5.104   3.148 -0.4454 -0.4848  0.3328
 7310SOL    HW132399   4.112   5.177   3.197 -0.0655  1.4554 -2.0961
 7310SOL    HW232400   4.158   5.021   3.204 -1.3439  1.1967  2.9363
 7311SOL     OW32401   9.040   8.523   3.446 -0.1386  0.4016  0.3689
 7311SOL    HW132402   9.137   8.518   3.421 -0.7423  0.6651 -2.2078
 7311SOL    HW232403   9.007   8.616   3.434 -1.0876 -0.0084 -0.3085
 7312SOL     OW32404   0.136   8.422   1.434 -0.2179 -0.4107 -0.1970
 7312SOL    HW132405   0.177   8.397   1.522  0.3768 -2.4769 -1.0372
 7312SOL    HW232406   0.051   8.473   1.451  0.6716  0.5490  1.5565
 7313SOL     OW32407   8.677   1.214   3.077 -0.4814  0.1157 -0.4176
 7313SOL    HW132408   8.718   1.147   3.016 -1.2001  0.0783 -0.8529
 7313SOL    HW232409   8.586   1.185   3.104 -1.6977  1.9653 -2.3663
 7314SOL     OW32410   1.595   1.290   3.939  0.0396 -0.4621 -0.2545
 7314SOL    HW132411   1.622   1.329   3.851  2.0553  0.1687  0.6216
 7314SOL    HW232412   1.617   1.353   4.013 -0.0029 -1.7221  0.8658
 7315SOL     OW32413   0.022   7.269   3.989  0.7552  0.6903 -0.2431
 7315SOL    HW132414  -0.001   7.186   4.040  1.5246  0.1589 -0.7445
 7315SOL    HW232415   0.030   7.346   4.053 -1.8231  0.7858 -0.0105
 7316SOL     OW32416   9.479   5.008   0.767  0.0867 -0.0946  0.5525
 7316SOL    HW132417   9.547   4.958   0.820  0.2151  0.6878  1.1251
 7316SOL    HW232418   9.395   5.016   0.820 -0.9774 -2.3751 -0.7354
 7317SOL     OW32419   8.834   7.893   1.164  0.3638 -0.2550  0.0532
 7317SOL    HW132420   8.926   7.932   1.163  0.5464 -0.7069 -1.6614
 7317SOL    HW232421   8.837   7.802   1.207  0.7515 -0.3593 -0.1937
 7318SOL     OW32422   0.527   1.112   1.838  0.4009  0.3454 -0.3385
 7318SOL    HW132423   0.529   1.151   1.931  1.9096  0.5343 -0.4265
 7318SOL    HW232424   0.531   1.013   1.844  0.5977  0.3607 -0.1906
 7319SOL     OW32425   2.703   5.227   2.590 -0.2205  0.0553  0.0660
 7319SOL    HW132426   2.797   5.230   2.555 -0.2511 -3.5260 -0.4847
 7319SOL    HW232427   2.652   5.156   2.543 -3.3053  2.0330  0.2896
 7320SOL     OW32428   7.920   8.786   1.622  0.2723 -0.2417 -0.1007
 7320SOL    HW132429   7.906   8.876   1.665  0.8519 -0.9890  1.6830
 7320SOL    HW232430   7.971   8.797   1.538 -1.0464  1.2811 -0.7374
 7321SOL     OW32431   0.307   6.411   0.148 -1.0316  0.0927 -0.0053
 7321SOL    HW132432   0.251   6.482   0.105 -0.2201 -0.0573 -1.3416
 7321SOL    HW232433   0.404   6.428   0.126 -0.7879 -1.0786  0.1697
 7322SOL     OW32434   8.247   9.881   3.390 -0.0101  0.2217 -0.1649
 7322SOL    HW132435   8.260   9.787   3.422 -1.2713 -1.2843 -3.8161
 7322SOL    HW232436   8.295   9.944   3.451  0.6269 -2.7409  2.5246
 7323SOL     OW32437   0.612   5.831   1.763  0.3186 -0.1292 -0.2126
 7323SOL    HW132438   0.603   5.923   1.726  0.1437 -0.6389 -1.4932
 7323SOL    HW232439   0.529   5.779   1.742  0.9189 -0.9416 -0.5913
 7324SOL     OW32440   7.540   3.202   0.212  0.4376 -0.2963 -0.1793
 7324SOL    HW132441   7.523   3.103   0.207 -3.0170  0.2344 -0.1471
 7324SOL    HW232442   7.567   3.235   0.122 -0.0318 -1.0155 -0.5946
 7325SOL     OW32443   4.388   9.021   4.026 -0.2082 -0.4030 -0.0432
 7325SOL    HW132444   4.441   8.956   4.080 -1.7224 -1.0741  0.6619
 7325SOL    HW232445   4.438   9.042   3.942  2.4322  1.0268  1.7788
 7326SOL     OW32446   9.928   6.093   1.130 -0.0902 -0.9620  1.0160
 7326SOL    HW132447   9.927   5.994   1.114  1.0454 -0.7984 -0.1441
 7326SOL    HW232448   9.863   6.138   1.069  1.4434 -0.7249 -0.4790
 7327SOL     OW32449   4.019   8.636   0.200  0.8274 -0.4635  0.2911
 7327SOL    HW132450   4.098   8.695   0.184  1.3307 -1.5500 -1.4266
 7327SOL    HW232451   3.939   8.692   0.219  0.9182  0.8860 -2.9661
 7328SOL     OW32452   3.328   8.779   1.895  0.5593  0.1504  0.9836
 7328SOL    HW132453   3.408   8.806   1.950  1.0272  0.2743  0.2458
 7328SOL    HW232454   3.357   8.716   1.823 -0.2085 -0.7543  1.4506
 7329SOL     OW32455   3.325   7.994   3.420  0.1793 -0.8327  0.2676
 7329SOL    HW132456   3.233   8.031   3.432 -0.1969 -0.7320 -2.5937
 7329SOL    HW232457   3.322   7.894   3.421 -0.0347 -0.8334 -0.1439
 7330SOL     OW32458   8.638   3.132   3.999 -0.0210  0.1122 -0.1244
 7330SOL    HW132459   8.629   3.213   3.940  1.3844  0.9215  0.7333
 7330SOL    HW232460   8.689   3.157   4.081 -1.1872 -1.2183  1.0203
 7331SOL     OW32461   0.291   0.631   3.429  0.0081 -0.7730  0.1314
 7331SOL    HW132462   0.286   0.666   3.522 -2.1334 -3.7321  1.2114
 7331SOL    HW232463   0.301   0.531   3.431  0.6269 -0.8228 -2.8105
 7332SOL     OW32464   6.026   7.357   3.364  0.5251 -0.3046  0.0353
 7332SOL    HW132465   6.004   7.400   3.276 -0.4515  0.8690  0.8396
 7332SOL    HW232466   6.035   7.258   3.351  1.0296 -0.0757 -1.5004
 7333SOL     OW32467   3.018   0.931   3.782 -0.1017  0.1665  0.2228
 7333SOL    HW132468   3.049   0.943   3.687  1.0095 -0.9799  0.4172
 7333SOL    HW232469   2.925   0.965   3.792  1.0104  3.6116 -0.4474
 7334SOL     OW32470   0.179   7.195   1.240  0.2076  0.1872 -0.0188
 7334SOL    HW132471   0.247   7.266   1.261 -1.7061  1.8438  0.7005
 7334SOL    HW232472   0.209   7.144   1.160  2.8583  0.1520  0.9256
 7335SOL     OW32473   8.350   1.377   1.894 -0.5929  0.3279 -0.2301
 7335SOL    HW132474   8.314   1.318   1.822 -0.7526 -1.3810  1.2209
 7335SOL    HW232475   8.287   1.453   1.910 -1.6434 -0.5096 -0.3714
 7336SOL     OW32476   7.266   9.757   2.943 -0.0014 -0.1355 -0.6050
 7336SOL    HW132477   7.343   9.780   3.002 -0.8895  1.7451 -0.1244
 7336SOL    HW232478   7.181   9.758   2.997 -0.7961  1.3837 -1.8341
 7337SOL     OW32479   3.170   6.896   3.196  0.2519  0.0420  0.2378
 7337SOL    HW132480   3.163   6.797   3.195 -1.0067  0.1047  1.0998
 7337SOL    HW232481   3.243   6.926   3.133 -0.7702 -1.2964 -1.6167
 7338SOL     OW32482   2.463   5.684   0.098  0.5853  0.0259  0.1720
 7338SOL    HW132483   2.457   5.783   0.113  0.6090  0.0768 -0.1474
 7338SOL    HW232484   2.547   5.649   0.139  1.4800  0.4369 -1.2815
 7339SOL     OW32485   0.810   5.683   1.324  0.4429 -0.5049 -0.2473
 7339SOL    HW132486   0.764   5.740   1.256  0.3997  0.8405  0.9016
 7339SOL    HW232487   0.887   5.635   1.281  1.8115  2.0860 -0.7421
 7340SOL     OW32488   9.070   5.689   0.597 -0.4860  0.5598 -0.0969
 7340SOL    HW132489   9.101   5.774   0.639  1.4604 -0.1981  0.0225
 7340SOL    HW232490   9.028   5.630   0.667 -0.3752  0.7460  0.1244
 7341SOL     OW32491   0.672   0.577   1.345 -0.0550 -0.4633 -0.3120
 7341SOL    HW132492   0.589   0.534   1.382 -0.0654 -0.9232 -0.8623
 7341SOL    HW232493   0.721   0.511   1.289  0.7312 -0.2081  0.0754
 7342SOL     OW32494   3.316   4.418   2.125  0.7707  0.3753  0.4720
 7342SOL    HW132495   3.297   4.367   2.041  2.6903 -0.4992  0.5426
 7342SOL    HW232496   3.326   4.354   2.201  2.0857  0.9258  0.7773
 7343SOL     OW32497   0.053   6.930   2.817  0.5013 -0.6156  0.2973
 7343SOL    HW132498   0.053   6.989   2.898 -1.7921 -1.3481  0.8717
 7343SOL    HW232499   0.014   6.981   2.740 -1.3201 -1.2862  0.7506
 7344SOL     OW32500   0.682   3.990   3.977  0.5763  0.0745  0.0962
 7344SOL    HW132501   0.689   4.088   3.961 -1.3596  0.0419 -1.1447
 7344SOL    HW232502   0.594   3.957   3.943  1.7074 -2.3094 -0.6417
 7345SOL     OW32503   8.926   3.961   2.169  0.6113  0.1270  0.8785
 7345SOL    HW132504   8.874   3.880   2.196  0.8744 -0.7959 -1.2854
 7345SOL    HW232505   8.875   4.012   2.099  0.9796  1.1877  1.3750
 7346SOL     OW32506   2.281   8.648   0.194  0.2091  0.2930 -0.4713
 7346SOL    HW132507   2.318   8.600   0.114 -0.7036 -0.6166 -0.3590
 7346SOL    HW232508   2.186   8.621   0.208  0.2524  0.7265  0.7160
 7347SOL     OW32509   1.091   5.777   1.659  0.0982  0.0076 -0.0670
 7347SOL    HW132510   1.132   5.697   1.616 -0.1341 -1.0845  1.6745
 7347SOL    HW232511   0.996   5.788   1.629  0.1109 -0.4183 -0.2532
 7348SOL     OW32512   0.021   0.619   2.994  0.2184 -0.5295 -1.1282
 7348SOL    HW132513  -0.052   0.552   3.002 -0.7217  0.6479  0.4705
 7348SOL    HW232514   0.035   0.664   3.083 -0.1632  2.3687 -2.4566
 7349SOL     OW32515   2.856   2.188   2.969  0.0146 -0.0306 -0.1062
 7349SOL    HW132516   2.884   2.251   3.041 -0.4358 -0.7920  0.7518
 7349SOL    HW232517   2.854   2.095   3.005 -0.1591 -0.4318 -1.1235
 7350SOL     OW32518   2.728   7.454   2.388 -0.3426  0.0869  0.4881
 7350SOL    HW132519   2.708   7.542   2.430  1.3322  0.4693  0.5226
 7350SOL    HW232520   2.684   7.381   2.440 -0.7977  0.8108  1.1265
 7351SOL     OW32521   3.322   9.116   2.566  0.0310  0.2647  0.1673
 7351SOL    HW132522   3.392   9.049   2.588  1.0254  1.5778  1.1333
 7351SOL    HW232523   3.354   9.175   2.492 -1.8586 -1.8850 -2.4216
 7352SOL     OW32524   2.964   5.585   3.074 -0.0134  0.0156  0.8053
 7352SOL    HW132525   2.888   5.532   3.036  1.2078 -1.0758 -0.1825
 7352SOL    HW232526   3.045   5.527   3.078  0.5262  0.8706  2.7982
 7353SOL     OW32527   7.225   9.035   0.665  0.3706  1.1269 -0.0471
 7353SOL    HW132528   7.258   9.034   0.571 -0.2627 -0.5429 -0.2682
 7353SOL    HW232529   7.249   8.949   0.710 -1.0118  1.1137  0.7056
 7354SOL     OW32530   9.482   2.690   2.414 -0.3755 -0.3354 -0.0389
 7354SOL    HW132531   9.473   2.615   2.348 -0.3369 -0.4842  0.1255
 7354SOL    HW232532   9.578   2.716   2.421 -0.4961  0.3231 -0.7568
 7355SOL     OW32533   1.475   3.262   2.457 -0.1486 -0.0922  0.4320
 7355SOL    HW132534   1.538   3.308   2.519  0.0261 -0.0289  0.2083
 7355SOL    HW232535   1.404   3.215   2.510 -1.0924  1.5316  0.6276
 7356SOL     OW32536   1.359   8.168   3.630 -0.0077 -0.1009 -0.0910
 7356SOL    HW132537   1.368   8.255   3.581  0.8000  1.1338  2.1463
 7356SOL    HW232538   1.450   8.132   3.651 -0.3407 -1.2412 -0.5814
 7357SOL     OW32539   9.609   7.761   0.539  0.2264 -0.3154  0.2103
 7357SOL    HW132540   9.612   7.789   0.444 -0.0668  1.2288  0.6391
 7357SOL    HW232541   9.687   7.799   0.589  0.0841 -0.6532  0.7058
 7358SOL     OW32542   1.785   2.392   0.607  0.3786  0.3954  0.7480
 7358SOL    HW132543   1.740   2.476   0.638 -0.8194 -0.3419  1.0060
 7358SOL    HW232544   1.795   2.394   0.508 -1.6158 -0.1183  0.5227
 7359SOL     OW32545   3.976   3.182   1.606  0.1764  0.3280 -0.1977
 7359SOL    HW132546   3.981   3.175   1.506  0.1345 -0.9657 -0.1176
 7359SOL    HW232547   3.954   3.092   1.644  0.5560  0.7454  1.0049
 7360SOL     OW32548   8.092   6.473   0.380 -0.3544  0.0616  0.1192
 7360SOL    HW132549   8.046   6.384   0.384 -0.3302 -0.0135 -1.1984
 7360SOL    HW232550   8.025   6.544   0.356 -0.6344  0.6074  2.3939
 7361SOL     OW32551   2.588   7.923   1.053 -0.2889  0.4939  0.0965
 7361SOL    HW132552   2.607   8.010   1.009  0.0624  0.7319  0.7030
 7361SOL    HW232553   2.626   7.924   1.146 -1.7924  0.3327  0.7206
 7362SOL     OW32554   3.640   1.579   1.675 -0.1691  0.3740  0.4386
 7362SOL    HW132555   3.731   1.588   1.635 -0.2614  1.2369  0.3993
 7362SOL    HW232556   3.623   1.484   1.700  0.9350  0.2813  0.8821
 7363SOL     OW32557   1.844   7.813   0.739 -0.2788 -0.4585 -0.2490
 7363SOL    HW132558   1.850   7.845   0.833 -0.0220 -1.0844 -0.0567
 7363SOL    HW232559   1.935   7.795   0.703 -0.4715 -2.1164  0.0363
 7364SOL     OW32560   7.758   5.242   0.047 -0.2744  0.1625  0.5813
 7364SOL    HW132561   7.677   5.184   0.035 -0.1752  0.1214  0.0841
 7364SOL    HW232562   7.829   5.190   0.094 -0.1546 -0.1565  0.0637
 7365SOL     OW32563   2.494   3.771   0.190  0.0812  0.0673 -0.1644
 7365SOL    HW132564   2.587   3.795   0.218 -0.3095  0.0803  1.1536
 7365SOL    HW232565   2.497   3.697   0.123  0.9452 -1.5210  1.5950
 7366SOL     OW32566   7.551   9.693   3.419 -0.3989  0.2785  0.2591
 7366SOL    HW132567   7.641   9.707   3.377 -0.8541  3.0312  0.1022
 7366SOL    HW232568   7.562   9.677   3.517  0.3779 -1.5891 -0.1151
 7367SOL     OW32569   6.304   0.012   2.640 -0.0995  0.2391 -0.2910
 7367SOL    HW132570   6.238  -0.022   2.706  0.5515  1.0086  0.7700
 7367SOL    HW232571   6.369  -0.060   2.617 -0.6896 -0.2105 -0.5648
 7368SOL     OW32572   1.720   7.215   3.774 -0.2449  0.0113 -0.0712
 7368SOL    HW132573   1.677   7.245   3.858  2.1346  2.6389  0.3060
 7368SOL    HW232574   1.808   7.172   3.795 -0.5599 -1.1581 -1.0905
 7369SOL     OW32575   4.567   2.825   2.087  0.1664 -0.1666  0.2019
 7369SOL    HW132576   4.536   2.733   2.111  4.2116 -0.7891  3.5232
 7369SOL    HW232577   4.643   2.818   2.022  0.7118  0.7724  0.7257
 7370SOL     OW32578   3.928   8.905   3.122  0.1276  0.5191 -0.4919
 7370SOL    HW132579   3.845   8.856   3.096  0.2799  0.8517 -1.6335
 7370SOL    HW232580   3.964   8.954   3.042  0.8697  1.1712  0.2391
 7371SOL     OW32581   9.782   7.961   2.549  0.2222  0.3269 -0.4210
 7371SOL    HW132582   9.832   8.048   2.552  2.1532 -0.6531 -2.7635
 7371SOL    HW232583   9.712   7.965   2.478  1.0181 -0.3928 -1.2499
 7372SOL     OW32584   2.757   7.043   3.723  0.0148 -0.6600  0.3672
 7372SOL    HW132585   2.826   7.081   3.661  1.1736 -2.0676  0.7485
 7372SOL    HW232586   2.757   6.943   3.714  0.3680 -0.9060  2.7729
 7373SOL     OW32587   9.595   6.453   1.352  0.0527 -0.1162  0.2035
 7373SOL    HW132588   9.581   6.497   1.263  2.9797 -1.4492 -0.9490
 7373SOL    HW232589   9.660   6.507   1.405  1.9339 -1.8131 -0.3395
 7374SOL     OW32590   0.736   9.218   0.529  0.1985 -0.1604  0.1788
 7374SOL    HW132591   0.755   9.130   0.572 -0.1608  0.2432  1.1871
 7374SOL    HW232592   0.656   9.209   0.468 -0.0501 -0.4485  0.5453
 7375SOL     OW32593   4.244   1.592   0.413 -0.3800 -0.6678 -0.0389
 7375SOL    HW132594   4.258   1.526   0.487  0.3397 -0.7776 -0.2699
 7375SOL    HW232595   4.264   1.684   0.446 -1.1484 -0.5816  0.2136
 7376SOL     OW32596   0.222   5.784   3.509  0.1177 -0.9248  0.9531
 7376SOL    HW132597   0.316   5.748   3.514  0.9216  1.0956  0.6401
 7376SOL    HW232598   0.162   5.713   3.472  2.0055 -1.3767 -1.4029
 7377SOL     OW32599   9.692   3.705   3.924 -0.2518 -0.2702 -0.2392
 7377SOL    HW132600   9.723   3.770   3.854 -2.2089  0.0088 -0.8900
 7377SOL    HW232601   9.593   3.715   3.936 -0.3177 -2.0571  0.7814
 7378SOL     OW32602   3.023   5.539   3.548  0.4749  0.0712 -0.5402
 7378SOL    HW132603   2.944   5.501   3.595  1.0022  0.6904  0.8773
 7378SOL    HW232604   3.001   5.631   3.515  0.7604  0.4598  0.3302
 7379SOL     OW32605   0.051   1.909   1.619  0.9636 -0.8692 -0.3403
 7379SOL    HW132606   0.091   1.820   1.598  1.4050 -1.1915  1.8034
 7379SOL    HW232607   0.110   1.981   1.581  1.9275 -1.4241  0.0767
 7380SOL     OW32608   2.744   6.388   2.305  0.3456 -0.3934 -0.2752
 7380SOL    HW132609   2.821   6.396   2.368 -1.4289  1.7306  1.6678
 7380SOL    HW232610   2.737   6.471   2.250 -0.9690 -0.3060  0.0255
 7381SOL     OW32611   0.128   3.018   1.776  0.1262 -0.1926  0.1513
 7381SOL    HW132612   0.151   2.977   1.688  0.1263  2.0796 -0.9440
 7381SOL    HW232613   0.038   2.985   1.806 -0.2711 -0.2859 -1.1351
 7382SOL     OW32614   3.503   0.567   1.721 -0.1079  0.0573  0.1328
 7382SOL    HW132615   3.579   0.622   1.685  0.1397 -0.0267  0.5276
 7382SOL    HW232616   3.441   0.544   1.647  0.1134  0.3529 -0.1464
 7383SOL     OW32617   3.789   8.831   0.249  0.0664 -0.2781 -0.4701
 7383SOL    HW132618   3.706   8.883   0.269  0.5652  0.2502  0.2543
 7383SOL    HW232619   3.852   8.837   0.327  0.3992 -1.4333 -0.6371
 7384SOL     OW32620   2.380   2.802   2.975 -0.3232  0.1513 -0.1492
 7384SOL    HW132621   2.333   2.880   3.015  1.2358  1.6224 -1.1355
 7384SOL    HW232622   2.399   2.820   2.879  0.5620 -1.2079 -0.2434
 7385SOL     OW32623   5.876   8.050   2.572 -0.5845 -0.5501  0.0236
 7385SOL    HW132624   5.917   8.005   2.493 -1.7770  0.9059 -1.4533
 7385SOL    HW232625   5.900   7.999   2.655 -0.1542 -2.6792 -1.3578
 7386SOL     OW32626   2.545   3.226   1.190  0.1486  0.3496  0.1157
 7386SOL    HW132627   2.562   3.159   1.118 -1.4930  0.2268 -0.1810
 7386SOL    HW232628   2.525   3.315   1.150 -0.1657  0.4258  0.4388
 7387SOL     OW32629   3.127   6.808   0.397  0.1162 -0.0488  0.0011
 7387SOL    HW132630   3.054   6.756   0.442 -1.6644  1.1538 -1.4182
 7387SOL    HW232631   3.160   6.879   0.458 -0.6747  0.1093  0.2499
 7388SOL     OW32632   2.569   7.798   2.062 -0.1641  0.4156 -0.2938
 7388SOL    HW132633   2.545   7.847   2.146 -0.2791  3.4460 -2.0347
 7388SOL    HW232634   2.494   7.806   1.996 -0.5854 -2.9418 -0.3490
 7389SOL     OW32635   8.160   1.310   0.240  0.5951 -0.9994  0.5148
 7389SOL    HW132636   8.161   1.299   0.140 -0.8548 -0.4086  0.4207
 7389SOL    HW232637   8.111   1.233   0.281 -1.1517  0.1127  0.5623
 7390SOL     OW32638   8.478   0.918   2.424  0.5215  0.0198 -0.0978
 7390SOL    HW132639   8.558   0.903   2.364 -0.5636 -0.6499 -1.4020
 7390SOL    HW232640   8.418   0.838   2.420 -1.0352  1.1865 -0.3920
 7391SOL     OW32641   0.692   7.074   1.892 -0.0586 -0.0331  0.3161
 7391SOL    HW132642   0.624   7.148   1.900  0.0099  0.3862 -2.4902
 7391SOL    HW232643   0.784   7.113   1.886 -0.1417 -0.1627 -2.8953
 7392SOL     OW32644   2.872   1.376   2.094 -0.1848  0.3482 -0.6007
 7392SOL    HW132645   2.855   1.279   2.081 -1.8970  0.6675 -0.8554
 7392SOL    HW232646   2.788   1.427   2.079 -0.2015  1.5552  3.1226
 7393SOL     OW32647   9.442   7.867   3.639 -0.1944  0.2487  0.0367
 7393SOL    HW132648   9.479   7.941   3.584 -0.6933 -0.5978 -1.4828
 7393SOL    HW232649   9.425   7.787   3.580  1.0773 -1.3440  1.7580
 7394SOL     OW32650   0.934   4.533   1.470 -0.2309 -0.0850 -0.1957
 7394SOL    HW132651   0.854   4.483   1.437 -0.2992 -1.0584  1.3544
 7394SOL    HW232652   1.006   4.468   1.496  0.8243  0.7545 -0.9636
 7395SOL     OW32653   8.828   8.359   0.748  0.0072 -0.6170 -0.2678
 7395SOL    HW132654   8.865   8.327   0.835  0.9911  1.3692  0.0592
 7395SOL    HW232655   8.889   8.329   0.674 -0.1630 -1.2210 -0.1715
 7396SOL     OW32656   9.814   4.106   2.816 -0.2150  0.3331  0.7004
 7396SOL    HW132657   9.754   4.115   2.736 -0.4296 -1.5838  0.6299
 7396SOL    HW232658   9.907   4.134   2.791  0.1437 -2.0796 -0.7717
 7397SOL     OW32659   9.442   1.980   0.822 -0.3480  0.3756  0.1431
 7397SOL    HW132660   9.385   2.053   0.785  0.2025  0.5143 -0.4470
 7397SOL    HW232661   9.434   1.899   0.763 -0.5795  0.1153  0.5267
 7398SOL     OW32662   1.973   3.605   1.492  0.1866 -0.4797  0.0203
 7398SOL    HW132663   1.969   3.519   1.440 -1.3599  0.2886 -1.1959
 7398SOL    HW232664   1.893   3.612   1.551  0.8266 -0.3360  0.8714
 7399SOL     OW32665   4.132   0.202   1.603  0.3179  0.0358 -0.0061
 7399SOL    HW132666   4.118   0.169   1.696  0.1673 -0.2218 -0.1188
 7399SOL    HW232667   4.077   0.147   1.539  0.5815  0.0741 -0.2686
 7400SOL     OW32668   5.222   0.023   2.891  0.1237 -0.5535 -0.1050
 7400SOL    HW132669   5.316   0.026   2.855  0.4187 -1.6172  0.5440
 7400SOL    HW232670   5.218  -0.042   2.967 -0.9338  0.2060  0.4974
 7401SOL     OW32671   0.189   6.753   3.899  1.0493 -0.6810 -0.1034
 7401SOL    HW132672   0.284   6.730   3.875  0.8902 -0.4926 -0.9123
 7401SOL    HW232673   0.145   6.798   3.821  0.4201 -0.3964  0.4167
 7402SOL     OW32674   4.256   7.872   3.364  0.0824 -0.0458  0.7016
 7402SOL    HW132675   4.242   7.855   3.266 -0.1891  2.7347  0.1957
 7402SOL    HW232676   4.354   7.880   3.383  0.0810  0.9554  0.3355
 7403SOL     OW32677   3.084   9.836   0.527  0.3508 -0.1825 -0.7111
 7403SOL    HW132678   3.029   9.903   0.477 -1.3884 -1.2881 -0.3198
 7403SOL    HW232679   3.158   9.883   0.575  0.7006  1.1439 -2.5092
 7404SOL     OW32680   1.868   3.104   3.331 -0.0404 -0.6591 -0.4709
 7404SOL    HW132681   1.923   3.154   3.264 -0.6180 -0.3230 -0.7003
 7404SOL    HW232682   1.776   3.088   3.293 -0.6734  0.3629  0.5834
 7405SOL     OW32683   2.783   3.367   0.624  0.1344 -0.5625 -0.1077
 7405SOL    HW132684   2.866   3.327   0.586 -0.1486 -0.9862 -0.2849
 7405SOL    HW232685   2.787   3.467   0.614  0.4246 -0.6121 -0.5148
 7406SOL     OW32686   2.899   4.026   0.082 -0.1386 -0.3113 -0.4721
 7406SOL    HW132687   2.959   4.032   0.162  0.8954  1.2616 -1.3368
 7406SOL    HW232688   2.950   4.049  -0.001 -1.9512  1.2505 -1.2199
 7407SOL     OW32689   9.206   9.943   0.220 -0.3311 -0.6435 -0.2945
 7407SOL    HW132690   9.135   9.872   0.217  0.9274 -1.9278 -0.5913
 7407SOL    HW232691   9.167  10.030   0.191 -1.4673 -1.5956 -1.7305
 7408SOL     OW32692   2.091   8.079   3.251  0.4961  0.3033  0.5877
 7408SOL    HW132693   2.092   8.011   3.324  0.1476 -1.5675 -1.1104
 7408SOL    HW232694   2.012   8.139   3.263  0.4240 -0.0027  1.7226
 7409SOL     OW32695   0.674   6.958   2.843  0.0182  0.4545 -0.1549
 7409SOL    HW132696   0.698   6.874   2.892 -0.0074  0.1542 -0.6511
 7409SOL    HW232697   0.730   6.965   2.760 -0.3025  0.6998 -0.3512
 7410SOL     OW32698   3.300   5.414   2.860  0.2220  0.4764  0.3408
 7410SOL    HW132699   3.365   5.401   2.934 -1.7220 -0.0913  1.9934
 7410SOL    HW232700   3.256   5.327   2.837  1.3195  0.5068 -1.9897
 7411SOL     OW32701   3.692   1.450   1.043 -0.1031  0.2834 -0.0528
 7411SOL    HW132702   3.701   1.536   0.992  0.1642  0.6946  0.6826
 7411SOL    HW232703   3.707   1.373   0.981  0.2810  0.7807 -0.5847
 7412SOL     OW32704   0.976   9.109   2.193 -0.1235  0.1521 -0.1537
 7412SOL    HW132705   1.026   9.024   2.179  0.7025  0.5221  0.5258
 7412SOL    HW232706   1.034   9.186   2.167 -0.8960  0.5061 -0.8410
 7413SOL     OW32707   8.891   0.049   0.468  0.0662  0.4120 -0.7719
 7413SOL    HW132708   8.945  -0.023   0.511 -0.8975  0.0726 -0.0908
 7413SOL    HW232709   8.931   0.074   0.380  1.9956  1.0055  0.2539
 7414SOL     OW32710   1.473   3.117   1.483  1.0323  0.2743 -0.1076
 7414SOL    HW132711   1.467   3.051   1.559 -0.6369  0.6823  0.1375
 7414SOL    HW232712   1.393   3.106   1.424  2.4649 -0.2499 -2.0091
 7415SOL     OW32713   4.805   9.531   1.992  0.9071  0.5472 -0.3958
 7415SOL    HW132714   4.828   9.532   1.895 -0.4561  3.1309 -0.7460
 7415SOL    HW232715   4.707   9.515   2.003  0.9593  0.8165  0.5113
 7416SOL     OW32716   9.978   1.155   1.047 -0.0109 -0.0034 -0.4779
 7416SOL    HW132717   9.977   1.136   1.145 -0.4084  1.4486 -0.1759
 7416SOL    HW232718  10.069   1.138   1.010 -0.2258 -1.9179 -0.1413
 7417SOL     OW32719   8.671   9.527   2.431  0.0081  0.7035 -0.0592
 7417SOL    HW132720   8.702   9.443   2.387  0.9044  0.0268  1.7755
 7417SOL    HW232721   8.743   9.596   2.425 -0.3563  1.0163 -0.7487
 7418SOL     OW32722   7.638   2.165   2.143  0.6415 -0.5957  0.1194
 7418SOL    HW132723   7.732   2.190   2.121  0.2013  0.1147 -0.9550
 7418SOL    HW232724   7.577   2.196   2.071 -0.5810 -0.0017  1.3856
 7419SOL     OW32725   0.421   5.820   2.227 -0.0774  0.0016  0.2414
 7419SOL    HW132726   0.434   5.903   2.172 -0.5861 -0.3745 -0.4507
 7419SOL    HW232727   0.483   5.749   2.194  1.0531  0.4054  1.4655
 7420SOL     OW32728   5.171   3.434   1.165  0.1477 -0.2966 -0.2191
 7420SOL    HW132729   5.103   3.369   1.201  0.5104  0.3845  1.7145
 7420SOL    HW232730   5.253   3.384   1.136 -0.6270 -0.9749 -1.2890
 7421SOL     OW32731   2.770   5.096   2.856  0.4026 -0.2530  0.2761
 7421SOL    HW132732   2.762   5.145   2.770  2.5174  0.0771  0.2332
 7421SOL    HW232733   2.866   5.071   2.871 -0.3960 -3.0372  1.0327
 7422SOL     OW32734   2.775   8.817   1.100  0.5044  0.3981 -0.2410
 7422SOL    HW132735   2.814   8.845   1.188  0.4818  1.6958 -0.6330
 7422SOL    HW232736   2.840   8.758   1.052  0.0342 -1.2771  1.1394
 7423SOL     OW32737   8.917   3.572   3.132 -0.3136 -0.0054  0.0021
 7423SOL    HW132738   8.840   3.530   3.083 -0.4551  0.6153 -0.3077
 7423SOL    HW232739   8.898   3.669   3.148  0.1506  0.0134  0.4457
 7424SOL     OW32740   3.683   9.663   0.790 -0.1399 -0.2598 -0.0148
 7424SOL    HW132741   3.609   9.727   0.810  0.5776  0.5403  0.0913
 7424SOL    HW232742   3.708   9.615   0.874  0.5790  0.6646  0.3086
 7425SOL     OW32743   9.523   0.007   0.193 -0.1198  0.3079  0.5300
 7425SOL    HW132744   9.593   0.030   0.125 -0.0931 -1.0273  0.0749
 7425SOL    HW232745   9.445  -0.037   0.147 -1.3027  1.8508  1.0194
 7426SOL     OW32746   8.502   9.401   2.052  0.0863  0.0194  0.6805
 7426SOL    HW132747   8.512   9.410   2.151  1.2521  1.7019  0.4187
 7426SOL    HW232748   8.485   9.305   2.029  1.3068 -0.6265  2.3911
 7427SOL     OW32749   2.426   9.554   1.537  0.0316  0.5059  0.1220
 7427SOL    HW132750   2.463   9.474   1.490 -0.4922  0.6040 -0.4733
 7427SOL    HW232751   2.499   9.603   1.584  0.6311  0.6325 -0.9423
 7428SOL     OW32752   4.691   0.831   0.208 -0.7276 -0.3618 -0.0509
 7428SOL    HW132753   4.701   0.904   0.140 -0.0065  0.2672  0.7217
 7428SOL    HW232754   4.737   0.749   0.174 -0.9668 -0.2619 -0.6283
 7429SOL     OW32755   1.391   9.132   1.717  0.4813  0.3733 -0.2106
 7429SOL    HW132756   1.300   9.164   1.742 -0.0467 -0.8625 -0.4926
 7429SOL    HW232757   1.458   9.167   1.782 -0.4489 -0.2248  1.0956
 7430SOL     OW32758   0.736   5.072   0.262 -0.0426 -0.0327 -0.3617
 7430SOL    HW132759   0.792   5.022   0.328  0.1096 -0.8306 -1.0780
 7430SOL    HW232760   0.751   5.033   0.171  1.4560  2.5014 -1.2242
 7431SOL     OW32761   4.382   8.270   0.475  0.3403  0.0952  0.2922
 7431SOL    HW132762   4.318   8.193   0.478 -0.0788  0.2629 -2.4730
 7431SOL    HW232763   4.408   8.287   0.379  2.7033  1.5324  1.1518
 7432SOL     OW32764   4.571   3.448   1.079  0.2815  0.1901  0.3107
 7432SOL    HW132765   4.639   3.399   1.133 -0.4099  1.0554  1.9879
 7432SOL    HW232766   4.598   3.543   1.069 -1.1878  0.8111  1.9240
 7433SOL     OW32767   0.534   0.226   0.545  0.2245  0.1840 -0.2028
 7433SOL    HW132768   0.580   0.142   0.516  0.8592  0.4819 -0.0626
 7433SOL    HW232769   0.447   0.235   0.496 -0.0662 -0.7859  0.1175
 7434SOL     OW32770   8.097   1.365   2.175 -0.3389  0.0877  0.5120
 7434SOL    HW132771   8.097   1.267   2.193 -0.8686  0.0904  0.5335
 7434SOL    HW232772   8.003   1.396   2.161 -0.1218  0.4901 -0.0454
 7435SOL     OW32773   3.568   1.363   1.992 -0.0010 -0.0713 -0.2911
 7435SOL    HW132774   3.589   1.319   2.079  0.8847  2.4175  0.8083
 7435SOL    HW232775   3.517   1.447   2.008 -1.4951 -0.5333 -2.3166
 7436SOL     OW32776   1.457   7.220   0.495  0.7159  0.4806  0.5003
 7436SOL    HW132777   1.363   7.191   0.477  0.7388  1.0091 -0.4992
 7436SOL    HW232778   1.521   7.158   0.451  0.7823  1.4607 -0.8157
 7437SOL     OW32779   4.207   4.704   3.734 -0.1293  0.0352  0.0004
 7437SOL    HW132780   4.163   4.702   3.823  1.9228 -0.1015  1.0258
 7437SOL    HW232781   4.269   4.626   3.726 -0.9294 -0.4503 -1.8960
 7438SOL     OW32782   8.574   8.805   1.424 -0.3780  0.3685 -0.0189
 7438SOL    HW132783   8.497   8.855   1.464 -1.7938 -0.1419 -2.0500
 7438SOL    HW232784   8.541   8.746   1.350  2.0592  0.6636 -1.3899
 7439SOL     OW32785   0.292   3.583   0.959 -0.0687  0.1396  0.3202
 7439SOL    HW132786   0.292   3.588   0.859  1.3950  0.8380  0.3553
 7439SOL    HW232787   0.240   3.660   0.996 -2.5151 -1.3031  0.0766
 7440SOL     OW32788   1.324   2.134   1.577  0.1206  0.4245 -0.0580
 7440SOL    HW132789   1.293   2.084   1.658  0.3757  0.3082 -0.0290
 7440SOL    HW232790   1.315   2.075   1.497  0.4500  0.3144 -0.0193
 7441SOL     OW32791   4.075   0.531   0.154  0.3872  0.1758  0.1454
 7441SOL    HW132792   4.029   0.582   0.227  2.0994  1.2888  0.4735
 7441SOL    HW232793   4.121   0.595   0.093  1.6316 -0.9360 -0.0856
 7442SOL     OW32794   8.540   8.908   3.173 -0.0183 -0.0384 -0.1904
 7442SOL    HW132795   8.561   8.830   3.232  0.0886 -0.4937 -0.8208
 7442SOL    HW232796   8.449   8.942   3.194 -0.2736 -0.6591 -0.2587
 7443SOL     OW32797   0.592   1.538   2.982 -0.2608  0.0512 -0.4821
 7443SOL    HW132798   0.517   1.603   2.967  0.4464  0.9367 -0.2333
 7443SOL    HW232799   0.676   1.574   2.942  0.4583 -0.0393  0.9034
 7444SOL     OW32800   9.186   1.906   1.822 -0.2635  0.5288  0.2333
 7444SOL    HW132801   9.114   1.886   1.755  0.2847  2.4354 -0.9678
 7444SOL    HW232802   9.271   1.863   1.793  0.1841  2.0536 -0.7837
 7445SOL     OW32803   1.585   1.716   3.161 -0.0582 -0.1888 -0.1412
 7445SOL    HW132804   1.520   1.718   3.085 -0.0307 -0.4742 -0.1758
 7445SOL    HW232805   1.674   1.688   3.127 -0.4563 -2.0377  0.2742
 7446SOL     OW32806   4.833   2.788   0.867 -0.1958 -0.1518 -0.1047
 7446SOL    HW132807   4.756   2.805   0.929 -1.7025  0.2117 -2.0072
 7446SOL    HW232808   4.816   2.704   0.815  0.1704  0.4947 -1.2877
 7447SOL     OW32809   2.156   7.731   1.585 -0.1862  0.0962  0.3811
 7447SOL    HW132810   2.102   7.666   1.639 -0.5794 -1.2066 -1.5317
 7447SOL    HW232811   2.110   7.820   1.585 -0.3210  0.0573  1.9282
 7448SOL     OW32812   0.412   3.127   3.225 -0.2035  0.7861  0.1641
 7448SOL    HW132813   0.435   3.039   3.267 -3.5909 -0.4128 -0.2647
 7448SOL    HW232814   0.322   3.157   3.259  0.0709  3.1616 -1.1186
 7449SOL     OW32815   6.377   8.059   2.432 -0.6035 -0.0262  0.1446
 7449SOL    HW132816   6.371   7.960   2.441  0.4559 -0.1180 -0.0454
 7449SOL    HW232817   6.330   8.088   2.349  0.4201 -0.5484 -0.6329
 7450SOL     OW32818   2.460   0.285   1.426  0.4067 -0.2106  0.2686
 7450SOL    HW132819   2.388   0.336   1.380  0.2836  1.3999  2.1717
 7450SOL    HW232820   2.543   0.287   1.370  0.3921  2.0625  0.2562
 7451SOL     OW32821   3.741   7.161   3.843 -0.1762 -0.0221  0.4563
 7451SOL    HW132822   3.824   7.118   3.879 -0.5063 -1.8693 -0.9097
 7451SOL    HW232823   3.668   7.155   3.911  0.4503  0.5017  1.1858
 7452SOL     OW32824   9.618   0.669   2.928  0.0697 -0.5188  0.1244
 7452SOL    HW132825   9.692   0.735   2.917 -1.0710  0.7938  0.3148
 7452SOL    HW232826   9.590   0.666   3.024 -0.7135 -0.3835 -0.1028
 7453SOL     OW32827   2.852   2.682   0.186  0.1532 -0.3965 -0.4698
 7453SOL    HW132828   2.760   2.671   0.149  0.1788  0.6985 -0.8786
 7453SOL    HW232829   2.919   2.650   0.119  0.1262 -0.0318 -0.6696
 7454SOL     OW32830   2.136   6.421   0.667  0.1057 -0.0481 -0.1395
 7454SOL    HW132831   2.055   6.470   0.699 -0.2986 -0.6854 -0.1777
 7454SOL    HW232832   2.152   6.443   0.570  1.0290  1.4739  0.3488
 7455SOL     OW32833   0.191   8.004   0.798 -0.0963  0.1410 -0.5771
 7455SOL    HW132834   0.193   8.040   0.705 -0.0355  0.6096 -0.3948
 7455SOL    HW232835   0.204   7.905   0.796  0.6780  0.2491 -1.0151
 7456SOL     OW32836   0.732   1.666   1.432  0.2578  0.0622 -0.0621
 7456SOL    HW132837   0.695   1.640   1.343 -2.3196  1.6321  0.4900
 7456SOL    HW232838   0.720   1.765   1.445  1.0522 -0.0667  1.8214
 7457SOL     OW32839   2.837   4.049   1.661 -0.4619 -0.1399  0.9032
 7457SOL    HW132840   2.796   4.092   1.742 -0.4973  0.5792  0.5027
 7457SOL    HW232841   2.903   4.111   1.620 -0.5996 -0.4198  0.2576
 7458SOL     OW32842   7.937   0.264   3.646  0.3460  0.4001 -0.3386
 7458SOL    HW132843   8.009   0.308   3.592  1.2168 -0.6947 -0.1042
 7458SOL    HW232844   7.934   0.166   3.623 -0.5260  0.2824  0.2523
 7459SOL     OW32845   0.423   6.391   3.585  0.3550 -0.1660 -0.4383
 7459SOL    HW132846   0.480   6.376   3.666 -1.8981 -0.1934  1.1978
 7459SOL    HW232847   0.342   6.444   3.611 -0.9217 -1.0750 -2.4567
 7460SOL     OW32848   0.846   4.909   0.498  0.3319  0.1530 -0.1000
 7460SOL    HW132849   0.768   4.905   0.560  1.1258  1.3714  1.0121
 7460SOL    HW232850   0.904   4.987   0.522  1.0424  0.2252 -1.9293
 7461SOL     OW32851   9.397   9.672   1.905  0.0438  0.1753  0.5069
 7461SOL    HW132852   9.377   9.703   1.998 -0.8159  0.0538  0.3665
 7461SOL    HW232853   9.442   9.746   1.855 -3.0536  1.6663 -0.1823
 7462SOL     OW32854   8.382   5.298   3.814 -0.0961 -0.1019 -0.0130
 7462SOL    HW132855   8.388   5.398   3.809  0.7011 -0.1893 -0.8760
 7462SOL    HW232856   8.377   5.260   3.722  1.4144 -0.9509  0.2437
 7463SOL     OW32857   9.440   8.715   3.895 -0.1007  0.5106 -0.1943
 7463SOL    HW132858   9.427   8.785   3.965 -3.1044 -0.8304  0.6721
 7463SOL    HW232859   9.532   8.678   3.902  0.7495  2.7244  0.8461
 7464SOL     OW32860   9.397   3.893   2.459 -0.1071 -0.0753  0.8158
 7464SOL    HW132861   9.439   3.817   2.508  0.4674  0.6357  1.4557
 7464SOL    HW232862   9.349   3.952   2.524 -1.2128 -0.3152  0.2219
 7465SOL     OW32863   5.129   9.354   2.530 -0.0836 -0.4498 -0.3591
 7465SOL    HW132864   5.167   9.268   2.494 -1.0222 -0.4720 -1.3343
 7465SOL    HW232865   5.181   9.383   2.610  1.0545 -1.2557 -0.7949
 7466SOL     OW32866   1.609   3.165   0.043 -0.1386  0.1520  0.0916
 7466SOL    HW132867   1.639   3.261   0.033  0.0862  0.2341  1.4899
 7466SOL    HW232868   1.597   3.144   0.140 -0.7060 -1.0908 -0.2466
 7467SOL     OW32869   1.409   9.064   0.496  0.5270 -0.1802  0.2838
 7467SOL    HW132870   1.479   9.070   0.567 -0.7323 -2.0441  1.7283
 7467SOL    HW232871   1.419   8.978   0.447 -1.3628 -0.9691  1.2155
 7468SOL     OW32872   2.233   4.941   3.638  0.3676  0.3825  0.0270
 7468SOL    HW132873   2.182   4.973   3.558  0.1390  1.6165  0.6507
 7468SOL    HW232874   2.308   4.881   3.608 -1.4434 -1.4821 -0.8904
 7469SOL     OW32875   1.014   4.900   3.204 -0.2732  0.5706  0.2602
 7469SOL    HW132876   0.921   4.917   3.237 -1.1722 -0.8412 -1.4830
 7469SOL    HW232877   1.024   4.803   3.184  1.4907  0.7764  0.1283
 7470SOL     OW32878   9.827   0.819   1.158  0.0850  0.2181 -0.0899
 7470SOL    HW132879   9.764   0.895   1.142 -0.0775 -0.1944 -1.5021
 7470SOL    HW232880   9.774   0.737   1.181  0.1424  0.0469 -0.5634
 7471SOL     OW32881   0.362   5.785   0.494  0.0599 -0.4005 -0.3456
 7471SOL    HW132882   0.276   5.812   0.538 -0.0581  0.9361 -1.3855
 7471SOL    HW232883   0.343   5.719   0.422  0.1446 -1.7598  0.8442
 7472SOL     OW32884   8.569   6.269   0.752 -0.1461  0.3982 -0.0447
 7472SOL    HW132885   8.515   6.186   0.767 -1.4090  1.0867 -0.6286
 7472SOL    HW232886   8.582   6.282   0.654  0.5487  0.5792  0.0729
 7473SOL     OW32887   8.107   7.440   2.873 -0.8899 -0.4357 -0.2353
 7473SOL    HW132888   8.144   7.446   2.966  1.6883 -2.7884 -1.0256
 7473SOL    HW232889   8.109   7.530   2.830 -0.5184  0.3560  1.3931
 7474SOL     OW32890   8.701   7.007   1.937  0.0018 -0.2089 -0.3257
 7474SOL    HW132891   8.636   7.016   1.862 -1.2258 -2.7586  0.4091
 7474SOL    HW232892   8.742   6.916   1.935 -0.8280 -0.6807  2.7133
 7475SOL     OW32893   2.024   4.810   1.335 -0.0157 -0.1966 -0.0453
 7475SOL    HW132894   2.004   4.838   1.429  1.0918 -0.8306  0.3854
 7475SOL    HW232895   1.968   4.731   1.311 -0.9907  0.5438 -0.2531
 7476SOL     OW32896   9.236   0.920   3.607  0.8515 -0.3767 -0.2154
 7476SOL    HW132897   9.153   0.912   3.661  0.9878 -1.5499 -0.1725
 7476SOL    HW232898   9.286   1.002   3.636  0.9176 -0.9768  1.4361
 7477SOL     OW32899   8.779   8.623   1.946 -0.3526  0.3521  0.0453
 7477SOL    HW132900   8.749   8.567   2.023 -0.9087  0.9552  0.2658
 7477SOL    HW232901   8.853   8.576   1.897 -0.3426 -0.2550  0.6466
 7478SOL     OW32902   7.574   0.306   0.601  0.6014  0.8030  0.1413
 7478SOL    HW132903   7.526   0.313   0.688 -1.1740  2.1276 -0.8989
 7478SOL    HW232904   7.671   0.329   0.613  0.0721  2.3663  1.4989
 7479SOL     OW32905   2.145   6.416   1.806 -0.3962  0.1890  0.1943
 7479SOL    HW132906   2.148   6.321   1.775  1.3680  0.9198 -2.0117
 7479SOL    HW232907   2.237   6.447   1.829 -0.9824  1.3044  1.1360
 7480SOL     OW32908   2.307   5.715   2.639 -0.0326 -0.8504 -0.6268
 7480SOL    HW132909   2.263   5.780   2.576 -0.8408  0.4488  1.2451
 7480SOL    HW232910   2.237   5.668   2.693  0.6768 -1.7058 -0.4383
 7481SOL     OW32911   1.181   0.526   3.634  0.2812  0.3130  0.4058
 7481SOL    HW132912   1.129   0.530   3.720 -0.5642  1.2299 -0.1343
 7481SOL    HW232913   1.200   0.619   3.602  2.3853 -0.0240  0.6543
 7482SOL     OW32914   1.311   0.584   3.296  0.6598 -0.4303  0.4677
 7482SOL    HW132915   1.293   0.539   3.208  0.2544  0.0884  0.2856
 7482SOL    HW232916   1.310   0.515   3.368 -1.4481 -0.5272  0.3867
 7483SOL     OW32917   5.711   8.676   1.838  0.4282  0.3686 -0.0760
 7483SOL    HW132918   5.748   8.768   1.826  2.2041 -0.4864 -1.3096
 7483SOL    HW232919   5.613   8.678   1.819  0.6526  1.7960 -1.1966
 7484SOL     OW32920   2.464   7.523   2.503  0.3149  0.5372  0.3617
 7484SOL    HW132921   2.471   7.424   2.492  0.9301  0.6459 -0.2203
 7484SOL    HW232922   2.418   7.562   2.423 -0.7540  0.6233  1.0030
 7485SOL     OW32923   3.627   4.786   1.856  0.0445 -0.6827 -0.3406
 7485SOL    HW132924   3.629   4.876   1.898 -1.2081 -0.8036  0.0212
 7485SOL    HW232925   3.657   4.792   1.761 -1.3408  0.3600 -0.7258
 7486SOL     OW32926   8.360   2.478   2.653  0.1164 -0.6017  0.1174
 7486SOL    HW132927   8.369   2.467   2.752 -1.0649 -0.8148  0.2140
 7486SOL    HW232928   8.263   2.487   2.629  0.4893  0.9818 -0.8736
 7487SOL     OW32929   4.065   1.989   2.010  0.2475 -0.0625 -0.0958
 7487SOL    HW132930   4.135   2.053   2.042  0.3755  0.1121 -0.7074
 7487SOL    HW232931   4.041   2.012   1.915 -1.5416  0.6722  0.5179
 7488SOL     OW32932   3.927   7.514   0.418 -0.3891  0.3506 -0.5179
 7488SOL    HW132933   3.922   7.496   0.320  0.8476  0.3549 -0.5908
 7488SOL    HW232934   3.900   7.431   0.468  1.5962 -0.5331 -0.8654
 7489SOL     OW32935   2.123   9.070   3.688  0.1447  1.0998 -0.3393
 7489SOL    HW132936   2.142   9.112   3.776 -2.2595 -1.0196  1.2772
 7489SOL    HW232937   2.093   9.140   3.623  0.0949  2.4137  1.0787
 7490SOL     OW32938   9.805   0.710   3.512  0.5724 -0.2503  0.1506
 7490SOL    HW132939   9.782   0.765   3.432  2.1054  0.5048  0.1973
 7490SOL    HW232940   9.760   0.748   3.593  0.3458 -0.0211 -0.0834
 7491SOL     OW32941   1.233   4.759   1.905  0.1802 -0.5318  0.3755
 7491SOL    HW132942   1.225   4.784   2.002 -0.9038  1.4508 -0.2047
 7491SOL    HW232943   1.308   4.693   1.894  0.6361 -0.4060  2.4954
 7492SOL     OW32944   4.792   7.043   3.426  0.1115  0.6013 -0.0397
 7492SOL    HW132945   4.858   7.110   3.460 -0.1724  1.0050 -0.2768
 7492SOL    HW232946   4.702   7.087   3.417 -0.8698 -0.6113  2.9477
 7493SOL     OW32947   3.860   4.943   2.657 -0.2065  0.3513 -0.7367
 7493SOL    HW132948   3.840   4.930   2.559  1.0564  0.0676 -0.9616
 7493SOL    HW232949   3.956   4.968   2.668 -0.0410 -0.7933  0.5214
 7494SOL     OW32950   0.049   5.023   2.021  0.0368 -0.3879 -0.5561
 7494SOL    HW132951   0.109   5.042   2.099  1.3922  2.0191 -2.1023
 7494SOL    HW232952   0.088   5.065   1.938 -3.0235 -0.0670 -1.9026
 7495SOL     OW32953   1.368   2.130   2.862  0.2980  0.1774 -0.2502
 7495SOL    HW132954   1.461   2.164   2.843 -0.0152  1.3212  0.2219
 7495SOL    HW232955   1.369   2.077   2.946  0.4694  0.4562 -0.0735
 7496SOL     OW32956   1.969   4.072   0.443  0.0940 -0.2778 -0.3926
 7496SOL    HW132957   2.036   4.147   0.448 -1.1037  0.7992 -0.1613
 7496SOL    HW232958   2.017   3.986   0.427  1.4723  0.5894 -1.0687
 7497SOL     OW32959   9.647   1.112   1.359 -0.1374 -0.5190 -0.0458
 7497SOL    HW132960   9.625   1.082   1.266 -1.4943  1.2762 -0.3425
 7497SOL    HW232961   9.597   1.197   1.379  1.8936  0.3477  1.5211
 7498SOL     OW32962   0.486   0.029   3.710 -0.3404 -0.1657 -0.0750
 7498SOL    HW132963   0.512  -0.024   3.629 -1.2005 -0.0686 -0.4227
 7498SOL    HW232964   0.478  -0.032   3.789  1.9774 -0.0519  0.2997
 7499SOL     OW32965   8.318   0.709   0.392 -0.5373  0.4208  0.3383
 7499SOL    HW132966   8.240   0.707   0.455 -1.6050 -1.9973 -0.9977
 7499SOL    HW232967   8.304   0.781   0.324 -1.1498  0.5908  0.6373
 7500SOL     OW32968   8.696   3.185   2.687  0.1590  0.0259 -0.2105
 7500SOL    HW132969   8.687   3.156   2.782  0.0322  1.1333  0.1193
 7500SOL    HW232970   8.744   3.114   2.635  0.6731 -0.3627  0.7810
 7501SOL     OW32971   1.341   5.936   1.354  0.2513  0.4519  0.2113
 7501SOL    HW132972   1.371   6.009   1.292  0.2591  0.1276 -0.1674
 7501SOL    HW232973   1.245   5.913   1.334 -0.2568  1.4932  1.4226
 7502SOL     OW32974   2.459   4.803   3.009  0.1077  0.0531  0.0255
 7502SOL    HW132975   2.414   4.755   2.934 -0.5967  1.8389 -0.7418
 7502SOL    HW232976   2.392   4.822   3.081  0.0351  1.0660 -0.2923
 7503SOL     OW32977   0.901   8.123   4.021  0.4527 -0.6257  0.6612
 7503SOL    HW132978   0.919   8.031   4.057 -3.2981 -1.6806  0.1306
 7503SOL    HW232979   0.877   8.184   4.096  1.2469 -0.5106  0.8287
 7504SOL     OW32980   9.766   1.533   3.795  0.3744  0.8907 -0.2360
 7504SOL    HW132981   9.836   1.548   3.864 -0.9612 -0.4097  1.4597
 7504SOL    HW232982   9.740   1.621   3.754  1.1761  1.6820  0.9239
 7505SOL     OW32983   3.710   5.370   1.433  0.3091 -0.0158  0.5159
 7505SOL    HW132984   3.765   5.451   1.455 -1.9356  0.8889  3.1869
 7505SOL    HW232985   3.696   5.317   1.516 -1.3654 -1.1680 -0.4901
 7506SOL     OW32986   3.267   1.379   3.413 -0.0720  0.3790  0.0273
 7506SOL    HW132987   3.218   1.305   3.459  0.2702  2.0028  3.1844
 7506SOL    HW232988   3.365   1.368   3.428 -0.0764  2.0185  1.5307
 7507SOL     OW32989   3.991   7.152   1.978  0.3957  0.0572 -0.0507
 7507SOL    HW132990   4.070   7.150   1.916  0.4694  0.2581  0.0373
 7507SOL    HW232991   3.975   7.060   2.013 -0.9089 -0.4662 -1.9519
 7508SOL     OW32992   4.731   7.916   3.768  0.1645  0.4692  0.1060
 7508SOL    HW132993   4.697   7.912   3.862  2.0360 -0.2685  0.7801
 7508SOL    HW232994   4.697   7.999   3.724 -2.1200 -0.0143  0.8576
 7509SOL     OW32995   9.884   0.125   3.648 -0.3408 -0.1436 -0.1536
 7509SOL    HW132996   9.859   0.149   3.741  0.4954 -0.1622  0.0847
 7509SOL    HW232997   9.977   0.088   3.647 -0.3557 -0.1702 -0.9855
 7510SOL     OW32998   1.977   1.966   3.320 -0.0003  0.0067  0.5732
 7510SOL    HW132999   1.936   2.054   3.342 -1.2655 -0.4818  0.2398
 7510SOL    HW233000   1.961   1.902   3.396 -0.9378 -0.5435 -0.0807
 7511SOL     OW33001   0.961   0.790   3.355  0.2007  0.2434  0.9917
 7511SOL    HW133002   1.036   0.855   3.368  0.5164 -0.2325  1.6006
 7511SOL    HW233003   0.876   0.840   3.339  0.8642  0.7825 -1.0440
 7512SOL     OW33004   9.113   6.487   2.972 -0.0236 -0.2727 -0.0347
 7512SOL    HW133005   9.121   6.542   2.889 -2.1539 -0.9089 -0.7110
 7512SOL    HW233006   9.202   6.449   2.996  0.9498  1.3239 -1.0405
 7513SOL     OW33007   2.871   6.547   1.556  0.3930 -0.2188 -0.2408
 7513SOL    HW133008   2.814   6.557   1.474 -0.5241 -0.4025  0.3626
 7513SOL    HW233009   2.855   6.625   1.617  1.2496  0.0407 -0.3396
 7514SOL     OW33010   9.886   1.941   0.801  0.2488  0.2532 -0.0002
 7514SOL    HW133011   9.817   2.005   0.835  1.6165  1.5092  0.4523
 7514SOL    HW233012   9.849   1.848   0.803 -1.1510  0.8138  0.9696
 7515SOL     OW33013   7.879   8.854   0.534  0.0727  0.2967 -0.3585
 7515SOL    HW133014   7.834   8.929   0.486 -2.2752 -1.7085 -1.3703
 7515SOL    HW233015   7.850   8.855   0.630  2.4599  2.5021  0.3939
 7516SOL     OW33016   6.928   9.541   3.442 -0.2296 -0.9366  0.7470
 7516SOL    HW133017   6.907   9.521   3.346 -2.8821 -1.3621  1.3546
 7516SOL    HW233018   6.958   9.457   3.488  0.9009 -0.7631  0.3171
 7517SOL     OW33019   9.844   3.612   0.073 -0.3050  0.0576 -0.4845
 7517SOL    HW133020   9.856   3.513   0.072  0.5613  0.1254  1.3753
 7517SOL    HW233021   9.778   3.638   0.003 -1.3971 -1.9361 -0.2357
 7518SOL     OW33022   2.640   3.515   2.907  0.3989 -0.1997 -0.6948
 7518SOL    HW133023   2.641   3.594   2.968 -0.3281 -1.6611  1.2665
 7518SOL    HW233024   2.731   3.503   2.867  2.2531 -1.8302  3.6547
 7519SOL     OW33025   6.367   9.480   2.355  0.0597 -0.9269  0.1672
 7519SOL    HW133026   6.372   9.412   2.281 -0.6143 -0.2472 -0.5083
 7519SOL    HW233027   6.445   9.541   2.349  0.4988 -1.4430  0.5839
 7520SOL     OW33028   9.677   6.641   3.026 -0.3395  0.4758  0.3690
 7520SOL    HW133029   9.650   6.585   2.948  1.8961 -0.5018  0.2662
 7520SOL    HW233030   9.624   6.614   3.106 -0.4145 -0.6628 -0.0578
 7521SOL     OW33031   1.157   2.366   2.631 -0.1554  0.1247  0.3596
 7521SOL    HW133032   1.120   2.400   2.544 -0.0311  0.7384  0.5447
 7521SOL    HW233033   1.231   2.426   2.661  2.7766 -2.4830 -1.2823
 7522SOL     OW33034   5.119   8.209   0.321 -0.1503  0.0125  0.6410
 7522SOL    HW133035   5.056   8.216   0.399 -1.2631 -0.6221 -0.1905
 7522SOL    HW233036   5.068   8.216   0.236  0.9031 -0.5502 -0.0429
 7523SOL     OW33037   3.087   5.070   3.575 -0.2299  0.0759  0.0666
 7523SOL    HW133038   3.121   5.164   3.566  0.3555 -0.0543  0.8782
 7523SOL    HW233039   3.164   5.008   3.592 -0.7056 -0.4403  0.3449
 7524SOL     OW33040   4.330   9.360   1.534 -0.4698 -0.0976 -0.5762
 7524SOL    HW133041   4.342   9.308   1.450 -1.3016  0.3139 -0.9607
 7524SOL    HW233042   4.238   9.400   1.535 -0.5769 -0.3733  0.6833
 7525SOL     OW33043   5.876   9.029   2.494 -0.0564 -0.0754  0.5005
 7525SOL    HW133044   5.808   9.016   2.422  0.6284 -2.4175  0.2074
 7525SOL    HW233045   5.848   8.977   2.575  0.4213  0.5376  1.0620
 7526SOL     OW33046   0.594   8.488   0.437 -0.7106 -0.5930  0.0923
 7526SOL    HW133047   0.659   8.509   0.365 -2.1598  1.3452 -0.6895
 7526SOL    HW233048   0.618   8.539   0.520  0.3173 -1.9756  0.6645
 7527SOL     OW33049   0.341   9.324   2.599 -0.0498 -0.0242  0.0425
 7527SOL    HW133050   0.365   9.343   2.694  0.7505  1.0723 -0.3661
 7527SOL    HW233051   0.364   9.230   2.576 -0.9857 -0.5298  1.1674
 7528SOL     OW33052   9.030   4.487   1.347 -0.5269 -0.5959  0.2833
 7528SOL    HW133053   9.027   4.581   1.313 -1.9337  0.0678  2.1732
 7528SOL    HW233054   9.035   4.424   1.270 -1.4846  0.9573 -1.0809
 7529SOL     OW33055   8.608   7.249   3.899  0.0833 -0.0654 -0.1978
 7529SOL    HW133056   8.527   7.203   3.863 -0.0276 -0.1141  0.1162
 7529SOL    HW233057   8.584   7.296   3.984 -0.5701  3.1273 -2.0540
 7530SOL     OW33058   1.719   6.097   0.276 -0.3302  0.5888 -0.5646
 7530SOL    HW133059   1.665   6.170   0.235  0.4418  1.2905 -0.3382
 7530SOL    HW233060   1.692   6.009   0.236 -1.2600  0.9947 -0.8339
 7531SOL     OW33061   9.924   6.393   0.208 -0.8041  0.2647 -0.4900
 7531SOL    HW133062   9.859   6.376   0.283 -0.8337 -0.5610 -0.6902
 7531SOL    HW233063  10.015   6.363   0.236 -0.4810  1.5095 -0.1743
 7532SOL     OW33064   8.094   6.069   2.047 -0.7839 -0.2377 -0.2995
 7532SOL    HW133065   8.056   6.061   2.139  0.9342 -0.4315  0.4212
 7532SOL    HW233066   8.145   5.986   2.026 -0.2162  0.2781 -0.9702
 7533SOL     OW33067   4.135   5.857   2.809 -0.4553  0.2152 -0.6193
 7533SOL    HW133068   4.126   5.905   2.897  1.8395  0.1623 -0.3267
 7533SOL    HW233069   4.098   5.915   2.736  1.4967  2.1086 -0.1579
 7534SOL     OW33070   3.080   2.569   0.345 -0.0986  1.1173 -0.1950
 7534SOL    HW133071   2.983   2.591   0.338 -0.1292  1.0969  0.1581
 7534SOL    HW233072   3.110   2.523   0.262 -0.7894 -0.3993  0.3890
 7535SOL     OW33073   0.788   8.455   2.335 -0.0068  0.2116  0.6287
 7535SOL    HW133074   0.752   8.456   2.242  0.6337 -1.8499  0.3199
 7535SOL    HW233075   0.713   8.455   2.400 -0.4653  1.2740  0.1178
 7536SOL     OW33076   9.638   1.649   1.977  0.2160 -0.0630 -0.0176
 7536SOL    HW133077   9.717   1.610   1.930  0.2259 -0.7491  0.5593
 7536SOL    HW233078   9.628   1.606   2.067 -0.9979 -0.2139 -0.2167
 7537SOL     OW33079   9.098   2.025   0.522 -0.4627 -0.0943 -0.4637
 7537SOL    HW133080   9.089   1.927   0.540  0.2756 -0.2942 -1.1308
 7537SOL    HW233081   9.040   2.049   0.443  0.3045 -0.2404 -1.0779
 7538SOL     OW33082   8.398   1.426   2.899 -0.2719 -0.0275  0.4003
 7538SOL    HW133083   8.471   1.400   2.836  0.0759 -1.3987  1.3429
 7538SOL    HW233084   8.429   1.501   2.958 -0.0757  0.2460 -0.0492
 7539SOL     OW33085   1.754   8.665   1.610  0.0608  0.1145 -0.1792
 7539SOL    HW133086   1.771   8.586   1.668 -0.5946 -0.7065 -1.0875
 7539SOL    HW233087   1.657   8.669   1.587  0.2743  0.5721 -1.0156
 7540SOL     OW33088   8.670   5.124   1.221  0.0116  0.1861  0.0474
 7540SOL    HW133089   8.769   5.130   1.207 -0.2941  0.9845 -1.8827
 7540SOL    HW233090   8.633   5.216   1.238 -0.4511 -0.0698  0.4382
 7541SOL     OW33091   9.705   1.870   1.805 -0.2645  0.1742  0.5773
 7541SOL    HW133092   9.656   1.954   1.830  0.4005  0.2975  1.5115
 7541SOL    HW233093   9.669   1.794   1.860 -1.5046 -0.3452 -0.9274
 7542SOL     OW33094   8.904   4.591   3.959 -0.3193 -0.3730 -0.1406
 7542SOL    HW133095   8.970   4.665   3.972  0.5488 -0.8171 -1.9068
 7542SOL    HW233096   8.852   4.578   4.044  0.1467  1.6316  0.4886
 7543SOL     OW33097   0.147   3.060   1.128 -0.0896  0.1596  0.4391
 7543SOL    HW133098   0.119   3.115   1.207 -1.6963 -2.0110  1.4312
 7543SOL    HW233099   0.175   2.969   1.159  0.4126 -0.3162 -1.3654
 7544SOL     OW33100   2.467   2.302   3.591 -0.0593 -0.2554 -0.0948
 7544SOL    HW133101   2.462   2.312   3.492 -0.9891  2.0712  0.1386
 7544SOL    HW233102   2.378   2.273   3.626 -0.6581  1.9057  0.2980
 7545SOL     OW33103   2.295   8.156   1.352 -0.0368  0.1394 -0.2584
 7545SOL    HW133104   2.271   8.162   1.449  3.8233 -0.6369  0.8539
 7545SOL    HW233105   2.247   8.079   1.310  0.2124 -1.1130  1.7119
 7546SOL     OW33106   6.847   9.941   3.443  0.4110 -0.2392 -0.0745
 7546SOL    HW133107   6.942   9.925   3.470 -0.4982 -2.8597  1.8147
 7546SOL    HW233108   6.826   9.886   3.362  0.8925  1.4614 -1.3698
 7547SOL     OW33109   0.172   1.008   0.788 -0.6386 -0.4971  0.1494
 7547SOL    HW133110   0.094   1.069   0.773 -0.1420 -0.0149 -0.5385
 7547SOL    HW233111   0.209   1.024   0.880 -1.9510 -1.4333  0.8453
 7548SOL     OW33112   4.437   3.930   1.136 -0.2075 -0.7464 -0.2019
 7548SOL    HW133113   4.454   4.008   1.076  0.0313 -0.6124  0.0403
 7548SOL    HW233114   4.409   3.963   1.226  0.6717 -0.9278  0.1414
 7549SOL     OW33115   9.075   0.762   3.861  0.3167  0.2568 -0.0815
 7549SOL    HW133116   9.054   0.840   3.803  0.5709  0.9304  0.7278
 7549SOL    HW233117   9.020   0.684   3.833 -0.0902  0.7834 -0.7559
 7550SOL     OW33118   9.695   8.640   3.936  0.2371 -0.3300  0.6859
 7550SOL    HW133119   9.762   8.684   3.995 -0.1455  1.2576 -0.0410
 7550SOL    HW233120   9.742   8.596   3.859  0.4040  1.3151 -0.1614
 7551SOL     OW33121   7.664   9.117   0.175  0.1402  1.2125 -0.1817
 7551SOL    HW133122   7.689   9.113   0.271 -2.1121  3.8920  0.5817
 7551SOL    HW233123   7.565   9.104   0.166  0.5391 -0.5985 -2.2949
 7552SOL     OW33124   9.331   6.580   1.012 -0.1132 -0.4130  0.9176
 7552SOL    HW133125   9.348   6.612   0.919 -0.2219  1.9759  1.6941
 7552SOL    HW233126   9.248   6.525   1.014 -0.6294  0.3199 -0.2093
 7553SOL     OW33127   2.951   0.149   1.386  0.1732  0.4383 -0.1726
 7553SOL    HW133128   3.041   0.178   1.354 -0.3757  2.1057 -0.2329
 7553SOL    HW233129   2.931   0.194   1.473 -1.6063  1.9492 -1.3325
 7554SOL     OW33130   0.681   4.191   0.576  0.0551 -0.5574 -0.1834
 7554SOL    HW133131   0.665   4.148   0.487 -1.3032  0.8186 -0.6220
 7554SOL    HW233132   0.769   4.237   0.575  0.6857 -1.7329 -0.3217
 7555SOL     OW33133   2.687   9.039   3.347 -0.1022 -0.3554 -0.1494
 7555SOL    HW133134   2.722   8.975   3.279  1.0393  0.2269 -0.1198
 7555SOL    HW233135   2.603   9.081   3.313  0.6084  0.1426 -1.3339
 7556SOL     OW33136   9.331   8.132   2.328 -0.3856  0.6991  0.4506
 7556SOL    HW133137   9.319   8.159   2.232  1.5405  2.2840  0.6050
 7556SOL    HW233138   9.292   8.203   2.387  0.1616  0.6809  0.8348
 7557SOL     OW33139   4.582   1.037   0.974  1.1829 -0.1875 -0.2108
 7557SOL    HW133140   4.629   1.051   0.887  1.6105  1.7808  0.3119
 7557SOL    HW233141   4.511   0.967   0.963 -0.6355  1.9408 -2.8778
 7558SOL     OW33142   9.405   3.518   2.452  0.3000 -0.4592 -0.0688
 7558SOL    HW133143   9.436   3.559   2.538 -2.7852  3.1911 -0.5096
 7558SOL    HW233144   9.371   3.426   2.469  2.0235 -0.7212  2.1493
 7559SOL     OW33145   9.200   4.984   3.835 -0.7016 -0.6126  0.5512
 7559SOL    HW133146   9.248   5.027   3.758 -2.0437 -0.5216 -0.2503
 7559SOL    HW233147   9.265   4.965   3.908  0.6809 -1.0167 -0.7454
 7560SOL     OW33148   1.458   7.217   2.538 -0.1580 -0.3158 -0.2516
 7560SOL    HW133149   1.505   7.221   2.626 -3.6902 -1.1521  1.8106
 7560SOL    HW233150   1.494   7.140   2.485  0.4359 -1.2828  1.4874
 7561SOL     OW33151   3.485   2.708   1.748 -0.2161  0.6563 -0.0539
 7561SOL    HW133152   3.568   2.760   1.767  0.7862 -1.3281  1.1437
 7561SOL    HW233153   3.416   2.730   1.816 -0.2286  1.3252 -0.2759
 7562SOL     OW33154   9.255   3.821   1.883  0.0513  0.9497 -0.5169
 7562SOL    HW133155   9.170   3.768   1.893  0.4037  0.5681  0.4994
 7562SOL    HW233156   9.334   3.760   1.888  0.4273  1.4466 -0.3380
 7563SOL     OW33157   5.321   8.131   3.058  0.2223 -0.7072  0.1022
 7563SOL    HW133158   5.333   8.066   3.133 -0.0580 -0.7980  0.0691
 7563SOL    HW233159   5.315   8.224   3.095  0.4688 -0.7150  0.1617
 7564SOL     OW33160   9.972   8.455   3.942 -0.2336 -0.3243  0.1811
 7564SOL    HW133161   9.980   8.463   3.843 -0.5804 -1.4322  0.0529
 7564SOL    HW233162   9.915   8.376   3.965  1.8590 -1.5672  1.2971
 7565SOL     OW33163   7.737   9.937   2.524 -0.5228 -0.2270 -0.6810
 7565SOL    HW133164   7.772   9.958   2.616 -0.4648  0.2621 -0.8099
 7565SOL    HW233165   7.807   9.962   2.456 -0.7285 -0.1935 -0.8810
 7566SOL     OW33166   1.427   7.624   0.872 -0.0263  0.0857  0.1925
 7566SOL    HW133167   1.358   7.685   0.834 -1.5185 -2.0390 -0.5851
 7566SOL    HW233168   1.514   7.639   0.825  0.2736  3.2093  1.5984
 7567SOL     OW33169   1.129   2.749   0.084 -0.1117  0.7897  0.0863
 7567SOL    HW133170   1.148   2.695   0.166 -0.1239  0.4450 -0.1403
 7567SOL    HW233171   1.148   2.846   0.103  0.0105  0.6931  0.4550
 7568SOL     OW33172   0.646   3.531   0.096 -0.1114 -0.1640  0.4138
 7568SOL    HW133173   0.706   3.454   0.075 -1.6300 -1.5332  0.9354
 7568SOL    HW233174   0.672   3.570   0.185 -0.2102 -0.9994  0.8206
 7569SOL     OW33175   4.800   8.643   3.814 -0.5475  0.5107  0.0672
 7569SOL    HW133176   4.713   8.595   3.826 -0.0127 -0.1915  1.2414
 7569SOL    HW233177   4.827   8.685   3.900 -0.2368  1.6124 -0.5675
 7570SOL     OW33178   4.780   3.518   0.771 -0.7903 -0.3017  0.0026
 7570SOL    HW133179   4.685   3.508   0.741 -1.6752  0.4362  2.4557
 7570SOL    HW233180   4.790   3.603   0.822  1.3921  0.0113 -0.9109
 7571SOL     OW33181   9.185   7.629   2.750  0.5904 -0.2711  0.6482
 7571SOL    HW133182   9.093   7.624   2.710  0.5907 -0.3469  0.6561
 7571SOL    HW233183   9.252   7.600   2.682  0.7547  1.3255  0.1027
 7572SOL     OW33184   8.919   4.026   2.531 -0.6007 -0.0665 -0.1727
 7572SOL    HW133185   8.987   3.954   2.521  2.1339  1.8980  3.1500
 7572SOL    HW233186   8.836   3.987   2.572 -0.1762 -1.8219 -0.9455
 7573SOL     OW33187   9.945   7.596   2.497 -0.2824  0.6386  0.1433
 7573SOL    HW133188   9.917   7.602   2.401  3.2216 -2.2181 -1.2262
 7573SOL    HW233189   9.904   7.514   2.538 -1.6581  1.7784  1.0551
 7574SOL     OW33190   5.945   9.436   3.505  1.0094 -0.0373  0.3668
 7574SOL    HW133191   5.919   9.367   3.573  1.2939 -2.2066 -1.6862
 7574SOL    HW233192   5.893   9.421   3.421  0.7363  2.5623  0.0339
 7575SOL     OW33193   7.756   1.684   3.423  0.8610  0.4746 -0.0786
 7575SOL    HW133194   7.667   1.666   3.382  0.8903  2.0239 -0.8655
 7575SOL    HW233195   7.780   1.781   3.410  1.9546  0.4356  1.4804
 7576SOL     OW33196   8.064   4.836   3.115  0.1219 -0.4875  0.1766
 7576SOL    HW133197   7.977   4.795   3.142 -0.0205 -0.0646  0.3626
 7576SOL    HW233198   8.112   4.773   3.054 -1.0192 -0.0594 -1.2026
 7577SOL     OW33199   4.501   6.665   2.738 -0.1215  0.4672  0.0189
 7577SOL    HW133200   4.478   6.600   2.666  0.7028  1.9762 -1.6209
 7577SOL    HW233201   4.420   6.718   2.762 -0.2820  0.2769 -0.0981
 7578SOL     OW33202   3.803   0.517   0.362  0.4425 -0.0688 -0.0871
 7578SOL    HW133203   3.803   0.470   0.274  0.7077  0.3834 -0.3308
 7578SOL    HW233204   3.870   0.591   0.360  1.1618 -0.6769  0.8261
 7579SOL     OW33205   3.252   8.170   2.690  0.7468  0.0936  0.0736
 7579SOL    HW133206   3.157   8.188   2.666 -0.0091 -1.5759  1.5965
 7579SOL    HW233207   3.313   8.226   2.635 -0.9264 -2.2113 -4.3077
 7580SOL     OW33208   8.734   3.687   3.757 -0.7534  0.0010  0.1402
 7580SOL    HW133209   8.653   3.664   3.811  0.6368 -1.1719  1.7719
 7580SOL    HW233210   8.724   3.650   3.665 -0.9583 -2.4262  1.1022
 7581SOL     OW33211   6.698   9.400   2.202 -0.5857 -0.3380 -0.1184
 7581SOL    HW133212   6.653   9.481   2.241 -1.7228 -0.9284 -0.1894
 7581SOL    HW233213   6.646   9.368   2.124 -1.3493 -2.4555  1.2373
 7582SOL     OW33214   6.870   9.706   0.975  0.3855  0.4467  0.7883
 7582SOL    HW133215   6.876   9.663   0.885  2.4421  0.5275  0.8763
 7582SOL    HW233216   6.952   9.759   0.993 -0.7225  1.7952  2.0483
 7583SOL     OW33217   6.568   0.096   2.855 -0.3339  0.3964  0.4261
 7583SOL    HW133218   6.497   0.150   2.810  0.5914  0.7913 -0.5888
 7583SOL    HW233219   6.607   0.148   2.930  0.7321  1.2637 -0.7073
 7584SOL     OW33220   3.366   7.302   3.901  0.6357 -0.1039  0.0863
 7584SOL    HW133221   3.379   7.389   3.853  1.4733  0.8380  1.9895
 7584SOL    HW233222   3.357   7.228   3.833  0.9056  1.3043 -1.5267
 7585SOL     OW33223   0.500   3.386   2.610  0.6474 -0.2526  0.2541
 7585SOL    HW133224   0.405   3.365   2.632  0.4228  0.5309  0.0300
 7585SOL    HW233225   0.518   3.483   2.626  1.2200 -0.2492 -0.3786
 7586SOL     OW33226   9.064   5.240   0.715 -0.2037 -0.4637  0.6471
 7586SOL    HW133227   9.064   5.244   0.615  0.0527 -1.7994  0.5789
 7586SOL    HW233228   9.145   5.287   0.750 -0.6470  0.5959  0.2553
 7587SOL     OW33229   3.735   4.532   3.038  0.3520  0.5122 -0.5036
 7587SOL    HW133230   3.768   4.441   3.062 -0.7522  0.3189  0.3619
 7587SOL    HW233231   3.789   4.601   3.086 -1.1564  0.1643  1.7957
 7588SOL     OW33232   1.283   5.085   1.924  0.4279 -0.7657  0.1006
 7588SOL    HW133233   1.223   5.137   1.863 -0.3828 -0.1741  1.3678
 7588SOL    HW233234   1.228   5.042   1.995  1.4739 -0.3853  1.1582
 7589SOL     OW33235   4.612   9.301   2.869 -0.0268  0.4632  0.3821
 7589SOL    HW133236   4.579   9.396   2.874 -0.4276  0.2020  3.1981
 7589SOL    HW233237   4.684   9.288   2.936 -1.5444 -1.8422  1.6064
 7590SOL     OW33238   7.485   9.977   0.685  0.1502 -1.1210  0.2298
 7590SOL    HW133239   7.458  10.073   0.689 -3.0127 -1.9161 -0.1902
 7590SOL    HW233240   7.515   9.954   0.593  1.0682 -0.4984  0.3739
 7591SOL     OW33241   9.014   2.235   1.978 -0.2938  0.1436  0.5762
 7591SOL    HW133242   9.000   2.299   1.902 -0.0014  0.9406  1.1804
 7591SOL    HW233243   9.112   2.214   1.985 -0.2941  0.2377  0.8589
 7592SOL     OW33244   3.815   7.699   2.983  0.2984 -0.5128  0.6859
 7592SOL    HW133245   3.887   7.652   2.933 -0.2194  0.5649 -1.1152
 7592SOL    HW233246   3.853   7.779   3.029  0.3661 -0.2391  0.1616
 7593SOL     OW33247   1.552   8.429   3.075  0.1026  0.5117  0.1732
 7593SOL    HW133248   1.538   8.439   3.174 -1.6678 -0.1636  0.0076
 7593SOL    HW233249   1.555   8.332   3.052  0.7290  0.6704 -0.4034
 7594SOL     OW33250   2.743   6.401   3.275 -0.0420  0.0135  0.2322
 7594SOL    HW133251   2.713   6.483   3.224 -1.1756 -1.5487 -1.6894
 7594SOL    HW233252   2.832   6.372   3.240 -0.6049 -0.7827 -0.5742
 7595SOL     OW33253   0.523   6.194   3.057  0.0303 -0.0977 -0.2316
 7595SOL    HW133254   0.511   6.283   3.103 -0.8886 -0.4903  0.2945
 7595SOL    HW233255   0.520   6.121   3.125  0.5342 -0.5594 -0.7005
 7596SOL     OW33256   0.614   8.281   3.114 -0.0802  0.2416  0.0784
 7596SOL    HW133257   0.531   8.331   3.090 -0.4212  0.4877  1.6703
 7596SOL    HW233258   0.598   8.183   3.107  0.2927  0.3153 -2.1042
 7597SOL     OW33259   0.885   6.070   3.093 -0.1158 -0.0303  0.3939
 7597SOL    HW133260   0.973   6.031   3.066 -0.8430 -2.1751  0.9461
 7597SOL    HW233261   0.827   6.082   3.013 -0.5347 -1.8679  0.3906
 7598SOL     OW33262   2.334   0.281   3.084 -0.1409  0.1443  0.5143
 7598SOL    HW133263   2.334   0.341   3.004 -0.4220  3.5268  2.9260
 7598SOL    HW233264   2.429   0.266   3.113 -0.1203  0.4057  0.5882
 7599SOL     OW33265   3.339   8.800   0.464 -0.4111  0.0658 -0.0133
 7599SOL    HW133266   3.262   8.837   0.515  0.7185  0.9129  1.0992
 7599SOL    HW233267   3.417   8.786   0.525  0.2695 -0.9425 -1.0838
 7600SOL     OW33268   8.237   0.282   0.637  0.6025  0.7799 -0.4274
 7600SOL    HW133269   8.217   0.307   0.542 -0.8356 -1.7563 -0.8682
 7600SOL    HW233270   8.190   0.345   0.698 -2.1243 -0.1288 -1.4741
 7601SOL     OW33271   9.677   7.754   3.103 -0.0461 -0.0462  0.2121
 7601SOL    HW133272   9.666   7.657   3.123  0.9512 -0.2485 -0.2062
 7601SOL    HW233273   9.706   7.766   3.008 -0.8646  0.7032  0.0402
 7602SOL     OW33274   4.887   2.962   3.750 -0.4821  0.1273 -0.0394
 7602SOL    HW133275   4.917   3.015   3.829 -0.1477  0.4036 -0.3535
 7602SOL    HW233276   4.837   2.881   3.781 -0.5714  0.3723  0.4475
 7603SOL     OW33277   2.761   0.337   0.891 -0.4621 -0.0053 -0.2880
 7603SOL    HW133278   2.703   0.313   0.814  0.6153 -1.4108 -0.6878
 7603SOL    HW233279   2.815   0.418   0.868 -0.6679  0.0037 -0.7455
 7604SOL     OW33280   8.416   3.744   0.992  0.1476 -0.0728 -0.2690
 7604SOL    HW133281   8.356   3.701   0.925 -0.7039 -2.9181  2.1870
 7604SOL    HW233282   8.381   3.835   1.014 -2.4708 -1.1017  0.0141
 7605SOL     OW33283   1.530   8.554   2.399  0.7767 -0.0743  0.0512
 7605SOL    HW133284   1.561   8.649   2.389 -1.5445  0.5817 -1.2186
 7605SOL    HW233285   1.457   8.550   2.467 -1.3228 -0.4216 -2.1912
 7606SOL     OW33286   0.763   2.400   1.854  0.3696 -0.4697 -0.0690
 7606SOL    HW133287   0.734   2.494   1.840  2.0752  0.1531  0.4032
 7606SOL    HW233288   0.812   2.393   1.942  0.2767 -1.7788 -0.1059
 7607SOL     OW33289   8.669   7.203   2.153 -0.2073 -0.3888 -0.1480
 7607SOL    HW133290   8.586   7.259   2.151  0.3915  0.5469  0.5527
 7607SOL    HW233291   8.652   7.116   2.107 -1.7077 -0.3796  0.3580
 7608SOL     OW33292   1.797   7.994   0.540 -0.3441 -0.0612  0.7348
 7608SOL    HW133293   1.833   7.935   0.613 -3.0053 -0.0270  2.1520
 7608SOL    HW233294   1.724   8.052   0.578 -0.4964  1.2894 -1.5593
 7609SOL     OW33295   7.872   0.859   3.471 -0.0228 -0.1366  0.5780
 7609SOL    HW133296   7.952   0.910   3.439  0.6255 -2.1857 -1.1265
 7609SOL    HW233297   7.842   0.796   3.400 -2.1348 -0.6146  1.8595
 7610SOL     OW33298   9.450   7.236   1.400  0.1024  0.0549  0.1148
 7610SOL    HW133299   9.515   7.308   1.424  1.0212 -0.4499 -0.7946
 7610SOL    HW233300   9.455   7.163   1.467  0.9041 -0.2482 -0.2687
 7611SOL     OW33301   8.307   0.744   2.257  0.6999 -0.0004  0.2118
 7611SOL    HW133302   8.213   0.746   2.223  0.1970 -0.3007  1.5546
 7611SOL    HW233303   8.370   0.740   2.180 -0.3896  0.1089 -0.7004
 7612SOL     OW33304   2.374   9.874   1.497 -0.1308 -0.1873 -0.1577
 7612SOL    HW133305   2.459   9.925   1.513 -0.6497  1.0822 -1.3477
 7612SOL    HW233306   2.379   9.786   1.543  1.1636  0.5649  1.1936
 7613SOL     OW33307   9.672   3.443   3.860 -0.3513 -0.4714 -0.0441
 7613SOL    HW133308   9.625   3.435   3.771 -2.2508 -1.0642  0.9840
 7613SOL    HW233309   9.670   3.539   3.889 -3.3549 -0.8674  1.2366
 7614SOL     OW33310   5.366   0.813   1.666 -0.4968  0.1277 -0.3884
 7614SOL    HW133311   5.384   0.716   1.647  0.1138  0.0366  0.6328
 7614SOL    HW233312   5.270   0.833   1.648 -1.1253 -1.1678  1.3753
 7615SOL     OW33313   1.511   0.410   2.918 -1.0217  0.0702 -0.6278
 7615SOL    HW133314   1.483   0.394   2.823 -0.4286  1.2852 -1.0205
 7615SOL    HW233315   1.530   0.507   2.931  0.7588 -0.3694  0.2333
 7616SOL     OW33316   0.700   6.067   2.887 -0.2165 -0.1268 -0.0947
 7616SOL    HW133317   0.625   6.105   2.942  1.4137  1.2382  1.2360
 7616SOL    HW233318   0.736   6.139   2.828  1.9824  0.0589  1.4276
 7617SOL     OW33319   4.683   7.891   0.378 -0.1170  0.0402 -0.0494
 7617SOL    HW133320   4.645   7.950   0.306 -0.5034 -1.0280 -0.7279
 7617SOL    HW233321   4.768   7.849   0.345 -1.1085 -1.6816 -0.4907
 7618SOL     OW33322   9.706   3.898   0.816 -0.0032  0.0305 -0.2014
 7618SOL    HW133323   9.671   3.809   0.784 -3.1068  0.5010  1.6731
 7618SOL    HW233324   9.740   3.888   0.909  0.6556  0.5929 -0.3812
 7619SOL     OW33325   2.511   5.347   3.020 -0.0112  0.5085 -0.7018
 7619SOL    HW133326   2.434   5.397   2.980 -1.4741  0.6667  2.2407
 7619SOL    HW233327   2.486   5.251   3.031  0.2360  0.5419  0.1852
 7620SOL     OW33328   0.484   6.848   2.480  0.0480 -0.0682 -0.0279
 7620SOL    HW133329   0.422   6.846   2.558  0.6360 -1.8389  0.4205
 7620SOL    HW233330   0.569   6.893   2.507  0.0106 -0.1134  0.1639
 7621SOL     OW33331   8.758   8.075   1.361 -0.4961  0.4981 -0.6411
 7621SOL    HW133332   8.769   8.011   1.285  1.6373  0.1880 -0.1160
 7621SOL    HW233333   8.821   8.151   1.349 -1.1469  1.1529  0.0974
 7622SOL     OW33334   3.189   6.629   3.158  0.3456  0.1758  0.3315
 7622SOL    HW133335   3.106   6.628   3.102  0.2386  1.5667  0.4307
 7622SOL    HW233336   3.174   6.578   3.242 -0.6024  0.8761  0.5953
 7623SOL     OW33337   3.344   1.098   3.471  0.1216 -0.9914  0.0874
 7623SOL    HW133338   3.276   1.026   3.458  0.3542 -1.1421 -0.3001
 7623SOL    HW233339   3.435   1.058   3.480  0.1246 -0.8078  0.9312
 7624SOL     OW33340   4.353   8.864   3.657 -0.0599 -0.0610  0.6508
 7624SOL    HW133341   4.373   8.811   3.740  0.2628  1.5417  1.6132
 7624SOL    HW233342   4.256   8.856   3.635  0.1338 -1.7063  0.3104
 7625SOL     OW33343   2.390   8.228   3.204  0.0506  0.7122  0.7570
 7625SOL    HW133344   2.422   8.213   3.297 -1.4550 -0.9107  1.0560
 7625SOL    HW233345   2.461   8.199   3.139  0.4908  0.3518  1.3938
 7626SOL     OW33346   1.204   1.031   1.649  0.5101 -0.0165 -0.3037
 7626SOL    HW133347   1.140   0.960   1.679  2.5538 -1.2370  1.2276
 7626SOL    HW233348   1.218   1.096   1.723  1.9718 -0.4374 -0.2049
 7627SOL     OW33349   1.622   2.300   2.159  0.7167 -0.0512  0.4531
 7627SOL    HW133350   1.687   2.375   2.152  0.2874  0.2523 -0.4351
 7627SOL    HW233351   1.657   2.231   2.222  1.3072  0.6956  0.9530
 7628SOL     OW33352   0.488   3.530   3.201  0.9261 -0.1858  0.2596
 7628SOL    HW133353   0.541   3.520   3.285  0.5013 -1.3334  0.3984
 7628SOL    HW233354   0.528   3.475   3.128  0.5642 -0.1857  0.0577
 7629SOL     OW33355   1.223   4.474   1.788 -0.7465 -0.2826 -0.1014
 7629SOL    HW133356   1.287   4.517   1.851 -1.5221  2.5528 -1.1728
 7629SOL    HW233357   1.270   4.403   1.736  0.5469 -0.8566  1.7947
 7630SOL     OW33358   8.754   7.935   3.762 -0.2133 -0.6287 -0.6185
 7630SOL    HW133359   8.669   7.884   3.747  0.3785 -1.3523 -1.6181
 7630SOL    HW233360   8.785   7.973   3.675  1.0781 -1.3367 -0.4878
 7631SOL     OW33361   1.451   9.660   3.000 -0.0928 -0.8495  0.3751
 7631SOL    HW133362   1.439   9.563   3.021  0.0264 -0.7247  1.0400
 7631SOL    HW233363   1.362   9.705   2.999 -0.0105 -0.6166  1.8610
 7632SOL     OW33364   2.773   9.325   0.900  0.4298 -0.3486 -0.3558
 7632SOL    HW133365   2.713   9.298   0.825  2.9454 -0.4558 -2.4270
 7632SOL    HW233366   2.805   9.244   0.949 -0.1180 -0.3804 -0.0545
 7633SOL     OW33367   9.748   7.094   0.099 -0.5760 -0.0477  0.2196
 7633SOL    HW133368   9.702   7.060   0.017 -0.8943  1.0910 -0.0844
 7633SOL    HW233369   9.834   7.046   0.111  1.4468  2.5124 -3.0672
 7634SOL     OW33370   1.632   3.962   1.131  0.0954 -0.6595  0.3816
 7634SOL    HW133371   1.562   3.890   1.123 -1.4311  0.5976  1.8758
 7634SOL    HW233372   1.716   3.923   1.169 -0.0948 -2.0066 -0.5335
 7635SOL     OW33373   9.882   4.776   1.357  0.3805  0.0502 -0.3998
 7635SOL    HW133374   9.974   4.739   1.343 -0.0461 -0.5948 -1.6295
 7635SOL    HW233375   9.818   4.701   1.372  0.1475  0.5333  1.0383
 7636SOL     OW33376   9.451   0.967   1.569  0.3142  0.1429 -0.2189
 7636SOL    HW133377   9.506   0.965   1.652 -1.6949 -1.9643  1.1361
 7636SOL    HW233378   9.467   0.883   1.517 -0.0463  0.4875 -0.8939
 7637SOL     OW33379   7.500   2.548   0.773 -0.3864 -0.7487  0.3312
 7637SOL    HW133380   7.449   2.603   0.707  1.0707  0.2019 -0.0388
 7637SOL    HW233381   7.443   2.473   0.806 -1.1058 -1.2951 -2.0603
 7638SOL     OW33382   0.904   5.338   0.582 -0.3495 -0.2201 -0.0527
 7638SOL    HW133383   0.871   5.335   0.488 -0.5932  0.3955  0.0146
 7638SOL    HW233384   1.003   5.354   0.582 -0.0938 -1.7454 -0.2440
 7639SOL     OW33385   3.412   9.621   2.802 -0.7482  0.4611  1.2065
 7639SOL    HW133386   3.500   9.669   2.798  0.0766 -0.9391  1.8432
 7639SOL    HW233387   3.360   9.653   2.882 -0.7767  1.2277  0.8822
 7640SOL     OW33388   8.950   9.200   2.465 -0.1246 -0.5361 -0.0356
 7640SOL    HW133389   9.011   9.121   2.460 -0.2780 -0.7318  1.0129
 7640SOL    HW233390   8.919   9.212   2.559 -0.4006  0.5517 -0.2568
 7641SOL     OW33391   0.281   9.570   1.120  0.3976  0.8899 -0.4625
 7641SOL    HW133392   0.261   9.589   1.024  0.5987 -0.1339 -0.7212
 7641SOL    HW233393   0.203   9.524   1.162  1.9328 -2.6925 -1.3551
 7642SOL     OW33394   4.805   9.232   3.064  0.2804 -0.1918 -0.3182
 7642SOL    HW133395   4.825   9.141   3.030 -0.3608 -0.6503  0.4994
 7642SOL    HW233396   4.891   9.278   3.088  0.6244 -0.4619 -1.0271
 7643SOL     OW33397   2.285   6.970   2.487  0.5308 -0.0160  0.1755
 7643SOL    HW133398   2.240   6.937   2.570  0.2940  0.8502  0.4004
 7643SOL    HW233399   2.341   6.897   2.448 -2.3008 -1.6211 -0.9829
 7644SOL     OW33400   0.810   4.372   3.954 -0.2052  0.2374 -0.2148
 7644SOL    HW133401   0.865   4.367   3.870 -0.0922 -1.1607 -0.0787
 7644SOL    HW233402   0.817   4.463   3.994 -0.7086  1.0947 -2.0317
 7645SOL     OW33403   3.848   4.633   2.643 -0.4592  0.8090  0.0722
 7645SOL    HW133404   3.904   4.579   2.580 -0.5649  1.2911 -0.4454
 7645SOL    HW233405   3.816   4.715   2.596 -0.8074  1.0136  0.6626
 7646SOL     OW33406   3.135   2.955   3.306 -0.1442  0.3281 -0.2193
 7646SOL    HW133407   3.060   3.009   3.345  0.1220  0.0342  0.7109
 7646SOL    HW233408   3.097   2.888   3.243 -0.5882  0.7518 -0.4142
 7647SOL     OW33409   8.232   6.994   3.021 -0.9144  0.5479 -0.2121
 7647SOL    HW133410   8.265   7.054   2.949 -2.1415  2.2074  0.5704
 7647SOL    HW233411   8.291   7.002   3.101 -0.8550  0.4126 -0.2419
 7648SOL     OW33412   7.648   6.299   3.859 -0.0029  0.0387  0.7574
 7648SOL    HW133413   7.591   6.358   3.802 -0.3157  0.6808  1.7127
 7648SOL    HW233414   7.608   6.208   3.864 -0.3652  0.1859  0.5411
 7649SOL     OW33415   0.529   0.210   0.823  0.0429  0.2187  0.0675
 7649SOL    HW133416   0.567   0.231   0.732  0.5019  0.2477  0.2636
 7649SOL    HW233417   0.575   0.266   0.891  0.8921 -1.0242  0.5337
 7650SOL     OW33418   2.907   5.454   1.168 -0.6134  0.4035 -0.7988
 7650SOL    HW133419   2.901   5.533   1.229  1.1828  1.4422 -1.9650
 7650SOL    HW233420   2.910   5.370   1.223 -1.8323  1.1647  0.4567
 7651SOL     OW33421   2.235   0.422   1.299  0.5023 -0.4373 -0.0294
 7651SOL    HW133422   2.203   0.344   1.246 -0.3209 -0.4612  0.4926
 7651SOL    HW233423   2.172   0.440   1.374  0.6343  0.7769 -0.1882
 7652SOL     OW33424   1.331   7.761   3.474  0.0650 -0.2539  0.4374
 7652SOL    HW133425   1.415   7.812   3.454 -0.3326  0.6342  0.9812
 7652SOL    HW233426   1.261   7.825   3.506 -0.1746 -1.2551  1.9606
 7653SOL     OW33427   0.388   0.705   2.223  0.6721 -0.0093 -0.2720
 7653SOL    HW133428   0.300   0.664   2.249  0.9578 -0.3207  0.2029
 7653SOL    HW233429   0.462   0.649   2.259  1.0686  0.8664  0.2907
 7654SOL     OW33430   2.100   6.890   3.642 -0.1576  0.3378  0.6491
 7654SOL    HW133431   2.049   6.921   3.562  0.9502 -1.8752 -0.9936
 7654SOL    HW233432   2.194   6.924   3.636  0.8971 -2.6385 -0.8538
 7655SOL     OW33433   2.848   2.564   1.218 -0.5343 -0.1537 -0.1123
 7655SOL    HW133434   2.841   2.662   1.196 -0.9518 -0.3367 -0.7993
 7655SOL    HW233435   2.759   2.521   1.210 -0.5622 -0.3822  1.2622
 7656SOL     OW33436   8.662   0.328   0.330 -0.4587 -0.1110 -0.0060
 7656SOL    HW133437   8.704   0.382   0.256 -0.8674 -0.8987 -0.8163
 7656SOL    HW233438   8.562   0.331   0.320 -0.4816 -1.0598 -0.0897
 7657SOL     OW33439   2.163   4.797   0.170  0.3282 -0.3589  0.0989
 7657SOL    HW133440   2.091   4.727   0.163 -1.3050  1.0499  2.3526
 7657SOL    HW233441   2.156   4.859   0.092 -1.3827  0.1715  0.6387
 7658SOL     OW33442   0.472   7.707   1.397 -0.0732 -0.4723 -0.1963
 7658SOL    HW133443   0.376   7.681   1.407 -0.5884  0.8728 -1.4063
 7658SOL    HW233444   0.528   7.626   1.380 -1.0609 -1.2024  0.0318
 7659SOL     OW33445   2.787   9.599   0.010 -0.1560  0.4871  0.0832
 7659SOL    HW133446   2.875   9.599   0.057  0.1293 -0.1567 -0.4421
 7659SOL    HW233447   2.795   9.547  -0.075 -1.2354 -0.2244  0.4071
 7660SOL     OW33448   0.814   8.783   1.779  0.6247  0.2655 -0.1008
 7660SOL    HW133449   0.757   8.701   1.774  0.1289  0.5490  0.7393
 7660SOL    HW233450   0.757   8.864   1.762  1.2360  0.3877 -1.5626
 7661SOL     OW33451   3.388   8.526   3.837 -0.5401  0.5956 -0.2767
 7661SOL    HW133452   3.361   8.553   3.930  0.0896  1.6016 -0.3745
 7661SOL    HW233453   3.333   8.577   3.771 -0.7589  0.1245 -0.4609
 7662SOL     OW33454   9.639   2.507   2.601  0.3592  0.2571 -0.1564
 7662SOL    HW133455   9.608   2.598   2.571 -0.4966 -0.6442 -2.1116
 7662SOL    HW233456   9.672   2.513   2.695 -0.0779  2.5106 -0.1008
 7663SOL     OW33457   4.723   4.654   1.836  0.2512 -0.5754  0.2580
 7663SOL    HW133458   4.809   4.701   1.857  0.9100 -1.2259 -0.9727
 7663SOL    HW233459   4.685   4.615   1.920  0.5096  0.7683  1.0234
 7664SOL     OW33460   7.889   7.272   2.936  0.4285 -0.3012  0.9345
 7664SOL    HW133461   7.953   7.337   2.894 -0.8529  0.8121  0.6832
 7664SOL    HW233462   7.927   7.239   3.023  3.1109 -2.6325 -1.0333
 7665SOL     OW33463   1.609   1.967   0.896  0.6646 -0.2076  0.5342
 7665SOL    HW133464   1.521   1.953   0.853  0.1258 -0.0385  1.5577
 7665SOL    HW233465   1.596   2.003   0.988  1.7662 -0.9930  1.0176
 7666SOL     OW33466   0.041   4.432   0.302 -0.4619 -0.1364 -0.2385
 7666SOL    HW133467  -0.017   4.351   0.293 -0.9722  0.0470  1.2316
 7666SOL    HW233468   0.132   4.413   0.266 -0.7188 -1.2115 -0.3265
 7667SOL     OW33469   8.638   5.999   0.210  0.0964 -0.0752  0.3120
 7667SOL    HW133470   8.656   6.092   0.241 -1.7537 -0.6477  3.2786
 7667SOL    HW233471   8.705   5.936   0.249 -0.1812 -0.3308  0.3856
 7668SOL     OW33472   0.597   1.604   1.184 -0.1922 -0.0692 -0.3700
 7668SOL    HW133473   0.644   1.599   1.096 -0.3635 -0.1616 -0.4544
 7668SOL    HW233474   0.538   1.684   1.186  1.3451  1.0727  0.4010
 7669SOL     OW33475   1.089   1.860   2.132 -0.1084  0.0631 -0.2051
 7669SOL    HW133476   1.140   1.916   2.197 -0.1219 -0.8084  0.5793
 7669SOL    HW233477   1.149   1.832   2.057 -0.2015  1.4167 -0.7884
 7670SOL     OW33478   0.899   2.761   2.895 -0.8307 -0.1419 -0.8984
 7670SOL    HW133479   0.900   2.826   2.972 -1.1633 -0.0978 -0.9315
 7670SOL    HW233480   0.971   2.786   2.830 -1.4560  0.6707 -1.3006
 7671SOL     OW33481   1.158   3.008   3.375  0.6203 -0.1787 -0.5908
 7671SOL    HW133482   1.140   3.106   3.388  0.2721 -0.2429 -0.5805
 7671SOL    HW233483   1.081   2.955   3.411  1.2443 -0.5014  0.2896
 7672SOL     OW33484   4.425   6.488   2.558  0.5054  0.3106 -0.0194
 7672SOL    HW133485   4.332   6.495   2.594  0.2427  1.0391 -0.8099
 7672SOL    HW233486   4.421   6.459   2.462  1.2042 -1.8452  0.5783
 7673SOL     OW33487   2.020   9.782   1.687  0.2105 -0.2451 -0.4567
 7673SOL    HW133488   2.062   9.827   1.608 -2.5719 -0.7460 -2.3184
 7673SOL    HW233489   2.014   9.684   1.669  1.3575 -0.6425  1.2579
 7674SOL     OW33490   3.072   5.842   0.135 -0.1079  0.1344 -0.7476
 7674SOL    HW133491   3.157   5.792   0.115 -0.1411 -0.3030  0.1563
 7674SOL    HW233492   3.036   5.881   0.050  0.5462 -0.3898 -1.2823
 7675SOL     OW33493   8.503   1.497   1.356 -0.4957 -0.4879 -0.0462
 7675SOL    HW133494   8.578   1.529   1.414 -0.8512  2.2183 -1.0155
 7675SOL    HW233495   8.423   1.479   1.414  0.0505 -0.6853  0.6601
 7676SOL     OW33496   8.722   4.548   2.391  0.0919  0.0002  0.7351
 7676SOL    HW133497   8.730   4.636   2.343 -1.4540  0.5249  1.4153
 7676SOL    HW233498   8.796   4.487   2.361 -0.1372  0.7391 -1.4031
 7677SOL     OW33499   2.493   4.792   1.794  0.3682 -0.1758 -0.3302
 7677SOL    HW133500   2.462   4.794   1.889 -0.9436  1.3232 -0.7714
 7677SOL    HW233501   2.423   4.750   1.737  0.3985  0.5265 -0.8928
 7678SOL     OW33502   3.442   3.014   0.921 -0.0209 -0.0095 -0.4775
 7678SOL    HW133503   3.437   2.984   0.826  0.1546 -1.3387 -0.0791
 7678SOL    HW233504   3.388   3.098   0.933 -1.5726 -0.8603 -1.3465
 7679SOL     OW33505   8.271   0.569   2.461  0.7821  0.2908 -0.2414
 7679SOL    HW133506   8.265   0.632   2.383 -0.1671  1.4233  0.7235
 7679SOL    HW233507   8.257   0.475   2.429 -1.8329  0.9434 -1.1498
 7680SOL     OW33508   8.771   3.337   3.352 -0.9352 -0.1787 -0.0694
 7680SOL    HW133509   8.862   3.360   3.317 -0.5412 -1.1557  0.2861
 7680SOL    HW233510   8.714   3.305   3.277 -1.6567  2.3675 -0.6710
 7681SOL     OW33511   2.558   9.191   1.676 -0.0008  0.0841  0.1916
 7681SOL    HW133512   2.513   9.187   1.587  1.6364  0.3699 -0.6791
 7681SOL    HW233513   2.634   9.256   1.672  0.6052 -0.5160  1.5602
 7682SOL     OW33514   8.240   0.614   2.722 -0.2888 -0.8742 -0.1413
 7682SOL    HW133515   8.278   0.609   2.630  0.4899  0.2117  0.1168
 7682SOL    HW233516   8.256   0.527   2.769  0.9064 -0.8077 -0.4140
 7683SOL     OW33517   0.060   8.778   2.530  0.0922 -0.1309  0.3721
 7683SOL    HW133518   0.119   8.700   2.549 -1.8773 -2.1239 -1.4862
 7683SOL    HW233519   0.009   8.802   2.613  0.7773 -0.7612  0.9813
 7684SOL     OW33520   0.594   8.186   2.730 -0.6302  0.4516 -0.0102
 7684SOL    HW133521   0.667   8.237   2.776 -0.2593 -2.7192  3.1579
 7684SOL    HW233522   0.634   8.113   2.674 -1.2634 -1.1843  1.5952
 7685SOL     OW33523   1.829   6.424   3.768  0.5770  0.2578 -0.0792
 7685SOL    HW133524   1.734   6.444   3.746  0.3567 -1.0520 -0.3628
 7685SOL    HW233525   1.888   6.493   3.725 -0.1564  0.3258 -1.0118
 7686SOL     OW33526   4.667   0.395   1.777 -0.0336  0.1881  0.2704
 7686SOL    HW133527   4.639   0.308   1.818 -1.6222  0.1610 -0.8321
 7686SOL    HW233528   4.636   0.471   1.835 -1.7324  0.1264 -0.5202
 7687SOL     OW33529   0.395   6.227   1.775 -0.0581  0.3429  0.2103
 7687SOL    HW133530   0.471   6.187   1.827  0.2428  0.1666 -0.3720
 7687SOL    HW233531   0.387   6.183   1.686  0.7071  2.0129 -0.7176
 7688SOL     OW33532   1.169   5.443   1.051 -0.2573 -0.2626 -0.6201
 7688SOL    HW133533   1.190   5.349   1.023 -0.7387 -0.8054  0.8047
 7688SOL    HW233534   1.240   5.504   1.018  1.0395 -1.3925  0.0668
 7689SOL     OW33535   0.708   8.438   2.055 -0.2563 -0.3570 -0.5473
 7689SOL    HW133536   0.779   8.379   2.015 -0.4451 -0.5851 -0.5469
 7689SOL    HW233537   0.673   8.500   1.984 -0.5848 -0.7571 -0.7395
 7690SOL     OW33538   0.270   4.502   3.077  0.1094 -0.1554 -0.2789
 7690SOL    HW133539   0.238   4.588   3.118 -2.5037 -1.0664 -0.2947
 7690SOL    HW233540   0.192   4.439   3.068  1.9483 -2.4786 -0.3789
 7691SOL     OW33541   0.332   3.460   0.632  0.6492  0.0845  0.4317
 7691SOL    HW133542   0.352   3.558   0.623  0.7007  0.0208 -0.2054
 7691SOL    HW233543   0.407   3.415   0.680  0.4760  0.4103  1.0137
 7692SOL     OW33544   1.893   2.101   2.052 -0.1657 -0.7236 -0.4543
 7692SOL    HW133545   1.913   2.003   2.043  1.4390 -0.3952 -0.4687
 7692SOL    HW233546   1.893   2.126   2.149 -0.2526 -0.6710 -0.4682
 7693SOL     OW33547   3.105   6.768   1.875  0.4322  0.0427  0.1363
 7693SOL    HW133548   3.122   6.851   1.820  1.1639 -0.7920 -0.9096
 7693SOL    HW233549   3.171   6.763   1.949  0.2271  0.5185  0.3570
 7694SOL     OW33550   7.904   0.001   3.567 -0.4293  0.2557 -0.1266
 7694SOL    HW133551   7.974  -0.068   3.586 -0.6583  0.0047 -0.1942
 7694SOL    HW233552   7.918   0.037   3.475 -0.2461  0.3779 -0.0522
 7695SOL     OW33553   8.079   0.306   3.894  0.0236 -0.0259  0.1037
 7695SOL    HW133554   8.036   0.266   3.813 -1.0966 -0.8762  1.1009
 7695SOL    HW233555   8.056   0.403   3.900 -0.2995 -0.0734 -0.3238
 7696SOL     OW33556   2.638   3.280   3.397 -0.1224  0.0099 -0.2283
 7696SOL    HW133557   2.562   3.226   3.434  0.7646 -2.2081 -1.5630
 7696SOL    HW233558   2.722   3.227   3.403  0.7928  1.2842 -1.5074
 7697SOL     OW33559   2.196   2.736   2.644  0.6894  0.0993 -0.0418
 7697SOL    HW133560   2.192   2.683   2.728  1.7884 -3.2427 -1.9745
 7697SOL    HW233561   2.105   2.744   2.605  0.6976 -1.6739 -0.4598
 7698SOL     OW33562   7.142   0.387   2.259  0.9230  0.0052  0.2794
 7698SOL    HW133563   7.125   0.428   2.349 -0.4556  2.2584 -0.9724
 7698SOL    HW233564   7.240   0.369   2.249  1.1041 -0.1667  2.1847
 7699SOL     OW33565   1.156   7.740   0.140  0.4520 -0.0364 -0.0587
 7699SOL    HW133566   1.127   7.692   0.223 -1.6054  1.5482  0.1508
 7699SOL    HW233567   1.255   7.726   0.127  0.6577 -0.9241  2.2140
 7700SOL     OW33568   9.367   8.299   3.917  0.5386 -0.4047  0.7773
 7700SOL    HW133569   9.423   8.332   3.993  0.4415  0.7730  0.3548
 7700SOL    HW233570   9.423   8.295   3.834  0.3044 -0.3986  0.6183
 7701SOL     OW33571   5.533   9.601   2.698 -0.0061  0.5867 -0.3678
 7701SOL    HW133572   5.622   9.588   2.742  0.7082  0.1406 -1.9173
 7701SOL    HW233573   5.540   9.670   2.627 -1.2206  1.4827  0.3584
 7702SOL     OW33574   3.965   7.271   3.350  0.1492  0.1643  0.5637
 7702SOL    HW133575   3.898   7.344   3.334  1.0838  1.0486  0.6242
 7702SOL    HW233576   3.987   7.268   3.448  0.6080  0.2492  0.4639
 7703SOL     OW33577   3.890   6.905   2.027  0.7560 -0.2527  0.3463
 7703SOL    HW133578   3.845   6.932   2.112 -0.0844  0.0811 -0.2079
 7703SOL    HW233579   3.829   6.849   1.972  1.1747 -0.1772 -0.2038
 7704SOL     OW33580   3.619   9.593   3.726 -0.0261  0.1218  0.1038
 7704SOL    HW133581   3.602   9.514   3.785  1.5732  0.0943  0.5309
 7704SOL    HW233582   3.574   9.673   3.766  0.0436 -0.1463  0.7327
 7705SOL     OW33583   2.287   1.924   3.810  0.5113  0.1827 -0.5515
 7705SOL    HW133584   2.244   1.957   3.726 -0.5250 -0.9691 -0.4913
 7705SOL    HW233585   2.309   1.827   3.799 -1.9222 -0.6137  1.4003
 7706SOL     OW33586   9.443   5.605   0.441  0.2590 -0.1839  0.4286
 7706SOL    HW133587   9.446   5.626   0.538  1.4248 -0.3187  0.4259
 7706SOL    HW233588   9.349   5.582   0.414  0.2716 -2.0960  1.9258
 7707SOL     OW33589   9.524   7.899   3.929  0.1429  0.5010  0.3019
 7707SOL    HW133590   9.518   7.827   3.997 -1.5809 -0.0558 -0.4021
 7707SOL    HW233591   9.490   7.865   3.841  2.7358  1.0740 -0.9743
 7708SOL     OW33592   4.748   8.451   0.499  0.6287 -0.3044 -0.3638
 7708SOL    HW133593   4.831   8.420   0.544  0.9925  0.7787 -0.2851
 7708SOL    HW233594   4.720   8.539   0.537  0.0707 -0.1277 -1.1684
 7709SOL     OW33595   1.632   7.620   3.668  0.6776  0.8778  0.7187
 7709SOL    HW133596   1.725   7.584   3.664  0.6246  0.9151 -1.8161
 7709SOL    HW233597   1.570   7.557   3.623 -0.4095  1.1997  1.7615
 7710SOL     OW33598   9.806   0.931   0.194 -0.1219 -0.4807  0.0845
 7710SOL    HW133599   9.881   0.985   0.232 -0.9686  0.4945  0.4047
 7710SOL    HW233600   9.813   0.837   0.227  1.4435 -0.6161 -0.5874
 7711SOL     OW33601   9.605   1.000   1.112  0.0206 -0.9020  0.1033
 7711SOL    HW133602   9.532   0.934   1.095 -1.3387  0.4108  0.7178
 7711SOL    HW233603   9.619   1.056   1.030 -1.0489  0.1370  0.5971
 7712SOL     OW33604   3.486   9.432   1.508 -0.7325 -0.8331 -0.0400
 7712SOL    HW133605   3.464   9.524   1.476 -1.0255 -1.1694 -0.8022
 7712SOL    HW233606   3.415   9.402   1.572 -0.9748 -0.7897 -0.2908
 7713SOL     OW33607   3.535   1.884   0.659  0.4283  0.0245  0.3344
 7713SOL    HW133608   3.600   1.823   0.613 -0.5057  0.0967 -1.1339
 7713SOL    HW233609   3.566   1.979   0.649  0.2159  0.0419 -0.1682
 7714SOL     OW33610   8.897   3.563   1.605 -0.1496  0.3358  0.7039
 7714SOL    HW133611   8.922   3.538   1.511  3.8844  1.4358  1.4072
 7714SOL    HW233612   8.808   3.610   1.604 -1.1146 -1.4420 -2.2836
 7715SOL     OW33613   1.693   9.476   2.249 -0.0586  0.3922 -0.2827
 7715SOL    HW133614   1.690   9.575   2.264  2.4584  0.2494  1.3753
 7715SOL    HW233615   1.659   9.429   2.331 -0.0039 -0.1496 -0.5697
 7716SOL     OW33616   9.733   3.573   2.689  0.1541 -0.5136 -0.2056
 7716SOL    HW133617   9.761   3.645   2.753  2.1866  0.4994 -2.1755
 7716SOL    HW233618   9.633   3.568   2.687  0.0188  1.0471  1.2793
 7717SOL     OW33619   4.301   1.127   3.580  0.1922 -0.0057  0.0818
 7717SOL    HW133620   4.362   1.145   3.503  2.1562 -0.0221  1.5887
 7717SOL    HW233621   4.280   1.213   3.626  2.1006 -0.3965  1.7584
 7718SOL     OW33622   2.716   5.381   0.968  0.3566  0.4943 -0.2666
 7718SOL    HW133623   2.711   5.454   0.900  0.3094  0.4403 -0.3208
 7718SOL    HW233624   2.768   5.413   1.047 -0.8676  1.0739  0.3156
 7719SOL     OW33625   8.363   4.948   2.990  0.1599 -0.7457 -0.2167
 7719SOL    HW133626   8.333   4.916   3.080 -2.6595  0.2208 -0.7809
 7719SOL    HW233627   8.435   4.888   2.956  0.8572 -1.4558  2.4272
 7720SOL     OW33628   8.846   1.331   1.530 -0.3159  1.0618 -0.1289
 7720SOL    HW133629   8.937   1.322   1.569  0.4352 -0.0175 -2.0672
 7720SOL    HW233630   8.788   1.257   1.565  0.5337 -0.2892 -1.5269
 7721SOL     OW33631   0.563   0.558   2.418  0.5456  0.1363  0.6966
 7721SOL    HW133632   0.508   0.496   2.474  1.2747 -1.4648 -0.3184
 7721SOL    HW233633   0.590   0.512   2.333  2.3447  1.3237  0.5866
 7722SOL     OW33634   2.554   3.695   3.096 -0.2071 -0.1754  0.7439
 7722SOL    HW133635   2.476   3.660   3.044  0.9181 -0.9470 -0.4430
 7722SOL    HW233636   2.521   3.754   3.170 -1.8989 -0.2676  0.0801
 7723SOL     OW33637   3.320   1.601   0.043  0.7321  0.2814  0.2077
 7723SOL    HW133638   3.292   1.507   0.025 -1.9415  1.0073  0.4831
 7723SOL    HW233639   3.332   1.650  -0.043 -1.1011  0.6054  0.1310
 7724SOL     OW33640   9.557   2.403   3.708 -0.2164 -0.1167  0.4176
 7724SOL    HW133641   9.483   2.345   3.672  0.2726 -0.7828  0.4710
 7724SOL    HW233642   9.540   2.498   3.683 -1.4257 -0.1796  0.9691
 7725SOL     OW33643   1.549   5.517   2.472 -0.0112 -0.4606  0.3071
 7725SOL    HW133644   1.541   5.612   2.502  0.3517 -0.7573  1.3501
 7725SOL    HW233645   1.634   5.506   2.420 -0.3069 -0.1008 -0.2573
 7726SOL     OW33646   0.638   9.617   1.436  0.4539  0.2906 -0.2832
 7726SOL    HW133647   0.657   9.521   1.414  0.7732 -0.0772  1.5187
 7726SOL    HW233648   0.668   9.675   1.360  1.4782 -0.9289 -0.8316
 7727SOL     OW33649   1.357   7.581   2.652  0.1916 -0.1080 -0.4539
 7727SOL    HW133650   1.339   7.511   2.583  0.0631  0.6554 -1.2205
 7727SOL    HW233651   1.369   7.670   2.606  0.8608  0.2803  0.4528
 7728SOL     OW33652   3.050   6.051   1.551  0.1040  0.3934 -0.2688
 7728SOL    HW133653   3.042   5.988   1.629  1.6429  0.0400 -0.3728
 7728SOL    HW233654   3.009   6.139   1.575  0.9458  0.4255  1.1180
 7729SOL     OW33655   7.802   5.826   1.659 -0.1109 -0.1399 -0.3222
 7729SOL    HW133656   7.891   5.872   1.651  0.5842 -1.5409 -0.8788
 7729SOL    HW233657   7.782   5.779   1.573 -0.9712 -0.5773  0.1170
 7730SOL     OW33658   9.473   3.897   3.026  0.2858  0.2072  0.0426
 7730SOL    HW133659   9.551   3.942   3.069  0.9400 -1.0358  0.1926
 7730SOL    HW233660   9.484   3.898   2.926  0.0780  0.7693  0.0261
 7731SOL     OW33661   9.511   1.999   3.713  0.3692 -0.5586 -0.0104
 7731SOL    HW133662   9.567   2.032   3.637 -0.8933 -1.1409 -1.2244
 7731SOL    HW233663   9.486   2.076   3.772 -0.7419  0.3293 -1.6039
 7732SOL     OW33664   5.086   8.012   0.008  0.3998 -0.3222  0.4754
 7732SOL    HW133665   5.164   8.031   0.068  1.8276  1.8802 -2.0045
 7732SOL    HW233666   5.119   7.988  -0.083 -1.8422  0.8830 -0.6836
 7733SOL     OW33667   3.943   4.786   1.601 -0.1355  0.2148 -0.2016
 7733SOL    HW133668   3.997   4.854   1.650  0.4450 -0.9129  0.7534
 7733SOL    HW233669   4.004   4.714   1.566 -0.8963 -0.5420  0.0088
 7734SOL     OW33670   3.613   1.747   4.038  0.4284 -0.9017  0.1514
 7734SOL    HW133671   3.578   1.737   4.131  0.7372  2.1444  0.6356
 7734SOL    HW233672   3.539   1.730   3.973 -0.0460 -1.9987  0.9572
 7735SOL     OW33673   9.583   5.512   1.797  0.2161 -0.0540  0.0322
 7735SOL    HW133674   9.523   5.570   1.743  2.2533  1.0887 -1.0560
 7735SOL    HW233675   9.625   5.565   1.870  1.3203 -0.3741 -0.3523
 7736SOL     OW33676   8.155   5.549   0.034  0.4782  0.5326  0.2368
 7736SOL    HW133677   8.219   5.483   0.073  0.3760 -0.5346 -1.3936
 7736SOL    HW233678   8.198   5.595  -0.044 -0.6320  0.0185 -0.6884
 7737SOL     OW33679   9.537   6.586   0.382 -0.5090  0.3203 -0.3650
 7737SOL    HW133680   9.457   6.644   0.395 -1.3548 -0.7771 -0.5715
 7737SOL    HW233681   9.588   6.617   0.302 -0.6649  1.0958 -0.1671
 7738SOL     OW33682   3.364   2.620   3.304  0.1721  0.3906 -0.1651
 7738SOL    HW133683   3.349   2.543   3.365  3.7774 -1.5282 -1.5447
 7738SOL    HW233684   3.422   2.688   3.348  0.7739  0.1507 -0.5845
 7739SOL     OW33685   8.644   3.824   2.159  0.3270 -0.1913 -0.0573
 7739SOL    HW133686   8.654   3.779   2.071 -3.0989 -1.6853  0.2644
 7739SOL    HW233687   8.598   3.763   2.224  1.0763  1.5586  2.2128
 7740SOL     OW33688   2.377   4.931   1.017  0.4163 -0.3995 -0.6096
 7740SOL    HW133689   2.438   4.914   1.095  0.6535  0.8635 -0.4941
 7740SOL    HW233690   2.429   4.975   0.943 -0.7958  2.9411  0.4021
 7741SOL     OW33691   2.116   7.515   2.545 -0.0539 -0.3580 -0.2014
 7741SOL    HW133692   2.167   7.545   2.464  2.5743 -0.6895  1.2706
 7741SOL    HW233693   2.049   7.584   2.571  2.0041  1.6690 -0.1867
 7742SOL     OW33694   9.006   0.014   1.701  0.5076 -0.5456  0.3462
 7742SOL    HW133695   8.983   0.016   1.799  1.6687 -1.2509  0.6489
 7742SOL    HW233696   9.074  -0.058   1.685  1.3235  0.4675 -0.7614
 7743SOL     OW33697   0.307   1.938   2.758  0.6475 -0.1460 -0.2733
 7743SOL    HW133698   0.332   1.998   2.681  0.2481  0.3296 -0.0322
 7743SOL    HW233699   0.315   1.843   2.729  1.9273  0.0078 -0.4662
 7744SOL     OW33700   1.352   3.281   0.755 -0.1473 -0.1255 -0.0494
 7744SOL    HW133701   1.283   3.281   0.827  0.3375 -0.4873  0.4145
 7744SOL    HW233702   1.397   3.370   0.752  0.2197 -0.2937  0.4635
 7745SOL     OW33703   0.181   3.946   3.560  0.4151 -0.6173 -0.5719
 7745SOL    HW133704   0.110   3.914   3.496  0.8658 -0.3438 -1.2082
 7745SOL    HW233705   0.224   4.028   3.523 -1.3852  1.3328  1.5010
 7746SOL     OW33706   8.226   2.124   0.472  0.5906 -0.0386 -0.5775
 7746SOL    HW133707   8.199   2.124   0.376 -1.3970  0.0698 -0.0460
 7746SOL    HW233708   8.318   2.161   0.481  0.1190  1.6268 -2.2806
 7747SOL     OW33709   8.678   2.651   3.342  0.6402 -0.8689  0.6118
 7747SOL    HW133710   8.583   2.628   3.362  0.4496  1.1298  2.1499
 7747SOL    HW233711   8.715   2.586   3.276 -2.2667 -0.7448 -1.2128
 7748SOL     OW33712   9.766   7.261   3.101 -0.2440  0.2813  0.3187
 7748SOL    HW133713   9.843   7.322   3.118  0.1128  0.0221 -0.3624
 7748SOL    HW233714   9.800   7.171   3.073 -0.8008  0.3905 -0.7232
 7749SOL     OW33715   9.611   1.524   0.598  0.8346  0.2997  0.3357
 7749SOL    HW133716   9.629   1.426   0.596 -0.5616  0.0164  1.4313
 7749SOL    HW233717   9.625   1.562   0.507  1.7461 -0.8412 -0.0156
 7750SOL     OW33718   8.959   7.417   2.858  0.1447 -0.9091  0.1658
 7750SOL    HW133719   8.909   7.388   2.939  0.1052  0.7092  0.7348
 7750SOL    HW233720   8.911   7.494   2.816  1.2718 -0.4258 -0.2335
 7751SOL     OW33721   2.804   5.675   2.553  0.1763 -0.0829 -0.3325
 7751SOL    HW133722   2.708   5.698   2.536  0.2177  1.0522  0.9561
 7751SOL    HW233723   2.823   5.680   2.651  1.8877  1.0960 -0.6975
 7752SOL     OW33724   1.512   2.061   2.018 -0.0186 -0.1747  0.4204
 7752SOL    HW133725   1.469   2.151   2.007  0.0319 -0.0510  1.2152
 7752SOL    HW233726   1.597   2.058   1.965  0.4095  0.5369  1.0540
 7753SOL     OW33727   8.514   7.753   1.537 -0.4740 -0.3509 -0.6032
 7753SOL    HW133728   8.448   7.726   1.467 -0.0118  1.2819 -1.6872
 7753SOL    HW233729   8.467   7.808   1.607 -0.2192  1.1858 -1.6036
 7754SOL     OW33730   2.284   9.626   1.134  0.1258  0.5452 -0.3069
 7754SOL    HW133731   2.367   9.655   1.181  0.1513 -1.9781  1.2887
 7754SOL    HW233732   2.307   9.597   1.041  0.9264  0.3771 -0.0566
 7755SOL     OW33733   9.827   1.081   2.406  0.5998  0.6798 -0.3326
 7755SOL    HW133734   9.922   1.086   2.435 -0.1445  0.0662  2.4012
 7755SOL    HW233735   9.794   0.987   2.415 -0.9915  1.3649  1.3123
 7756SOL     OW33736   1.690   4.420   1.136 -1.1545  0.2260  0.2567
 7756SOL    HW133737   1.681   4.513   1.171 -0.3556  0.7628 -0.9481
 7756SOL    HW233738   1.783   4.404   1.104 -1.5715 -0.6173 -0.5860
 7757SOL     OW33739   5.131   8.148   2.233 -0.0548  0.4031 -0.0200
 7757SOL    HW133740   5.073   8.216   2.277  0.2063  0.8227 -0.3182
 7757SOL    HW233741   5.112   8.057   2.271 -1.4466  0.4161 -0.6382
 7758SOL     OW33742   9.114   4.128   0.031  0.9322  0.4397 -0.1382
 7758SOL    HW133743   9.099   4.049   0.090 -1.1266  0.6385 -0.3720
 7758SOL    HW233744   9.029   4.180   0.022  2.5262  3.3543  0.9543
 7759SOL     OW33745   0.305   7.831   2.547  0.0138 -0.4471 -0.1811
 7759SOL    HW133746   0.210   7.834   2.579 -0.0033  1.5584 -0.3314
 7759SOL    HW233747   0.346   7.744   2.572 -1.7854 -1.2340  0.1237
 7760SOL     OW33748   2.412   7.709   3.310 -0.0195  0.7351  0.6566
 7760SOL    HW133749   2.403   7.807   3.326 -0.5670  0.4624  2.1494
 7760SOL    HW233750   2.336   7.677   3.254  1.5836  1.6119 -2.0780
 7761SOL     OW33751   2.854   4.649   1.584 -0.0927 -0.3766  0.5975
 7761SOL    HW133752   2.862   4.690   1.675  0.3118 -1.3411  1.0042
 7761SOL    HW233753   2.926   4.685   1.525  1.0898 -1.4776  1.3390
 7762SOL     OW33754   1.108   2.148   3.021  0.0609 -0.1354 -0.3301
 7762SOL    HW133755   1.183   2.090   3.052 -0.1549 -0.2214  0.0355
 7762SOL    HW233756   1.107   2.151   2.921  0.2628 -0.5149 -0.3445
 7763SOL     OW33757   0.210   7.251   3.801  0.2508  0.1061  0.0333
 7763SOL    HW133758   0.244   7.157   3.798 -1.4251 -0.5237  0.0789
 7763SOL    HW233759   0.131   7.255   3.863  0.4182  1.5844  0.1626
 7764SOL     OW33760   0.567   7.790   0.489 -0.1825  0.4038 -0.6203
 7764SOL    HW133761   0.478   7.753   0.462 -0.6029  0.7603  0.2822
 7764SOL    HW233762   0.555   7.875   0.539  0.6473  0.2930 -0.2151
 7765SOL     OW33763   1.928   8.578   3.458  0.4740  0.3434 -1.3334
 7765SOL    HW133764   1.927   8.579   3.358 -0.5393 -3.3895 -1.4145
 7765SOL    HW233765   1.864   8.509   3.492  2.4786 -0.0727  1.8604
 7766SOL     OW33766   7.772   6.112   1.780  0.1373  0.6723 -0.1858
 7766SOL    HW133767   7.794   6.016   1.767  0.3608  0.6184  0.5768
 7766SOL    HW233768   7.676   6.128   1.757  0.2491  0.3786 -0.8561
 7767SOL     OW33769   5.872   0.028   3.497  0.3818 -0.0358  0.1580
 7767SOL    HW133770   5.813   0.026   3.417  0.2839  0.9605  0.1946
 7767SOL    HW233771   5.836  -0.033   3.568 -0.0254 -0.2176 -0.2098
 7768SOL     OW33772   6.275   8.160   2.193 -0.5335 -0.3953 -0.3351
 7768SOL    HW133773   6.368   8.195   2.179 -1.0723  0.4300 -1.9471
 7768SOL    HW233774   6.241   8.121   2.107 -2.0648  0.2599 -0.0352
 7769SOL     OW33775   2.112   6.604   2.275  0.5493  0.0727  0.4452
 7769SOL    HW133776   2.085   6.592   2.370 -1.7667 -1.5543 -0.3820
 7769SOL    HW233777   2.143   6.698   2.261  0.4022  0.4815  2.6677
 7770SOL     OW33778   1.223   1.414   2.118  0.0445  0.1224  0.0823
 7770SOL    HW133779   1.123   1.417   2.109 -0.0875 -2.0346  0.5350
 7770SOL    HW233780   1.247   1.385   2.211  1.1622  3.1604  0.8204
 7771SOL     OW33781   8.823   5.409   3.045 -0.4497  0.0299  0.0514
 7771SOL    HW133782   8.725   5.430   3.040 -0.2507  0.8333 -0.7065
 7771SOL    HW233783   8.864   5.422   2.954  0.4850  0.3715  0.5189
 7772SOL     OW33784   0.182   2.718   2.692  0.0198 -0.8872 -0.2919
 7772SOL    HW133785   0.212   2.745   2.600 -0.1414  0.4946  0.0456
 7772SOL    HW233786   0.082   2.718   2.695  0.0243 -1.1625 -0.1823
 7773SOL     OW33787   9.945   5.391   1.402 -0.4546 -0.3373 -0.0078
 7773SOL    HW133788   9.863   5.340   1.427 -0.4790 -0.8591 -1.1521
 7773SOL    HW233789   9.968   5.374   1.306  0.2295  0.8456 -0.0637
 7774SOL     OW33790   0.625   2.110   3.762  0.3815 -0.2293  0.3242
 7774SOL    HW133791   0.586   2.137   3.850  1.2933  0.1758  0.6118
 7774SOL    HW233792   0.623   2.189   3.699 -2.9323 -1.2818 -1.0034
 7775SOL     OW33793   3.190   4.751   2.160  0.8201  0.1768 -0.1516
 7775SOL    HW133794   3.161   4.787   2.072 -0.1809 -0.1406  0.0385
 7775SOL    HW233795   3.113   4.753   2.224  0.8056 -2.0132 -0.0505
 7776SOL     OW33796   0.810   5.982   2.487 -0.4396  0.2141 -0.2821
 7776SOL    HW133797   0.823   5.891   2.527  0.2285  0.7731  0.7694
 7776SOL    HW233798   0.737   6.030   2.536  0.3822  0.9008  0.2694
 7777SOL     OW33799   9.452   8.871   1.145 -0.4129  0.2814 -0.5494
 7777SOL    HW133800   9.372   8.823   1.109 -0.5033  0.4700 -0.6028
 7777SOL    HW233801   9.535   8.823   1.117 -0.5019  0.1517 -0.5947
 7778SOL     OW33802   1.029   5.028   2.795 -0.2451  0.5002  0.4247
 7778SOL    HW133803   0.959   4.959   2.814 -0.5821  1.4886  3.0588
 7778SOL    HW233804   1.098   5.026   2.867  1.4470  0.8308 -1.1396
 7779SOL     OW33805   2.181   1.531   1.636  0.1680  0.0250  0.7199
 7779SOL    HW133806   2.249   1.597   1.606 -0.4174  0.4257  0.2531
 7779SOL    HW233807   2.090   1.562   1.608 -0.0156 -1.4988 -0.4769
 7780SOL     OW33808   8.743   1.069   1.308  0.2995 -0.2265 -0.0878
 7780SOL    HW133809   8.696   0.981   1.313 -0.3863  0.0150 -1.9186
 7780SOL    HW233810   8.675   1.142   1.310  0.8774  0.2947  1.6170
 7781SOL     OW33811   2.510   9.282   3.192 -0.2794  0.6116 -0.9973
 7781SOL    HW133812   2.458   9.201   3.168 -1.5279  1.8788 -2.6528
 7781SOL    HW233813   2.451   9.346   3.241  0.6990  0.5440  0.3040
 7782SOL     OW33814   2.583   9.944   2.563 -0.0234  0.0271 -0.3114
 7782SOL    HW133815   2.573   9.978   2.470 -1.3199 -1.0942 -0.6040
 7782SOL    HW233816   2.649   9.869   2.565 -0.6911 -0.5655 -0.4892
 7783SOL     OW33817   4.295   3.604   3.809  0.1745  0.2961  0.2717
 7783SOL    HW133818   4.338   3.523   3.850  1.1769 -0.4628 -2.1813
 7783SOL    HW233819   4.227   3.575   3.742  0.0294  1.5027 -0.1097
 7784SOL     OW33820   1.642   3.530   1.462  0.1203  0.1748  0.2179
 7784SOL    HW133821   1.609   3.604   1.403 -0.0923  0.1085  0.2549
 7784SOL    HW233822   1.677   3.569   1.548  0.4129  0.2689  0.0576
 7785SOL     OW33823   5.862   7.721   2.745 -0.0381 -0.1392  0.0037
 7785SOL    HW133824   5.886   7.809   2.784 -1.5798  0.2997  0.0134
 7785SOL    HW233825   5.940   7.659   2.751  0.9830  1.1399  0.2135
 7786SOL     OW33826   3.013   9.757   3.286 -0.6946 -0.3445  0.1645
 7786SOL    HW133827   2.987   9.697   3.210 -1.6348  0.0869  0.1360
 7786SOL    HW233828   2.957   9.840   3.283  1.8397  1.3843 -0.8843
 7787SOL     OW33829   2.199   1.006   0.639 -0.0002 -0.0554  0.4265
 7787SOL    HW133830   2.291   0.969   0.645 -0.1000 -0.3629  0.0695
 7787SOL    HW233831   2.140   0.961   0.706 -0.2074 -0.8113 -0.2471
 7788SOL     OW33832   9.327   5.599   3.924 -0.3717 -0.5058 -0.2721
 7788SOL    HW133833   9.276   5.517   3.953  0.8803 -1.5836 -1.0611
 7788SOL    HW233834   9.411   5.571   3.878 -0.5401  1.2326 -1.6699
 7789SOL     OW33835   2.507   2.376   0.290  0.3544  0.2007 -0.0131
 7789SOL    HW133836   2.564   2.299   0.315 -0.5209  0.7417  4.1339
 7789SOL    HW233837   2.509   2.444   0.364 -2.5759  1.9704 -1.4558
 7790SOL     OW33838   0.017   7.985   1.740 -0.5790 -0.2032  0.0861
 7790SOL    HW133839   0.092   8.025   1.686  0.4301 -2.5036 -0.3009
 7790SOL    HW233840  -0.068   8.034   1.721  0.2977  0.7193 -1.5929
 7791SOL     OW33841   8.096   5.818   3.569 -0.2092  0.2310 -0.2361
 7791SOL    HW133842   8.106   5.845   3.665 -1.9701  2.2430 -0.5779
 7791SOL    HW233843   8.005   5.779   3.555  0.6076 -1.5297 -0.7770
 7792SOL     OW33844   0.164   0.717   1.495 -0.2588  0.1045  0.1152
 7792SOL    HW133845   0.080   0.746   1.447  0.2040  1.9227  0.3660
 7792SOL    HW233846   0.231   0.791   1.492  1.0198 -1.0136  0.7003
 7793SOL     OW33847   9.633   6.418   2.814 -0.3586  0.0349 -0.4172
 7793SOL    HW133848   9.637   6.355   2.891  0.1797  0.7425  0.1443
 7793SOL    HW233849   9.540   6.419   2.776 -0.4201 -0.9263 -0.2966
 7794SOL     OW33850   9.806   1.393   1.627 -0.3709 -0.0275  0.6180
 7794SOL    HW133851   9.758   1.425   1.545 -0.6875  0.9204  1.1681
 7794SOL    HW233852   9.832   1.472   1.683 -2.4126 -0.7941  2.7060
 7795SOL     OW33853   9.328   7.111   0.462  0.1025  0.6723 -0.2734
 7795SOL    HW133854   9.250   7.174   0.458 -1.4159 -1.1258  0.3595
 7795SOL    HW233855   9.396   7.147   0.525 -0.4495  1.9983 -0.4136
 7796SOL     OW33856   1.691   5.888   1.304  0.0088  0.2735 -0.0859
 7796SOL    HW133857   1.687   5.934   1.216  1.6451  0.2704 -0.1840
 7796SOL    HW233858   1.679   5.789   1.291  1.4454  0.1385 -0.4599
 7797SOL     OW33859   2.045   9.836   1.047 -0.5816  0.5923 -0.2364
 7797SOL    HW133860   2.076   9.769   1.114 -0.3005 -0.4069 -1.3519
 7797SOL    HW233861   2.058   9.800   0.955  0.6251  2.6011 -0.9088
 7798SOL     OW33862   2.246   8.878   3.531  0.4249  0.2316 -0.0844
 7798SOL    HW133863   2.342   8.900   3.549  0.5802 -1.5207  1.4079
 7798SOL    HW233864   2.188   8.944   3.579  0.8973 -0.5625  1.6387
 7799SOL     OW33865   9.836   8.128   0.893 -0.2671  0.0774  0.5284
 7799SOL    HW133866   9.776   8.120   0.813  0.2530 -0.6081  0.1978
 7799SOL    HW233867   9.907   8.196   0.875 -0.4032  0.2294  0.5682
 7800SOL     OW33868   1.252   3.422   2.862 -0.1319  0.0855 -0.4148
 7800SOL    HW133869   1.284   3.486   2.792 -0.5256  0.2356 -0.4620
 7800SOL    HW233870   1.294   3.444   2.950  1.2217 -0.7992 -0.8378
 7801SOL     OW33871   3.602   2.176   2.760 -0.2812 -0.3576 -0.0879
 7801SOL    HW133872   3.517   2.226   2.748  0.3213  0.8543  0.5652
 7801SOL    HW233873   3.678   2.228   2.721  0.4519 -0.4070  1.2135
 7802SOL     OW33874   1.148   1.842   1.601  0.1027 -0.2899  0.6018
 7802SOL    HW133875   1.125   1.912   1.669 -0.7951  0.8244 -0.8086
 7802SOL    HW233876   1.095   1.858   1.518  1.7875 -1.1227 -0.6709
 7803SOL     OW33877   1.110   4.415   2.361  0.0176 -1.1282  0.1793
 7803SOL    HW133878   1.107   4.477   2.283  0.7172 -0.4024  0.7179
 7803SOL    HW233879   1.098   4.467   2.446  0.3283 -1.7642  0.6205
 7804SOL     OW33880   3.219   3.272   3.372  0.3530  0.2544 -0.7667
 7804SOL    HW133881   3.176   3.323   3.298 -0.6114 -1.8263 -1.6612
 7804SOL    HW233882   3.298   3.222   3.338  0.2085 -0.3088 -0.3015
 7805SOL     OW33883   2.974   7.190   0.336 -0.2629  0.6867 -0.3464
 7805SOL    HW133884   3.064   7.216   0.372 -0.4502  2.3327 -1.0114
 7805SOL    HW233885   2.903   7.215   0.402 -0.2726 -0.2513  0.0061
 7806SOL     OW33886   7.474   9.934   2.560 -0.6557 -0.9884 -0.3365
 7806SOL    HW133887   7.469   9.970   2.653 -1.5242 -2.3774  0.1668
 7806SOL    HW233888   7.561   9.960   2.518  0.0326 -0.9418  1.1114
 7807SOL     OW33889   8.749   6.543   0.141 -0.1702  0.1054 -0.4814
 7807SOL    HW133890   8.709   6.575   0.227 -0.8011  0.1765 -0.7950
 7807SOL    HW233891   8.826   6.602   0.116 -0.1882  0.2780 -0.1255
 7808SOL     OW33892   0.587   1.862   2.316  0.0326  0.3376  0.0598
 7808SOL    HW133893   0.512   1.857   2.250 -0.1423  0.6277  0.2345
 7808SOL    HW233894   0.670   1.892   2.269  0.3966 -1.3744 -0.4189
 7809SOL     OW33895   6.039   8.343   2.984  0.0289  0.1213  0.4798
 7809SOL    HW133896   6.099   8.326   3.062 -0.5687  0.8036  1.1032
 7809SOL    HW233897   5.990   8.260   2.960  0.5328 -0.2008  0.5480
 7810SOL     OW33898   3.025   1.629   1.689  0.0513 -0.0620  0.0865
 7810SOL    HW133899   2.929   1.644   1.714  0.0330  1.7353 -0.9670
 7810SOL    HW233900   3.084   1.652   1.767 -0.2597  0.8656  0.0505
 7811SOL     OW33901   1.646   4.513   1.502  0.4268  0.4426 -0.3382
 7811SOL    HW133902   1.615   4.463   1.583 -2.7328  2.1631 -0.4285
 7811SOL    HW233903   1.573   4.515   1.433  2.1459  1.2162 -2.2089
 7812SOL     OW33904   1.864   1.580   1.204 -0.3514 -0.3641  0.4206
 7812SOL    HW133905   1.962   1.581   1.187 -0.2491  0.3221  1.0367
 7812SOL    HW233906   1.824   1.497   1.165  0.2187  0.1351 -1.2768
 7813SOL     OW33907   0.617   8.087   0.351 -0.5707 -0.4506  0.2823
 7813SOL    HW133908   0.579   8.044   0.269 -0.9832 -0.0055  0.2348
 7813SOL    HW233909   0.547   8.143   0.394  0.4123  1.4042 -0.5063
 7814SOL     OW33910   7.850   2.301   2.041  0.1246  0.0127  0.1584
 7814SOL    HW133911   7.945   2.316   2.069  0.2423  1.0427 -0.7879
 7814SOL    HW233912   7.830   2.357   1.961 -0.8290 -1.3823 -0.5773
 7815SOL     OW33913   3.745   5.201   2.970  0.2082  0.3396  0.2531
 7815SOL    HW133914   3.662   5.227   3.021  1.2490 -0.6327  2.4848
 7815SOL    HW233915   3.718   5.158   2.883 -1.6057  0.6863  0.6163
 7816SOL     OW33916   9.571   3.657   1.677 -0.2953  0.0176  0.7142
 7816SOL    HW133917   9.598   3.605   1.759 -0.3030 -0.1324  0.6214
 7816SOL    HW233918   9.644   3.651   1.609 -0.8058 -0.8691  0.2367
 7817SOL     OW33919   2.470   9.510   3.542  0.5433  0.1429  0.6706
 7817SOL    HW133920   2.417   9.475   3.619  0.5597  0.4725  0.8329
 7817SOL    HW233921   2.561   9.468   3.541  0.6905  0.4588  1.0767
 7818SOL     OW33922   0.081   2.012   2.886 -0.2674 -0.4346 -0.3157
 7818SOL    HW133923   0.015   2.010   2.811 -0.3212 -0.5279 -0.2651
 7818SOL    HW233924   0.173   1.995   2.850 -0.2813 -0.3880 -0.3733
 7819SOL     OW33925   4.001   9.792   3.160 -0.1929 -0.4650  0.0018
 7819SOL    HW133926   4.099   9.800   3.179 -0.0337 -2.1698  0.0417
 7819SOL    HW233927   3.951   9.862   3.210  0.7829 -1.1495  1.9739
 7820SOL     OW33928   7.797   1.285   2.701  0.0256  0.0384 -0.6109
 7820SOL    HW133929   7.798   1.374   2.655  0.6884  0.0909 -0.4967
 7820SOL    HW233930   7.760   1.296   2.793  1.7177  0.5098  0.0310
 7821SOL     OW33931   3.829   9.501   2.541  0.1911 -0.2806 -0.1531
 7821SOL    HW133932   3.854   9.538   2.631  0.1545 -0.0475 -0.2382
 7821SOL    HW233933   3.734   9.470   2.543 -0.3214  1.2033 -0.5674
 7822SOL     OW33934   4.433   4.834   1.744 -0.1093  0.2177  0.5551
 7822SOL    HW133935   4.341   4.795   1.748  0.6102 -1.4782  1.1297
 7822SOL    HW233936   4.500   4.761   1.730  1.0735  1.5525 -0.9899
 7823SOL     OW33937   1.231   5.186   2.737 -0.3223  0.0496 -0.2608
 7823SOL    HW133938   1.219   5.256   2.666 -0.0428  1.1273  0.7514
 7823SOL    HW233939   1.146   5.133   2.745 -0.2801 -0.2534 -1.5667
 7824SOL     OW33940   2.008   6.529   0.427 -0.0856 -0.6001  0.7203
 7824SOL    HW133941   2.082   6.580   0.382  0.5660 -2.0765  0.0883
 7824SOL    HW233942   1.927   6.529   0.369  0.5774 -2.0317 -0.2119
 7825SOL     OW33943   3.621   2.247   1.215  0.1978  0.1663 -0.3201
 7825SOL    HW133944   3.588   2.221   1.306 -0.5430  0.0398 -0.6170
 7825SOL    HW233945   3.543   2.274   1.158  0.5464 -0.7795 -1.2488
 7826SOL     OW33946   3.877   3.598   0.355 -0.3359 -0.3164 -0.1413
 7826SOL    HW133947   3.917   3.664   0.291  0.2845 -0.9538 -0.4232
 7826SOL    HW233948   3.903   3.621   0.448 -1.6872  0.9316 -0.0696
 7827SOL     OW33949   1.137   9.782   2.389  1.0367 -0.0979 -0.5758
 7827SOL    HW133950   1.123   9.849   2.462  2.4627 -0.5209  0.1120
 7827SOL    HW233951   1.206   9.817   2.324  0.6382 -0.2283 -1.0713
 7828SOL     OW33952   4.729   8.464   1.125  0.4370 -0.3560 -0.0611
 7828SOL    HW133953   4.653   8.401   1.138  0.4466 -0.3205  0.1760
 7828SOL    HW233954   4.816   8.414   1.126  0.3987 -0.4301 -0.6107
 7829SOL     OW33955   0.749   8.628   3.497 -0.1810 -0.3150  0.0127
 7829SOL    HW133956   0.741   8.573   3.580  0.7962  0.8079  0.8583
 7829SOL    HW233957   0.818   8.588   3.437 -1.0055 -1.2221 -0.3545
 7830SOL     OW33958   2.944   9.089   1.337  0.0994  0.0859 -0.8794
 7830SOL    HW133959   2.851   9.068   1.367  0.9105 -0.1578  1.6345
 7830SOL    HW233960   2.973   9.176   1.376  0.7502  0.3736 -2.0100
 7831SOL     OW33961   1.588   0.459   2.151  0.2400  0.1392 -0.4391
 7831SOL    HW133962   1.601   0.408   2.066  4.0600 -0.2019  0.2534
 7831SOL    HW233963   1.577   0.395   2.227 -0.2097  0.4038 -0.2821
 7832SOL     OW33964   3.559   4.951   1.216 -0.2755 -0.4502  0.1520
 7832SOL    HW133965   3.647   4.904   1.229  0.8812  0.5965 -3.2638
 7832SOL    HW233966   3.543   5.013   1.293  2.2350 -0.3068  0.6235
 7833SOL     OW33967   2.262   2.644   3.672 -0.3288 -0.0972  0.4860
 7833SOL    HW133968   2.327   2.632   3.747  0.4256 -2.2238 -0.4934
 7833SOL    HW233969   2.200   2.566   3.669  0.6818 -0.8262 -2.1235
 7834SOL     OW33970   5.983   8.994   3.293  0.3102 -0.1470  0.1714
 7834SOL    HW133971   6.064   8.939   3.309 -0.4867 -0.6275  2.6800
 7834SOL    HW233972   5.901   8.937   3.299 -0.6275  1.4483  4.2252
 7835SOL     OW33973   1.201   9.848   0.483 -0.0241  0.1498 -0.0410
 7835SOL    HW133974   1.177   9.787   0.558  0.3662  2.3979  1.9872
 7835SOL    HW233975   1.286   9.817   0.440 -0.7625 -1.6905 -0.1806
 7836SOL     OW33976   1.059   8.539   1.177 -0.0074  1.0205  0.0425
 7836SOL    HW133977   1.089   8.457   1.127  1.3480  0.8328  1.1489
 7836SOL    HW233978   0.959   8.537   1.187  0.0796 -0.8547  0.6773
 7837SOL     OW33979   1.965   4.608   0.211 -0.8046 -0.2278 -0.2892
 7837SOL    HW133980   1.907   4.527   0.223  0.0854 -0.9653 -0.8372
 7837SOL    HW233981   1.910   4.690   0.222 -1.5431 -0.9013  1.1837
 7838SOL     OW33982   1.004   8.480   3.513  0.1649 -0.4171  0.1707
 7838SOL    HW133983   1.060   8.530   3.447  1.2405 -0.6891  0.8662
 7838SOL    HW233984   1.045   8.486   3.604 -1.9238  0.9156  1.0551
 7839SOL     OW33985   8.342   1.632   0.959 -0.2213  0.7610 -0.0752
 7839SOL    HW133986   8.346   1.539   0.922 -2.4564  0.6713 -0.1425
 7839SOL    HW233987   8.295   1.632   1.047 -2.9365  2.2016 -1.4636
 7840SOL     OW33988   3.608   4.808   0.514  0.7209 -0.5384  0.3446
 7840SOL    HW133989   3.637   4.739   0.580 -0.9908 -0.6794  0.9763
 7840SOL    HW233990   3.534   4.863   0.553 -1.9022 -2.0889 -2.2444
 7841SOL     OW33991   3.491   2.190   1.458 -0.1967  0.7923  0.2345
 7841SOL    HW133992   3.516   2.286   1.470 -1.2717  1.1336 -0.2338
 7841SOL    HW233993   3.394   2.183   1.435 -0.2037 -0.4287  0.5891
 7842SOL     OW33994   3.069   9.324   3.405  0.1483  0.0175 -0.3388
 7842SOL    HW133995   3.105   9.407   3.448 -0.9344  0.0431  0.5327
 7842SOL    HW233996   3.120   9.245   3.438 -0.2333  0.1099  0.4894
 7843SOL     OW33997   0.394   0.694   0.534  0.1642 -0.1296  0.5637
 7843SOL    HW133998   0.367   0.618   0.476 -0.4689  0.3008  0.2870
 7843SOL    HW233999   0.312   0.741   0.569  0.5433  0.4440  0.7023
 7844SOL     OW34000   1.398   6.248   0.394 -0.1902 -0.3613 -0.5765
 7844SOL    HW134001   1.443   6.204   0.471 -0.2061  2.0757  0.8949
 7844SOL    HW234002   1.304   6.214   0.387 -0.2417 -0.4829  0.5947
 7845SOL     OW34003   2.256   5.510   0.035  0.3210  0.4859  0.0132
 7845SOL    HW134004   2.307   5.429   0.008 -0.2512 -0.2738  1.1333
 7845SOL    HW234005   2.319   5.585   0.055  0.8568  0.2886 -0.9187
 7846SOL     OW34006   2.591   2.633   2.870 -0.4477  0.1114  0.0984
 7846SOL    HW134007   2.510   2.670   2.914 -0.0941  1.3798 -0.2910
 7846SOL    HW234008   2.596   2.667   2.776  1.2819  1.2243  0.5625
 7847SOL     OW34009   7.832   0.109   0.441  0.5246 -0.4025 -0.3953
 7847SOL    HW134010   7.761   0.142   0.379  0.4601 -0.1954 -0.2084
 7847SOL    HW234011   7.790   0.056   0.515  0.5505 -0.1406 -0.1931
 7848SOL     OW34012   7.625   3.194   1.084 -0.5270 -0.1681  0.3466
 7848SOL    HW134013   7.631   3.105   1.038 -0.6096 -0.4083  0.7926
 7848SOL    HW234014   7.529   3.220   1.093 -0.4484  0.6492 -1.0677
 7849SOL     OW34015   2.346   8.994   2.340 -0.6033  0.0777 -0.2428
 7849SOL    HW134016   2.325   8.990   2.242  0.6058  0.8269 -0.5417
 7849SOL    HW234017   2.445   9.008   2.352 -0.8216  0.5054  1.0771
 7850SOL     OW34018   2.379   1.632   3.794  0.0727 -0.3351  0.1818
 7850SOL    HW134019   2.456   1.576   3.761 -2.9560 -3.4866 -1.8532
 7850SOL    HW234020   2.360   1.609   3.889 -0.1071 -1.5991 -0.1473
 7851SOL     OW34021   4.480   3.876   3.213 -0.1951 -0.9660 -0.0343
 7851SOL    HW134022   4.443   3.827   3.291  0.5925 -1.7347 -0.1339
 7851SOL    HW234023   4.409   3.934   3.173 -0.6318 -0.6623  1.1660
 7852SOL     OW34024   8.191   5.499   2.734  0.1226 -0.1377 -1.0178
 7852SOL    HW134025   8.261   5.439   2.694  0.5618  0.1170 -0.6331
 7852SOL    HW234026   8.203   5.502   2.833  0.0733  0.5453 -1.0302
 7853SOL     OW34027   3.136   4.228   0.706  0.7115 -0.0134  0.0759
 7853SOL    HW134028   3.046   4.195   0.676  0.4901  0.5108  0.1559
 7853SOL    HW234029   3.182   4.273   0.629  0.5041  0.5653  0.2874
 7854SOL     OW34030   7.946   2.134   3.820 -0.0054  0.3308 -0.1826
 7854SOL    HW134031   7.984   2.184   3.743  0.9316 -0.9125 -0.5448
 7854SOL    HW234032   7.896   2.054   3.786 -1.6275  1.0805  0.3733
 7855SOL     OW34033   3.794   3.841   3.925  0.1697  0.6150  0.8576
 7855SOL    HW134034   3.804   3.752   3.881  1.8151  1.1560  0.1046
 7855SOL    HW234035   3.788   3.829   4.024  0.8046 -0.3143  0.7897
 7856SOL     OW34036   2.442   9.209   3.595 -0.5472  0.7498 -0.7481
 7856SOL    HW134037   2.540   9.198   3.614 -0.6391  0.3285 -0.5213
 7856SOL    HW234038   2.422   9.171   3.505 -0.4032  1.3259 -1.0244
 7857SOL     OW34039   9.445   5.320   0.535  0.4196  0.8523  0.1544
 7857SOL    HW134040   9.523   5.320   0.598  0.2461  2.7191  0.4025
 7857SOL    HW234041   9.472   5.360   0.448  0.2013 -0.1391 -0.3714
 7858SOL     OW34042   8.007   5.688   1.866 -0.0465 -0.4889  0.7383
 7858SOL    HW134043   7.945   5.728   1.799  1.9552  0.7224 -0.4654
 7858SOL    HW234044   7.956   5.661   1.948 -2.1344  0.3373 -0.2588
 7859SOL     OW34045   0.360   7.786   3.102 -0.3353 -0.0381  0.1962
 7859SOL    HW134046   0.372   7.834   3.014  0.2906  0.9367  0.7998
 7859SOL    HW234047   0.413   7.701   3.100  1.9136  1.3131  0.6181
 7860SOL     OW34048   4.023   3.495   2.723 -0.4540  0.3144 -0.1770
 7860SOL    HW134049   3.968   3.470   2.803 -0.0965  0.9463  0.2697
 7860SOL    HW234050   3.963   3.513   2.646 -0.7640 -1.1665 -0.3028
 7861SOL     OW34051   1.412   6.836   1.834  0.2459 -0.0278 -0.2341
 7861SOL    HW134052   1.391   6.839   1.932 -0.9063  0.1428 -0.4795
 7861SOL    HW234053   1.498   6.884   1.817  1.8712 -2.3437  1.0467
 7862SOL     OW34054   2.354   9.901   3.134  0.1657  0.3401  0.1270
 7862SOL    HW134055   2.361   9.964   3.211  1.5237  1.7849 -1.1504
 7862SOL    HW234056   2.299   9.942   3.061  1.0491  0.0697 -0.7049
 7863SOL     OW34057   4.148   8.441   1.560 -0.7018  0.2499  0.5195
 7863SOL    HW134058   4.205   8.416   1.481 -1.5741 -1.1369  0.2974
 7863SOL    HW234059   4.191   8.516   1.610  0.3856  0.4541 -0.6861
 7864SOL     OW34060   7.693   9.030   1.425 -0.1197 -0.0111  0.0742
 7864SOL    HW134061   7.635   9.090   1.480 -0.3023 -0.6286  0.5616
 7864SOL    HW234062   7.666   8.934   1.440  1.1919 -0.3240  0.5102
 7865SOL     OW34063   3.726   6.820   0.008  0.6626  0.4849 -0.2247
 7865SOL    HW134064   3.630   6.837  -0.010  0.7466 -0.6152 -1.9069
 7865SOL    HW234065   3.777   6.906   0.003 -0.4404  1.3093  2.2605
 7866SOL     OW34066   2.811   6.786   1.315 -0.6555 -0.0718 -0.3793
 7866SOL    HW134067   2.846   6.779   1.222  2.5539  0.5067  0.7458
 7866SOL    HW234068   2.791   6.695   1.350 -0.6614 -0.3790 -1.1766
 7867SOL     OW34069   4.680   8.076   2.992 -0.1216  0.0704  0.0641
 7867SOL    HW134070   4.620   8.069   2.913  0.2942 -0.0166 -0.2479
 7867SOL    HW234071   4.721   7.986   3.011 -0.0420  0.1412  0.2320
 7868SOL     OW34072   2.406   4.634   0.162 -0.2056  0.8619 -0.4369
 7868SOL    HW134073   2.323   4.684   0.137 -1.0857 -0.0117  0.6739
 7868SOL    HW234074   2.405   4.616   0.261  0.5506 -0.4989 -0.6638
 7869SOL     OW34075   1.719   7.640   1.990 -0.0001 -0.1174 -0.3203
 7869SOL    HW134076   1.757   7.558   1.947 -0.0468  1.1625 -2.8967
 7869SOL    HW234077   1.633   7.664   1.944  0.2901  1.6846  0.0622
 7870SOL     OW34078   3.104   0.695   1.172 -0.5499 -0.1847  0.3151
 7870SOL    HW134079   3.201   0.675   1.160 -0.7636  0.5364 -3.0541
 7870SOL    HW234080   3.092   0.793   1.188 -0.7770 -0.1861  0.1599
 7871SOL     OW34081   9.726   6.344   0.386 -0.3643  0.2947  0.9036
 7871SOL    HW134082   9.670   6.267   0.356 -1.0998  0.7901  0.9848
 7871SOL    HW234083   9.675   6.429   0.374  0.3278  0.7429  1.0923
 7872SOL     OW34084   9.850   0.581   1.575 -0.5209 -0.4423 -0.3440
 7872SOL    HW134085   9.897   0.665   1.547  0.5030 -0.5088  1.1174
 7872SOL    HW234086   9.826   0.586   1.672 -1.8979 -1.1824 -0.6309
 7873SOL     OW34087   3.514   0.927   1.169  0.6637 -0.4146  0.0886
 7873SOL    HW134088   3.424   0.926   1.126 -0.3340  0.5488  2.0828
 7873SOL    HW234089   3.522   0.850   1.232  0.5764  0.4676  1.1922
 7874SOL     OW34090   9.471   8.880   0.118 -0.3118 -0.6074 -0.0936
 7874SOL    HW134091   9.406   8.817   0.161 -0.1447 -0.8628 -0.2165
 7874SOL    HW234092   9.508   8.942   0.187 -3.5033  2.0255 -0.6116
 7875SOL     OW34093   3.808   7.946   2.414 -0.1111  0.0499 -0.1516
 7875SOL    HW134094   3.728   7.891   2.387  0.8615 -0.9250 -1.1080
 7875SOL    HW234095   3.859   7.897   2.484 -2.1214  2.1626  2.8939
 7876SOL     OW34096   3.518   1.340   2.542 -0.2637 -0.2254  0.0868
 7876SOL    HW134097   3.558   1.250   2.558 -1.2827 -0.6625  0.1832
 7876SOL    HW234098   3.563   1.408   2.601 -0.3602 -0.8802  0.9121
 7877SOL     OW34099   3.327   9.803   0.008  0.1774  0.5109  0.0820
 7877SOL    HW134100   3.228   9.800   0.015  0.1135 -1.5409 -1.2859
 7877SOL    HW234101   3.368   9.776   0.095 -0.4842 -1.8483 -0.3248
 7878SOL     OW34102   9.099   3.313   1.025  0.8066  0.1997 -0.5337
 7878SOL    HW134103   9.138   3.375   1.093 -3.0222  1.0381  0.9948
 7878SOL    HW234104   9.057   3.366   0.952 -1.3751 -0.5893  0.1340
 7879SOL     OW34105   0.192   0.048   1.119  0.1275  0.0186  0.2049
 7879SOL    HW134106   0.098   0.021   1.099  0.1300  0.8625 -1.0004
 7879SOL    HW234107   0.217   0.016   1.210 -0.8105 -1.5372 -0.0746
 7880SOL     OW34108   4.311   7.432   0.499 -0.0546  0.4996 -0.3225
 7880SOL    HW134109   4.238   7.383   0.450 -0.6167  0.8509  0.1566
 7880SOL    HW234110   4.342   7.376   0.577 -2.2337  1.8122  1.5582
 7881SOL     OW34111   7.701   2.151   0.130 -0.3683  0.0156 -0.0354
 7881SOL    HW134112   7.771   2.091   0.093 -1.5211 -2.1059  1.1296
 7881SOL    HW234113   7.652   2.195   0.055  1.9052  1.2051 -0.8623
 7882SOL     OW34114   9.942   9.144   3.072 -0.0578  0.2831  0.2443
 7882SOL    HW134115   9.897   9.108   2.991 -0.5654  0.4965  0.4309
 7882SOL    HW234116   9.902   9.103   3.154  0.1943  0.3504  0.4015
 7883SOL     OW34117   3.654   3.729   3.566 -0.6374  0.1307  0.0169
 7883SOL    HW134118   3.566   3.685   3.583 -0.5310 -0.0205  0.1751
 7883SOL    HW234119   3.646   3.792   3.488 -0.6826 -0.4768 -0.4674
 7884SOL     OW34120   0.642   7.763   0.190 -0.0704 -0.0721  0.2599
 7884SOL    HW134121   0.695   7.698   0.245  0.9840  0.2772 -0.3189
 7884SOL    HW234122   0.569   7.802   0.245 -0.1595 -1.0879  0.8737
 7885SOL     OW34123   9.291   8.657   0.228 -0.3053 -0.4211  0.5479
 7885SOL    HW134124   9.315   8.560   0.229  0.7320 -0.1775 -0.0019
 7885SOL    HW234125   9.191   8.666   0.231 -0.4024 -1.4883  0.9455
 7886SOL     OW34126   3.536   3.176   0.247 -0.0834 -0.2478 -0.3137
 7886SOL    HW134127   3.596   3.253   0.268 -0.9006 -0.0811  1.4935
 7886SOL    HW234128   3.526   3.168   0.148 -0.0650  2.0427 -0.5298
 7887SOL     OW34129   3.407   0.486   2.399  0.4148 -0.1866  0.2129
 7887SOL    HW134130   3.358   0.400   2.411 -0.1927 -0.0513 -1.2483
 7887SOL    HW234131   3.503   0.468   2.381 -0.2508 -0.6962 -3.0381
 7888SOL     OW34132   1.138   8.650   3.302 -0.5257  0.3460  0.3651
 7888SOL    HW134133   1.072   8.640   3.228  0.3227 -0.6479 -0.2870
 7888SOL    HW234134   1.141   8.745   3.332 -0.3461  0.9304 -1.4001
 7889SOL     OW34135   4.833   9.162   0.467 -0.0890 -0.3525 -0.3371
 7889SOL    HW134136   4.813   9.064   0.474  0.5316 -0.6782 -2.7023
 7889SOL    HW234137   4.764   9.214   0.518 -1.0426 -1.9855  0.0579
 7890SOL     OW34138   2.427   0.012   3.379  0.1275 -0.3177  0.1740
 7890SOL    HW134139   2.467  -0.076   3.403  1.7315  0.3105 -0.1112
 7890SOL    HW234140   2.496   0.068   3.331 -1.4423  0.3599 -1.3437
 7891SOL     OW34141   8.631   0.081   3.504  0.0498  0.8892 -0.1613
 7891SOL    HW134142   8.641   0.041   3.413 -0.5336  1.3679 -0.4305
 7891SOL    HW234143   8.534   0.084   3.529  0.2097  0.6868  0.5122
 7892SOL     OW34144   1.140   1.327   3.341  0.3067  0.0599  0.1233
 7892SOL    HW134145   1.094   1.344   3.428  0.3023  0.5265  0.0357
 7892SOL    HW234146   1.223   1.382   3.336  0.1517  0.2595 -0.2877
 7893SOL     OW34147   5.255   0.046   3.172 -0.3238  0.2351  0.0328
 7893SOL    HW134148   5.236   0.115   3.241 -1.3904 -2.1460  2.1707
 7893SOL    HW234149   5.354   0.043   3.154 -0.2357  2.0497  0.1557
 7894SOL     OW34150   7.535   8.246   2.261  0.6745 -0.4326 -0.3709
 7894SOL    HW134151   7.561   8.224   2.355 -1.3697 -1.8011 -0.0804
 7894SOL    HW234152   7.453   8.304   2.262 -0.4185 -1.9228 -1.3097
 7895SOL     OW34153   0.343   5.782   1.202  0.2474  0.0756 -0.4109
 7895SOL    HW134154   0.294   5.796   1.116 -1.8275 -3.3558  0.1073
 7895SOL    HW234155   0.436   5.750   1.182  0.1383  0.3437 -1.3876
 7896SOL     OW34156   8.661   2.900   0.592  0.0642  0.8035 -0.3440
 7896SOL    HW134157   8.734   2.966   0.575 -0.9930  2.3741  1.0633
 7896SOL    HW234158   8.681   2.848   0.675  0.9164 -0.7174 -1.4721
 7897SOL     OW34159   2.935   6.955   3.072 -0.3002  0.7681 -0.5577
 7897SOL    HW134160   2.868   6.905   3.126  0.3658 -0.1841 -0.6114
 7897SOL    HW234161   3.024   6.951   3.116  0.1743  0.2720 -1.5393
 7898SOL     OW34162   1.140   0.285   3.182  0.6757 -0.5231  0.1768
 7898SOL    HW134163   1.111   0.305   3.276 -0.4566  0.8764 -0.4300
 7898SOL    HW234164   1.162   0.371   3.135  1.0076 -1.1831 -0.9009
 7899SOL     OW34165   9.654   8.115   0.699  0.2693 -0.1149 -0.0120
 7899SOL    HW134166   9.646   8.154   0.608 -0.8978  2.4816  1.1463
 7899SOL    HW234167   9.572   8.063   0.722 -0.8451  1.9228  0.7383
 7900SOL     OW34168   4.101   8.900   1.582  1.5226  0.0241  0.8366
 7900SOL    HW134169   4.073   8.984   1.629 -0.9021  0.0370 -0.5788
 7900SOL    HW234170   4.175   8.921   1.517  0.7368  1.1189  0.2852
 7901SOL     OW34171   4.768   1.062   3.671 -0.0802 -0.1405 -0.3366
 7901SOL    HW134172   4.793   0.991   3.736 -2.4264 -0.9705 -0.3250
 7901SOL    HW234173   4.801   1.037   3.580  0.1263 -0.6647 -0.1176
 7902SOL     OW34174   0.509   3.655   2.662  0.1361  0.0834  0.7156
 7902SOL    HW134175   0.433   3.684   2.604  0.3935 -1.8313 -0.6163
 7902SOL    HW234176   0.492   3.684   2.756 -1.3982  1.1851  0.1120
 7903SOL     OW34177   2.024   0.822   3.339  0.4845 -0.2081 -0.0693
 7903SOL    HW134178   1.940   0.776   3.366  0.1881  1.0628  1.2210
 7903SOL    HW234179   2.089   0.754   3.303 -1.1529 -1.1503 -1.2793
 7904SOL     OW34180   3.577   8.544   1.457 -0.6603 -0.6296 -0.5111
 7904SOL    HW134181   3.525   8.597   1.524  1.1413  0.6173 -0.0820
 7904SOL    HW234182   3.611   8.461   1.500 -0.8620 -0.6226 -0.3343
 7905SOL     OW34183   2.552   0.185   2.695 -0.3141  0.4134  0.2890
 7905SOL    HW134184   2.572   0.102   2.644 -0.8387  1.4835 -1.7012
 7905SOL    HW234185   2.561   0.265   2.635 -2.3380  1.5897  1.4833
 7906SOL     OW34186   9.053   3.964   1.770  0.0152  0.0907 -0.4627
 7906SOL    HW134187   9.143   3.961   1.814  0.5485 -2.6698 -1.6689
 7906SOL    HW234188   8.987   3.912   1.824  0.3599 -2.1806 -2.1615
 7907SOL     OW34189   2.704   9.322   2.979 -0.3252  0.5946 -0.1991
 7907SOL    HW134190   2.658   9.341   2.892 -1.6160 -1.3323  0.0304
 7907SOL    HW234191   2.635   9.303   3.049  0.7549 -3.0389 -0.0119
 7908SOL     OW34192   3.390   5.462   0.127 -0.7826  0.3958 -0.2044
 7908SOL    HW134193   3.462   5.416   0.073 -0.8773  2.2827 -2.0009
 7908SOL    HW234194   3.326   5.393   0.161  0.7557 -1.1181 -0.2478
 7909SOL     OW34195   1.456   8.417   2.732  0.0675 -0.1944 -0.1595
 7909SOL    HW134196   1.480   8.506   2.770  0.4290  0.3486 -1.6516
 7909SOL    HW234197   1.370   8.423   2.682  0.2726 -0.6053 -0.5666
 7910SOL     OW34198   8.201   1.587   1.982 -0.8975  0.2579  0.1438
 7910SOL    HW134199   8.220   1.615   2.076 -2.8162  0.0093  0.6270
 7910SOL    HW234200   8.115   1.628   1.952 -0.3512  0.2488 -1.4820
 7911SOL     OW34201   0.251   0.096   0.252  0.3357  0.0422  0.2549
 7911SOL    HW134202   0.278   0.006   0.287  1.4300 -0.2721 -1.3577
 7911SOL    HW234203   0.159   0.090   0.214  0.9711 -0.7806 -1.1941
 7912SOL     OW34204   0.546   9.955   2.960  0.2797 -0.2886 -0.2576
 7912SOL    HW134205   0.572   9.949   3.057  0.6563 -0.2079 -0.3527
 7912SOL    HW234206   0.613   9.907   2.904  1.2476  1.4908 -0.6691
 7913SOL     OW34207   7.583   8.914   2.180  0.0947 -0.1447 -0.3013
 7913SOL    HW134208   7.592   8.991   2.243  2.9373 -1.5490  1.1368
 7913SOL    HW234209   7.643   8.929   2.100  0.0584 -0.4917 -0.3942
 7914SOL     OW34210   2.927   1.050   2.767  0.1864  0.6781  0.4266
 7914SOL    HW134211   3.022   1.080   2.757  0.0561  1.2018  0.7639
 7914SOL    HW234212   2.867   1.130   2.776 -0.2328  0.3358  0.7098
 7915SOL     OW34213   2.976   1.812   2.033 -0.7489 -0.1303 -0.3330
 7915SOL    HW134214   2.906   1.816   2.104 -0.7745 -1.6157 -0.2770
 7915SOL    HW234215   2.974   1.723   1.989 -0.3176  0.5661 -1.7893
 7916SOL     OW34216   0.743   8.529   3.776 -0.5078  0.3305 -0.2433
 7916SOL    HW134217   0.675   8.600   3.762 -1.2353 -0.0774  1.1067
 7916SOL    HW234218   0.706   8.459   3.837  1.3777  0.5038  1.1538
 7917SOL     OW34219   4.782   8.993   1.764 -0.5020  0.0764  0.5538
 7917SOL    HW134220   4.798   8.926   1.836  3.6623  1.1054  0.7159
 7917SOL    HW234221   4.823   9.080   1.790 -1.9331  1.4220 -1.5798
 7918SOL     OW34222   1.122   4.910   2.537  0.2694 -0.1639  0.8018
 7918SOL    HW134223   1.105   4.960   2.623 -0.9171 -0.3662  0.6925
 7918SOL    HW234224   1.068   4.950   2.464 -0.6236 -1.5507  0.6887
 7919SOL     OW34225   1.182   1.171   3.747  0.0715  0.2703 -0.7595
 7919SOL    HW134226   1.276   1.188   3.718 -0.6697  1.4686 -2.5924
 7919SOL    HW234227   1.163   1.073   3.742  2.1687 -0.3717  2.7630
 7920SOL     OW34228   0.084   5.166   2.673  0.0318 -0.0157  0.0483
 7920SOL    HW134229   0.145   5.241   2.700  2.0646 -1.6553  0.1261
 7920SOL    HW234230   0.024   5.197   2.600  1.0280  1.6198 -0.1138
 7921SOL     OW34231   5.632   9.108   2.865  0.2913 -0.3954 -0.0279
 7921SOL    HW134232   5.675   9.177   2.806 -1.3882  0.5054 -0.2312
 7921SOL    HW234233   5.665   9.017   2.839  2.1743  0.2848 -0.0673
 7922SOL     OW34234   2.149   2.578   2.872 -0.0965  0.1286  0.5028
 7922SOL    HW134235   2.053   2.550   2.872 -0.4352  1.2352 -0.0700
 7922SOL    HW234236   2.201   2.523   2.937 -0.8643 -1.3299 -0.1113
 7923SOL     OW34237   0.037   8.320   0.849 -0.1849 -0.6417  0.4271
 7923SOL    HW134238   0.121   8.332   0.902 -0.1718 -1.9167  0.7212
 7923SOL    HW234239   0.055   8.340   0.753 -0.0468  1.0343  0.7878
 7924SOL     OW34240   8.289   6.796   2.594 -0.2774  0.2145  0.0080
 7924SOL    HW134241   8.204   6.839   2.564 -1.7899 -1.8396  1.1434
 7924SOL    HW234242   8.278   6.766   2.689  1.2645 -1.1786 -0.2367
 7925SOL     OW34243   7.860   9.454   1.373  0.5487  0.0303 -0.2590
 7925SOL    HW134244   7.823   9.403   1.451  0.5227  2.0492  1.0888
 7925SOL    HW234245   7.833   9.409   1.288 -1.1275 -1.0699  0.8206
 7926SOL     OW34246   9.816   6.616   1.539 -0.1653  0.1701 -0.0246
 7926SOL    HW134247   9.873   6.674   1.598  0.2141 -0.2284  0.0000
 7926SOL    HW234248   9.873   6.548   1.493 -0.6827 -0.5553  0.3832
 7927SOL     OW34249   0.609   5.916   4.037  0.0263 -0.2009 -0.1224
 7927SOL    HW134250   0.529   5.859   4.056 -0.5410  0.8524  0.7327
 7927SOL    HW234251   0.581   6.012   4.037  1.5150  0.2610  1.4731
 7928SOL     OW34252   9.729   6.270   3.474 -0.9009 -0.2703  0.1542
 7928SOL    HW134253   9.807   6.326   3.498  0.0341 -1.8142  0.7649
 7928SOL    HW234254   9.645   6.313   3.507 -0.2605  1.0484  0.0856
 7929SOL     OW34255   2.405   6.922   3.980  0.0115 -0.1274 -0.5035
 7929SOL    HW134256   2.481   6.873   4.023 -2.0154 -1.6568  1.4158
 7929SOL    HW234257   2.437   7.012   3.949  2.6706 -0.8738 -0.0285
 7930SOL     OW34258   3.848   8.826   1.476  0.8846 -0.1694 -0.1657
 7930SOL    HW134259   3.822   8.733   1.501  1.5485 -1.1002 -2.7387
 7930SOL    HW234260   3.936   8.849   1.517  1.2302 -1.0811 -0.3903
 7931SOL     OW34261   8.718   2.771   3.577  0.1796 -0.0117  0.1097
 7931SOL    HW134262   8.714   2.734   3.485  0.5042  1.5369 -0.5352
 7931SOL    HW234263   8.628   2.807   3.603 -0.1804 -1.3554  0.8024
 7932SOL     OW34264   3.781   7.175   1.184  0.1489  0.3842 -0.5705
 7932SOL    HW134265   3.805   7.204   1.277  0.0366  0.3636 -0.5351
 7932SOL    HW234266   3.701   7.225   1.153  0.7808  1.0976 -1.0368
 7933SOL     OW34267   1.367   5.932   2.921  0.3855  0.4292  0.0308
 7933SOL    HW134268   1.364   5.900   3.015  0.2562  1.0554  0.2432
 7933SOL    HW234269   1.311   5.872   2.863 -0.5785  0.7844  0.5759
 7934SOL     OW34270   8.983   4.916   3.683 -0.1150  0.0128  0.0275
 7934SOL    HW134271   8.899   4.923   3.735 -0.8937  0.5180 -1.2767
 7934SOL    HW234272   9.061   4.933   3.743 -1.0637  2.0143  0.7312
 7935SOL     OW34273   0.211   4.939   2.833 -0.1287 -0.3785  0.1453
 7935SOL    HW134274   0.305   4.942   2.799 -1.2371  1.4893 -3.0306
 7935SOL    HW234275   0.153   4.997   2.775 -3.1022 -0.8757  2.4921
 7936SOL     OW34276   0.746   3.948   2.008  0.4918 -0.0158 -0.6041
 7936SOL    HW134277   0.762   4.012   2.084  1.9729 -2.3880  1.1297
 7936SOL    HW234278   0.828   3.943   1.951  0.4203 -0.4528 -0.6678
 7937SOL     OW34279   9.514   4.637   1.231 -0.8089  0.5059  0.2467
 7937SOL    HW134280   9.424   4.633   1.188 -0.5085  0.9320 -0.4334
 7937SOL    HW234281   9.576   4.692   1.174  0.3682 -1.2417 -0.2081
 7938SOL     OW34282   9.611   1.151   0.211  1.2015 -0.5018 -0.1870
 7938SOL    HW134283   9.678   1.079   0.227  1.7544  0.0014 -0.2239
 7938SOL    HW234284   9.522   1.124   0.248  1.3786 -1.2541 -0.3190
 7939SOL     OW34285   4.055   2.793   0.851 -0.4443  0.1484 -0.2610
 7939SOL    HW134286   4.067   2.813   0.948  2.1128  0.0277 -0.5073
 7939SOL    HW234287   4.013   2.872   0.805  1.3640  1.5138  0.3687
 7940SOL     OW34288   2.582   9.994   2.879  0.0827  0.2526 -0.1227
 7940SOL    HW134289   2.584  10.067   2.811 -0.0257  0.1387 -0.2468
 7940SOL    HW234290   2.514   9.926   2.853  0.4403 -0.0779 -0.2006
 7941SOL     OW34291   4.204   3.012   1.961 -0.4381  0.2885  0.4921
 7941SOL    HW134292   4.291   3.043   1.999 -0.1261 -0.3034  0.2711
 7941SOL    HW234293   4.130   3.035   2.024  0.0893 -0.7873  1.5250
 7942SOL     OW34294   8.875   4.846   1.861  0.1020  0.0995 -0.1561
 7942SOL    HW134295   8.916   4.772   1.807  0.7177  1.0939 -1.0776
 7942SOL    HW234296   8.947   4.901   1.903 -0.3255  0.6640 -0.1544
 7943SOL     OW34297   8.165   0.957   1.986  0.3314 -0.0014  0.3249
 7943SOL    HW134298   8.264   0.961   1.972  0.3956 -0.5087  0.6117
 7943SOL    HW234299   8.141   1.005   2.070  0.3533 -0.0053  0.3337
 7944SOL     OW34300   4.359   2.710   3.958  0.0612 -0.0726  0.2745
 7944SOL    HW134301   4.291   2.665   3.901 -0.4596  0.3177  0.5849
 7944SOL    HW234302   4.415   2.641   4.005 -0.5254 -0.3922  0.5041
 7945SOL     OW34303   2.934   0.508   2.324  0.2592 -0.4063 -0.3757
 7945SOL    HW134304   2.945   0.593   2.375  0.2729 -0.8724  0.4069
 7945SOL    HW234305   3.022   0.461   2.317  0.2341 -0.4010 -0.7209
 7946SOL     OW34306   9.195   5.906   0.722  0.4613  0.7910 -0.1331
 7946SOL    HW134307   9.271   5.965   0.750  0.2682  0.7015  0.5746
 7946SOL    HW234308   9.108   5.953   0.739  0.3671  1.2641 -1.7766
 7947SOL     OW34309   7.459   8.518   3.652  0.3364  0.3423  0.7970
 7947SOL    HW134310   7.539   8.576   3.671  1.2820 -1.0644  1.2085
 7947SOL    HW234311   7.476   8.462   3.571 -0.6972  0.8395  0.2208
 7948SOL     OW34312   8.345   2.557   0.526 -0.0327  0.1222 -0.2922
 7948SOL    HW134313   8.434   2.597   0.505  0.0421 -0.1243 -0.4362
 7948SOL    HW234314   8.275   2.601   0.470  0.1860 -0.6375 -1.1713
 7949SOL     OW34315   3.087   8.355   2.051 -0.3363 -0.1357 -0.1499
 7949SOL    HW134316   3.165   8.404   2.089  0.6847 -0.5730 -1.6321
 7949SOL    HW234317   3.069   8.389   1.958 -0.9693 -1.0785 -0.3779
 7950SOL     OW34318   8.366   7.225   2.134 -0.0422 -0.1531  0.4510
 7950SOL    HW134319   8.313   7.194   2.212 -0.1712 -0.3027  0.3038
 7950SOL    HW234320   8.377   7.150   2.068 -1.4793  0.4863 -0.5278
 7951SOL     OW34321   8.784   2.895   3.933 -0.0957 -0.3398  0.0811
 7951SOL    HW134322   8.835   2.876   4.017 -1.8568  0.3424  1.3330
 7951SOL    HW234323   8.707   2.957   3.953 -0.1032  0.4366 -2.1673
 7952SOL     OW34324   4.245   2.194   0.754  0.0103 -0.0937  0.0638
 7952SOL    HW134325   4.161   2.181   0.700  0.1487 -0.2462 -0.1141
 7952SOL    HW234326   4.235   2.276   0.811  0.7469  1.4058 -1.8925
 7953SOL     OW34327   1.121   4.379   0.166  0.1875 -0.4989  0.1526
 7953SOL    HW134328   1.135   4.477   0.178  0.8092 -0.7228  1.2581
 7953SOL    HW234329   1.145   4.353   0.072  1.3835  0.1628  0.2719
 7954SOL     OW34330   2.997   4.807   1.392  0.2160 -0.0751  0.4644
 7954SOL    HW134331   3.021   4.904   1.393 -2.4475  0.6228  1.5290
 7954SOL    HW234332   2.902   4.797   1.363  0.0015 -2.2308  1.7873
 7955SOL     OW34333   1.438   8.742   1.533 -0.6490  0.5876 -0.3267
 7955SOL    HW134334   1.375   8.682   1.483 -0.7538  1.8692 -1.7542
 7955SOL    HW234335   1.388   8.788   1.606 -1.0469  0.5092 -0.5465
 7956SOL     OW34336   9.627   4.387   2.883  0.2780  0.1855 -0.3123
 7956SOL    HW134337   9.581   4.299   2.872  0.3107 -0.3026  2.9514
 7956SOL    HW234338   9.710   4.375   2.938  1.0866  2.0241 -1.0838
 7957SOL     OW34339   2.609   5.030   1.782 -0.1922  0.0838 -0.2842
 7957SOL    HW134340   2.557   4.945   1.790  0.7163 -0.2886  2.4331
 7957SOL    HW234341   2.616   5.073   1.872  0.9194  2.1059 -1.3004
 7958SOL     OW34342   4.119   7.058   2.778 -0.4531  0.2835  0.0865
 7958SOL    HW134343   4.122   7.140   2.836  0.1639  0.0674  0.3708
 7958SOL    HW234344   4.083   7.082   2.688  1.0908  1.1766 -0.3158
 7959SOL     OW34345   4.089   3.038   3.873 -0.3097 -0.2081 -0.3921
 7959SOL    HW134346   4.109   3.134   3.853 -1.8787 -0.0530 -1.3191
 7959SOL    HW234347   4.027   3.002   3.802  0.2497 -1.8917 -0.0406
 7960SOL     OW34348   9.281   4.684   1.120  0.2210 -0.2372  0.1300
 7960SOL    HW134349   9.202   4.706   1.178  0.4987 -0.8497  0.7570
 7960SOL    HW234350   9.250   4.662   1.028 -0.3978 -1.0571  0.5272
 7961SOL     OW34351   9.938   0.283   3.967 -0.3304 -0.2071 -0.0049
 7961SOL    HW134352  10.008   0.266   3.897  1.3850  1.4036  1.2550
 7961SOL    HW234353   9.869   0.344   3.930 -0.7850 -1.3361 -1.0757
 7962SOL     OW34354   3.688   9.200   2.699  0.2587  0.1585  0.1099
 7962SOL    HW134355   3.747   9.268   2.742  0.3435 -0.6019  1.2417
 7962SOL    HW234356   3.592   9.225   2.713  0.3063  0.8670 -0.8487
 7963SOL     OW34357   0.356   8.279   2.359  0.0242  0.4674  0.5335
 7963SOL    HW134358   0.414   8.328   2.423  0.0612  2.1079 -0.7044
 7963SOL    HW234359   0.394   8.288   2.266 -1.4526  0.4229 -0.0910
 7964SOL     OW34360   0.907   0.326   0.779  0.1925  0.6862 -0.3397
 7964SOL    HW134361   0.949   0.400   0.727 -1.0505  1.2019 -0.6436
 7964SOL    HW234362   0.958   0.241   0.765  0.6333  1.1113 -1.3419
 7965SOL     OW34363   1.464   5.136   1.007  0.2219 -0.1919 -0.0402
 7965SOL    HW134364   1.365   5.141   1.014  0.1887 -2.1131  1.1806
 7965SOL    HW234365   1.504   5.146   1.098  1.2007  1.2124 -0.6007
 7966SOL     OW34366   3.129   1.080   0.060 -0.3728  0.1260  0.2086
 7966SOL    HW134367   3.059   1.096   0.130 -0.7463  0.2025 -0.1835
 7966SOL    HW234368   3.155   0.983   0.062 -1.5472 -0.2228 -0.6260
 7967SOL     OW34369   9.895   2.791   0.252 -0.3940  0.1799  0.1730
 7967SOL    HW134370   9.948   2.781   0.169 -1.0628 -0.9703 -0.1338
 7967SOL    HW234371   9.808   2.835   0.231 -1.5129 -2.1085 -0.1543
 7968SOL     OW34372   8.198   6.717   3.358  0.2371 -0.3715  0.1208
 7968SOL    HW134373   8.161   6.669   3.438  0.7201  0.1097  0.6381
 7968SOL    HW234374   8.296   6.733   3.372 -0.1986  2.0370  0.5985
 7969SOL     OW34375   3.960   2.721   2.792  0.0178 -0.5051 -0.2400
 7969SOL    HW134376   3.908   2.780   2.853 -0.8785 -1.1745 -0.3370
 7969SOL    HW234377   3.897   2.658   2.745  0.8706 -1.0580 -0.6583
 7970SOL     OW34378   8.047   7.525   3.167 -0.2311  0.1645 -0.5101
 7970SOL    HW134379   8.075   7.614   3.201  0.3083 -0.8354  1.7793
 7970SOL    HW234380   8.123   7.461   3.173 -0.9712 -0.7719 -0.9192
 7971SOL     OW34381   3.439   2.496   1.150  1.0879  0.1994 -0.0753
 7971SOL    HW134382   3.365   2.436   1.119  1.6190  0.0501 -1.0657
 7971SOL    HW234383   3.413   2.591   1.133  1.9398  0.0769 -2.3299
 7972SOL     OW34384   2.084   7.777   2.247 -0.4274  0.1975  0.1842
 7972SOL    HW134385   2.088   7.851   2.313 -0.5122  0.5273 -0.1753
 7972SOL    HW234386   1.992   7.738   2.245  0.3357 -1.7888  2.3914
 7973SOL     OW34387   9.762   5.098   3.920  0.1212 -0.0585  0.3960
 7973SOL    HW134388   9.795   5.084   3.827 -0.9129  0.1710 -0.0160
 7973SOL    HW234389   9.758   5.197   3.939  0.2899 -0.1035  0.6711
 7974SOL     OW34390   1.299   8.729   2.044 -0.3695 -0.1588 -0.6667
 7974SOL    HW134391   1.350   8.649   2.077 -0.6223 -0.7122 -1.5869
 7974SOL    HW234392   1.352   8.777   1.975 -0.3526  0.2787 -0.3447
 7975SOL     OW34393   7.563   2.901   0.595 -0.0453  0.2228  0.7172
 7975SOL    HW134394   7.526   2.967   0.530  1.5783  1.3789  0.9086
 7975SOL    HW234395   7.503   2.822   0.601 -2.7865  2.3010  1.5425
 7976SOL     OW34396   3.369   0.630   1.964 -0.6583  0.4601 -0.4623
 7976SOL    HW134397   3.417   0.614   1.878 -0.9299 -0.6873 -0.4022
 7976SOL    HW234398   3.367   0.728   1.983 -0.6240  0.7286 -1.7795
 7977SOL     OW34399   9.933   9.811   1.289 -0.2603  0.0589  0.1192
 7977SOL    HW134400   9.967   9.718   1.272 -0.9610 -0.3251  0.7706
 7977SOL    HW234401   9.891   9.846   1.206 -1.6387 -0.9255  0.3784
 7978SOL     OW34402   8.815   1.164   3.602 -0.2387  0.1821  0.6260
 7978SOL    HW134403   8.738   1.108   3.572 -1.2317  0.9079  1.7496
 7978SOL    HW234404   8.805   1.257   3.567  0.9895 -0.1334 -0.5806
 7979SOL     OW34405   0.517   0.850   1.896  0.0741 -0.1082  0.3527
 7979SOL    HW134406   0.536   0.851   1.994  3.2213 -0.2179 -0.1869
 7979SOL    HW234407   0.552   0.765   1.856 -3.8869 -1.4715 -0.4368
 7980SOL     OW34408   2.210   2.007   0.672  0.1405  0.2692 -0.4428
 7980SOL    HW134409   2.226   2.062   0.590  1.3883  0.4394 -0.1004
 7980SOL    HW234410   2.298   1.980   0.712 -0.4167 -2.3862 -0.8795
 7981SOL     OW34411   3.795   9.754   2.415  0.4609  0.0879  0.1143
 7981SOL    HW134412   3.848   9.691   2.472  1.7854  1.4051  0.3662
 7981SOL    HW234413   3.773   9.836   2.468 -0.5035  0.2208 -0.4854
 7982SOL     OW34414   8.673   6.199   1.761 -1.2065  0.1143  0.1229
 7982SOL    HW134415   8.632   6.279   1.804 -0.0721 -0.6309  2.7103
 7982SOL    HW234416   8.609   6.122   1.766 -1.4911  0.3170 -0.4606
 7983SOL     OW34417   9.138   4.809   0.621 -0.1045 -0.6140  0.0641
 7983SOL    HW134418   9.113   4.724   0.576  0.2363  0.3372 -1.9499
 7983SOL    HW234419   9.187   4.868   0.557  1.8407  0.1049  2.1391
 7984SOL     OW34420   4.924   9.812   3.831  0.0646 -0.1574 -0.1910
 7984SOL    HW134421   4.863   9.740   3.798 -0.9184 -0.1862  1.6497
 7984SOL    HW234422   4.875   9.873   3.893  0.8367  2.2231 -1.8349
 7985SOL     OW34423   3.734   2.598   1.995 -0.1613 -0.1210  0.2113
 7985SOL    HW134424   3.720   2.548   2.081  0.1282  0.8621  0.8368
 7985SOL    HW234425   3.824   2.642   1.997  0.4337 -1.2235 -1.1723
 7986SOL     OW34426   2.400   0.365   0.309 -0.0956  0.0184  0.2031
 7986SOL    HW134427   2.440   0.431   0.373 -0.2436  0.6308 -0.3245
 7986SOL    HW234428   2.325   0.409   0.259  2.2647  0.6762 -2.9132
 7987SOL     OW34429   8.563   1.843   3.700 -0.8090 -0.2509  0.0315
 7987SOL    HW134430   8.591   1.935   3.673 -1.8149  0.2287  0.5541
 7987SOL    HW234431   8.479   1.818   3.652 -1.5055 -0.1825  1.1790
 7988SOL     OW34432   6.766   7.936   2.799 -0.3869 -0.0992  0.0898
 7988SOL    HW134433   6.824   7.958   2.720  0.5203 -0.8556  0.5194
 7988SOL    HW234434   6.674   7.914   2.768 -0.1645  0.0886 -0.7143
 7989SOL     OW34435   7.758   8.821   2.733  0.0536 -0.3334  0.0808
 7989SOL    HW134436   7.776   8.849   2.639  0.7272  0.5883  0.4747
 7989SOL    HW234437   7.833   8.763   2.765  1.6818  2.3180  1.2404
 7990SOL     OW34438   2.250   0.075   1.675  0.0145  0.2049  0.4526
 7990SOL    HW134439   2.280   0.049   1.766 -1.6044 -1.3254  0.5488
 7990SOL    HW234440   2.307   0.029   1.607 -1.7528 -2.3652  0.6455
 7991SOL     OW34441   8.261   0.356   1.548 -0.3816 -0.5496 -0.1368
 7991SOL    HW134442   8.338   0.413   1.522 -2.4371  1.6673 -1.6046
 7991SOL    HW234443   8.269   0.330   1.644  2.4149 -0.7861 -0.4037
 7992SOL     OW34444   2.113   6.940   2.697  0.1530 -0.3299  0.5599
 7992SOL    HW134445   2.067   6.981   2.775  0.1808  2.0301 -0.6309
 7992SOL    HW234446   2.045   6.899   2.636 -0.0077 -0.6168  0.9313
 7993SOL     OW34447   8.734   8.405   2.490 -0.0166 -0.1854 -0.0916
 7993SOL    HW134448   8.793   8.385   2.412 -0.1965  1.9058 -0.7972
 7993SOL    HW234449   8.638   8.396   2.463 -0.0955  1.1962 -0.3348
 7994SOL     OW34450   0.449   6.740   3.800  0.1290  0.4133  0.1601
 7994SOL    HW134451   0.455   6.677   3.722  1.2964  1.8012 -0.9048
 7994SOL    HW234452   0.541   6.764   3.831 -0.3260  0.1583  1.7533
 7995SOL     OW34453   1.810   7.384   2.700  0.0168  0.6413  0.3845
 7995SOL    HW134454   1.909   7.368   2.695 -0.2149 -0.7936  0.2321
 7995SOL    HW234455   1.790   7.478   2.672  1.4295  1.2491  1.3492
 7996SOL     OW34456   9.006   7.388   2.098  0.0358 -0.3991 -0.1898
 7996SOL    HW134457   9.089   7.343   2.066  0.5532 -0.1189  0.7482
 7996SOL    HW234458   8.995   7.373   2.196  0.4685  1.9105  0.2381
 7997SOL     OW34459   3.650   4.523   1.281 -0.1825 -0.8176  0.0375
 7997SOL    HW134460   3.575   4.485   1.227 -2.3518 -0.0919  2.4578
 7997SOL    HW234461   3.641   4.494   1.376 -0.5334  3.6205  1.4638
 7998SOL     OW34462   4.165   7.595   3.319  0.1335 -0.0638 -0.5173
 7998SOL    HW134463   4.067   7.613   3.327  0.2544  1.7716 -2.7402
 7998SOL    HW234464   4.216   7.667   3.366  0.4407  0.1214 -1.1256
 7999SOL     OW34465   0.743   7.261   0.977  0.6976  0.0910 -0.1868
 7999SOL    HW134466   0.759   7.177   0.925 -1.3277  0.4072 -1.3632
 7999SOL    HW234467   0.683   7.241   1.055  0.2990  0.4225 -0.4073
 8000SOL     OW34468   9.571   2.784   2.027 -0.3270 -0.0683 -0.1992
 8000SOL    HW134469   9.519   2.868   2.040 -0.5068 -0.0792 -0.8131
 8000SOL    HW234470   9.553   2.721   2.103 -1.7951 -0.3652 -0.7798
 8001SOL     OW34471   1.985   0.854   0.810  0.0535 -0.0952  0.3818
 8001SOL    HW134472   1.953   0.870   0.717  0.3250 -0.5284  0.2134
 8001SOL    HW234473   1.907   0.843   0.871 -0.1303  1.4483  0.4249
 8002SOL     OW34474   5.813   8.950   1.846  0.3731  0.0269  0.2878
 8002SOL    HW134475   5.913   8.946   1.841  0.3149  0.3257 -2.0835
 8002SOL    HW234476   5.784   9.045   1.836 -0.1288  0.0996  2.2381
 8003SOL     OW34477   3.503   3.018   2.675 -0.6992 -0.3121 -0.3320
 8003SOL    HW134478   3.452   2.955   2.734 -0.0496 -0.9027 -0.3957
 8003SOL    HW234479   3.502   2.983   2.581  0.4732 -0.7276 -0.1909
 8004SOL     OW34480   2.392   6.286   1.345 -0.5537 -0.1610  0.0532
 8004SOL    HW134481   2.340   6.369   1.364 -0.3357 -0.2910  1.2772
 8004SOL    HW234482   2.489   6.304   1.356 -0.4214 -0.2750 -0.8763
 8005SOL     OW34483   1.182   0.899   2.672 -0.6209  0.5712  0.7334
 8005SOL    HW134484   1.179   0.808   2.714 -0.8980  0.0791 -0.3337
 8005SOL    HW234485   1.182   0.890   2.573 -0.7715  1.7469  0.6156
 8006SOL     OW34486   3.493   1.315   0.141  0.2541  0.5201 -0.0941
 8006SOL    HW134487   3.500   1.334   0.239  1.4623  2.0218 -0.4413
 8006SOL    HW234488   3.397   1.321   0.112 -0.4272 -2.3174  1.4260
 8007SOL     OW34489   8.413   3.887   0.694 -0.3717  0.0180  0.0469
 8007SOL    HW134490   8.513   3.879   0.685 -0.4255  0.4830 -1.0805
 8007SOL    HW234491   8.370   3.805   0.658 -0.4068 -0.0800  0.3121
 8008SOL     OW34492   8.174   3.433   1.467 -0.4822  0.6667 -0.5947
 8008SOL    HW134493   8.223   3.435   1.379 -0.5755  0.4978 -0.6506
 8008SOL    HW234494   8.076   3.426   1.451 -0.5816  1.7554 -0.4949
 8009SOL     OW34495   0.751   8.333   0.911  0.4276  0.5801  0.3182
 8009SOL    HW134496   0.742   8.407   0.845 -2.4511  0.0949  0.0987
 8009SOL    HW234497   0.697   8.354   0.992 -0.7957 -1.4351  0.0729
 8010SOL     OW34498   4.023   1.831   2.351 -0.2957  0.2613 -0.5363
 8010SOL    HW134499   4.081   1.894   2.402 -1.0961  0.8330 -0.3373
 8010SOL    HW234500   4.071   1.802   2.268  0.2979  0.6820 -0.3430
 8011SOL     OW34501   0.962   4.212   2.877 -0.4163 -0.1330  0.4096
 8011SOL    HW134502   0.897   4.178   2.945 -0.9724 -1.2791 -0.6651
 8011SOL    HW234503   0.968   4.147   2.802 -0.2821  1.4306 -0.9511
 8012SOL     OW34504   1.576   8.158   2.474 -0.2743 -0.7592 -0.0034
 8012SOL    HW134505   1.525   8.145   2.559  0.8258 -0.0721  0.7642
 8012SOL    HW234506   1.653   8.219   2.490 -0.9149  0.5805 -1.8362
 8013SOL     OW34507   0.831   8.352   1.727  0.0228  0.1302  1.4527
 8013SOL    HW134508   0.777   8.436   1.734 -1.6718 -1.0098  2.4578
 8013SOL    HW234509   0.827   8.303   1.814 -1.5035 -2.4698 -0.0494
 8014SOL     OW34510   8.004   9.764   0.422  0.3319 -0.3443  0.2544
 8014SOL    HW134511   8.091   9.789   0.380  0.6705  0.2535  1.2844
 8014SOL    HW234512   7.981   9.831   0.493 -1.3226 -0.1073 -0.4949
 8015SOL     OW34513   1.331   1.551   3.340 -0.2198 -0.2933 -0.4772
 8015SOL    HW134514   1.263   1.612   3.380 -0.4956 -1.4966  0.9386
 8015SOL    HW234515   1.385   1.601   3.273  0.0523  1.7371  1.1863
 8016SOL     OW34516   9.650   0.614   2.308 -0.0556 -0.1037 -0.9849
 8016SOL    HW134517   9.704   0.530   2.301  1.8565  0.9668  0.4275
 8016SOL    HW234518   9.709   0.693   2.292 -0.8626  1.1699  1.9890
 8017SOL     OW34519   4.134   4.979   2.682  0.0500 -0.8331 -0.2988
 8017SOL    HW134520   4.185   4.995   2.598 -0.0235 -1.2268 -0.4175
 8017SOL    HW234521   4.174   5.033   2.756 -0.0292 -0.3025 -0.6368
 8018SOL     OW34522   0.754   2.930   1.571  0.2660 -0.4077  0.0719
 8018SOL    HW134523   0.704   2.915   1.656  0.2782 -0.0149  0.1468
 8018SOL    HW234524   0.797   2.844   1.543  0.8602 -0.3668  0.8422
 8019SOL     OW34525   8.389   1.461   3.305  0.1097 -0.2257 -0.3559
 8019SOL    HW134526   8.420   1.556   3.313  1.5975 -0.6800 -0.4966
 8019SOL    HW234527   8.384   1.420   3.396  1.1260 -0.5069 -0.4164
 8020SOL     OW34528   1.617   0.004   3.552  0.0562 -0.0217 -0.4325
 8020SOL    HW134529   1.631   0.006   3.651 -1.3080 -0.5133 -0.2203
 8020SOL    HW234530   1.631  -0.089   3.518  3.8083  0.7629 -1.2250
 8021SOL     OW34531   2.259   1.801   0.099  0.2918  0.1154 -0.2603
 8021SOL    HW134532   2.268   1.768   0.193  0.5495  0.0620 -0.3048
 8021SOL    HW234533   2.227   1.896   0.101  1.3048  0.4534 -0.0958
 8022SOL     OW34534   1.617   5.441   2.774 -0.3565 -0.8215 -0.2084
 8022SOL    HW134535   1.601   5.436   2.675  0.0051  2.3307 -0.4720
 8022SOL    HW234536   1.691   5.378   2.798  1.3238  0.2214 -2.4010
 8023SOL     OW34537   8.488   9.390   3.832 -0.3169 -0.1001  0.1112
 8023SOL    HW134538   8.535   9.382   3.919 -1.2982  0.8432  0.7395
 8023SOL    HW234539   8.416   9.458   3.839 -0.7898 -0.4355 -1.2719
 8024SOL     OW34540   9.915   1.265   2.693 -0.8870 -0.3085 -0.1608
 8024SOL    HW134541   9.903   1.285   2.596 -0.2697  0.9808  0.0131
 8024SOL    HW234542   9.990   1.321   2.730 -0.3009 -1.6793  0.7797
 8025SOL     OW34543   9.845   9.025   0.604 -0.1105 -0.0083  0.2656
 8025SOL    HW134544   9.905   9.077   0.544 -0.3410 -2.2154 -1.9574
 8025SOL    HW234545   9.896   8.995   0.684  1.0647  0.2673 -0.3710
 8026SOL     OW34546   3.617   4.083   0.784 -0.1162 -0.0766 -0.6111
 8026SOL    HW134547   3.539   4.145   0.767 -0.0287  0.1721 -0.1150
 8026SOL    HW234548   3.642   4.038   0.698 -0.4339  0.2824 -0.9002
 8027SOL     OW34549   1.069   5.276   2.084  0.0168 -0.0515 -0.8014
 8027SOL    HW134550   1.051   5.335   2.162 -0.1352  0.3610 -1.1480
 8027SOL    HW234551   1.158   5.232   2.096  1.4713  2.4704 -1.8969
 8028SOL     OW34552   1.610   3.006   0.927 -0.0228  0.5711  0.2306
 8028SOL    HW134553   1.517   3.020   0.961  0.1707  0.2440  0.9196
 8028SOL    HW234554   1.654   2.933   0.980 -0.1838 -0.9201 -1.6776
 8029SOL     OW34555   0.439   6.487   3.095  0.3685 -0.2072  0.4990
 8029SOL    HW134556   0.368   6.435   3.142 -0.6764  0.0152 -0.8095
 8029SOL    HW234557   0.508   6.517   3.161 -1.3141  0.4999  1.9750
 8030SOL     OW34558   3.392   2.203   0.802 -0.2805  0.2147 -0.3275
 8030SOL    HW134559   3.485   2.187   0.834 -0.6700 -1.1629  0.1498
 8030SOL    HW234560   3.387   2.292   0.756  1.5291 -0.2391 -1.4286
 8031SOL     OW34561   0.653   7.250   3.382  0.1386  0.0879 -0.3762
 8031SOL    HW134562   0.637   7.249   3.481  1.0052  1.9002 -0.2041
 8031SOL    HW234563   0.713   7.173   3.358 -0.2339 -0.4781  0.4752
 8032SOL     OW34564   4.201   2.865   1.361  0.5264  0.4148  0.4468
 8032SOL    HW134565   4.139   2.799   1.403 -0.6055  1.2154  0.0432
 8032SOL    HW234566   4.233   2.930   1.431  0.8787  0.0376  0.6413
 8033SOL     OW34567   4.417   3.365   3.779  0.4659 -0.1273  0.1628
 8033SOL    HW134568   4.405   3.281   3.831 -0.8401 -1.0066 -1.5141
 8033SOL    HW234569   4.503   3.361   3.728  1.1505  0.2280  1.2539
 8034SOL     OW34570   2.169   1.414   3.433 -0.3494  0.0410  0.0542
 8034SOL    HW134571   2.252   1.373   3.395  0.1115  0.8825  0.1350
 8034SOL    HW234572   2.120   1.463   3.360 -1.1522 -1.0492 -0.1490
 8035SOL     OW34573   3.179   1.793   3.699  1.1063  0.1158 -0.3880
 8035SOL    HW134574   3.161   1.828   3.608  1.0505  0.7787 -0.1262
 8035SOL    HW234575   3.173   1.693   3.699  1.2571  0.1097 -1.1371
 8036SOL     OW34576   1.695   7.408   0.342 -0.1563  0.6269 -0.1005
 8036SOL    HW134577   1.637   7.437   0.419 -0.4688  0.0510 -0.1176
 8036SOL    HW234578   1.637   7.369   0.270  0.1700  0.8569 -0.4863
 8037SOL     OW34579   2.279   6.757   2.847 -0.1581  0.5778 -0.0695
 8037SOL    HW134580   2.325   6.684   2.796  0.6120 -0.2082  1.7113
 8037SOL    HW234581   2.244   6.825   2.783 -0.3316 -1.0348 -1.7189
 8038SOL     OW34582   9.590   8.220   0.439 -0.2291 -0.1745 -0.1206
 8038SOL    HW134583   9.490   8.224   0.438 -0.2551 -0.5914  0.5204
 8038SOL    HW234584   9.622   8.163   0.364 -0.3741  1.6773 -1.6364
 8039SOL     OW34585   8.180   6.317   3.402 -0.2733  0.3664 -0.4447
 8039SOL    HW134586   8.134   6.317   3.314 -0.2166 -3.6839 -0.5976
 8039SOL    HW234587   8.145   6.241   3.457  3.9848 -0.9452  0.6114
 8040SOL     OW34588   2.732   4.872   0.502 -0.1345  0.3591  0.9391
 8040SOL    HW134589   2.794   4.927   0.446 -0.5402  0.4389  0.5687
 8040SOL    HW234590   2.746   4.775   0.481 -0.9336  0.4388  0.0287
 8041SOL     OW34591   9.855   1.381   1.269 -0.6219  0.5257 -0.6706
 8041SOL    HW134592   9.760   1.389   1.297 -0.2280  0.7508  0.6375
 8041SOL    HW234593   9.892   1.294   1.301 -0.4482  0.3457 -1.3574
 8042SOL     OW34594   8.813   3.805   3.325 -0.2759  0.1111 -0.2260
 8042SOL    HW134595   8.807   3.731   3.391  4.2572 -0.5709 -0.4784
 8042SOL    HW234596   8.907   3.836   3.316 -1.6800  4.4181 -1.8191
 8043SOL     OW34597   1.537   6.141   1.204 -0.0323  0.1266  0.6277
 8043SOL    HW134598   1.521   6.075   1.131 -0.7750  0.7172  0.2435
 8043SOL    HW234599   1.565   6.092   1.287 -1.1546 -0.7361  0.5209
 8044SOL     OW34600   3.085   2.967   1.731  0.2297  0.4337 -0.0948
 8044SOL    HW134601   3.079   3.027   1.811  0.8750 -0.4979  0.6602
 8044SOL    HW234602   3.080   3.022   1.648  0.0802  1.4622  0.5842
 8045SOL     OW34603   7.707   5.556   3.576  0.0750  0.0119 -0.5446
 8045SOL    HW134604   7.641   5.522   3.509 -1.6465  0.4193  0.9121
 8045SOL    HW234605   7.711   5.493   3.653  1.0824  0.2223 -0.4169
 8046SOL     OW34606   9.302   7.162   1.170 -0.3090  0.2627  0.1865
 8046SOL    HW134607   9.221   7.106   1.188  0.3432 -0.1695  1.8766
 8046SOL    HW234608   9.324   7.215   1.252  0.2912  1.4620 -0.7315
 8047SOL     OW34609   3.999   1.430   0.941 -0.1738  0.0791 -0.4724
 8047SOL    HW134610   3.928   1.360   0.945 -0.4165  0.3214 -0.5323
 8047SOL    HW234611   3.970   1.504   0.879  0.5930 -0.3378 -1.3473
 8048SOL     OW34612   2.744   2.962   3.139 -0.1790 -0.0457  0.1658
 8048SOL    HW134613   2.646   2.981   3.146  0.0704  0.8798  1.2866
 8048SOL    HW234614   2.779   2.933   3.228  0.1391 -2.5464 -0.7310
 8049SOL     OW34615   0.879   4.826   2.921  0.5339 -0.1956  0.6883
 8049SOL    HW134616   0.837   4.735   2.920  1.1709 -0.5025  1.3318
 8049SOL    HW234617   0.947   4.830   2.994  0.3914  0.8549  0.7649
 8050SOL     OW34618   2.978   7.526   2.788 -0.0074 -0.6606  0.1677
 8050SOL    HW134619   2.930   7.441   2.808 -1.1081  0.0831  0.7815
 8050SOL    HW234620   2.989   7.579   2.872  0.4392 -0.0828 -0.2473
 8051SOL     OW34621   1.946   0.708   0.085  0.3085 -0.3554 -0.0761
 8051SOL    HW134622   2.014   0.778   0.064 -1.3418  1.1263 -0.5460
 8051SOL    HW234623   1.857   0.736   0.050 -0.4142 -2.6300 -0.1452
 8052SOL     OW34624   3.815   2.214   0.426 -0.4288 -0.1627  0.0250
 8052SOL    HW134625   3.895   2.191   0.371  0.7543  1.2733  1.1242
 8052SOL    HW234626   3.742   2.248   0.366  0.4093  0.2229 -0.7891
 8053SOL     OW34627   3.769   6.280   2.312 -0.2327 -0.1532  0.1354
 8053SOL    HW134628   3.837   6.337   2.265 -1.3138  0.9910 -0.0759
 8053SOL    HW234629   3.690   6.266   2.253 -0.2276 -1.3996  0.4157
 8054SOL     OW34630   2.217   5.868   2.405 -0.4320  0.1726  0.5214
 8054SOL    HW134631   2.266   5.953   2.423  0.6183 -0.4954  0.8812
 8054SOL    HW234632   2.226   5.843   2.309 -0.2501  0.1705  0.5391
 8055SOL     OW34633   2.125   0.477   0.182  0.1743  0.2493  0.7674
 8055SOL    HW134634   2.135   0.509   0.088 -2.1792  2.1503  1.1441
 8055SOL    HW234635   2.157   0.547   0.245  0.2175 -0.3889  1.4673
 8056SOL     OW34636   3.846   1.408   4.006 -0.4420  0.9111 -0.0589
 8056SOL    HW134637   3.849   1.502   3.973  1.8499  0.6504 -0.6704
 8056SOL    HW234638   3.893   1.403   4.094 -1.7157  0.5792  0.6030
 8057SOL     OW34639   3.911   7.245   1.526 -0.0221 -0.3060  0.3022
 8057SOL    HW134640   3.824   7.271   1.485  0.2996  0.0269 -0.1840
 8057SOL    HW234641   3.896   7.212   1.619 -0.5222  1.0527  0.7249
 8058SOL     OW34642   0.136   4.630   0.474  0.0327  0.3571 -0.1191
 8058SOL    HW134643   0.114   4.548   0.421  1.2566 -0.6291  0.8503
 8058SOL    HW234644   0.226   4.664   0.448 -1.0849  2.2940 -1.5711
 8059SOL     OW34645   7.027   9.908   2.736 -0.0303  0.1175 -0.5721
 8059SOL    HW134646   6.977   9.950   2.811 -0.2290 -1.4232  0.1719
 8059SOL    HW234647   6.972   9.835   2.695  2.1072 -2.6024  1.2099
 8060SOL     OW34648   3.465   4.330   3.370  0.3461  0.4697 -0.1816
 8060SOL    HW134649   3.452   4.380   3.284  1.2057  1.0379  0.0159
 8060SOL    HW234650   3.457   4.232   3.353 -0.6249  0.6336 -0.7079
 8061SOL     OW34651   9.887   3.289   3.793  0.0206  0.0164  0.1616
 8061SOL    HW134652   9.907   3.212   3.853 -0.7979  0.6284  1.2385
 8061SOL    HW234653   9.833   3.357   3.843 -0.2846  0.7418 -1.1375
 8062SOL     OW34654   3.507   5.075   2.350  0.3100 -0.2043 -0.5106
 8062SOL    HW134655   3.457   5.161   2.360  1.0269  0.2267 -0.6054
 8062SOL    HW234656   3.562   5.078   2.266 -1.5762 -1.7205 -1.8545
 8063SOL     OW34657   4.373   2.309   1.603  0.3736 -0.0557  0.2756
 8063SOL    HW134658   4.352   2.292   1.506 -0.6634  0.4645  0.3943
 8063SOL    HW234659   4.414   2.227   1.643  0.8111 -0.2772 -0.6063
 8064SOL     OW34660   8.449   8.426   2.313  0.2499 -0.0978 -0.3737
 8064SOL    HW134661   8.420   8.337   2.277  0.1850 -0.8691  1.5339
 8064SOL    HW234662   8.371   8.472   2.355  0.1908  1.0640 -1.7152
 8065SOL     OW34663   1.943   9.659   0.800  0.2185  0.5245 -0.1417
 8065SOL    HW134664   1.959   9.596   0.724 -0.7940  1.3238 -1.0291
 8065SOL    HW234665   1.884   9.733   0.770 -0.9907  0.3317  1.6831
 8066SOL     OW34666   4.408   7.741   1.793  0.0563  0.3194  0.0131
 8066SOL    HW134667   4.474   7.695   1.852 -0.9420 -0.8572  0.2407
 8066SOL    HW234668   4.344   7.793   1.850 -0.9974 -0.9358 -0.0006
 8067SOL     OW34669   3.110   1.505   3.754 -0.6268 -0.1166 -0.1636
 8067SOL    HW134670   3.139   1.419   3.712  0.1976  0.4886 -0.8498
 8067SOL    HW234671   3.047   1.486   3.829 -0.1007 -1.3462 -0.0244
 8068SOL     OW34672   8.598   9.373   2.659 -0.4519  0.1176  0.2172
 8068SOL    HW134673   8.632   9.445   2.600 -0.3568 -0.4426 -0.4158
 8068SOL    HW234674   8.622   9.393   2.754 -0.4387  0.9194  0.0449
 8069SOL     OW34675   2.988   5.012   3.837  0.6545 -0.0329  0.1999
 8069SOL    HW134676   3.003   5.033   3.740  1.3305 -0.3271  0.2387
 8069SOL    HW234677   3.004   4.915   3.852  0.8178  0.0677  0.6633
 8070SOL     OW34678   0.080   8.427   3.662 -0.4064  0.0138 -0.0774
 8070SOL    HW134679   0.157   8.487   3.641 -0.2312 -1.0340 -2.5151
 8070SOL    HW234680   0.061   8.367   3.585 -2.1527 -1.4140  1.3934
 8071SOL     OW34681   6.332   7.789   3.063 -0.6037  0.0069 -0.8386
 8071SOL    HW134682   6.300   7.699   3.036  0.8778 -0.5673 -0.7358
 8071SOL    HW234683   6.291   7.859   3.004 -1.1461 -0.7924 -1.4126
 8072SOL     OW34684   1.512   0.098   1.304 -0.6812 -0.4524  0.0335
 8072SOL    HW134685   1.481   0.013   1.348 -0.5153 -1.6397 -2.0930
 8072SOL    HW234686   1.611   0.093   1.289 -0.5734  0.3836  0.4542
 8073SOL     OW34687   3.204   4.677   2.813  0.3295 -0.0399 -0.2257
 8073SOL    HW134688   3.106   4.686   2.829  0.5634  1.8600  0.1825
 8073SOL    HW234689   3.222   4.683   2.715  0.0036 -0.9766 -0.3567
 8074SOL     OW34690   1.999   8.587   0.191  0.8287 -0.2670 -0.1818
 8074SOL    HW134691   1.997   8.558   0.095  0.6621 -1.7851  0.2647
 8074SOL    HW234692   1.959   8.515   0.248  1.8215  0.1998  1.1310
 8075SOL     OW34693   6.501   8.879   2.603 -0.5082  0.2794  0.6921
 8075SOL    HW134694   6.458   8.927   2.527 -0.8383 -0.5082  0.3782
 8075SOL    HW234695   6.597   8.905   2.609 -0.0185 -0.9974 -1.1217
 8076SOL     OW34696   8.959   3.507   0.793 -0.1043  0.2137 -0.2193
 8076SOL    HW134697   8.919   3.579   0.849  0.2695  0.6260 -0.4854
 8076SOL    HW234698   9.040   3.542   0.745 -0.5859 -0.0489 -1.2423
 8077SOL     OW34699   0.938   4.971   3.670 -0.8068 -0.3058  0.3623
 8077SOL    HW134700   1.003   4.967   3.595 -1.8325 -1.6215 -0.4747
 8077SOL    HW234701   0.845   4.982   3.635 -1.1303  0.7779  1.5072
 8078SOL     OW34702   2.777   1.367   3.455  0.4650 -0.1884  0.7840
 8078SOL    HW134703   2.747   1.463   3.456  0.3172 -0.2348  0.7987
 8078SOL    HW234704   2.697   1.307   3.450  0.6419 -0.2703 -1.5512
 8079SOL     OW34705   1.639   1.594   3.630 -0.2027  0.4773  0.1292
 8079SOL    HW134706   1.599   1.665   3.572 -1.1204 -1.1220 -1.2414
 8079SOL    HW234707   1.683   1.636   3.709 -0.4214  2.5861 -0.8460
 8080SOL     OW34708   0.124   0.076   3.869  0.2544 -0.1315 -0.4785
 8080SOL    HW134709   0.185   0.149   3.899  0.7905 -0.5636 -0.5135
 8080SOL    HW234710   0.177   0.002   3.828 -0.1424 -1.1678  0.8330
 8081SOL     OW34711   4.053   2.654   1.721 -0.1063  0.7120  0.2507
 8081SOL    HW134712   4.059   2.612   1.630 -0.9168  1.9517 -0.3831
 8081SOL    HW234713   4.067   2.583   1.790 -0.8411 -0.5135 -0.8145
 8082SOL     OW34714   8.448   9.351   3.572 -0.5246 -0.2535  0.8849
 8082SOL    HW134715   8.484   9.356   3.665 -1.4478  2.9018  1.1643
 8082SOL    HW234716   8.348   9.345   3.575 -0.5124 -0.9334  0.1116
 8083SOL     OW34717   0.272   2.245   3.835 -0.5594 -0.0043  0.5386
 8083SOL    HW134718   0.212   2.270   3.911 -1.7135 -0.3398 -0.2595
 8083SOL    HW234719   0.275   2.145   3.827 -2.2008  0.0536 -1.2267
 8084SOL     OW34720   4.028   2.204   1.799 -0.3408 -0.6539 -0.1813
 8084SOL    HW134721   4.093   2.161   1.736  1.7843  1.2417  0.6364
 8084SOL    HW234722   3.962   2.259   1.748  0.1640 -0.7047 -0.8903
 8085SOL     OW34723   2.742   1.497   1.558  0.6852  0.3013  0.2074
 8085SOL    HW134724   2.792   1.493   1.472  1.3096  0.7955  0.5405
 8085SOL    HW234725   2.721   1.593   1.580  1.6831  0.2801  1.2628
 8086SOL     OW34726   0.975   1.341   3.637  0.4138  0.0859  0.1298
 8086SOL    HW134727   0.909   1.270   3.611  1.6929 -1.0600  0.0100
 8086SOL    HW234728   1.049   1.301   3.691 -0.2350  1.7931  2.3758
 8087SOL     OW34729   3.180   9.361   3.953  0.0188  0.4730 -0.0668
 8087SOL    HW134730   3.154   9.267   3.933  3.7485 -0.9486  1.4677
 8087SOL    HW234731   3.239   9.395   3.880  0.2860  0.9381  0.3640
 8088SOL     OW34732   3.447   4.283   0.656 -0.5962  0.3467  0.0152
 8088SOL    HW134733   3.431   4.339   0.738 -2.1706 -0.2962  0.1707
 8088SOL    HW234734   3.386   4.313   0.583 -1.3084 -0.9969  0.0317
 8089SOL     OW34735   9.396   3.413   3.216  0.1154 -0.0328  0.4247
 8089SOL    HW134736   9.450   3.330   3.200 -2.1971 -1.4289 -0.4510
 8089SOL    HW234737   9.341   3.401   3.299  0.5907  1.0867  0.9120
 8090SOL     OW34738   7.852   9.646   2.571  0.4129 -0.2807 -0.0609
 8090SOL    HW134739   7.801   9.732   2.571 -0.1326 -0.5852  1.2489
 8090SOL    HW234740   7.789   9.570   2.588  1.0707 -0.8163 -0.0082
 8091SOL     OW34741   9.251   7.046   0.223 -0.3524  1.0213  0.1051
 8091SOL    HW134742   9.325   6.992   0.183 -1.2762  0.2527 -0.5970
 8091SOL    HW234743   9.276   7.074   0.315  0.5572  0.2310  0.1063
 8092SOL     OW34744   1.727   6.926   2.691  0.1477 -0.2091 -0.3986
 8092SOL    HW134745   1.689   7.014   2.721 -1.2721 -0.5559 -1.1589
 8092SOL    HW234746   1.789   6.891   2.761  3.3183  2.9594 -1.4485
 8093SOL     OW34747   9.460   9.703   2.607  0.0973 -0.0556  0.2199
 8093SOL    HW134748   9.390   9.672   2.543  0.3044 -0.1812  0.0562
 8093SOL    HW234749   9.482   9.629   2.671 -1.5414  0.6819  1.6881
 8094SOL     OW34750   9.630   5.829   3.603  0.5377  0.1929 -0.3398
 8094SOL    HW134751   9.593   5.896   3.539  0.8340  0.4358 -0.2576
 8094SOL    HW234752   9.588   5.842   3.693  1.6731  1.2301  0.0510
 8095SOL     OW34753   1.967   5.175   3.489  0.2519  0.1529 -0.7987
 8095SOL    HW134754   2.057   5.216   3.500 -0.0025  0.8157 -1.1594
 8095SOL    HW234755   1.921   5.216   3.410 -1.3062  1.4945  0.7645
 8096SOL     OW34756   9.160   5.857   3.218 -0.9587 -0.7856  0.3054
 8096SOL    HW134757   9.060   5.853   3.221 -1.1101  1.6465 -0.2436
 8096SOL    HW234758   9.189   5.884   3.126  0.0579  1.3943  1.2402
 8097SOL     OW34759   0.291   9.689   1.514 -0.1111 -0.3698  0.4835
 8097SOL    HW134760   0.240   9.660   1.595  0.7752  0.2511  1.2780
 8097SOL    HW234761   0.376   9.734   1.542  0.8159 -1.2737 -0.8099
 8098SOL     OW34762   1.008   4.471   1.970  0.2668 -0.6446  0.4531
 8098SOL    HW134763   0.923   4.432   1.935  0.0364 -2.0609  2.5161
 8098SOL    HW234764   1.072   4.486   1.894 -1.9739  0.9052 -1.1786
 8099SOL     OW34765   9.410   3.105   0.064  0.2876 -0.4163  0.3683
 8099SOL    HW134766   9.314   3.086   0.042  0.3650  0.2463 -0.5491
 8099SOL    HW234767   9.450   3.162  -0.007  1.7252 -1.7172  0.1236
 8100SOL     OW34768   2.921   5.580   0.095 -0.2520 -0.0586 -0.6970
 8100SOL    HW134769   2.970   5.509   0.146 -1.2689  0.3875  0.9291
 8100SOL    HW234770   2.954   5.670   0.124 -0.5990  0.1913 -1.0763
 8101SOL     OW34771   3.046   7.980   3.540  0.3485  0.0888 -0.0791
 8101SOL    HW134772   3.034   7.890   3.583  0.4336  0.1433  0.0596
 8101SOL    HW234773   3.084   8.044   3.607  1.3385 -0.0620 -0.4874
 8102SOL     OW34774   4.582   7.891   3.463 -0.4777 -0.0312  0.1946
 8102SOL    HW134775   4.644   7.815   3.445 -0.9940  0.0343 -1.9252
 8102SOL    HW234776   4.631   7.977   3.451  0.9643  0.0950  5.5014
 8103SOL     OW34777   8.380   6.159   2.600  0.3315  0.1259 -0.1226
 8103SOL    HW134778   8.454   6.125   2.659 -0.6226  0.2551  1.1734
 8103SOL    HW234779   8.417   6.227   2.537  1.3945 -0.0530  0.2946
 8104SOL     OW34780   8.303   7.803   3.183 -0.3003  0.4828 -0.0873
 8104SOL    HW134781   8.346   7.876   3.236 -0.3189  0.3571  0.1013
 8104SOL    HW234782   8.204   7.812   3.187 -0.3314 -0.0576  0.6671
 8105SOL     OW34783   1.837   5.449   3.814 -0.5309 -0.5576  0.5334
 8105SOL    HW134784   1.924   5.399   3.817 -0.5260 -0.5557  0.4294
 8105SOL    HW234785   1.816   5.485   3.905  0.9345  1.7910 -0.0252
 8106SOL     OW34786   4.087   8.894   3.528 -0.4130  0.2509 -0.6138
 8106SOL    HW134787   4.082   8.847   3.440  0.2362 -0.2331 -0.4010
 8106SOL    HW234788   4.085   8.993   3.515  1.5355  0.2080 -1.2971
 8107SOL     OW34789   8.926   5.275   2.327  0.3118 -0.4451  0.3070
 8107SOL    HW134790   8.827   5.261   2.332  0.4043 -1.5443 -0.7436
 8107SOL    HW234791   8.945   5.362   2.282 -0.1780 -0.3225  0.3355
 8108SOL     OW34792   7.101   9.832   1.892 -0.1703 -0.7133 -0.5159
 8108SOL    HW134793   7.021   9.773   1.878 -0.0083 -0.9227 -0.5653
 8108SOL    HW234794   7.140   9.814   1.982 -2.3593  2.0023  1.0298
 8109SOL     OW34795   4.770   1.595   1.346 -0.1313 -0.5035  0.0714
 8109SOL    HW134796   4.847   1.585   1.409  0.2782  1.5377 -0.0733
 8109SOL    HW234797   4.685   1.604   1.399  0.1109  0.3456  0.3309
 8110SOL     OW34798   6.078   8.709   3.041 -0.6469  0.3332  0.4039
 8110SOL    HW134799   6.173   8.680   3.027 -0.9240 -0.0132 -0.7717
 8110SOL    HW234800   6.074   8.770   3.121  0.5707  0.4021  0.4280
 8111SOL     OW34801   2.972   7.126   2.602  0.1126 -0.3746  0.0098
 8111SOL    HW134802   2.957   7.053   2.669 -1.9776  0.5023  0.5270
 8111SOL    HW234803   2.945   7.213   2.641  0.4089  0.3770 -1.4345
 8112SOL     OW34804   1.828   5.773   1.634  0.5024 -0.0241  0.5714
 8112SOL    HW134805   1.892   5.789   1.709  0.3711 -0.4341  0.7723
 8112SOL    HW234806   1.769   5.853   1.622 -1.6563 -1.1566  3.0248
 8113SOL     OW34807   9.797   0.676   0.220  0.3678  0.1516  0.0066
 8113SOL    HW134808   9.850   0.623   0.287  0.1489  3.2932  2.8197
 8113SOL    HW234809   9.709   0.633   0.206  1.9301 -2.7266 -1.3418
 8114SOL     OW34810   4.199   0.309   3.256 -0.1756  0.9153 -0.0588
 8114SOL    HW134811   4.242   0.360   3.183  0.1499  1.8870  0.8032
 8114SOL    HW234812   4.237   0.216   3.259  1.9229  1.7729  0.7385
 8115SOL     OW34813   0.511   0.031   2.408 -0.0580 -0.5795 -0.0398
 8115SOL    HW134814   0.585  -0.004   2.465 -0.5739 -0.3509  0.7847
 8115SOL    HW234815   0.547   0.102   2.347  0.1682  0.4290  1.2416
 8116SOL     OW34816   3.872   0.489   1.762  0.3210  0.2706  0.5431
 8116SOL    HW134817   3.840   0.458   1.851 -1.0523 -0.0073 -0.0319
 8116SOL    HW234818   3.947   0.554   1.775  0.8266 -0.5527  1.8557
 8117SOL     OW34819   5.088   0.423   2.292 -0.3424 -0.1569  0.0157
 8117SOL    HW134820   5.175   0.376   2.306 -0.0899  0.1741 -0.4745
 8117SOL    HW234821   5.084   0.462   2.201 -1.3456 -0.8797 -0.2649
 8118SOL     OW34822   2.874   5.700   1.291 -0.1914  0.3290 -0.7517
 8118SOL    HW134823   2.910   5.756   1.216  1.5346  0.8074  0.4170
 8118SOL    HW234824   2.775   5.689   1.280 -0.0755  1.0428 -2.6708
 8119SOL     OW34825   6.488   8.868   3.327  0.1040  0.2853  0.7891
 8119SOL    HW134826   6.558   8.798   3.319  0.9104  0.9797  1.5803
 8119SOL    HW234827   6.531   8.958   3.329 -0.7924  0.7134  1.5046
 8120SOL     OW34828   0.932   1.415   2.087 -0.0680  0.0157  0.4761
 8120SOL    HW134829   0.893   1.340   2.033 -0.2157 -1.9189  3.1389
 8120SOL    HW234830   0.867   1.491   2.090 -1.2684 -0.9760  0.2386
 8121SOL     OW34831   8.031   5.743   1.264  0.2967  0.1615  0.0879
 8121SOL    HW134832   8.002   5.657   1.222 -2.9180  1.0293  0.3613
 8121SOL    HW234833   8.039   5.814   1.194  3.2974 -0.3942 -0.1894
 8122SOL     OW34834   1.015   6.542   3.336  0.4564 -0.2033 -0.1303
 8122SOL    HW134835   1.012   6.629   3.386  3.0638 -0.9027  1.3159
 8122SOL    HW234836   1.078   6.550   3.259 -0.3225 -0.4438 -0.8061
 8123SOL     OW34837   0.040   4.494   3.628  0.2416  0.3084 -0.1947
 8123SOL    HW134838   0.130   4.456   3.649  0.0785 -0.9220 -1.6324
 8123SOL    HW234839  -0.029   4.422   3.638 -0.0189  0.0610 -3.4695
 8124SOL     OW34840   3.248   6.078   1.966  0.4777 -0.3561  0.1458
 8124SOL    HW134841   3.203   6.166   1.948  1.9041  0.1687 -0.9919
 8124SOL    HW234842   3.185   6.017   2.014 -0.7180  1.0948  0.4568
 8125SOL     OW34843   9.159   4.500   3.174  0.2669 -0.1454 -0.6187
 8125SOL    HW134844   9.185   4.405   3.159 -3.3727 -1.5519  1.2885
 8125SOL    HW234845   9.092   4.528   3.105 -0.2270  0.3517  0.0522
 8126SOL     OW34846   4.421   7.895   1.260 -0.2503 -0.3188  0.0499
 8126SOL    HW134847   4.329   7.899   1.221  0.1446 -2.2042 -1.1022
 8126SOL    HW234848   4.445   7.800   1.281  1.7711  0.0482 -0.4816
 8127SOL     OW34849   4.285   9.790   3.193 -0.4637 -0.5294 -0.2423
 8127SOL    HW134850   4.290   9.772   3.095 -0.9683 -0.7330 -0.2322
 8127SOL    HW234851   4.262   9.705   3.241 -2.2142 -0.0110 -0.1355
 8128SOL     OW34852   8.574   3.345   1.599  0.0285  0.3464  0.3391
 8128SOL    HW134853   8.660   3.337   1.650 -0.6310 -1.4310  1.1749
 8128SOL    HW234854   8.595   3.346   1.501  1.0758  0.9947  0.5514
 8129SOL     OW34855   1.681   7.115   1.596 -0.6794  0.1561  0.3600
 8129SOL    HW134856   1.747   7.175   1.551 -1.1079 -0.4692 -1.1130
 8129SOL    HW234857   1.593   7.120   1.549 -1.2412 -0.2026  1.3637
 8130SOL     OW34858   8.049   1.362   2.775 -0.0491  0.5338 -0.1620
 8130SOL    HW134859   8.113   1.328   2.706  0.6618  0.6203  0.4504
 8130SOL    HW234860   7.958   1.325   2.757  0.4176 -0.5316 -0.3492
 8131SOL     OW34861   3.518   7.122   1.685 -0.0680 -0.2125 -0.3654
 8131SOL    HW134862   3.617   7.136   1.680  0.1851 -1.6743  0.2490
 8131SOL    HW234863   3.477   7.139   1.595  0.7008  0.6564 -0.5532
 8132SOL     OW34864   9.325   9.454   3.468 -0.2966  0.4292 -0.2538
 8132SOL    HW134865   9.394   9.499   3.411 -0.7033 -0.2460 -1.2891
 8132SOL    HW234866   9.241   9.509   3.468 -0.3473  0.3511 -0.4271
 8133SOL     OW34867   5.375   0.533   1.608  0.4764  0.2817 -0.3478
 8133SOL    HW134868   5.350   0.440   1.582  0.2831 -0.5711  2.6386
 8133SOL    HW234869   5.475   0.540   1.614  0.4479 -0.2180  0.9516
 8134SOL     OW34870   9.446   2.239   0.103  0.5575  0.3103  0.1368
 8134SOL    HW134871   9.495   2.155   0.125 -0.1893  0.0850  0.9502
 8134SOL    HW234872   9.440   2.296   0.185  0.5477  0.8957 -0.2685
 8135SOL     OW34873   2.258   6.512   3.885 -0.3252  0.6480  0.0389
 8135SOL    HW134874   2.200   6.488   3.807 -2.6433  0.7500  1.6807
 8135SOL    HW234875   2.205   6.502   3.969  2.3855 -0.2761  1.6768
 8136SOL     OW34876   8.828   8.882   3.903  0.1666 -0.4153  0.4246
 8136SOL    HW134877   8.736   8.919   3.885  1.3178  2.4226  0.1095
 8136SOL    HW234878   8.877   8.871   3.816  1.3785  1.5636  0.8233
 8137SOL     OW34879   8.113   5.838   3.863 -0.1391 -0.1594  0.1634
 8137SOL    HW134880   8.114   5.875   3.956 -0.7114  2.0526 -0.6771
 8137SOL    HW234881   8.036   5.776   3.853 -0.4169  0.0466  1.0122
 8138SOL     OW34882   0.669   6.535   0.117 -0.0545 -0.1771 -0.1551
 8138SOL    HW134883   0.622   6.509   0.032  0.3977 -0.1132 -0.4268
 8138SOL    HW234884   0.618   6.499   0.195 -1.7025  1.6650 -0.3478
 8139SOL     OW34885   4.791   0.885   2.614 -0.0538  0.1770  0.2726
 8139SOL    HW134886   4.788   0.788   2.592  0.6967  0.1214  0.4037
 8139SOL    HW234887   4.858   0.901   2.686 -0.7987  0.6766  0.8689
 8140SOL     OW34888   8.062   9.932   1.087 -0.3305  0.4428 -0.2683
 8140SOL    HW134889   8.089   9.849   1.038 -0.1073  0.0764  0.4697
 8140SOL    HW234890   8.040   9.909   1.182 -1.5267  1.0200 -0.3935
 8141SOL     OW34891   3.660   0.679   3.801 -0.5472 -0.0188  0.3609
 8141SOL    HW134892   3.748   0.686   3.847 -0.1211 -0.2533 -0.4176
 8141SOL    HW234893   3.664   0.727   3.714 -1.9350  2.1152  1.4129
 8142SOL     OW34894   7.809   1.019   0.699 -0.1809  0.0548  0.1502
 8142SOL    HW134895   7.782   0.931   0.739  0.1049  0.1108  0.4585
 8142SOL    HW234896   7.824   1.086   0.771 -2.1835  0.8745 -0.1414
 8143SOL     OW34897   3.569   2.830   3.849  0.0355 -0.3404  0.1908
 8143SOL    HW134898   3.654   2.853   3.801  0.4081  1.7055  1.7677
 8143SOL    HW234899   3.578   2.853   3.946 -2.4429  0.2830  0.3179
 8144SOL     OW34900   2.660   5.553   0.226  0.4155  0.0357  0.1235
 8144SOL    HW134901   2.623   5.470   0.182  0.8155  1.1078 -2.3073
 8144SOL    HW234902   2.760   5.550   0.223  0.4514 -0.1811  1.5578
 8145SOL     OW34903   9.982   2.674   2.310  0.1199  0.6688  0.1473
 8145SOL    HW134904  10.065   2.635   2.351 -0.3462  0.2012  0.6635
 8145SOL    HW234905  10.005   2.723   2.226  0.8176 -0.0962 -0.1073
 8146SOL     OW34906   9.386   5.960   3.968 -0.0525  0.2128  0.3854
 8146SOL    HW134907   9.483   5.971   3.948  0.0939  0.5968  1.2468
 8146SOL    HW234908   9.333   5.970   3.884  0.5311  1.6916  0.1812
 8147SOL     OW34909   2.683   7.118   1.928  0.4124 -0.0627 -0.2611
 8147SOL    HW134910   2.767   7.095   1.978 -0.1135 -2.2381 -0.3674
 8147SOL    HW234911   2.640   7.035   1.894 -2.5034  0.9097  0.9270
 8148SOL     OW34912   8.132   3.572   2.003 -0.5848 -0.0165  0.3557
 8148SOL    HW134913   8.064   3.509   2.040 -2.7495  1.2498 -1.4251
 8148SOL    HW234914   8.171   3.626   2.078 -2.4878  0.1732  1.2395
 8149SOL     OW34915   1.824   7.176   0.426 -0.5385  0.0476  0.0954
 8149SOL    HW134916   1.845   7.217   0.515  0.5610 -0.8961  0.2657
 8149SOL    HW234917   1.802   7.249   0.361 -0.2230  0.8066  0.8284
 8150SOL     OW34918   6.498   7.608   2.810 -0.6033  0.2897 -0.5886
 8150SOL    HW134919   6.483   7.567   2.720 -0.3388 -0.3518 -0.3442
 8150SOL    HW234920   6.503   7.536   2.879 -1.7103  0.8186  0.0755
 8151SOL     OW34921   8.651   8.484   2.131 -0.3870  0.7019 -1.0211
 8151SOL    HW134922   8.580   8.485   2.202 -0.8836  0.2449 -1.5039
 8151SOL    HW234923   8.660   8.392   2.094  2.9496 -0.0762  1.4805
 8152SOL     OW34924   1.104   6.020   2.907  0.3684  0.1003 -0.4691
 8152SOL    HW134925   1.100   5.944   2.841 -0.8437  0.1238 -0.4258
 8152SOL    HW234926   1.200   6.040   2.928  0.7188 -1.0480 -0.9157
 8153SOL     OW34927   1.871   5.527   0.035 -0.4675 -0.1342  0.1385
 8153SOL    HW134928   1.953   5.583   0.028 -1.0986  0.6776 -0.9571
 8153SOL    HW234929   1.877   5.468   0.116  0.9989  0.2103  0.2846
 8154SOL     OW34930   9.579   8.841   2.537 -0.4506  0.4960  0.0435
 8154SOL    HW134931   9.641   8.899   2.590 -0.3873  3.3420 -2.9592
 8154SOL    HW234932   9.632   8.772   2.488  0.0236  0.9210 -0.0538
 8155SOL     OW34933   9.404   0.888   0.401 -0.3052  0.1357  0.2790
 8155SOL    HW134934   9.341   0.957   0.365 -0.6256  0.0256  0.6320
 8155SOL    HW234935   9.411   0.813   0.335  1.8995  1.5999 -1.2379
 8156SOL     OW34936   3.799   3.636   1.673  0.2832 -0.5129  0.2157
 8156SOL    HW134937   3.829   3.715   1.618 -0.6173  1.0534  1.9172
 8156SOL    HW234938   3.841   3.641   1.763 -1.3495 -0.8958  1.0078
 8157SOL     OW34939   8.828   2.733   2.313 -0.2952 -0.0063  0.3935
 8157SOL    HW134940   8.839   2.767   2.219 -1.2389 -0.5582  0.0661
 8157SOL    HW234941   8.735   2.750   2.344 -0.0549 -0.0442  1.1468
 8158SOL     OW34942   8.373   5.601   3.808  0.5035 -0.3212  0.2141
 8158SOL    HW134943   8.449   5.609   3.872  1.7157  0.1886 -1.2716
 8158SOL    HW234944   8.382   5.670   3.736 -0.0264 -1.8256 -1.3458
 8159SOL     OW34945   2.199   5.609   0.710  1.1507 -0.6013  0.0647
 8159SOL    HW134946   2.208   5.695   0.759  4.2627 -0.4060 -0.7670
 8159SOL    HW234947   2.178   5.627   0.614  0.0373 -0.8328  0.2609
 8160SOL     OW34948   0.026   9.970   0.712 -0.1668 -0.0830  0.0307
 8160SOL    HW134949   0.017   9.877   0.677  1.0559  0.6016 -2.2167
 8160SOL    HW234950   0.113   9.980   0.759 -0.0162  0.0848 -0.2800
 8161SOL     OW34951   9.602   2.599   4.020  0.5673 -0.3123  0.5237
 8161SOL    HW134952   9.549   2.633   3.943  0.1875 -0.6211  0.6437
 8161SOL    HW234953   9.618   2.501   4.009 -1.5307 -0.8528  1.9886
 8162SOL     OW34954   9.484   5.044   3.895  0.1265 -0.0236  0.5068
 8162SOL    HW134955   9.468   4.965   3.837 -0.0821  1.6228 -1.7308
 8162SOL    HW234956   9.578   5.077   3.881 -0.0040  0.5277  0.9252
 8163SOL     OW34957   8.183   2.196   2.873  0.6130 -0.5289  0.6267
 8163SOL    HW134958   8.224   2.130   2.936  0.1605 -0.6616  0.7813
 8163SOL    HW234959   8.215   2.178   2.780  2.3167  0.4809  0.9970
 8164SOL     OW34960   9.931   7.374   1.823 -0.5624  0.5585 -0.1474
 8164SOL    HW134961   9.878   7.458   1.811 -1.0271  0.3719  0.6155
 8164SOL    HW234962  10.019   7.384   1.776 -0.9114  1.1962 -0.6798
 8165SOL     OW34963   4.536   5.615   2.683 -0.3222 -0.1740 -0.4407
 8165SOL    HW134964   4.559   5.522   2.654 -1.5687 -0.5934 -0.1170
 8165SOL    HW234965   4.620   5.662   2.711  0.5491 -0.6201 -2.2137
 8166SOL     OW34966   0.333   0.194   2.078 -0.0721 -0.4442 -0.3547
 8166SOL    HW134967   0.427   0.158   2.078 -0.2182 -0.8386  0.5359
 8166SOL    HW234968   0.304   0.211   1.984  1.0671  0.1341 -0.6080
 8167SOL     OW34969   0.608   3.572   3.882  0.4168  0.1919  0.0951
 8167SOL    HW134970   0.619   3.560   3.981  0.4138 -1.2491 -0.0695
 8167SOL    HW234971   0.605   3.482   3.838  0.0629  0.8226 -1.1776
 8168SOL     OW34972   4.776   0.399   1.258 -0.0202  0.6600  0.7880
 8168SOL    HW134973   4.777   0.477   1.196 -0.0101 -0.1863 -0.2861
 8168SOL    HW234974   4.762   0.431   1.352 -2.3968  1.7619  0.0932
 8169SOL     OW34975   8.585   0.108   0.066 -0.1287 -0.3987 -0.3025
 8169SOL    HW134976   8.555   0.028   0.014 -0.9942 -0.5873  0.4752
 8169SOL    HW234977   8.616   0.079   0.156  2.3672 -0.1935 -1.0711
 8170SOL     OW34978   9.814   7.512   0.596  0.1310  0.0218 -0.5201
 8170SOL    HW134979   9.723   7.515   0.553  0.8761 -1.1311 -2.2080
 8170SOL    HW234980   9.815   7.441   0.666 -0.7353  1.1089  0.6183
 8171SOL     OW34981   8.646   5.471   1.949  0.4109 -0.7121 -0.3317
 8171SOL    HW134982   8.704   5.394   1.977  0.9050 -0.0631  0.4839
 8171SOL    HW234983   8.698   5.530   1.887  0.6554 -0.1115  0.4269
 8172SOL     OW34984   4.426   1.123   1.686  0.5707 -0.2125  0.4967
 8172SOL    HW134985   4.431   1.047   1.621  0.8663 -1.0305  1.4722
 8172SOL    HW234986   4.480   1.102   1.767 -0.1781  0.5994  1.2194
 8173SOL     OW34987   9.410   7.989   1.620 -0.2974  0.8720 -0.0849
 8173SOL    HW134988   9.361   8.006   1.534 -1.9868  0.0621  0.6801
 8173SOL    HW234989   9.439   7.893   1.623 -0.1730  0.9198  0.2124
 8174SOL     OW34990   9.112   0.426   0.270 -0.0802  0.6223 -0.3552
 8174SOL    HW134991   9.141   0.408   0.364  1.4674 -1.3974 -1.2041
 8174SOL    HW234992   9.164   0.503   0.233  0.5366  0.3055 -0.1436
 8175SOL     OW34993   1.596   7.121   2.033 -0.2313  0.3554 -0.2898
 8175SOL    HW134994   1.687   7.160   2.049 -0.8050  1.6241 -0.0950
 8175SOL    HW234995   1.604   7.046   1.966  1.3288 -1.2636  1.6204
 8176SOL     OW34996   9.664   1.253   0.568 -0.3852 -0.2299  0.2645
 8176SOL    HW134997   9.580   1.246   0.515  0.3902  0.7950 -1.1340
 8176SOL    HW234998   9.726   1.179   0.543 -0.1084  0.1276 -0.1350
 8177SOL     OW34999   3.325   3.620   0.852  0.2870 -0.3697 -0.1971
 8177SOL    HW135000   3.297   3.574   0.936 -0.2580  0.0108 -0.1677
 8177SOL    HW235001   3.333   3.718   0.868  3.6213 -0.6734  0.3169
 8178SOL     OW35002   2.658   5.454   2.764 -0.9781  0.0043  0.7176
 8178SOL    HW135003   2.698   5.364   2.746 -1.3629 -0.3192  1.4752
 8178SOL    HW235004   2.589   5.474   2.694  0.8693  0.8076 -0.9360
 8179SOL     OW35005   9.850   9.010   3.324 -0.3700  0.0009  0.4544
 8179SOL    HW135006   9.930   9.001   3.383  0.6437 -2.0015 -1.1412
 8179SOL    HW235007   9.804   9.097   3.341  1.2378  0.4683  2.5013
 8180SOL     OW35008   9.240   5.647   1.095  0.0261 -0.4776  0.6364
 8180SOL    HW135009   9.211   5.555   1.123 -0.7318  0.0315  1.5399
 8180SOL    HW235010   9.173   5.683   1.029 -1.1005  0.4524  2.2547
 8181SOL     OW35011   7.503   9.538   2.770  0.5072 -0.3369 -0.5645
 8181SOL    HW135012   7.568   9.508   2.840 -0.0778 -1.7017 -0.6096
 8181SOL    HW235013   7.428   9.472   2.762 -0.5271  0.8598 -1.0188
 8182SOL     OW35014   9.731   9.428   0.302  0.1257  0.6850  0.0285
 8182SOL    HW135015   9.748   9.359   0.232 -0.8217 -0.7351  1.1836
 8182SOL    HW235016   9.646   9.476   0.282  0.0453  0.5282 -0.0089
 8183SOL     OW35017   4.398   0.201   2.720  0.2004  0.1387  0.0973
 8183SOL    HW135018   4.474   0.229   2.662  0.9413  1.3807  1.6247
 8183SOL    HW235019   4.318   0.181   2.664  0.1662  3.6358 -1.2072
 8184SOL     OW35020   3.328   3.871   3.778 -0.0782 -0.1657  0.2747
 8184SOL    HW135021   3.311   3.847   3.683 -0.4805 -2.6147  0.9144
 8184SOL    HW235022   3.269   3.816   3.837 -0.2778  1.7491  1.9339
 8185SOL     OW35023   0.726   4.282   0.146 -0.4550  0.3265  0.0644
 8185SOL    HW135024   0.751   4.296   0.050  1.4617  0.4684  0.5704
 8185SOL    HW235025   0.744   4.366   0.198  0.7102 -0.4941  0.9990
 8186SOL     OW35026   6.093   8.630   3.320 -0.2224 -0.2050 -0.3302
 8186SOL    HW135027   6.121   8.705   3.380 -0.2630  0.7592 -1.5065
 8186SOL    HW235028   6.174   8.591   3.275 -0.0325 -1.7588  1.2618
 8187SOL     OW35029   2.202   6.635   0.266 -0.4615  0.4725 -0.4901
 8187SOL    HW135030   2.130   6.621   0.198 -1.1417  2.9100 -0.3407
 8187SOL    HW235031   2.278   6.685   0.225  0.8584 -1.4469 -0.4475
 8188SOL     OW35032   3.326   8.624   1.103 -0.3898 -0.1375  0.1454
 8188SOL    HW135033   3.270   8.620   1.020 -0.6928  1.0735  0.2847
 8188SOL    HW235034   3.268   8.613   1.183 -0.5221  1.6243  0.3112
 8189SOL     OW35035   3.259   6.239   2.741  0.3713 -0.1776  0.2845
 8189SOL    HW135036   3.316   6.223   2.660 -0.2218  1.2175 -0.4135
 8189SOL    HW235037   3.280   6.170   2.810  0.9238 -1.3445 -1.0316
 8190SOL     OW35038   0.837   9.060   0.765  0.3647 -0.1398  0.2789
 8190SOL    HW135039   0.878   8.990   0.824 -1.4686 -1.8269 -0.3996
 8190SOL    HW235040   0.809   9.138   0.821 -0.1050 -1.1409  1.4633
 8191SOL     OW35041   8.513   4.646   0.346  0.5525  0.1980  0.7223
 8191SOL    HW135042   8.514   4.634   0.445  1.5165 -1.2166  0.5573
 8191SOL    HW235043   8.420   4.634   0.311  0.2272  0.6162  1.4351
 8192SOL     OW35044   1.832   6.953   3.356  0.6667 -0.1344  0.5954
 8192SOL    HW135045   1.922   6.997   3.352  0.2790  0.5619 -0.8477
 8192SOL    HW235046   1.762   7.023   3.367  0.1396 -0.5006 -0.4419
 8193SOL     OW35047   6.986   9.538   3.778 -0.1763 -0.1780 -0.6979
 8193SOL    HW135048   7.043   9.500   3.851 -1.7039 -1.1990 -0.0203
 8193SOL    HW235049   6.940   9.620   3.811 -0.5808 -0.4313 -0.6306
 8194SOL     OW35050   4.376   1.328   1.959  0.0409  0.4861 -0.2358
 8194SOL    HW135051   4.361   1.247   1.903  0.3746 -0.1620  0.6185
 8194SOL    HW235052   4.462   1.371   1.933  0.0854  0.3126 -0.3751
 8195SOL     OW35053   0.851   2.946   2.560 -0.1971  0.8552  0.5877
 8195SOL    HW135054   0.816   3.021   2.617  0.0158  1.7739 -0.4827
 8195SOL    HW235055   0.931   2.906   2.604  0.7024  2.3559  0.3658
 8196SOL     OW35056   3.506   4.611   2.125  0.0578 -0.1508  0.1945
 8196SOL    HW135057   3.428   4.549   2.118 -0.2336  0.1782  0.5103
 8196SOL    HW235058   3.538   4.613   2.220 -0.3903  0.7321  0.3305
 8197SOL     OW35059   3.797   7.088   1.759 -0.2516  0.9916 -0.7955
 8197SOL    HW135060   3.783   6.996   1.723  2.7716  0.5737 -0.9851
 8197SOL    HW235061   3.849   7.084   1.844  0.6096  2.5746 -1.2171
 8198SOL     OW35062   3.465   8.122   3.654 -0.0702 -0.1706 -0.5640
 8198SOL    HW135063   3.481   8.025   3.673 -0.4273 -0.0774  0.2410
 8198SOL    HW235064   3.398   8.130   3.580 -1.1006 -0.5400  0.3139
 8199SOL     OW35065   0.228   0.846   2.907 -0.7282 -0.1399 -0.3560
 8199SOL    HW135066   0.164   0.774   2.882 -1.3777 -0.4282  1.9671
 8199SOL    HW235067   0.320   0.807   2.919 -1.1865 -0.7155  1.4397
 8200SOL     OW35068   0.793   0.875   3.983 -0.4215  0.2970 -0.1704
 8200SOL    HW135069   0.696   0.874   3.959 -0.3422  1.8847 -0.6214
 8200SOL    HW235070   0.816   0.963   4.024  1.0226  0.3117 -0.9789
 8201SOL     OW35071   4.253   9.063   3.017 -0.1131  0.3438 -0.0003
 8201SOL    HW135072   4.283   9.047   3.111 -0.7199  0.0034  0.1369
 8201SOL    HW235073   4.327   9.040   2.954 -0.4909 -1.7351  0.2671
 8202SOL     OW35074   0.222   1.030   0.125 -0.3612 -0.2221 -0.4978
 8202SOL    HW135075   0.249   0.934   0.132  1.8591  0.2400 -2.2664
 8202SOL    HW235076   0.213   1.069   0.216  0.0731 -1.7375  0.2084
 8203SOL     OW35077   7.350   8.705   3.421  0.5689 -0.0453  0.7452
 8203SOL    HW135078   7.354   8.624   3.480  0.0249 -0.8871 -0.3563
 8203SOL    HW235079   7.256   8.736   3.413  0.5463 -0.3692 -0.2698
 8204SOL     OW35080   0.818   0.617   2.471 -0.0631  0.2097 -0.1341
 8204SOL    HW135081   0.874   0.539   2.442  0.3522 -0.4241  2.2243
 8204SOL    HW235082   0.722   0.590   2.469  0.0429 -0.2083  0.1894
 8205SOL     OW35083   1.936   4.672   0.766  0.0319 -0.4105 -1.0378
 8205SOL    HW135084   1.990   4.747   0.804 -1.4159 -1.1867  2.7596
 8205SOL    HW235085   1.844   4.704   0.745 -0.9004 -1.2292  1.5179
 8206SOL     OW35086   7.595   7.176   2.965  0.2616  0.0722 -0.2769
 8206SOL    HW135087   7.567   7.130   2.881  2.3481 -0.0682 -0.9059
 8206SOL    HW235088   7.683   7.221   2.951  0.8446 -0.3205  1.9468
 8207SOL     OW35089   2.107   6.297   3.433  0.3941  0.7982 -0.7989
 8207SOL    HW135090   2.203   6.271   3.434  0.0644 -0.4969 -1.8472
 8207SOL    HW235091   2.057   6.242   3.500  0.5635  2.2871  0.5962
 8208SOL     OW35092   3.323   0.573   3.778  1.2602  0.3859 -0.2887
 8208SOL    HW135093   3.256   0.526   3.722 -0.6794 -0.1263  2.3705
 8208SOL    HW235094   3.415   0.540   3.755  0.2479 -1.9763 -1.0424
 8209SOL     OW35095   0.402   0.345   2.535 -0.6022  0.1391 -0.1249
 8209SOL    HW135096   0.335   0.418   2.523 -2.0472 -1.2379 -0.7655
 8209SOL    HW235097   0.354   0.260   2.560  0.7036 -1.3717 -2.6045
 8210SOL     OW35098   9.331   3.174   0.525  0.0097  0.1564 -0.0829
 8210SOL    HW135099   9.236   3.204   0.524 -0.0664 -0.0742  0.1352
 8210SOL    HW235100   9.391   3.252   0.503 -0.1517  0.6099  1.0580
 8211SOL     OW35101   2.348   4.171   0.634  0.4700  0.1337  0.7867
 8211SOL    HW135102   2.299   4.236   0.691 -0.5532 -0.2838  0.3970
 8211SOL    HW235103   2.445   4.194   0.632  0.2339  1.1693  1.2871
 8212SOL     OW35104   1.763   0.848   2.514  0.3835 -0.1398 -0.1037
 8212SOL    HW135105   1.695   0.779   2.537 -0.3928  1.1378  1.5383
 8212SOL    HW235106   1.746   0.881   2.421 -0.4052 -0.7767 -0.1968
 8213SOL     OW35107   2.619   9.947   1.076 -0.2978  0.2554  0.1530
 8213SOL    HW135108   2.534   9.996   1.089 -0.9812 -0.8893  0.0909
 8213SOL    HW235109   2.696  10.006   1.098 -1.0618  1.6553 -0.8725
 8214SOL     OW35110   0.043   5.660   1.459 -0.0918 -0.2915  0.3667
 8214SOL    HW135111  -0.030   5.722   1.430  0.4931  0.2159 -0.0499
 8214SOL    HW235112   0.010   5.566   1.458 -0.6252 -0.0990 -0.1832
 8215SOL     OW35113   6.866   9.153   2.986 -0.1675 -1.0994  0.4913
 8215SOL    HW135114   6.916   9.182   3.067 -2.0277  0.2305  1.2010
 8215SOL    HW235115   6.786   9.212   2.973 -0.2036 -1.6076 -2.0054
 8216SOL     OW35116   4.307   3.334   1.625 -0.3640  0.5155  0.5312
 8216SOL    HW135117   4.276   3.311   1.718 -1.3268  0.9706  0.3295
 8216SOL    HW235118   4.241   3.395   1.582  0.5439  1.0426 -0.1296
 8217SOL     OW35119   4.215   8.883   0.940  0.0998 -0.2912 -0.6559
 8217SOL    HW135120   4.200   8.877   1.038 -2.3044  1.4213 -0.8701
 8217SOL    HW235121   4.260   8.799   0.908  0.1185 -1.2424  1.7384
 8218SOL     OW35122   8.566   4.505   3.730  0.3788 -0.3410 -0.1230
 8218SOL    HW135123   8.577   4.578   3.662 -1.9972  0.9731  0.8422
 8218SOL    HW235124   8.560   4.545   3.821 -0.6845 -1.7677  0.4475
 8219SOL     OW35125   5.940   8.769   2.247  0.6439  0.3208  0.3546
 8219SOL    HW135126   5.996   8.714   2.308 -0.7470 -0.5023  0.9154
 8219SOL    HW235127   5.844   8.747   2.261 -0.0440  3.5748  1.2690
 8220SOL     OW35128   2.466   8.905   0.171 -0.3096  0.0816  0.0744
 8220SOL    HW135129   2.516   8.992   0.169 -2.7558  1.5763  1.1298
 8220SOL    HW235130   2.442   8.879   0.077  3.4994 -1.3618 -0.5816
 8221SOL     OW35131   9.917   1.304   1.972  0.0157  0.0501  0.1838
 8221SOL    HW135132   9.820   1.289   1.953 -0.6015  0.5590  2.7510
 8221SOL    HW235133   9.972   1.249   1.909 -1.9355 -0.6030 -1.0006
 8222SOL     OW35134   2.162   9.781   0.519  0.6730 -0.4208  0.5377
 8222SOL    HW135135   2.110   9.697   0.538  0.0789  0.1686  1.5340
 8222SOL    HW235136   2.212   9.770   0.433 -0.7504 -1.1571 -0.2059
 8223SOL     OW35137   1.989   8.403   3.748 -0.2639 -0.0727  0.4812
 8223SOL    HW135138   1.957   8.485   3.796 -1.0466 -0.6874  1.0417
 8223SOL    HW235139   2.036   8.343   3.813  0.4938  0.0291  0.0278
 8224SOL     OW35140   7.952   4.171   0.543 -0.2207  0.2609 -0.1981
 8224SOL    HW135141   7.958   4.093   0.606  2.2327  0.4388 -0.1689
 8224SOL    HW235142   7.910   4.141   0.457  1.3604 -1.2963 -0.4567
 8225SOL     OW35143   4.994   8.655   2.449 -0.2802 -0.0648 -0.4192
 8225SOL    HW135144   4.965   8.647   2.545  0.7598  2.7976  0.1825
 8225SOL    HW235145   5.090   8.630   2.441 -0.7712 -1.8360 -1.0264
 8226SOL     OW35146   8.967   3.942   0.397  0.5336  0.1239 -0.4894
 8226SOL    HW135147   8.892   3.979   0.452  0.9698  0.0893  0.1268
 8226SOL    HW235148   8.964   3.842   0.399  0.6595  0.1235 -0.3897
 8227SOL     OW35149   2.657   2.477   2.058  0.2258  0.0672  0.0226
 8227SOL    HW135150   2.577   2.537   2.066 -1.5203 -2.2053  0.2088
 8227SOL    HW235151   2.658   2.413   2.134  0.5039 -1.9099 -1.6049
 8228SOL     OW35152   1.593   0.209   0.621 -1.1969  0.1729 -1.1439
 8228SOL    HW135153   1.679   0.167   0.651 -0.7617  1.2099 -0.9269
 8228SOL    HW235154   1.590   0.210   0.521 -0.4868  1.0703 -1.1600
 8229SOL     OW35155   9.157   2.583   0.382  0.2969  0.4148  0.3157
 8229SOL    HW135156   9.211   2.667   0.374  0.8384 -0.0972 -1.5829
 8229SOL    HW235157   9.060   2.606   0.383  0.4340  1.0451 -0.3404
 8230SOL     OW35158   9.145   1.044   0.492  0.0210  0.0981 -0.2328
 8230SOL    HW135159   9.164   1.072   0.397 -0.0697 -0.0453 -0.2934
 8230SOL    HW235160   9.057   1.081   0.520  0.3429  0.6842  0.0157
 8231SOL     OW35161   7.803   1.909   3.729  0.1356  0.1167 -0.1708
 8231SOL    HW135162   7.822   1.911   3.631 -0.2948  1.4939 -0.2264
 8231SOL    HW235163   7.804   1.814   3.761 -3.7983 -0.7486 -2.3029
 8232SOL     OW35164   2.859   4.367   3.844  0.0600 -0.1722 -0.6400
 8232SOL    HW135165   2.775   4.396   3.798  0.6838  1.1787 -0.9238
 8232SOL    HW235166   2.938   4.400   3.793  0.7539  0.3534  0.7659
 8233SOL     OW35167   2.635   2.901   1.245 -0.1954 -0.2959  0.3728
 8233SOL    HW135168   2.575   2.861   1.176 -0.4611  1.1553 -0.2573
 8233SOL    HW235169   2.611   2.865   1.335 -0.9387 -0.9443 -0.0778
 8234SOL     OW35170   8.558   4.334   2.325  0.5269  0.3394 -0.2906
 8234SOL    HW135171   8.618   4.410   2.350  0.9148 -0.3697  1.0196
 8234SOL    HW235172   8.613   4.251   2.316 -0.1088 -0.1055 -0.0830
 8235SOL     OW35173   1.375   0.062   0.674  0.0414  0.0281  0.1729
 8235SOL    HW135174   1.385  -0.029   0.634 -0.7768  0.5245 -1.1817
 8235SOL    HW235175   1.458   0.116   0.655 -1.1498  0.9433 -2.6881
 8236SOL     OW35176   0.495   3.313   2.995  0.0200  0.1886  0.3139
 8236SOL    HW135177   0.478   3.275   3.086 -0.6638 -0.8319 -0.2321
 8236SOL    HW235178   0.551   3.249   2.943 -1.2628 -0.1258 -0.6691
 8237SOL     OW35179   0.016   2.297   2.557 -0.5295  0.1379  0.4197
 8237SOL    HW135180   0.050   2.314   2.649  0.4810 -1.5671  0.3949
 8237SOL    HW235181   0.089   2.316   2.491 -0.7435 -0.1640  0.0978
 8238SOL     OW35182   8.243   9.579   0.732  0.7863 -0.1363  0.1535
 8238SOL    HW135183   8.339   9.571   0.757  0.7483  0.6117  0.5578
 8238SOL    HW235184   8.228   9.535   0.644  1.3707 -0.8202  0.3890
 8239SOL     OW35185   8.224   1.897   1.626  0.0217 -0.9179 -0.3486
 8239SOL    HW135186   8.269   1.928   1.542  1.1905 -1.6815 -0.0202
 8239SOL    HW235187   8.282   1.921   1.705 -2.0285  1.6955  0.4554
 8240SOL     OW35188   0.246   6.019   3.117 -0.3922 -0.1023 -0.6295
 8240SOL    HW135189   0.173   6.067   3.069 -1.2340  0.3449  1.0652
 8240SOL    HW235190   0.210   5.976   3.199  1.4430  1.1508  0.8943
 8241SOL     OW35191   2.715   9.758   2.310 -0.1587 -0.0635  0.3996
 8241SOL    HW135192   2.791   9.786   2.369  0.1279  0.9101 -0.4175
 8241SOL    HW235193   2.748   9.753   2.215 -0.8956 -0.5126  0.1677
 8242SOL     OW35194   3.480   2.005   3.242 -0.1344  0.6901  0.3986
 8242SOL    HW135195   3.455   1.932   3.178 -3.4991  1.7724  0.3831
 8242SOL    HW235196   3.426   1.996   3.325  1.0741  1.8420  1.3244
 8243SOL     OW35197   4.520   3.258   2.362  0.1238  0.3075 -0.5656
 8243SOL    HW135198   4.536   3.278   2.266 -1.7585  0.9424 -0.7550
 8243SOL    HW235199   4.565   3.172   2.386 -1.0217 -0.8556 -2.4984
 8244SOL     OW35200   9.236   1.767   1.146  0.3897 -0.1604  0.0359
 8244SOL    HW135201   9.292   1.729   1.072 -1.1704 -1.4062 -0.5378
 8244SOL    HW235202   9.144   1.729   1.140 -0.8657  2.7082  0.2685
 8245SOL     OW35203   3.102   9.085   3.810 -0.2847  0.0329 -0.1055
 8245SOL    HW135204   3.113   9.089   3.711 -1.3925  1.3044 -0.1865
 8245SOL    HW235205   3.005   9.091   3.833 -0.2178 -2.5370  0.9620
 8246SOL     OW35206   2.582   4.497   2.829  0.3213 -0.1437  0.5138
 8246SOL    HW135207   2.490   4.534   2.819  0.4980 -0.2328 -1.6934
 8246SOL    HW235208   2.580   4.398   2.814  0.5031 -0.4257  2.2668
 8247SOL     OW35209   9.250   6.566   3.820  0.0321  0.1592 -0.4128
 8247SOL    HW135210   9.254   6.662   3.845 -0.2200  0.1784 -0.4398
 8247SOL    HW235211   9.245   6.558   3.720 -0.6113  0.1438 -0.3810
 8248SOL     OW35212   0.882   0.243   0.457 -0.2089  0.0466  0.0203
 8248SOL    HW135213   0.841   0.257   0.367  0.2737  0.6229 -0.1111
 8248SOL    HW235214   0.910   0.331   0.495 -0.8632 -0.1410  0.9519
 8249SOL     OW35215   2.283   9.410   0.829  0.2585 -0.0369 -0.2648
 8249SOL    HW135216   2.305   9.366   0.916 -1.5356  1.6229  1.0523
 8249SOL    HW235217   2.346   9.486   0.814  0.3015 -0.0638 -0.2188
 8250SOL     OW35218   3.718   8.361   0.860 -0.1371 -0.1208  0.8317
 8250SOL    HW135219   3.633   8.357   0.912  0.6153 -1.0145  2.0380
 8250SOL    HW235220   3.768   8.276   0.872 -0.5265 -0.8733 -2.4337
 8251SOL     OW35221   0.660   3.824   1.071 -0.0322  0.4326 -0.0809
 8251SOL    HW135222   0.641   3.736   1.026 -0.5366  1.0565 -1.0990
 8251SOL    HW235223   0.758   3.832   1.087 -0.0625 -0.6647  0.7441
 8252SOL     OW35224   8.995   6.587   2.393 -0.8655 -0.2286  0.1338
 8252SOL    HW135225   9.023   6.590   2.297 -1.1888 -0.8830  0.0160
 8252SOL    HW235226   8.898   6.608   2.401 -0.1813  2.9211  0.6340
 8253SOL     OW35227   9.704   0.241   1.496 -0.5786  0.2876  0.3814
 8253SOL    HW135228   9.801   0.265   1.487 -0.2284  0.3458  3.5301
 8253SOL    HW235229   9.648   0.323   1.481  0.0650  0.9379  1.3824
 8254SOL     OW35230   1.875   3.599   0.963  0.7738  0.1350  0.5024
 8254SOL    HW135231   1.931   3.631   1.040 -0.9910  1.0405  1.4222
 8254SOL    HW235232   1.824   3.518   0.990  1.8624 -0.8883 -0.4474
 8255SOL     OW35233   2.313   3.874   3.899  0.2977  0.0364 -0.3875
 8255SOL    HW135234   2.406   3.901   3.876  0.9357 -1.1653  0.7091
 8255SOL    HW235235   2.313   3.779   3.930 -0.9734  0.6288  1.5492
 8256SOL     OW35236   8.724   2.416   3.183 -0.2003  0.2576 -0.1607
 8256SOL    HW135237   8.822   2.408   3.166 -0.6940 -1.9646 -2.1326
 8256SOL    HW235238   8.697   2.350   3.253 -0.2944  0.9448  0.4625
 8257SOL     OW35239   3.647   4.557   2.366  0.0214 -0.3802  0.0629
 8257SOL    HW135240   3.630   4.624   2.438  0.0433  2.6238 -2.5964
 8257SOL    HW235241   3.741   4.523   2.374  0.1615  0.2307  1.1956
 8258SOL     OW35242   3.514   2.899   0.102 -0.2349 -0.2454 -0.1863
 8258SOL    HW135243   3.612   2.901   0.122 -0.2708 -0.4047  0.0061
 8258SOL    HW235244   3.462   2.897   0.187 -0.3967 -0.4975 -0.2888
 8259SOL     OW35245   5.276   8.330   3.242  0.2734  0.9566 -0.0803
 8259SOL    HW135246   5.236   8.324   3.333 -1.5233 -1.0753 -0.9577
 8259SOL    HW235247   5.218   8.387   3.183 -0.5075 -0.6568 -0.9071
 8260SOL     OW35248   4.539   0.135   4.003 -0.0536  0.7412 -0.1849
 8260SOL    HW135249   4.581   0.217   4.041  1.1496  0.7355 -1.4691
 8260SOL    HW235250   4.490   0.087   4.075  0.5656  1.7496  0.9330
 8261SOL     OW35251   4.474   0.736   3.240  0.3470 -0.3704  0.8041
 8261SOL    HW135252   4.409   0.812   3.237  1.6310  0.7349  0.5300
 8261SOL    HW235253   4.503   0.720   3.334 -0.3377 -0.8898  0.9316
 8262SOL     OW35254   9.776   8.020   4.036  0.2650 -0.0497 -0.2788
 8262SOL    HW135255   9.858   7.976   3.999  0.7592 -0.5775  1.4017
 8262SOL    HW235256   9.695   7.984   3.988  0.9697  0.2078 -1.6922
 8263SOL     OW35257   9.067   2.688   0.777  0.3944  0.3215 -0.1244
 8263SOL    HW135258   9.008   2.760   0.814  0.6736  0.6653 -0.3443
 8263SOL    HW235259   9.126   2.727   0.706  2.7602  0.5924  1.9165
 8264SOL     OW35260   3.418   8.367   1.703  0.1594  0.2139  0.0391
 8264SOL    HW135261   3.423   8.307   1.782 -1.5941 -0.1102 -0.0616
 8264SOL    HW235262   3.408   8.312   1.620 -1.0075  0.6111 -0.0963
 8265SOL     OW35263   3.117   6.303   1.925 -0.3402  0.0160  0.1724
 8265SOL    HW135264   3.108   6.390   1.876 -2.2783 -0.9368 -1.2145
 8265SOL    HW235265   3.028   6.259   1.933  0.3887 -1.1694  2.1714
 8266SOL     OW35266   8.909   7.046   3.115  0.6257 -0.2231 -0.3004
 8266SOL    HW135267   8.904   7.025   3.018  1.0140 -2.9598  0.2507
 8266SOL    HW235268   8.900   6.962   3.169 -1.8444  1.4706  2.1058
 8267SOL     OW35269   5.490   7.794   3.463 -0.0911  0.0732 -0.0480
 8267SOL    HW135270   5.409   7.752   3.504 -0.2006 -0.9410 -1.2966
 8267SOL    HW235271   5.476   7.893   3.456 -0.8579  0.0119  0.5605
 8268SOL     OW35272   9.385   9.716   2.190 -0.0243 -0.2495 -0.1156
 8268SOL    HW135273   9.472   9.754   2.219  0.0115  0.2713 -0.9069
 8268SOL    HW235274   9.341   9.671   2.268  0.0695  1.1464  0.7445
 8269SOL     OW35275   0.358   9.480   2.192 -0.3795 -0.2655  0.2074
 8269SOL    HW135276   0.437   9.424   2.169 -0.3284 -0.5479  1.0604
 8269SOL    HW235277   0.377   9.532   2.275 -0.0852  1.7149 -1.0845
 8270SOL     OW35278   5.830   7.083   2.690 -0.1389 -0.3643 -0.0347
 8270SOL    HW135279   5.831   7.160   2.626  1.1649  0.1317  0.5582
 8270SOL    HW235280   5.804   7.117   2.781 -0.8853 -0.8640 -0.0641
 8271SOL     OW35281   8.607   4.778   2.946  0.4801  0.1686  0.3015
 8271SOL    HW135282   8.601   4.693   2.894  0.7903  0.8590 -0.8804
 8271SOL    HW235283   8.702   4.810   2.947  0.0724  1.4358 -0.7860
 8272SOL     OW35284   3.756   3.012   2.039 -0.2336 -0.5907  0.2078
 8272SOL    HW135285   3.709   2.995   1.952 -0.2648  0.4398  0.0103
 8272SOL    HW235286   3.688   3.035   2.109 -0.1297 -0.4014  0.2476
 8273SOL     OW35287   1.071   3.235   0.044 -0.0942 -0.8597 -0.1570
 8273SOL    HW135288   1.148   3.285   0.004 -0.6364 -0.2439 -0.4523
 8273SOL    HW235289   0.990   3.295   0.045  0.1141 -0.5379  2.6422
 8274SOL     OW35290   1.563   7.064   0.255 -0.5869  0.0236  0.1897
 8274SOL    HW135291   1.651   7.029   0.223 -0.7711 -0.1889 -0.0847
 8274SOL    HW235292   1.541   7.020   0.342 -1.1352 -1.0627 -0.4806
 8275SOL     OW35293   4.054   3.130   2.741  0.6372 -0.7525  0.3209
 8275SOL    HW135294   4.144   3.100   2.711  1.5001  1.3574  0.6896
 8275SOL    HW235295   4.006   3.173   2.665  0.1959 -1.3031  0.2866
 8276SOL     OW35296   1.827   9.653   1.915  0.0330  0.0234  0.0379
 8276SOL    HW135297   1.839   9.747   1.881 -0.6941  0.2875  0.5002
 8276SOL    HW235298   1.909   9.625   1.965  0.2508  0.4202 -0.0959
 8277SOL     OW35299   8.329   0.177   1.037  0.5131  0.2484 -0.1370
 8277SOL    HW135300   8.405   0.238   1.059  0.1352 -0.1878  2.5605
 8277SOL    HW235301   8.328   0.101   1.101 -0.5410 -1.2729 -1.8976
 8278SOL     OW35302   4.142   3.819   1.953 -0.3324  0.0891  0.2593
 8278SOL    HW135303   4.186   3.825   1.863 -0.4319  0.2829  0.2238
 8278SOL    HW235304   4.172   3.896   2.010  0.4352 -0.5301  0.7028
 8279SOL     OW35305   8.944   1.970   0.086 -0.7195 -0.0759  0.1371
 8279SOL    HW135306   8.851   1.986   0.053 -1.6151 -1.9258  1.6819
 8279SOL    HW235307   8.951   1.997   0.182  1.2397  3.0491 -0.7983
 8280SOL     OW35308   9.559   4.243   0.447  0.4474 -0.5080  0.1987
 8280SOL    HW135309   9.493   4.297   0.394 -0.3018 -0.3739  1.2584
 8280SOL    HW235310   9.625   4.202   0.384 -0.9462 -1.0668 -0.9385
 8281SOL     OW35311   8.690   1.764   2.967 -0.2047 -0.3002  0.1966
 8281SOL    HW135312   8.620   1.784   2.898 -0.7158 -0.9728  0.5162
 8281SOL    HW235313   8.689   1.666   2.988  0.9740 -0.3558  0.0553
 8282SOL     OW35314   7.299   9.719   2.674  0.5445 -0.3088  0.7002
 8282SOL    HW135315   7.285   9.748   2.768  0.8927 -0.8932  0.9363
 8282SOL    HW235316   7.396   9.699   2.659  0.6082  0.5098  0.0110
 8283SOL     OW35317   2.528   3.663   0.525 -0.8194 -0.0399  0.6565
 8283SOL    HW135318   2.496   3.591   0.463 -2.9831  1.4193  0.0367
 8283SOL    HW235319   2.475   3.746   0.510  1.4350  1.6132  1.5914
 8284SOL     OW35320   0.921   3.275   1.834  0.1198 -0.3784 -0.6810
 8284SOL    HW135321   0.836   3.326   1.821  0.8560  0.4957 -2.1446
 8284SOL    HW235322   0.935   3.214   1.756  1.2989  0.1331 -0.8664
 8285SOL     OW35323   1.662   3.111   0.451  0.0094 -0.0757 -0.0298
 8285SOL    HW135324   1.595   3.128   0.379 -0.3038  1.1668  0.5518
 8285SOL    HW235325   1.615   3.104   0.539  0.4147 -1.3513  0.0941
 8286SOL     OW35326   2.388   2.729   1.686  0.2254  0.1569 -0.4207
 8286SOL    HW135327   2.464   2.731   1.620  0.1971 -0.0265 -0.4576
 8286SOL    HW235328   2.313   2.674   1.649  0.3102 -0.1587 -0.1223
 8287SOL     OW35329   8.512   5.026   0.895  0.2982 -0.2334 -0.0978
 8287SOL    HW135330   8.606   5.057   0.910 -0.3048  0.8432  1.5039
 8287SOL    HW235331   8.480   5.060   0.807  1.1015  0.1538 -0.2494
 8288SOL     OW35332   1.118   7.821   2.811 -0.3425 -0.8187  0.3333
 8288SOL    HW135333   1.070   7.816   2.899 -0.0442  1.8233  0.6788
 8288SOL    HW235334   1.052   7.834   2.737 -0.4175 -0.4744  0.4584
 8289SOL     OW35335   2.891   3.929   2.430  0.1542  0.2950 -0.5023
 8289SOL    HW135336   2.863   3.974   2.515  1.8335  0.1022  0.1717
 8289SOL    HW235337   2.976   3.879   2.445  1.0169  1.0739 -2.5389
 8290SOL     OW35338   3.542   6.523   3.259 -0.0150  0.0015 -0.2331
 8290SOL    HW135339   3.463   6.557   3.208 -0.6166 -1.3161 -0.2188
 8290SOL    HW235340   3.519   6.434   3.299  0.6610  0.7117  1.8046
 8291SOL     OW35341   9.421   1.684   0.945  0.0142 -0.0263 -0.4066
 8291SOL    HW135342   9.376   1.617   0.886  1.7446  0.4534 -2.3215
 8291SOL    HW235343   9.519   1.664   0.950  0.2792  1.3542  0.3763
 8292SOL     OW35344   4.186   9.468   3.806  0.9837  0.4504  0.4956
 8292SOL    HW135345   4.086   9.468   3.817  1.1156 -0.8644  1.9103
 8292SOL    HW235346   4.225   9.398   3.866  2.6556  0.0471 -1.0592
 8293SOL     OW35347   0.601   6.438   2.197  0.5664 -0.5236  0.3724
 8293SOL    HW135348   0.520   6.470   2.246  0.4084 -0.6637  0.2016
 8293SOL    HW235349   0.630   6.350   2.235  0.3643 -0.6976  0.1277
 8294SOL     OW35350   8.813   8.670   2.268 -0.3257 -0.1611  0.0120
 8294SOL    HW135351   8.782   8.696   2.359  0.1281  0.2797  0.0449
 8294SOL    HW235352   8.744   8.613   2.224 -0.0000 -1.4362  1.1246
 8295SOL     OW35353   4.425   1.118   3.346 -0.1639  0.5007  0.3704
 8295SOL    HW135354   4.375   1.047   3.295  0.8726 -0.6133  0.8700
 8295SOL    HW235355   4.497   1.156   3.287 -1.4193  1.9151 -0.2601
 8296SOL     OW35356   0.530   7.173   1.158 -0.1925 -0.1842 -0.3246
 8296SOL    HW135357   0.546   7.080   1.125  0.3038 -0.4936  0.7565
 8296SOL    HW235358   0.489   7.169   1.249  0.6890  0.6481  0.1180
 8297SOL     OW35359   6.363   8.991   2.378 -0.1018 -0.4937 -0.5275
 8297SOL    HW135360   6.366   9.063   2.309  0.8448 -0.1768 -0.1694
 8297SOL    HW235361   6.268   8.968   2.398 -0.4303  0.8356 -0.4761
 8298SOL     OW35362   9.921   0.528   0.403 -0.0736 -1.0434  0.0913
 8298SOL    HW135363  10.016   0.512   0.428  0.5417  0.2848 -1.3411
 8298SOL    HW235364   9.863   0.525   0.485  1.3022 -0.9754  1.0696
 8299SOL     OW35365   9.473   7.050   1.774 -0.1457  0.0878  0.1743
 8299SOL    HW135366   9.481   6.951   1.788  0.3840  0.3680  1.9893
 8299SOL    HW235367   9.379   7.079   1.793  0.6530  0.5213  3.8160
 8300SOL     OW35368   9.076   6.518   1.538 -0.2317 -0.0614 -0.1746
 8300SOL    HW135369   9.095   6.548   1.444 -0.0048  0.4486  0.0312
 8300SOL    HW235370   9.094   6.420   1.546  0.9799  0.1384 -0.3465
 8301SOL     OW35371   0.491   7.060   0.517  0.1272  0.2367 -0.5402
 8301SOL    HW135372   0.522   7.120   0.443  0.0462 -0.2398 -0.9711
 8301SOL    HW235373   0.493   6.965   0.485 -0.0286  0.0383  0.0323
 8302SOL     OW35374   2.567   0.721   4.031  0.5956  0.3674  0.4688
 8302SOL    HW135375   2.481   0.754   4.071  0.3957  1.6282 -0.9693
 8302SOL    HW235376   2.547   0.643   3.971  0.4271  0.7546  0.0162
 8303SOL     OW35377   8.063   8.796   3.532  0.3419 -0.1335  0.5398
 8303SOL    HW135378   7.979   8.744   3.544  0.3408 -0.2333  0.0965
 8303SOL    HW235379   8.139   8.733   3.516  0.0891  0.0454 -1.5489
 8304SOL     OW35380   1.014   7.789   3.813 -0.0700 -0.1597  0.3421
 8304SOL    HW135381   0.981   7.783   3.907 -1.9008  0.5930 -0.2366
 8304SOL    HW235382   0.937   7.793   3.751  1.1248 -1.1338 -1.2516
 8305SOL     OW35383   8.973   1.517   2.376 -0.6712  0.0108 -0.6269
 8305SOL    HW135384   8.929   1.572   2.305 -1.4785  0.5892  0.3205
 8305SOL    HW235385   8.971   1.566   2.463 -1.9615 -1.7735  0.3812
 8306SOL     OW35386   8.453   9.984   2.775 -0.4600  0.5035  0.2238
 8306SOL    HW135387   8.510   9.903   2.762 -0.9737 -0.1142  1.7172
 8306SOL    HW235388   8.508  10.066   2.759 -0.2460 -0.1349 -2.5059
 8307SOL     OW35389   7.840   0.285   3.097 -0.3546 -0.0688 -0.7673
 8307SOL    HW135390   7.871   0.308   3.005 -0.6450  3.0332 -0.1692
 8307SOL    HW235391   7.742   0.266   3.096 -0.2181 -0.7531 -1.2033
 8308SOL     OW35392   4.576   0.352   2.953  0.1817  0.2471 -0.1572
 8308SOL    HW135393   4.524   0.286   2.900  0.3623  1.0375 -1.3355
 8308SOL    HW235394   4.608   0.309   3.038 -2.6243 -0.1578  0.7436
 8309SOL     OW35395   2.580   8.744   2.441 -0.2936 -0.6616 -0.5776
 8309SOL    HW135396   2.637   8.731   2.522 -2.2338  0.2734  0.9874
 8309SOL    HW235397   2.586   8.839   2.410 -2.7022  0.0270  0.9629
 8310SOL     OW35398   4.896   7.538   2.434 -0.3903  0.3992  0.5922
 8310SOL    HW135399   4.901   7.446   2.473 -0.5098  0.9980  2.0347
 8310SOL    HW235400   4.968   7.595   2.474 -0.4086  0.9828 -0.1927
 8311SOL     OW35401   9.355   4.087   0.994 -0.0736 -0.0263 -0.2321
 8311SOL    HW135402   9.364   4.145   1.075 -0.5026 -0.0359 -0.1776
 8311SOL    HW235403   9.403   4.129   0.917  1.0663 -0.4333  0.2432
 8312SOL     OW35404   4.412   2.419   2.955  0.2626 -0.0343 -0.4956
 8312SOL    HW135405   4.485   2.413   2.888  0.1334  1.2178 -0.7596
 8312SOL    HW235406   4.451   2.428   3.047  0.4393 -0.9992 -0.4805
 8313SOL     OW35407   0.193   3.811   3.827 -0.6828  0.1185 -0.1538
 8313SOL    HW135408   0.148   3.829   3.740 -1.4215 -0.5020  0.0904
 8313SOL    HW235409   0.126   3.813   3.901 -1.0624 -4.4355 -0.2045
 8314SOL     OW35410   8.289   7.281   0.344 -0.5552 -0.1572 -0.2815
 8314SOL    HW135411   8.272   7.317   0.436  3.2784 -1.1266  0.8894
 8314SOL    HW235412   8.299   7.356   0.280  0.1532  0.6419  0.7556
 8315SOL     OW35413   0.825   3.241   2.305 -0.3534 -0.3742  0.8715
 8315SOL    HW135414   0.780   3.153   2.316 -3.7661  1.0873 -0.5681
 8315SOL    HW235415   0.763   3.314   2.335  1.9708  1.6035  1.0148
 8316SOL     OW35416   9.339   1.404   0.368  0.2590 -0.1242 -0.3202
 8316SOL    HW135417   9.330   1.376   0.272  2.3812  0.6006 -0.7622
 8316SOL    HW235418   9.340   1.503   0.374 -0.4962 -0.1671  0.5210
 8317SOL     OW35419   1.255   2.271   1.936 -0.1380 -0.3195 -0.0062
 8317SOL    HW135420   1.310   2.303   1.859 -1.2483 -0.5031 -0.8823
 8317SOL    HW235421   1.218   2.181   1.916 -0.5850 -0.2902  0.6717
 8318SOL     OW35422   8.992   6.255   1.142 -0.2562  0.2421 -0.0334
 8318SOL    HW135423   9.047   6.171   1.144  0.3622  0.6534  0.5322
 8318SOL    HW235424   8.911   6.243   1.200 -0.4260 -0.1352 -0.3456
 8319SOL     OW35425   1.301   0.695   1.940 -0.3112  0.5017 -0.4513
 8319SOL    HW135426   1.358   0.671   2.019 -0.9394 -3.0057 -0.9712
 8319SOL    HW235427   1.274   0.791   1.946  3.0340  1.3853  1.4241
 8320SOL     OW35428   3.297   1.479   0.654 -0.2087  0.2074 -0.0401
 8320SOL    HW135429   3.321   1.388   0.688 -1.0657 -0.1965 -0.4963
 8320SOL    HW235430   3.303   1.546   0.728  1.4166 -0.0370  0.0655
 8321SOL     OW35431   3.221   3.077   3.594 -0.2318  0.7111 -0.3539
 8321SOL    HW135432   3.316   3.081   3.624 -0.4023 -1.0145  0.4701
 8321SOL    HW235433   3.217   3.092   3.495  0.7601  2.0112 -0.2176
 8322SOL     OW35434   9.674   9.428   1.084 -0.0032 -0.4788  0.0948
 8322SOL    HW135435   9.601   9.458   1.145 -0.4949 -1.0875 -0.1825
 8322SOL    HW235436   9.676   9.328   1.082 -0.2807 -0.4693 -1.2083
 8323SOL     OW35437   4.320   8.710   0.164  0.1925  0.2370 -0.1694
 8323SOL    HW135438   4.359   8.632   0.115 -0.5089 -0.6674  0.6942
 8323SOL    HW235439   4.269   8.767   0.100 -0.7731 -0.9765 -0.5097
 8324SOL     OW35440   0.235   4.450   1.770 -0.2569  0.1462 -0.2825
 8324SOL    HW135441   0.297   4.372   1.768 -0.8403 -0.3751  1.5912
 8324SOL    HW235442   0.208   4.473   1.676  1.1146 -0.9224 -0.9566
 8325SOL     OW35443   9.780   6.720   2.650  0.1127 -0.1105 -0.3622
 8325SOL    HW135444   9.696   6.744   2.698 -0.2197 -1.2440 -0.3426
 8325SOL    HW235445   9.789   6.774   2.567 -0.7062 -0.0813 -0.4334
 8326SOL     OW35446   1.073   4.083   1.393 -0.8964 -0.4800 -0.1877
 8326SOL    HW135447   1.061   4.046   1.485 -0.7671  0.5814  0.2505
 8326SOL    HW235448   1.133   4.022   1.341  0.1503 -0.3565  0.8556
 8327SOL     OW35449   8.192   1.598   2.513 -0.0545  0.4898  0.2554
 8327SOL    HW135450   8.285   1.635   2.527 -0.3977  1.2954  0.4601
 8327SOL    HW235451   8.133   1.632   2.586 -0.4780 -0.1481  0.2053
 8328SOL     OW35452   1.570   1.524   1.748 -0.2532  0.2471 -0.5963
 8328SOL    HW135453   1.592   1.490   1.657 -0.3337  0.4485 -0.6935
 8328SOL    HW235454   1.576   1.624   1.748 -0.9421  0.2938 -0.5688
 8329SOL     OW35455   2.534   3.771   1.397 -0.0517  0.0478 -0.1632
 8329SOL    HW135456   2.575   3.773   1.488 -0.3900 -0.2094 -0.0029
 8329SOL    HW235457   2.447   3.721   1.400 -1.3938  2.3084 -0.0777
 8330SOL     OW35458   8.971   8.583   1.452 -0.2828  0.5823 -1.0495
 8330SOL    HW135459   9.000   8.496   1.493 -1.3085  0.9315  0.4465
 8330SOL    HW235460   9.049   8.625   1.405  0.8250  0.0002  0.2467
 8331SOL     OW35461   0.283   0.560   1.969 -0.6310 -0.1800  0.1686
 8331SOL    HW135462   0.250   0.530   2.058  0.8487  1.3218  1.2360
 8331SOL    HW235463   0.361   0.621   1.980 -0.5510  0.1978 -2.1442
 8332SOL     OW35464   3.380   3.072   3.267  0.3994 -0.1533 -0.3406
 8332SOL    HW135465   3.287   3.034   3.277  0.6443 -0.8848 -0.7420
 8332SOL    HW235466   3.429   3.019   3.197  0.8441  0.7566 -0.7229
 8333SOL     OW35467   3.838   8.117   0.885 -0.5632 -0.5587  0.1910
 8333SOL    HW135468   3.902   8.124   0.962  0.0314  1.1106 -0.4324
 8333SOL    HW235469   3.883   8.069   0.809 -0.8403 -1.3975  0.5499
 8334SOL     OW35470   6.345   8.656   2.989  0.4599  0.1889 -0.0283
 8334SOL    HW135471   6.421   8.704   3.033  1.3804 -0.6348 -0.6834
 8334SOL    HW235472   6.376   8.619   2.901 -1.0792  1.0070 -0.9445
 8335SOL     OW35473   0.401   2.485   2.052 -0.3323  0.2465 -0.0338
 8335SOL    HW135474   0.317   2.461   2.002 -0.8996 -1.1746  1.5471
 8335SOL    HW235475   0.400   2.440   2.141  2.7314 -0.7914 -0.4908
 8336SOL     OW35476   9.457   4.662   3.270 -0.5599  0.4311 -0.1468
 8336SOL    HW135477   9.487   4.613   3.188  1.6237 -1.1034  1.5039
 8336SOL    HW235478   9.357   4.668   3.270 -0.8101 -2.7823 -1.1243
 8337SOL     OW35479   6.663   9.159   2.553 -0.2249 -0.3994 -0.5750
 8337SOL    HW135480   6.709   9.114   2.629 -0.6467 -1.3187 -0.8603
 8337SOL    HW235481   6.663   9.098   2.473  0.6518  0.7344 -1.4752
 8338SOL     OW35482   0.170   2.115   1.953 -0.0346 -0.1756  0.0032
 8338SOL    HW135483   0.125   2.026   1.941 -0.2145 -0.1883  0.7169
 8338SOL    HW235484   0.270   2.101   1.955 -0.0368 -0.2808 -0.5074
 8339SOL     OW35485   9.350   9.835   3.761 -0.0082 -0.4490 -0.0733
 8339SOL    HW135486   9.393   9.747   3.784  0.1382 -0.3839 -0.1041
 8339SOL    HW235487   9.393   9.873   3.680 -0.2305 -0.4595 -0.1979
 8340SOL     OW35488   1.794   0.517   1.529 -0.4508 -0.1773 -0.1017
 8340SOL    HW135489   1.776   0.517   1.431 -1.2777  0.4668  0.0469
 8340SOL    HW235490   1.731   0.579   1.575  1.7277  1.6555  0.5193
 8341SOL     OW35491   3.569   0.329   3.740 -0.3581  0.3759  0.1577
 8341SOL    HW135492   3.581   0.269   3.661  0.1175  1.3369 -0.5038
 8341SOL    HW235493   3.657   0.342   3.786 -0.2875  1.2630 -0.2163
 8342SOL     OW35494   1.015   0.897   0.214 -0.0200  0.0748 -0.2495
 8342SOL    HW135495   1.062   0.967   0.159 -0.0285 -1.1301 -1.8068
 8342SOL    HW235496   0.948   0.849   0.157 -1.1767 -0.1235  1.2373
 8343SOL     OW35497   2.362   6.172   3.504  0.2214 -0.1975  0.1955
 8343SOL    HW135498   2.385   6.085   3.460 -2.0519 -0.0554 -1.3959
 8343SOL    HW235499   2.432   6.240   3.482  0.1320 -0.6627 -1.6432
 8344SOL     OW35500   9.849   6.920   1.055 -0.6574 -0.0490  0.1461
 8344SOL    HW135501   9.892   6.865   0.984  1.7540 -0.6191  1.9776
 8344SOL    HW235502   9.827   6.862   1.134 -0.2980  1.1466  1.1523
 8345SOL     OW35503   9.609   3.061   3.416  0.2612 -0.5360  0.4252
 8345SOL    HW135504   9.701   3.039   3.381  0.2803 -1.2240  0.8868
 8345SOL    HW235505   9.547   2.987   3.393  0.2966 -1.0494  1.9222
 8346SOL     OW35506   9.953   0.324   1.473 -0.4822  0.1829 -0.5813
 8346SOL    HW135507   9.960   0.307   1.375  0.5626 -1.0825 -0.3044
 8346SOL    HW235508   9.953   0.422   1.490  0.3833  0.4001 -1.7705
 8347SOL     OW35509   3.612   1.301   1.714  0.3112  0.7191  0.1205
 8347SOL    HW135510   3.588   1.317   1.810 -1.1880  0.2225 -0.1597
 8347SOL    HW235511   3.572   1.214   1.684  1.0875  0.6974 -0.8481
 8348SOL     OW35512   1.165   0.917   3.727 -0.4713  0.0439  0.5701
 8348SOL    HW135513   1.187   0.879   3.637  0.2685  0.2476  0.6649
 8348SOL    HW235514   1.079   0.877   3.760 -0.0565 -1.0399  0.3667
 8349SOL     OW35515   9.536   8.596   2.715  0.4387 -0.1561  0.6791
 8349SOL    HW135516   9.568   8.608   2.621 -2.0582 -1.7270 -0.4266
 8349SOL    HW235517   9.513   8.685   2.754  0.9192  0.4485 -0.4001
 8350SOL     OW35518   8.198   5.588   1.433  0.0481 -0.3739  0.2237
 8350SOL    HW135519   8.184   5.666   1.373 -0.3123 -1.5156 -1.1971
 8350SOL    HW235520   8.267   5.527   1.395  0.5282 -0.6183  1.4518
 8351SOL     OW35521   4.553   3.092   0.262 -0.2246  0.3888  0.0974
 8351SOL    HW135522   4.637   3.087   0.317  0.9778 -0.4464 -1.7738
 8351SOL    HW235523   4.476   3.062   0.318  0.9498 -0.2875  1.4080
 8352SOL     OW35524   8.446   9.444   1.067  0.0600  0.9965 -0.1436
 8352SOL    HW135525   8.387   9.520   1.096 -0.7946 -0.4140  1.8913
 8352SOL    HW235526   8.494   9.406   1.146 -0.8550 -1.7352 -0.8517
 8353SOL     OW35527   8.388   7.874   2.370  0.8766  0.1554  0.0031
 8353SOL    HW135528   8.382   7.904   2.274 -0.6196  1.5400  0.4993
 8353SOL    HW235529   8.328   7.795   2.384 -0.3877  1.1354  0.2138
 8354SOL     OW35530   4.369   7.367   1.839  0.8615  0.1961 -0.2715
 8354SOL    HW135531   4.363   7.414   1.927  2.3093 -0.5555  0.2501
 8354SOL    HW235532   4.394   7.432   1.768  0.4299  0.6653  0.0010
 8355SOL     OW35533   2.010   1.763   1.544  0.0718 -0.3559  0.2866
 8355SOL    HW135534   1.927   1.760   1.488  0.5382 -0.2060 -0.4069
 8355SOL    HW235535   2.087   1.727   1.492  0.3587 -0.9046  1.0861
 8356SOL     OW35536   8.477   8.446   2.656  0.8134 -0.3131  0.4850
 8356SOL    HW135537   8.415   8.368   2.650  2.3615 -1.4812 -0.6783
 8356SOL    HW235538   8.432   8.527   2.619  0.0245 -1.1608 -0.4255
 8357SOL     OW35539   1.409   1.152   2.109 -0.1027  0.2897 -0.5864
 8357SOL    HW135540   1.509   1.150   2.109 -0.0663 -3.7261 -2.7666
 8357SOL    HW235541   1.377   1.233   2.060  2.0255  1.7925  0.4281
 8358SOL     OW35542   2.020   8.486   0.946  0.1585 -0.3207 -0.1700
 8358SOL    HW135543   2.007   8.387   0.943  2.8030 -0.7821  1.8807
 8358SOL    HW235544   1.936   8.529   0.980 -0.3526 -2.0312  0.8074
 8359SOL     OW35545   4.821   8.615   2.984 -0.7120  0.2241 -1.3917
 8359SOL    HW135546   4.754   8.542   2.990  0.5757 -0.7510  2.7094
 8359SOL    HW235547   4.785   8.697   3.028  0.3162  0.0331 -0.1652
 8360SOL     OW35548   0.127   6.906   2.397 -0.4246  0.5924 -0.2708
 8360SOL    HW135549   0.074   6.833   2.353  0.9990  0.3892 -1.6642
 8360SOL    HW235550   0.166   6.871   2.482 -0.6150  0.0377 -0.4082
 8361SOL     OW35551   8.089   8.912   2.192  0.1065 -0.4214  0.1371
 8361SOL    HW135552   8.114   8.983   2.126  0.5702  1.0766  1.8706
 8361SOL    HW235553   8.055   8.832   2.143  0.0718  0.7836 -1.8923
 8362SOL     OW35554   7.912   9.992   2.333 -0.1446  0.6489  0.4837
 8362SOL    HW135555   7.865   9.945   2.258  0.0594 -1.1143  1.4456
 8362SOL    HW235556   7.967  10.067   2.295 -0.6939  0.3051 -1.0421
 8363SOL     OW35557   4.368   3.485   2.423 -0.0093 -0.1386  0.0274
 8363SOL    HW135558   4.451   3.440   2.391  0.3957  1.0184 -0.5357
 8363SOL    HW235559   4.335   3.439   2.506  0.6593 -1.1815 -0.2813
 8364SOL     OW35560   8.575   1.645   0.522  0.6325 -0.2202 -0.5974
 8364SOL    HW135561   8.517   1.567   0.498  3.5032 -2.4369 -0.6315
 8364SOL    HW235562   8.522   1.710   0.575 -1.4853 -2.9064  0.7305
 8365SOL     OW35563   3.001   4.981   1.994 -0.1803  0.3575  0.3574
 8365SOL    HW135564   3.007   5.066   1.942  0.0307  0.1095 -0.0226
 8365SOL    HW235565   2.946   4.915   1.944  1.4092 -0.4589 -0.3395
 8366SOL     OW35566   4.376   3.076   3.860  0.2696  0.2175  0.3290
 8366SOL    HW135567   4.283   3.040   3.866  0.0122  0.8060 -0.0989
 8366SOL    HW235568   4.429   3.046   3.939 -0.5899  0.7682  1.1204
 8367SOL     OW35569   7.190   9.810   2.151 -0.0189  0.5071 -0.5697
 8367SOL    HW135570   7.133   9.769   2.223  1.1425  0.0824  0.1129
 8367SOL    HW235571   7.273   9.847   2.192  0.5687  0.4153 -1.6802
 8368SOL     OW35572   1.161   6.484   3.889  0.1869  0.0641  0.1069
 8368SOL    HW135573   1.124   6.392   3.906 -2.8012  1.1452 -0.1809
 8368SOL    HW235574   1.139   6.511   3.795  1.1127  1.0332  0.1701
 8369SOL     OW35575   3.402   9.107   1.145 -0.2014 -0.1966  0.6406
 8369SOL    HW135576   3.415   9.032   1.210  0.8277 -0.3462  0.2745
 8369SOL    HW235577   3.457   9.186   1.173  0.4147 -0.3370 -0.1548
 8370SOL     OW35578   1.234   7.629   1.270 -0.2394  0.5454 -0.2504
 8370SOL    HW135579   1.276   7.718   1.257 -0.0482  0.3581 -0.9378
 8370SOL    HW235580   1.261   7.568   1.195 -0.2342 -0.1361  0.3035
 8371SOL     OW35581   8.707   2.935   3.277  0.3056  0.0797 -0.6525
 8371SOL    HW135582   8.773   2.966   3.209  0.7178  0.4057 -0.1148
 8371SOL    HW235583   8.713   2.836   3.288 -0.8517 -0.1756 -2.2124
 8372SOL     OW35584   4.524   8.217   3.179  0.6363 -0.1663  0.1300
 8372SOL    HW135585   4.463   8.138   3.185  0.3741  0.0612  0.4334
 8372SOL    HW235586   4.584   8.206   3.099 -0.6127  0.1921 -0.8635
 8373SOL     OW35587   3.254   5.359   1.826 -0.4669 -0.0751  0.2222
 8373SOL    HW135588   3.344   5.400   1.810 -0.6584  0.6490  0.9441
 8373SOL    HW235589   3.190   5.430   1.854 -0.8444 -0.8476  1.3447
 8374SOL     OW35590   1.669   7.966   1.868  0.3370  0.1615 -0.2520
 8374SOL    HW135591   1.639   8.033   1.800 -0.7010  1.2441  1.2446
 8374SOL    HW235592   1.621   7.880   1.853 -1.5059  1.0408  0.3958
 8375SOL     OW35593   3.897   0.963   1.328 -0.2627  0.0937 -0.2650
 8375SOL    HW135594   3.970   0.941   1.263  0.4848 -0.8340  0.8433
 8375SOL    HW235595   3.895   1.061   1.345 -0.6848  0.3734 -1.9401
 8376SOL     OW35596   1.478   5.561   2.979  0.4750 -0.5634  0.5743
 8376SOL    HW135597   1.540   5.559   2.900 -0.3101 -0.2631 -0.0547
 8376SOL    HW235598   1.532   5.569   3.063  1.3190 -0.9104  0.0724
 8377SOL     OW35599   3.587   2.258   0.250  0.0475 -0.4146 -0.0411
 8377SOL    HW135600   3.507   2.208   0.217  0.5983 -0.6511 -1.0597
 8377SOL    HW235601   3.612   2.328   0.183 -0.3410  0.8222  1.0838
 8378SOL     OW35602   9.953   5.556   0.557  0.6903 -0.7064  0.3043
 8378SOL    HW135603   9.972   5.460   0.536  1.3190 -0.3846 -0.6385
 8378SOL    HW235604   9.856   5.567   0.577  0.5457 -1.4815  0.0621
 8379SOL     OW35605   2.254   7.747   3.708 -0.6500  0.9916 -0.5514
 8379SOL    HW135606   2.186   7.722   3.639  0.0165 -0.5090 -0.6696
 8379SOL    HW235607   2.259   7.675   3.778 -0.0151  1.6439  0.0859
 8380SOL     OW35608   2.846   5.198   3.418 -0.4119 -0.3322 -0.1480
 8380SOL    HW135609   2.936   5.185   3.460  0.1089 -0.7509 -1.3925
 8380SOL    HW235610   2.778   5.146   3.469 -0.2519  1.3379  1.8325
 8381SOL     OW35611   4.586   3.876   1.569 -0.7477 -0.0024  0.5745
 8381SOL    HW135612   4.575   3.950   1.636 -1.0913  0.6410 -0.1879
 8381SOL    HW235613   4.645   3.805   1.608  1.5626  1.7703  0.4419
 8382SOL     OW35614   3.559   4.680   0.763 -0.2624 -0.1582 -0.0601
 8382SOL    HW135615   3.480   4.619   0.769 -1.0619  0.9154  0.3401
 8382SOL    HW235616   3.542   4.763   0.816  0.7108  0.5353 -0.8161
 8383SOL     OW35617   1.276   2.425   1.368  0.0543 -0.3899  0.1269
 8383SOL    HW135618   1.253   2.443   1.464  2.0848 -0.9116  0.7347
 8383SOL    HW235619   1.276   2.512   1.318  0.7702  0.1396  1.0139
 8384SOL     OW35620   0.414   5.396   3.056 -0.0474  0.7063 -0.2001
 8384SOL    HW135621   0.346   5.344   3.108 -0.7604  2.7595  0.9992
 8384SOL    HW235622   0.504   5.383   3.097 -0.0279 -0.4757 -0.6047
 8385SOL     OW35623   3.426   8.157   0.258 -0.4448  0.3086  0.1533
 8385SOL    HW135624   3.403   8.162   0.161  1.0643 -2.0665 -0.3605
 8385SOL    HW235625   3.512   8.206   0.275  1.7161 -3.0857 -0.5841
 8386SOL     OW35626   2.945   7.458   1.464  0.2013  0.2769  0.0377
 8386SOL    HW135627   2.936   7.527   1.535  0.1086 -0.1930  0.4829
 8386SOL    HW235628   2.917   7.369   1.500 -1.6592  0.3548 -1.1012
 8387SOL     OW35629   4.717   3.068   0.802 -0.4501 -0.7759  0.1827
 8387SOL    HW135630   4.710   3.108   0.711  1.3436  0.4265  0.5584
 8387SOL    HW235631   4.706   2.969   0.795 -0.4068 -0.6870 -1.3450
 8388SOL     OW35632   7.762   3.625   1.025  0.4176  0.4541  0.5796
 8388SOL    HW135633   7.770   3.539   0.975 -0.5428 -0.0916  1.3651
 8388SOL    HW235634   7.710   3.691   0.970  0.8916  0.4435  0.1119
 8389SOL     OW35635   5.366   0.942   2.031  0.0284 -0.0255  0.5663
 8389SOL    HW135636   5.341   0.962   2.125  0.0455  0.8137  0.3915
 8389SOL    HW235637   5.424   1.015   1.995 -2.2615  1.0731 -0.9967
 8390SOL     OW35638   9.761   3.834   2.291 -0.1072 -0.1044  0.1223
 8390SOL    HW135639   9.674   3.871   2.260  0.0049  0.3798  0.3814
 8390SOL    HW235640   9.833   3.902   2.276  0.1630 -0.3651  0.2450
 8391SOL     OW35641   3.229   2.275   3.288  0.4133 -0.0029  0.6735
 8391SOL    HW135642   3.305   2.314   3.237  0.6618  1.1251  1.8703
 8391SOL    HW235643   3.252   2.273   3.386 -0.8033 -0.3291  0.9617
 8392SOL     OW35644   8.370   4.559   2.684 -0.3359  0.1757 -0.3099
 8392SOL    HW135645   8.444   4.538   2.747  1.1190  0.6587 -1.8274
 8392SOL    HW235646   8.323   4.474   2.659  1.3999 -0.5018 -1.3819
 8393SOL     OW35647   7.657   1.794   0.888 -0.3733  0.2093 -0.1301
 8393SOL    HW135648   7.592   1.745   0.946  1.1304  0.5402  1.8719
 8393SOL    HW235649   7.710   1.859   0.943  0.3550  1.2956 -2.0599
 8394SOL     OW35650   0.853   3.042   3.648  0.3312 -0.4641  0.2602
 8394SOL    HW135651   0.779   3.018   3.711 -0.7116  1.1398 -0.3076
 8394SOL    HW235652   0.855   3.142   3.635  1.7021 -0.6138 -0.8053
 8395SOL     OW35653   2.132   8.568   2.253 -0.1657  0.1381  0.4256
 8395SOL    HW135654   2.176   8.608   2.333 -0.7135 -0.4308  1.0169
 8395SOL    HW235655   2.168   8.476   2.238 -0.0444  0.2550  0.0041
 8396SOL     OW35656   8.742   4.744   1.511 -0.7022  0.1266 -0.0511
 8396SOL    HW135657   8.734   4.729   1.609  0.8139  1.6166  0.3267
 8396SOL    HW235658   8.748   4.842   1.492 -0.0181 -0.1847 -1.5571
 8397SOL     OW35659   9.254   5.759   2.721  0.7176 -0.3892  0.0048
 8397SOL    HW135660   9.291   5.667   2.708  0.7481 -0.2644 -0.7857
 8397SOL    HW235661   9.326   5.819   2.757 -0.0599 -1.3655  3.3459
 8398SOL     OW35662   2.106   0.444   2.692 -0.0124  0.3483 -0.2175
 8398SOL    HW135663   2.108   0.544   2.681  3.1134  0.7693  3.1696
 8398SOL    HW235664   2.082   0.422   2.787  0.8544 -2.0825 -0.5330
 8399SOL     OW35665   4.611   0.848   1.776 -0.2611  0.3062 -0.0938
 8399SOL    HW135666   4.661   0.897   1.848 -0.3222  0.2737 -0.0291
 8399SOL    HW235667   4.639   0.752   1.776 -0.1171  0.3480 -0.2427
 8400SOL     OW35668   5.369   7.785   2.772 -0.1544 -0.4813 -0.1614
 8400SOL    HW135669   5.375   7.690   2.804 -1.3889  0.2996  2.6194
 8400SOL    HW235670   5.318   7.838   2.840 -0.2291  1.9818 -2.1198
 8401SOL     OW35671   3.831   2.654   0.273 -0.4252 -0.1272 -0.8165
 8401SOL    HW135672   3.911   2.695   0.230  0.8767 -0.6638  1.0632
 8401SOL    HW235673   3.859   2.576   0.330 -1.9319  1.3826  2.1000
 8402SOL     OW35674   8.014   1.472   0.532 -0.1141  0.3137 -0.1697
 8402SOL    HW135675   7.974   1.479   0.441  1.0820 -0.1090 -0.7457
 8402SOL    HW235676   8.003   1.559   0.580 -0.1336  0.7650 -0.9751
 8403SOL     OW35677   9.896   6.477   3.100  0.4105  0.0774 -0.0695
 8403SOL    HW135678   9.885   6.406   3.030  0.0148 -0.3046  0.3703
 8403SOL    HW235679   9.828   6.549   3.085 -1.1504 -1.0765  1.1929
 8404SOL     OW35680   0.755   2.774   0.729  0.2764  0.5424  0.0063
 8404SOL    HW135681   0.710   2.760   0.640 -3.0314 -0.0825  1.6918
 8404SOL    HW235682   0.808   2.859   0.727 -1.3137  1.5364 -1.9796
 8405SOL     OW35683   8.716   3.631   0.278 -0.8819 -0.0289 -0.5146
 8405SOL    HW135684   8.645   3.695   0.308 -1.1669 -0.3577 -0.4806
 8405SOL    HW235685   8.675   3.561   0.219 -0.5363 -0.0635 -0.7110
 8406SOL     OW35686   0.394   2.333   3.401  0.1064  0.9089 -0.4561
 8406SOL    HW135687   0.343   2.396   3.342 -0.3937 -2.1769 -3.5242
 8406SOL    HW235688   0.491   2.334   3.375  0.0679  0.3584 -0.6486
 8407SOL     OW35689   3.082   7.914   3.202 -0.2128 -0.1830 -0.1023
 8407SOL    HW135690   3.176   7.883   3.192 -0.4424 -0.0729 -2.9505
 8407SOL    HW235691   3.021   7.853   3.151 -1.6302  0.0937  1.2168
 8408SOL     OW35692   4.321   7.624   2.618  0.2116  0.0194  0.1118
 8408SOL    HW135693   4.337   7.690   2.545 -1.0935 -0.1730 -0.3486
 8408SOL    HW235694   4.293   7.672   2.701  0.7133  0.1570  0.2019
 8409SOL     OW35695   0.483   5.353   2.026  0.3848  0.3075  0.3118
 8409SOL    HW135696   0.405   5.339   2.088 -0.1636  0.2526 -0.3798
 8409SOL    HW235697   0.527   5.265   2.008 -0.5574  0.0491 -0.7907
 8410SOL     OW35698   1.740   0.892   3.404 -0.3017 -0.2290 -0.4758
 8410SOL    HW135699   1.732   0.799   3.368 -0.8902 -0.3597 -0.0143
 8410SOL    HW235700   1.681   0.902   3.484  0.4353  0.2788  0.0144
 8411SOL     OW35701   3.678   8.748   3.379 -0.3717  0.0321 -0.0511
 8411SOL    HW135702   3.708   8.801   3.458 -0.9879  1.5097 -0.8075
 8411SOL    HW235703   3.654   8.655   3.409 -0.4396  0.5242  1.4639
 8412SOL     OW35704   8.738   8.037   0.236 -0.2195 -0.0500 -0.4326
 8412SOL    HW135705   8.703   7.944   0.251  1.6741 -0.8894 -1.0608
 8412SOL    HW235706   8.721   8.064   0.141  0.8424 -0.4796 -0.7538
 8413SOL     OW35707   1.074   1.285   0.337  0.4973 -0.0450 -0.0943
 8413SOL    HW135708   1.061   1.235   0.251 -0.4057 -1.1840  0.6888
 8413SOL    HW235709   1.111   1.223   0.406 -0.0497  0.5307  0.7203
 8414SOL     OW35710   0.482   3.711   2.930 -0.0973  0.3082  0.3019
 8414SOL    HW135711   0.487   3.675   3.023 -1.2657  0.3579  0.3903
 8414SOL    HW235712   0.444   3.803   2.931  0.7490  0.6717 -0.1465
 8415SOL     OW35713   1.689   6.345   1.081  0.6070 -0.1912 -0.1788
 8415SOL    HW135714   1.641   6.265   1.118 -0.1848  0.0858 -0.5856
 8415SOL    HW235715   1.765   6.314   1.024  1.8219 -0.6185  1.6311
 8416SOL     OW35716   0.622   7.280   2.269 -0.4805  0.0364 -0.3800
 8416SOL    HW135717   0.593   7.207   2.331 -0.4955 -0.0247 -0.4576
 8416SOL    HW235718   0.699   7.329   2.309 -1.0547  0.5631  0.0790
 8417SOL     OW35719   8.975   1.758   1.626 -0.2779 -0.2649  0.4295
 8417SOL    HW135720   9.036   1.683   1.599  0.1001 -0.2072  1.0966
 8417SOL    HW235721   8.929   1.733   1.712 -0.4205  0.1172  0.4636
 8418SOL     OW35722   9.345   6.404   3.065 -0.2557  0.9037  0.6898
 8418SOL    HW135723   9.428   6.421   3.118 -1.8495  2.4939  2.7684
 8418SOL    HW235724   9.293   6.330   3.108 -0.9736  1.3980  0.6849
 8419SOL     OW35725   0.701   4.433   3.240  0.4535 -0.0106  0.8253
 8419SOL    HW135726   0.704   4.440   3.140  1.1593 -0.3243  0.8198
 8419SOL    HW235727   0.788   4.465   3.278  0.8886 -1.5959  1.2266
 8420SOL     OW35728   4.780   3.253   1.946 -0.1023 -0.0266 -0.1778
 8420SOL    HW135729   4.815   3.172   1.992  0.9980 -0.0438 -0.9954
 8420SOL    HW235730   4.756   3.230   1.852 -0.4543  0.4427 -0.2048
 8421SOL     OW35731   3.958   1.409   2.394 -0.7415  0.1555  0.3414
 8421SOL    HW135732   4.041   1.453   2.359 -0.6009 -1.2040 -1.1129
 8421SOL    HW235733   3.953   1.421   2.493  0.1612  1.9373  0.1941
 8422SOL     OW35734   3.721   1.592   3.185  0.3274  0.2415 -0.0972
 8422SOL    HW135735   3.781   1.671   3.171  1.4535 -0.8993 -1.9204
 8422SOL    HW235736   3.709   1.576   3.283  3.9302 -0.2148  0.3087
 8423SOL     OW35737   2.080   0.472   1.506 -0.4062  0.0644 -0.5169
 8423SOL    HW135738   2.105   0.517   1.592 -1.5335  0.5734 -0.4394
 8423SOL    HW235739   1.980   0.474   1.495 -0.4801 -2.1920 -0.6399
 8424SOL     OW35740   1.550   2.923   3.791 -0.2405 -0.2634 -0.4543
 8424SOL    HW135741   1.521   2.972   3.874  0.4947 -1.2506  0.3895
 8424SOL    HW235742   1.636   2.875   3.809  0.3968  0.2406 -2.0616
 8425SOL     OW35743   8.097   3.056   1.674  0.6641 -0.0771  0.0227
 8425SOL    HW135744   8.147   2.983   1.628 -0.0383  0.3119 -1.3834
 8425SOL    HW235745   8.010   3.073   1.627 -0.0530  0.3674  1.4656
 8426SOL     OW35746   9.873   2.773   3.615 -0.2001 -0.5963  0.6128
 8426SOL    HW135747   9.832   2.856   3.653 -0.3959 -0.8955  1.0641
 8426SOL    HW235748   9.905   2.715   3.690  1.6930 -0.0469  0.2587
 8427SOL     OW35749   4.296   5.042   2.447 -0.4085  0.3984 -0.3231
 8427SOL    HW135750   4.355   5.121   2.461  2.8728 -2.0128  0.0144
 8427SOL    HW235751   4.292   5.019   2.350  1.7531 -1.2376 -0.0671
 8428SOL     OW35752   0.299   5.644   1.411  0.1532  0.2914  0.3904
 8428SOL    HW135753   0.202   5.641   1.439  0.3275  2.5237  1.3444
 8428SOL    HW235754   0.311   5.712   1.339  1.3282  1.4200  1.6310
 8429SOL     OW35755   2.954   0.130   1.717 -0.3463 -0.3372  0.2263
 8429SOL    HW135756   2.971   0.215   1.768 -0.8688  0.8657 -1.5524
 8429SOL    HW235757   2.873   0.086   1.754  1.7031 -1.7551  3.2468
 8430SOL     OW35758   8.936   8.268   0.320  0.0097 -0.1319 -0.0685
 8430SOL    HW135759   8.942   8.241   0.224  2.0529 -1.0459  0.2794
 8430SOL    HW235760   8.840   8.277   0.347 -0.6068 -1.3677 -1.7751
 8431SOL     OW35761   9.278   2.788   2.226  0.1130  0.0221 -0.0147
 8431SOL    HW135762   9.335   2.760   2.303 -0.2473  1.3854  0.7560
 8431SOL    HW235763   9.242   2.706   2.180  2.2398 -0.8353 -0.2075
 8432SOL     OW35764   0.233   4.203   2.570 -0.8806  0.2170 -0.1396
 8432SOL    HW135765   0.215   4.106   2.555  1.8497 -0.3742  0.2656
 8432SOL    HW235766   0.308   4.234   2.511 -0.8630  1.7692  0.6475
 8433SOL     OW35767   2.742   7.613   0.596 -0.4831  0.0368 -0.3000
 8433SOL    HW135768   2.676   7.556   0.547  0.3783  0.3658 -1.9044
 8433SOL    HW235769   2.830   7.565   0.599 -0.6870 -0.2407  1.4953
 8434SOL     OW35770   2.582   8.424   0.349 -0.0619 -0.6823  0.6985
 8434SOL    HW135771   2.545   8.515   0.332  0.0426 -0.6981  0.3885
 8434SOL    HW235772   2.627   8.390   0.266  0.5336 -0.7196  1.0364
 8435SOL     OW35773   8.663   9.394   0.038 -0.0058  0.3345  0.3931
 8435SOL    HW135774   8.750   9.345   0.042 -0.2437 -0.2500 -1.2134
 8435SOL    HW235775   8.678   9.488   0.007 -0.0546 -0.0674 -0.8631
 8436SOL     OW35776   1.163   5.414   0.564 -0.6633  0.0271  0.2962
 8436SOL    HW135777   1.183   5.461   0.478 -1.2165  2.0797  1.2736
 8436SOL    HW235778   1.248   5.378   0.603 -0.1448  0.8251 -0.0968
 8437SOL     OW35779   0.707   7.944   3.001 -0.1022 -0.1976  0.2580
 8437SOL    HW135780   0.801   7.971   2.980 -0.0874  0.1931  0.8312
 8437SOL    HW235781   0.688   7.959   3.098 -0.9322  0.2572  0.0327
 8438SOL     OW35782   8.235   2.411   0.214  0.0214  0.5956  0.3744
 8438SOL    HW135783   8.225   2.490   0.274 -0.9157  0.9603 -0.2502
 8438SOL    HW235784   8.144   2.380   0.183  0.5451  1.4723 -2.2038
 8439SOL     OW35785   3.344   8.118   0.798 -0.0702 -0.1458  0.0283
 8439SOL    HW135786   3.248   8.102   0.821  0.1349 -2.1095 -0.3730
 8439SOL    HW235787   3.350   8.159   0.707 -0.6354  2.5926  1.1971
 8440SOL     OW35788   0.187   3.812   1.054 -0.2529 -0.2902  0.5623
 8440SOL    HW135789   0.119   3.845   1.119 -0.8394 -0.8716  0.2369
 8440SOL    HW235790   0.234   3.890   1.013 -2.2084  0.1934 -0.8206
 8441SOL     OW35791   4.295   0.219   3.573 -0.0770 -0.7054 -0.1142
 8441SOL    HW135792   4.384   0.216   3.618  0.5530 -0.9081 -1.3559
 8441SOL    HW235793   4.300   0.276   3.491 -0.7603 -1.6882 -0.8643
 8442SOL     OW35794   4.197   9.965   2.641 -0.3643  0.0034 -0.7448
 8442SOL    HW135795   4.179  10.062   2.624 -1.2731 -0.3579 -1.9127
 8442SOL    HW235796   4.277   9.936   2.589 -0.7815 -0.1451 -1.3088
 8443SOL     OW35797   1.127   9.317   2.564  0.0733  0.3985  0.9886
 8443SOL    HW135798   1.085   9.246   2.620  0.5258 -1.5752 -1.0783
 8443SOL    HW235799   1.056   9.375   2.525 -0.5631 -0.9260  0.1156
 8444SOL     OW35800   6.829   8.817   3.438  0.1396  0.1761 -0.0168
 8444SOL    HW135801   6.752   8.753   3.443  0.4092 -0.1443  0.0165
 8444SOL    HW235802   6.802   8.905   3.477 -0.6341  0.4684 -1.2037
 8445SOL     OW35803   1.775   0.853   1.299  0.0524 -0.1102 -0.1703
 8445SOL    HW135804   1.822   0.766   1.314 -0.2603 -0.5679 -1.7663
 8445SOL    HW235805   1.738   0.886   1.386  1.7184 -0.6652  0.7869
 8446SOL     OW35806   9.365   5.700   0.704  0.1812  0.4211  0.1595
 8446SOL    HW135807   9.302   5.777   0.713 -1.1835 -0.4748 -1.3839
 8446SOL    HW235808   9.394   5.670   0.795 -1.6778  0.8221  0.9150
 8447SOL     OW35809   0.852   4.724   3.492 -0.1206 -0.2136  0.4025
 8447SOL    HW135810   0.919   4.661   3.452 -0.7812  0.9360 -2.6752
 8447SOL    HW235811   0.871   4.817   3.461 -0.9625  0.6926  2.4980
 8448SOL     OW35812   2.871   7.808   1.501  0.0256  0.0151 -0.0196
 8448SOL    HW135813   2.883   7.746   1.578 -1.1122 -1.6661 -1.1571
 8448SOL    HW235814   2.834   7.895   1.533  1.3892  0.0209  1.5676
 8449SOL     OW35815   4.070   3.371   0.930  0.0212 -0.2713 -0.3237
 8449SOL    HW135816   4.073   3.349   1.028 -0.3332  1.1341  0.0136
 8449SOL    HW235817   4.150   3.425   0.906 -0.1621 -0.1643 -0.6955
 8450SOL     OW35818   1.396   0.666   2.357  0.1522  0.1370 -0.3351
 8450SOL    HW135819   1.435   0.639   2.445  0.7101  1.5216 -0.1369
 8450SOL    HW235820   1.468   0.671   2.288 -0.3583 -1.3893 -0.9882
 8451SOL     OW35821   8.577   7.604   0.063 -0.3454 -0.5892 -0.0046
 8451SOL    HW135822   8.606   7.513   0.091 -0.1964  0.5601  3.9241
 8451SOL    HW235823   8.656   7.658   0.034 -0.3422 -1.4506 -1.6387
 8452SOL     OW35824   4.385   1.396   1.589 -0.3391 -0.5366 -0.4718
 8452SOL    HW135825   4.428   1.307   1.605 -0.4550 -0.6437 -0.7557
 8452SOL    HW235826   4.309   1.385   1.526 -0.3431 -0.2324 -0.5202
 8453SOL     OW35827   1.398   9.886   3.207 -0.4861  0.6771  0.4190
 8453SOL    HW135828   1.423   9.978   3.239  0.7910  1.2385 -2.0722
 8453SOL    HW235829   1.327   9.894   3.137 -0.0042 -0.1905 -0.1733
 8454SOL     OW35830   5.036   7.907   2.385  0.0342  0.0105 -0.5595
 8454SOL    HW135831   4.938   7.908   2.401  0.2139 -0.3431  0.6087
 8454SOL    HW235832   5.080   7.844   2.449  1.1186  0.7903 -0.5153
 8455SOL     OW35833   9.246   1.326   1.651  0.1684 -0.0909  0.4386
 8455SOL    HW135834   9.202   1.246   1.611  0.0530  0.0771  0.2284
 8455SOL    HW235835   9.210   1.342   1.743  2.3862 -2.0982  1.7160
 8456SOL     OW35836   0.836   8.997   3.589 -0.3565  0.1281 -0.1636
 8456SOL    HW135837   0.920   8.952   3.620  0.2392  0.6383 -0.9890
 8456SOL    HW235838   0.859   9.065   3.519 -1.3478  1.0255  0.3691
 8457SOL     OW35839   3.464   9.139   1.516 -0.2007  0.1255  0.3924
 8457SOL    HW135840   3.378   9.189   1.500 -0.0182  0.4666  0.4756
 8457SOL    HW235841   3.484   9.082   1.436  0.1404  0.9986 -0.1542
 8458SOL     OW35842   9.239   2.324   3.599 -0.2393  0.3936 -0.3940
 8458SOL    HW135843   9.226   2.363   3.508 -1.3323 -0.0059 -0.4191
 8458SOL    HW235844   9.240   2.397   3.667 -0.6801  0.6022 -0.6065
 8459SOL     OW35845   8.871   9.811   0.642 -0.2650  0.0319 -0.1641
 8459SOL    HW135846   8.816   9.751   0.699  1.3504 -0.7402  0.6200
 8459SOL    HW235847   8.853   9.791   0.545 -1.6477  0.0865  0.0770
 8460SOL     OW35848   0.241   6.793   1.958 -0.7474  0.1825  0.4573
 8460SOL    HW135849   0.188   6.709   1.971  0.7614 -1.2606 -2.3008
 8460SOL    HW235850   0.216   6.834   1.870  1.4145  0.4125 -0.0782
 8461SOL     OW35851   0.819   4.028   3.111  0.1111  0.5311  0.3450
 8461SOL    HW135852   0.781   4.013   3.203  0.0137 -0.0166  0.2201
 8461SOL    HW235853   0.894   3.963   3.095  0.5234  1.0245  0.2608
 8462SOL     OW35854   9.020   1.741   0.575  0.1396  0.5816 -0.2901
 8462SOL    HW135855   8.967   1.739   0.491 -1.7495 -0.2882  0.8996
 8462SOL    HW235856   9.062   1.652   0.590  0.1768  0.6263 -0.1269
 8463SOL     OW35857   0.786   9.684   1.159 -0.2272  0.5031 -0.5051
 8463SOL    HW135858   0.837   9.713   1.240 -1.1502 -0.1398  0.3144
 8463SOL    HW235859   0.699   9.734   1.154 -1.2963 -1.2391  0.2734
 8464SOL     OW35860   9.327   7.456   3.783 -0.2306  0.3725  0.2220
 8464SOL    HW135861   9.403   7.448   3.718 -0.0354  0.5010  0.4348
 8464SOL    HW235862   9.290   7.549   3.779 -1.9002 -0.3194 -1.5795
 8465SOL     OW35863   2.204   9.958   1.303 -0.0624  0.1281 -0.2097
 8465SOL    HW135864   2.127   9.894   1.296  0.0046  0.0596 -0.3100
 8465SOL    HW235865   2.248   9.947   1.392 -0.1364  0.1316 -0.1723
 8466SOL     OW35866   2.033   0.440   2.965 -0.1974  0.1698  0.2232
 8466SOL    HW135867   2.051   0.393   3.052 -0.6246  1.2523  0.9047
 8466SOL    HW235868   1.941   0.479   2.966  0.1247  0.9558 -0.3668
 8467SOL     OW35869   0.748   1.176   3.096 -0.3856  0.0878 -0.1844
 8467SOL    HW135870   0.818   1.114   3.060 -0.7807 -1.0063  0.8941
 8467SOL    HW235871   0.705   1.225   3.020 -0.5678 -1.4934 -1.1432
 8468SOL     OW35872   5.245   8.839   2.016 -0.1779  0.3619  0.3620
 8468SOL    HW135873   5.229   8.800   1.925 -0.4171  0.8033  0.2154
 8468SOL    HW235874   5.333   8.805   2.051 -0.3363 -0.2338  0.1952
 8469SOL     OW35875   8.548   2.367   2.005  0.2390  0.4364  0.2899
 8469SOL    HW135876   8.572   2.409   1.917  3.3966 -1.0752  0.3585
 8469SOL    HW235877   8.607   2.405   2.076 -0.0324 -0.7638  1.1563
 8470SOL     OW35878   8.324   4.076   1.331 -0.6933  0.0384  0.2219
 8470SOL    HW135879   8.318   4.150   1.398  0.2315  0.1048  0.2409
 8470SOL    HW235880   8.236   4.064   1.286 -1.1091  0.5106  0.8996
 8471SOL     OW35881   1.639   4.419   1.777 -0.1071 -0.5270 -0.0433
 8471SOL    HW135882   1.732   4.455   1.789 -0.6168  0.9692 -0.4514
 8471SOL    HW235883   1.625   4.341   1.838  0.9940  0.0368  0.9377
 8472SOL     OW35884   3.291   0.453   2.762  0.0099 -0.1215 -0.1746
 8472SOL    HW135885   3.344   0.530   2.797  0.4844 -0.2872 -0.5108
 8472SOL    HW235886   3.280   0.385   2.834  0.9412 -0.4395 -0.3269
 8473SOL     OW35887   0.414   9.928   1.816  0.0748  0.3067  0.1191
 8473SOL    HW135888   0.491   9.951   1.757 -0.5439 -0.5386 -1.0349
 8473SOL    HW235889   0.421   9.833   1.847 -0.2087  0.3959  0.4750
 8474SOL     OW35890   3.149   4.409   3.989  0.2570  0.3076 -0.0356
 8474SOL    HW135891   3.222   4.402   4.057 -0.5232 -1.0450  0.6799
 8474SOL    HW235892   3.174   4.357   3.908  0.1124 -0.1400  0.2023
 8475SOL     OW35893   7.130   9.103   1.220  0.9619 -0.1324  0.1516
 8475SOL    HW135894   7.076   9.138   1.143  2.7875 -1.2067 -1.6807
 8475SOL    HW235895   7.097   9.144   1.305 -0.1967  2.1769 -1.3403
 8476SOL     OW35896   3.084   5.585   2.790  0.6125  0.1373  0.4445
 8476SOL    HW135897   3.090   5.554   2.695  0.1731  1.0040  0.1302
 8476SOL    HW235898   3.163   5.550   2.841  1.5718  0.7999 -0.5596
 8477SOL     OW35899   3.150   6.344   0.750  0.0855 -0.0534 -0.1322
 8477SOL    HW135900   3.098   6.388   0.677  0.9454  0.6613 -0.3177
 8477SOL    HW235901   3.215   6.279   0.710  0.6122  0.3944 -0.0073
 8478SOL     OW35902   1.202   0.505   0.854  0.2280  0.0847 -0.2302
 8478SOL    HW135903   1.241   0.511   0.762  0.5677  0.2596 -0.0761
 8478SOL    HW235904   1.181   0.409   0.875  2.0317 -0.2274  0.2798
 8479SOL     OW35905   7.418   8.794   0.031 -0.2090 -0.1957  0.3838
 8479SOL    HW135906   7.488   8.864   0.041 -0.4770  0.1684 -0.2838
 8479SOL    HW235907   7.409   8.768  -0.065 -0.4466 -0.7955  0.5645
 8480SOL     OW35908   8.041   4.416   0.397 -0.4195 -0.2654  0.5126
 8480SOL    HW135909   7.976   4.463   0.338  0.1139 -1.1944 -0.8372
 8480SOL    HW235910   7.991   4.358   0.462 -1.0031  0.7779  1.0226
 8481SOL     OW35911   9.983   1.353   0.064 -0.3066 -0.1944  0.0831
 8481SOL    HW135912   9.991   1.262   0.024 -1.4199 -1.0092  1.6559
 8481SOL    HW235913   9.900   1.357   0.120 -0.5200  1.9383 -0.3541
 8482SOL     OW35914   6.865   0.331   3.187  0.6684 -0.1738  0.1843
 8482SOL    HW135915   6.961   0.325   3.160  1.0199 -0.1775  1.4301
 8482SOL    HW235916   6.820   0.400   3.131  0.8766 -1.6462 -1.8598
 8483SOL     OW35917   0.825   9.374   0.236  0.3867  0.2015 -0.2608
 8483SOL    HW135918   0.880   9.301   0.197 -0.3802 -0.4855 -0.0763
 8483SOL    HW235919   0.864   9.402   0.324  0.6798  0.0101 -0.3301
 8484SOL     OW35920   4.067   6.926   2.358 -0.0025 -0.1282 -0.3389
 8484SOL    HW135921   4.154   6.972   2.342 -0.1403  1.2617  2.6742
 8484SOL    HW235922   4.083   6.831   2.384  0.5088 -0.3778 -1.5357
 8485SOL     OW35923   9.091   0.626   2.172  0.2081  0.3330  0.1407
 8485SOL    HW135924   9.065   0.653   2.079 -2.4477  0.3815  0.8606
 8485SOL    HW235925   9.014   0.640   2.234  1.3042 -1.5803  2.0072
 8486SOL     OW35926   2.241   5.695   3.003  0.4481  0.0349  0.3595
 8486SOL    HW135927   2.248   5.598   3.029  1.2714 -0.5974 -2.0342
 8486SOL    HW235928   2.320   5.745   3.039  1.1051 -0.6405 -0.1185
 8487SOL     OW35929   1.090   8.009   1.857 -0.8430 -0.2715  0.0036
 8487SOL    HW135930   0.995   7.993   1.827 -1.3478 -0.3134  1.5679
 8487SOL    HW235931   1.099   8.103   1.889 -0.2648 -0.1715 -0.4613
 8488SOL     OW35932   1.691   3.231   1.600 -0.1292 -0.2528 -0.7234
 8488SOL    HW135933   1.614   3.183   1.557  0.4951 -1.0240 -0.9962
 8488SOL    HW235934   1.666   3.258   1.693 -0.1910 -1.8703 -0.2624
 8489SOL     OW35935   1.474   8.012   0.159  0.3570  0.3294 -0.7915
 8489SOL    HW135936   1.420   7.968   0.087 -1.0869 -0.0822  0.5186
 8489SOL    HW235937   1.556   7.958   0.177  0.4472  0.1406 -1.7528
 8490SOL     OW35938   3.763   2.964   0.881 -0.0603 -0.0509  0.4926
 8490SOL    HW135939   3.676   2.988   0.839 -0.6522  0.9377  2.2524
 8490SOL    HW235940   3.803   3.045   0.923  2.4620 -0.1374 -1.5629
 8491SOL     OW35941   0.533   2.125   0.592 -0.1079 -0.7267 -0.5635
 8491SOL    HW135942   0.469   2.202   0.585  0.2786 -0.3833 -0.3752
 8491SOL    HW235943   0.496   2.046   0.544 -0.8052 -0.6180 -0.2109
 8492SOL     OW35944   0.056   5.978   2.230  0.4420  0.2938 -0.2108
 8492SOL    HW135945  -0.005   6.044   2.188 -1.3740 -0.4623  1.1674
 8492SOL    HW235946   0.069   5.900   2.168  1.5545  1.3157 -1.2906
 8493SOL     OW35947   3.782   2.962   0.117  0.6990 -0.2869  0.7259
 8493SOL    HW135948   3.789   3.006   0.207 -0.6697  1.8647 -0.1611
 8493SOL    HW235949   3.775   3.033   0.046 -2.0733 -1.9478 -0.7410
 8494SOL     OW35950   0.028   4.988   1.048 -0.0877  0.5975  0.4613
 8494SOL    HW135951   0.117   4.943   1.060  0.7047  1.6042 -1.4061
 8494SOL    HW235952  -0.041   4.941   1.102  1.4124 -0.7473  1.2410
 8495SOL     OW35953   2.258   5.502   3.731 -0.4700  0.5985  0.3515
 8495SOL    HW135954   2.340   5.515   3.788  0.0461  1.4337 -0.5825
 8495SOL    HW235955   2.251   5.576   3.665 -2.2756  0.8129  0.7520
 8496SOL     OW35956   0.377   1.070   3.708 -0.0350  0.1517 -0.2841
 8496SOL    HW135957   0.296   1.119   3.739 -0.6446 -0.3424 -1.0706
 8496SOL    HW235958   0.459   1.125   3.727 -0.4025  0.0136  1.8313
 8497SOL     OW35959   4.420   7.961   3.663  0.5443  0.1326 -0.4069
 8497SOL    HW135960   4.449   8.049   3.702  1.0803 -1.6881  3.6299
 8497SOL    HW235961   4.490   7.926   3.601  1.5194  1.3452 -0.0018
 8498SOL     OW35962   9.805   5.751   3.844  0.2400  0.3812  0.3769
 8498SOL    HW135963   9.895   5.721   3.874  0.5664  0.9874  0.0003
 8498SOL    HW235964   9.809   5.780   3.748 -0.7129 -1.1685 -0.1441
 8499SOL     OW35965   8.975   0.666   1.925 -0.2167 -0.1791 -0.1508
 8499SOL    HW135966   9.060   0.718   1.914 -0.6500  0.8010  1.0928
 8499SOL    HW235967   8.970   0.596   1.853  2.4389 -1.3404  0.7145
 8500SOL     OW35968   3.108   9.291   2.270  1.2400  0.0709 -0.3349
 8500SOL    HW135969   3.042   9.257   2.202  1.7100  0.2352 -0.8784
 8500SOL    HW235970   3.065   9.293   2.360  0.3490  0.6164 -0.7640
 8501SOL     OW35971   1.045   6.900   1.238 -0.4195 -0.1472  0.3784
 8501SOL    HW135972   1.098   6.829   1.284 -0.9754 -1.4773 -0.9772
 8501SOL    HW235973   0.973   6.857   1.183 -0.4705  1.4604 -0.8382
 8502SOL     OW35974   3.555   8.347   3.759  0.3148  0.2774 -0.0853
 8502SOL    HW135975   3.508   8.266   3.723  2.1059 -1.2396  0.9347
 8502SOL    HW235976   3.487   8.417   3.781 -1.2450 -0.8450 -1.2135
 8503SOL     OW35977   0.644   4.901   0.670 -0.0071  0.4683  0.1177
 8503SOL    HW135978   0.548   4.876   0.686  0.0426 -0.2582 -0.6260
 8503SOL    HW235979   0.652   5.000   0.664 -0.7529  0.5285  0.0041
 8504SOL     OW35980   0.592   3.743   2.210 -0.2113  0.3009  0.3598
 8504SOL    HW135981   0.511   3.692   2.181 -0.8319  1.2876  0.3317
 8504SOL    HW235982   0.564   3.831   2.249  0.9341  1.7034 -1.8301
 8505SOL     OW35983   0.758   1.599   0.952  0.3670  0.0262 -0.5393
 8505SOL    HW135984   0.850   1.584   0.988  1.0317  0.9881 -1.8191
 8505SOL    HW235985   0.740   1.536   0.876 -0.5294 -1.0497  0.5315
 8506SOL     OW35986   7.522   9.176   0.890 -0.1346  0.3295  0.3249
 8506SOL    HW135987   7.544   9.148   0.984  1.7890  0.3296 -0.1041
 8506SOL    HW235988   7.559   9.268   0.874  1.0103 -0.3443 -0.9607
 8507SOL     OW35989   3.206   4.704   3.328 -0.2402 -0.7702  0.0167
 8507SOL    HW135990   3.254   4.760   3.396 -1.6685 -0.3703  0.7228
 8507SOL    HW235991   3.244   4.721   3.237  0.5872 -0.0599  0.4912
 8508SOL     OW35992   2.367   1.133   2.078 -0.5023 -0.3126  0.8296
 8508SOL    HW135993   2.286   1.133   2.019  0.2438  1.1164 -0.2040
 8508SOL    HW235994   2.414   1.045   2.070  0.7294  0.5849 -2.2914
 8509SOL     OW35995   4.700   8.676   2.419 -0.2349 -0.3934 -0.0566
 8509SOL    HW135996   4.797   8.653   2.429  0.2534  2.0445  0.9466
 8509SOL    HW235997   4.661   8.697   2.508 -1.1033  0.9504 -0.7494
 8510SOL     OW35998   9.891   9.536   2.143 -0.0850 -0.0319  0.1707
 8510SOL    HW135999   9.910   9.507   2.049 -0.9556  1.3850 -0.4467
 8510SOL    HW236000   9.855   9.629   2.143 -1.1460 -0.4189  1.8160
 8511SOL     OW36001   8.918   7.763   3.494  0.0076  0.3203  1.0896
 8511SOL    HW136002   8.823   7.788   3.477  0.5309  1.2187 -0.5841
 8511SOL    HW236003   8.977   7.844   3.483  1.2486 -0.7556 -0.3684
 8512SOL     OW36004   3.041   8.961   1.907 -0.4739 -0.4386 -0.9231
 8512SOL    HW136005   3.122   8.918   1.948 -0.1435  1.0216 -0.0234
 8512SOL    HW236006   2.969   8.967   1.975 -1.2942 -1.5674 -1.6739
 8513SOL     OW36007   1.328   3.376   0.248 -0.1214  0.2726 -0.2130
 8513SOL    HW136008   1.263   3.384   0.323  3.0251  3.3253  2.3062
 8513SOL    HW236009   1.291   3.421   0.167 -2.5852 -1.0800  0.1313
 8514SOL     OW36010   1.422   9.081   3.200  0.3048 -0.1848  0.6555
 8514SOL    HW136011   1.324   9.082   3.180  0.6566  0.5728 -1.1123
 8514SOL    HW236012   1.460   8.993   3.172  0.5519  0.3837 -0.8141
 8515SOL     OW36013   1.914   1.107   0.496 -0.5154  0.2504 -0.0065
 8515SOL    HW136014   1.893   1.015   0.528 -0.8743  0.1248 -0.5945
 8515SOL    HW236015   1.844   1.171   0.528  0.4330  0.5538  1.5036
 8516SOL     OW36016   3.902   2.342   2.876 -0.0309  0.2831 -0.4383
 8516SOL    HW136017   3.994   2.321   2.909 -0.0054  0.3057 -0.4952
 8516SOL    HW236018   3.905   2.367   2.779  0.2243  2.6033  0.1325
 8517SOL     OW36019   8.084   7.933   3.453  0.0914  0.3828  0.1552
 8517SOL    HW136020   7.985   7.923   3.455  0.0729  0.5944  0.2798
 8517SOL    HW236021   8.111   8.013   3.507  0.2067  1.3102 -1.2294
 8518SOL     OW36022   0.355   9.894   0.649  0.2198 -0.3451 -0.2699
 8518SOL    HW136023   0.399   9.908   0.560  0.5658 -1.7043 -0.3105
 8518SOL    HW236024   0.347   9.983   0.695 -0.1535  0.4112 -1.7317
 8519SOL     OW36025   1.262   9.062   2.921  0.0490 -0.2305 -0.2934
 8519SOL    HW136026   1.259   9.159   2.896 -2.3360  0.2398  1.6392
 8519SOL    HW236027   1.202   9.010   2.861  1.4376 -0.5669 -1.4217
 8520SOL     OW36028   4.428   9.670   1.578  0.0066 -0.4212  0.4370
 8520SOL    HW136029   4.376   9.681   1.494  0.1634  0.7127  0.4848
 8520SOL    HW236030   4.366   9.673   1.657  0.1407  0.9601  0.4957
 8521SOL     OW36031   3.320   8.811   1.522  0.3711  0.7600 -0.2277
 8521SOL    HW136032   3.224   8.823   1.497  0.6473 -0.4828 -1.9414
 8521SOL    HW236033   3.326   8.751   1.602 -0.2159 -0.3374 -0.9940
 8522SOL     OW36034   5.925   7.958   2.853 -0.3260  0.5425  0.0973
 8522SOL    HW136035   5.981   7.954   2.936 -0.5626  1.2550  0.2935
 8522SOL    HW236036   5.876   8.046   2.850 -0.7976  0.2611 -0.4828
 8523SOL     OW36037   3.876   8.548   1.569  0.5144 -0.3616 -0.2222
 8523SOL    HW136038   3.958   8.526   1.516  1.3861  0.4064  0.7828
 8523SOL    HW236039   3.818   8.466   1.578  1.2912 -0.9670 -0.7125
 8524SOL     OW36040   1.146   1.506   1.867  0.0460 -0.1373 -0.2072
 8524SOL    HW136041   1.046   1.515   1.859 -0.0925 -1.0087  0.5519
 8524SOL    HW236042   1.172   1.504   1.963  0.6787 -1.2323 -0.3989
 8525SOL     OW36043   4.470   1.304   0.755  0.2602 -0.0710  0.3659
 8525SOL    HW136044   4.542   1.241   0.727  0.0566 -0.4637  0.7328
 8525SOL    HW236045   4.429   1.273   0.840 -0.9789 -0.3493 -0.3211
 8526SOL     OW36046   3.374   1.561   1.813  0.5218  0.1941 -0.5527
 8526SOL    HW136047   3.303   1.631   1.818  0.7247  0.4252 -0.8953
 8526SOL    HW236048   3.437   1.582   1.738  0.1660 -0.7412 -1.1179
 8527SOL     OW36049   0.975   8.798   1.492 -0.1825  0.4946 -0.0591
 8527SOL    HW136050   0.912   8.779   1.568 -0.4998  1.1237 -0.1660
 8527SOL    HW236051   0.970   8.894   1.468  0.4263  0.4350 -0.4306
 8528SOL     OW36052   3.351   8.235   0.550  0.5263 -0.0224  0.3996
 8528SOL    HW136053   3.360   8.174   0.471 -1.0187 -1.3962  1.2484
 8528SOL    HW236054   3.429   8.298   0.552  0.2529  0.4856 -2.5774
 8529SOL     OW36055   1.317   0.507   0.273  0.8195  0.5784 -0.4284
 8529SOL    HW136056   1.223   0.536   0.292  0.5391 -0.0989 -0.7578
 8529SOL    HW236057   1.335   0.420   0.320  0.3165 -0.7992 -2.7251
 8530SOL     OW36058   2.822   2.449   0.755 -0.7035 -0.1852  0.2743
 8530SOL    HW136059   2.779   2.359   0.758  0.1093 -0.6454 -1.4316
 8530SOL    HW236060   2.794   2.497   0.671 -0.3828  0.7744  0.7012
 8531SOL     OW36061   1.797   2.400   0.338  0.0762 -0.0726 -0.3572
 8531SOL    HW136062   1.871   2.428   0.277 -1.0041  2.6945 -0.4828
 8531SOL    HW236063   1.718   2.369   0.284  0.3086 -0.8410 -0.2674
 8532SOL     OW36064   3.936   9.369   2.308 -0.1888  0.2953  0.5199
 8532SOL    HW136065   3.920   9.425   2.389 -3.3209 -0.3926  0.4292
 8532SOL    HW236066   3.894   9.279   2.321 -0.2556 -0.0108 -1.6560
 8533SOL     OW36067   2.711   3.670   3.628  0.0161  0.2805  0.3358
 8533SOL    HW136068   2.623   3.711   3.605  1.1911  2.3221 -0.6343
 8533SOL    HW236069   2.773   3.740   3.664  1.7060 -0.8575 -0.2876
 8534SOL     OW36070   8.684   7.218   2.924  0.1513  0.3336  0.0457
 8534SOL    HW136071   8.716   7.180   2.837  0.0270  0.9020 -0.2466
 8534SOL    HW236072   8.761   7.228   2.986  0.1561 -0.6162  0.2119
 8535SOL     OW36073   0.203   2.540   1.300 -0.8973 -0.4448  0.6213
 8535SOL    HW136074   0.151   2.499   1.374 -0.9691 -1.0127  0.2630
 8535SOL    HW236075   0.283   2.483   1.279 -0.4848  0.0822  0.7370
 8536SOL     OW36076   4.098   2.755   0.220  0.1107 -0.2427 -0.0357
 8536SOL    HW136077   4.133   2.820   0.153 -1.1973 -0.9861 -1.4778
 8536SOL    HW236078   4.088   2.800   0.308  4.1026  0.1507  0.3295
 8537SOL     OW36079   9.939   0.022   1.041 -0.9446  0.2516  0.5967
 8537SOL    HW136080   9.907   0.033   0.947  0.0299  2.0545  0.4606
 8537SOL    HW236081   9.863   0.037   1.104 -1.2303  0.6817  0.1504
 8538SOL     OW36082   9.646   3.142   1.181 -0.1786 -0.7156  0.0375
 8538SOL    HW136083   9.612   3.225   1.224  1.5744 -0.1613  0.4142
 8538SOL    HW236084   9.577   3.070   1.188 -1.2238  0.3416  0.8088
 8539SOL     OW36085   9.049   6.838   0.591  0.0554  0.2008  0.3334
 8539SOL    HW136086   9.022   6.914   0.532 -1.8122 -0.3448  0.4603
 8539SOL    HW236087   8.981   6.825   0.662  0.3784 -1.5598  0.3518
 8540SOL     OW36088   7.984   3.132   0.883 -0.2796  0.2603 -0.0031
 8540SOL    HW136089   7.937   3.047   0.907 -0.4580  0.5825  0.8212
 8540SOL    HW236090   8.070   3.137   0.934 -1.0987  1.3887  1.2909
 8541SOL     OW36091   0.697   9.534   0.965  0.2855  0.3908 -0.6486
 8541SOL    HW136092   0.745   9.576   1.041  0.1005 -1.4904  0.5417
 8541SOL    HW236093   0.640   9.602   0.919  0.7316  1.6332  0.6390
 8542SOL     OW36094   9.846   8.459   0.996  0.5941 -0.2571 -0.2963
 8542SOL    HW136095   9.925   8.416   0.953  0.7599  0.5290 -0.7965
 8542SOL    HW236096   9.828   8.416   1.085  2.0608  0.0697  0.1748
 8543SOL     OW36097   0.108   0.305   2.986  0.4143 -0.0375  0.0383
 8543SOL    HW136098   0.040   0.376   2.970 -0.4416 -0.9455 -0.4048
 8543SOL    HW236099   0.178   0.310   2.915  1.3086  1.4724  1.0082
 8544SOL     OW36100   6.807   0.459   2.948 -0.0924  0.0041 -0.3099
 8544SOL    HW136101   6.825   0.448   2.850  0.6439 -1.9379  0.0212
 8544SOL    HW236102   6.712   0.489   2.961  0.1894  1.6136 -1.6568
 8545SOL     OW36103   9.740   6.028   2.040 -0.0737 -0.4216 -0.0175
 8545SOL    HW136104   9.816   6.092   2.049 -0.7533  0.3093  0.7375
 8545SOL    HW236105   9.689   6.024   2.127 -0.8681 -0.9129 -0.4958
 8546SOL     OW36106   1.788   7.034   1.234 -0.0411 -0.7143 -0.2267
 8546SOL    HW136107   1.708   7.084   1.201  0.2491 -1.1542 -1.6252
 8546SOL    HW236108   1.764   6.939   1.249 -0.4403 -0.2951  1.8646
 8547SOL     OW36109   8.645   9.630   1.958 -0.4694  0.2897 -0.1305
 8547SOL    HW136110   8.599   9.552   2.000 -0.1125  0.1806  0.0685
 8547SOL    HW236111   8.588   9.668   1.885 -0.3505 -0.5836 -0.6848
 8548SOL     OW36112   9.100   8.784   1.832 -0.4420 -0.4634 -0.2247
 8548SOL    HW136113   9.170   8.852   1.851  0.6141 -1.2086 -1.3461
 8548SOL    HW236114   9.009   8.825   1.838  0.1356  0.7388  0.2730
 8549SOL     OW36115   9.877   1.669   3.078  0.6851 -0.0888  0.6250
 8549SOL    HW136116   9.829   1.652   3.164  1.6866  1.1475  1.4584
 8549SOL    HW236117   9.895   1.767   3.069 -1.6061  0.1046 -2.2117
 8550SOL     OW36118   0.741   1.785   2.837 -0.0781 -0.1706 -0.1387
 8550SOL    HW136119   0.801   1.827   2.905 -0.0847  0.8780 -0.7633
 8550SOL    HW236120   0.648   1.779   2.872 -0.3283  1.4696 -0.4900
 8551SOL     OW36121   9.647   6.310   0.084 -0.3588  0.1931  0.1899
 8551SOL    HW136122   9.746   6.302   0.070 -0.3309  1.5343 -0.5071
 8551SOL    HW236123   9.619   6.249   0.157  0.9918 -0.2065  0.3986
 8552SOL     OW36124   0.694   7.967   3.887 -0.0153  0.4309  0.2892
 8552SOL    HW136125   0.642   8.035   3.835  0.8027  0.3084 -0.7062
 8552SOL    HW236126   0.772   8.011   3.931 -0.0819  0.3308  0.5096
 8553SOL     OW36127   3.412   2.331   3.010  0.4219 -0.0797 -0.7928
 8553SOL    HW136128   3.363   2.270   2.947 -1.8344  0.9893 -0.1108
 8553SOL    HW236129   3.480   2.278   3.061 -1.7765 -2.1659  0.1068
 8554SOL     OW36130   9.654   9.706   1.071 -0.0029 -0.5964  0.3398
 8554SOL    HW136131   9.690   9.617   1.045 -0.3841 -0.5248 -0.4482
 8554SOL    HW236132   9.614   9.700   1.162  1.3890 -0.8335  0.9503
 8555SOL     OW36133   3.724   0.249   1.991  0.1456 -0.1718  0.3650
 8555SOL    HW136134   3.695   0.197   2.071  0.7513 -0.1454  0.6029
 8555SOL    HW236135   3.644   0.287   1.946 -0.1649  0.2232  1.2360
 8556SOL     OW36136   9.860   6.955   0.609 -0.1377  0.3454 -0.0413
 8556SOL    HW136137   9.782   6.895   0.590  1.7449 -1.6053 -1.7590
 8556SOL    HW236138   9.868   7.023   0.536  1.0691 -0.8291 -1.0095
 8557SOL     OW36139   0.596   8.080   1.587  0.0541 -0.2033  0.7093
 8557SOL    HW136140   0.646   8.162   1.617  0.7823  0.3086 -1.7920
 8557SOL    HW236141   0.618   8.061   1.491 -2.4314 -1.5965  0.3783
 8558SOL     OW36142   2.514   0.856   1.761  0.0918  0.1332 -0.0142
 8558SOL    HW136143   2.424   0.836   1.722  0.0371 -0.1727  0.2680
 8558SOL    HW236144   2.509   0.849   1.860  0.0202  1.7234  0.1108
 8559SOL     OW36145   0.482   7.621   0.713  0.5118 -0.2146 -0.1696
 8559SOL    HW136146   0.515   7.562   0.787  0.4428 -2.2922 -1.7411
 8559SOL    HW236147   0.556   7.682   0.684  1.0238 -0.4878  0.5450
 8560SOL     OW36148   3.016   4.032   1.440  0.3940 -0.4327  0.2963
 8560SOL    HW136149   2.916   4.028   1.435  0.2662  1.4665  0.8906
 8560SOL    HW236150   3.051   4.094   1.370  1.1569 -1.1229  0.0597
 8561SOL     OW36151   1.625   3.578   2.654  0.2039  0.1319  0.1408
 8561SOL    HW136152   1.658   3.485   2.639 -2.8756 -1.1818  1.0901
 8561SOL    HW236153   1.676   3.619   2.729  1.8708 -0.6248 -0.5529
 8562SOL     OW36154   4.043   2.592   3.579 -0.0958  0.2303 -0.3798
 8562SOL    HW136155   4.101   2.658   3.530  1.0128  0.2754  0.9562
 8562SOL    HW236156   4.065   2.499   3.549  1.0663  0.2095  0.5182
 8563SOL     OW36157   8.960   9.368   3.932 -0.1891 -0.2205 -0.6548
 8563SOL    HW136158   8.944   9.344   3.836  0.7051  2.3057 -1.4611
 8563SOL    HW236159   9.050   9.410   3.941 -1.0369  1.2591  0.9787
 8564SOL     OW36160   2.609   2.315   1.828  0.5468 -0.2823 -0.1165
 8564SOL    HW136161   2.626   2.372   1.908 -0.8096  0.0032 -0.0130
 8564SOL    HW236162   2.551   2.238   1.853 -1.5438  0.8981 -1.2057
 8565SOL     OW36163   3.111   4.823   0.234  0.4788  0.3489 -0.0320
 8565SOL    HW136164   3.202   4.788   0.212  0.8274  0.9065  0.4861
 8565SOL    HW236165   3.120   4.912   0.279 -0.2763 -0.0554  0.9309
 8566SOL     OW36166   3.774   7.221   0.374  0.2754  0.0699  0.1048
 8566SOL    HW136167   3.683   7.254   0.349  0.0126 -0.3588  0.4923
 8566SOL    HW236168   3.769   7.125   0.400  1.1002 -0.4058 -1.3852
 8567SOL     OW36169   8.357   5.241   3.558  0.1414  0.4001  0.3639
 8567SOL    HW136170   8.323   5.148   3.570  1.3077  0.0911  1.4067
 8567SOL    HW236171   8.424   5.243   3.484 -1.7253  0.9196 -1.3724
 8568SOL     OW36172   2.551   0.239   1.938  0.3835  0.3860 -0.1576
 8568SOL    HW136173   2.538   0.297   2.019 -0.0036 -0.4692  0.3990
 8568SOL    HW236174   2.540   0.294   1.855 -1.5013  0.7947  0.3441
 8569SOL     OW36175   3.275   5.127   2.852 -0.0583  0.1280 -0.3883
 8569SOL    HW136176   3.178   5.113   2.874 -0.1147  1.5021  0.3045
 8569SOL    HW236177   3.322   5.039   2.851 -1.0078 -0.4053  0.7798
 8570SOL     OW36178   3.003   7.452   3.440 -0.4339  0.0689 -0.2376
 8570SOL    HW136179   3.012   7.549   3.416  1.3888 -0.5122 -2.0282
 8570SOL    HW236180   3.065   7.431   3.515 -1.8234  0.5560  1.0864
 8571SOL     OW36181   0.320   4.204   1.473  0.1484  0.5868  0.1661
 8571SOL    HW136182   0.342   4.286   1.421  0.3886  0.6183  0.3150
 8571SOL    HW236183   0.297   4.130   1.411  0.5771  0.5818  0.0132
 8572SOL     OW36184   9.581   0.474   2.731 -0.0338  0.2046  0.3733
 8572SOL    HW136185   9.583   0.550   2.797  2.3257 -0.5570  1.2325
 8572SOL    HW236186   9.627   0.395   2.770 -0.5034 -0.9634 -1.3869
 8573SOL     OW36187   9.038   1.047   3.820 -0.1864 -0.1605 -0.0059
 8573SOL    HW136188   9.120   1.101   3.801  0.2334 -0.1287  1.7374
 8573SOL    HW236189   8.965   1.073   3.757  1.4304 -0.8868 -2.2474
 8574SOL     OW36190   3.713   9.741   0.273  0.3888 -0.8745  0.5061
 8574SOL    HW136191   3.779   9.809   0.304  0.3730 -1.1923  1.2493
 8574SOL    HW236192   3.716   9.661   0.334 -0.9158 -0.7501  0.7422
 8575SOL     OW36193   2.721   8.136   3.604  0.0076 -0.0714 -0.3290
 8575SOL    HW136194   2.784   8.124   3.681 -2.5467 -1.6782  1.6143
 8575SOL    HW236195   2.719   8.051   3.550 -0.0290  0.2015 -0.7576
 8576SOL     OW36196   0.337   8.463   3.342 -0.5979  0.5922  0.5041
 8576SOL    HW136197   0.284   8.390   3.386 -1.2391  0.7919  0.0614
 8576SOL    HW236198   0.340   8.447   3.244 -0.1156  0.7656  0.4927
 8577SOL     OW36199   0.454   0.808   3.278 -0.3831  0.2155  0.0466
 8577SOL    HW136200   0.397   0.739   3.321  1.7997 -1.2123  0.7355
 8577SOL    HW236201   0.459   0.889   3.337 -1.0465  0.0568  0.3291
 8578SOL     OW36202   1.524   9.563   0.641 -0.2314  0.0670  0.2625
 8578SOL    HW136203   1.428   9.549   0.619 -0.5653  1.5576  0.7741
 8578SOL    HW236204   1.553   9.654   0.612  0.8805 -0.1499  0.6523
 8579SOL     OW36205   5.530   7.247   2.784 -0.4154  0.1878 -0.4236
 8579SOL    HW136206   5.624   7.236   2.813 -1.0578 -1.8913  0.9411
 8579SOL    HW236207   5.515   7.200   2.697 -0.7074 -1.3187  0.4310
 8580SOL     OW36208   2.535   6.709   1.078 -1.0941 -0.0908  0.0470
 8580SOL    HW136209   2.619   6.656   1.082 -0.8604  0.1663 -1.4099
 8580SOL    HW236210   2.462   6.655   1.036 -1.1124  0.4006 -0.5556
 8581SOL     OW36211   1.543   0.432   0.976  0.4789  0.2966 -0.3355
 8581SOL    HW136212   1.588   0.422   1.065  1.1432  0.6825 -0.6188
 8581SOL    HW236213   1.462   0.373   0.971 -0.4706  1.4464  1.1210
 8582SOL     OW36214   0.450   2.350   1.543  0.2649 -0.0358  0.8424
 8582SOL    HW136215   0.530   2.298   1.574  1.4067  0.1292 -1.6863
 8582SOL    HW236216   0.369   2.318   1.592  1.4006 -2.2729  1.3684
 8583SOL     OW36217   9.811   9.398   3.203 -0.2250  0.3157  0.5377
 8583SOL    HW136218   9.746   9.325   3.183  1.4793 -1.2851  0.7287
 8583SOL    HW236219   9.886   9.396   3.137  0.8413  0.6445  1.7143
 8584SOL     OW36220   9.055   6.891   3.667 -0.6533 -0.2474  0.4776
 8584SOL    HW136221   9.036   6.971   3.610  1.3906 -0.5815 -0.7364
 8584SOL    HW236222   8.969   6.856   3.705 -1.9349  0.6861 -1.4441
 8585SOL     OW36223   8.913   0.694   2.687 -0.1919  0.2381  0.2643
 8585SOL    HW136224   8.835   0.696   2.750  0.7318 -1.0228  1.4911
 8585SOL    HW236225   8.933   0.599   2.663  1.1453  0.5353  0.1810
 8586SOL     OW36226   2.416   1.729   3.546  0.4321  0.3628 -0.2869
 8586SOL    HW136227   2.505   1.687   3.528 -0.2794 -0.2614 -2.5129
 8586SOL    HW236228   2.382   1.698   3.636  2.7251  1.1266  0.8770
 8587SOL     OW36229   2.273   8.733   1.055 -0.0638  0.4587 -0.2773
 8587SOL    HW136230   2.362   8.778   1.049  0.7050 -1.1471 -1.3245
 8587SOL    HW236231   2.287   8.634   1.061 -1.7956  0.1249 -1.4265
 8588SOL     OW36232   9.501   7.216   0.642  0.0474  0.0161 -0.7314
 8588SOL    HW136233   9.455   7.283   0.700  0.8560  0.4904 -0.6316
 8588SOL    HW236234   9.551   7.151   0.700  1.1212  0.6825 -0.9046
 8589SOL     OW36235   0.121   6.782   0.654  0.7170 -0.6991 -0.2436
 8589SOL    HW136236   0.205   6.836   0.641 -1.0426  2.0470 -0.4604
 8589SOL    HW236237   0.042   6.836   0.628 -1.3465 -2.4537  2.1963
 8590SOL     OW36238   3.271   1.668   0.871 -0.0803 -0.1829 -0.0848
 8590SOL    HW136239   3.186   1.680   0.922 -0.3040 -0.1712 -0.4598
 8590SOL    HW236240   3.340   1.731   0.906 -0.2141 -0.2150  0.2413
 8591SOL     OW36241   3.212   0.720   1.692  0.5729  0.3719 -0.4099
 8591SOL    HW136242   3.125   0.711   1.642  0.9007  0.6003 -1.0193
 8591SOL    HW236243   3.241   0.816   1.691 -0.2834  0.7012  1.6843
 8592SOL     OW36244   8.508   3.339   1.308  0.0213 -0.7399  0.2872
 8592SOL    HW136245   8.445   3.263   1.316  0.9235 -1.8387 -2.3951
 8592SOL    HW236246   8.466   3.412   1.254 -0.5922  0.4261  2.2873
 8593SOL     OW36247   1.801   2.021   0.714  0.0892 -0.4280 -0.6014
 8593SOL    HW136248   1.890   2.047   0.753 -0.6057  0.1066  0.6571
 8593SOL    HW236249   1.739   1.993   0.788 -0.9726 -0.2454 -1.4145
 8594SOL     OW36250   0.366   8.723   1.112  0.2432  0.9190  0.2800
 8594SOL    HW136251   0.428   8.745   1.187 -0.8170  1.4201  1.0213
 8594SOL    HW236252   0.309   8.644   1.139  2.9594 -1.8496 -1.7505
 8595SOL     OW36253   8.755   6.692   1.593  0.1466 -0.1885 -0.0702
 8595SOL    HW136254   8.767   6.595   1.612  1.3601 -0.3254 -1.4198
 8595SOL    HW236255   8.841   6.740   1.611 -0.4019  0.6136  0.4535
 8596SOL     OW36256   8.391   1.976   1.915  0.0703  0.3663  0.1775
 8596SOL    HW136257   8.434   1.897   1.873 -0.7177  0.0112  0.0227
 8596SOL    HW236258   8.442   2.059   1.892 -0.4609  0.2100 -1.6548
 8597SOL     OW36259   0.336   7.314   3.555 -0.3599 -0.1710  0.3600
 8597SOL    HW136260   0.298   7.309   3.647  0.5046  0.6380  0.7672
 8597SOL    HW236261   0.436   7.314   3.560 -0.3106  0.1830 -0.5628
 8598SOL     OW36262   3.151   0.500   2.067 -1.0399 -0.0513  0.3411
 8598SOL    HW136263   3.069   0.555   2.085 -2.3172 -1.1135 -1.9867
 8598SOL    HW236264   3.223   0.559   2.029 -1.0894  0.6759  1.3483
 8599SOL     OW36265   8.892   9.566   2.927  0.0090  0.1158 -0.3789
 8599SOL    HW136266   8.943   9.538   2.846 -0.1043 -0.3511 -0.2952
 8599SOL    HW236267   8.941   9.639   2.974  0.0144  0.4661 -0.9308
 8600SOL     OW36268   8.175   1.246   3.502 -0.4464 -0.5456  0.7373
 8600SOL    HW136269   8.129   1.335   3.496  1.0981  0.1087 -1.6896
 8600SOL    HW236270   8.250   1.252   3.568  0.7525  0.4784 -0.6823
 8601SOL     OW36271   7.200   0.427   2.906 -0.0082  0.3591  0.0065
 8601SOL    HW136272   7.175   0.520   2.936  0.8477  1.1612 -1.6765
 8601SOL    HW236273   7.145   0.360   2.956  1.2921  1.6246  3.2022
 8602SOL     OW36274   2.843   2.802   1.101  0.1905 -0.1636  0.2990
 8602SOL    HW136275   2.802   2.868   1.164 -0.9404 -0.2905 -0.3010
 8602SOL    HW236276   2.829   2.831   1.007 -0.4713 -1.3471  0.0231
 8603SOL     OW36277   2.370   5.229   0.219  0.0943 -0.2071  0.5469
 8603SOL    HW136278   2.438   5.240   0.147  1.8637 -1.4288  2.0084
 8603SOL    HW236279   2.380   5.140   0.262 -1.1627  0.3708  2.1009
 8604SOL     OW36280   2.576   8.695   2.154  0.4300 -0.2879 -0.2670
 8604SOL    HW136281   2.566   8.665   2.249 -1.1652 -1.0391 -0.6652
 8604SOL    HW236282   2.631   8.628   2.104  2.5000  0.8209  0.4467
 8605SOL     OW36283   9.801   8.642   2.482 -0.1083 -0.1554  0.1096
 8605SOL    HW136284   9.824   8.549   2.453  1.1359  0.1986 -0.0779
 8605SOL    HW236285   9.884   8.697   2.487 -0.9509  1.2286 -0.7634
 8606SOL     OW36286   9.932   6.013   0.768  0.2354  0.2885  0.9111
 8606SOL    HW136287   9.999   5.977   0.703  1.0032 -0.0442  1.8831
 8606SOL    HW236288   9.974   6.086   0.822 -0.9739  1.9129 -0.2766
 8607SOL     OW36289   1.344   4.633   3.175 -0.1616  0.4277 -0.0603
 8607SOL    HW136290   1.391   4.678   3.098 -0.3840  2.3639  0.8958
 8607SOL    HW236291   1.389   4.659   3.260 -0.2662 -1.2647  0.5216
 8608SOL     OW36292   9.794   4.479   3.123  0.2296  0.1571 -0.1706
 8608SOL    HW136293   9.763   4.467   3.218 -1.1444  0.7259 -0.5211
 8608SOL    HW236294   9.801   4.577   3.104  0.5748  0.0382 -0.6344
 8609SOL     OW36295   2.264   5.787   3.664 -0.3869 -0.0530 -0.2801
 8609SOL    HW136296   2.241   5.884   3.668 -0.5662 -0.0896 -0.4364
 8609SOL    HW236297   2.359   5.776   3.635 -0.4675  0.0622 -0.5821
 8610SOL     OW36298   2.220   7.355   1.265 -0.3430 -0.4631 -0.1824
 8610SOL    HW136299   2.179   7.429   1.211 -2.2256  0.5030  2.4792
 8610SOL    HW236300   2.151   7.285   1.284  0.5933 -1.3373  0.0132
 8611SOL     OW36301   1.576   4.238   0.745 -0.1244  0.0098 -0.5779
 8611SOL    HW136302   1.671   4.253   0.719 -0.3913  1.3816 -0.7772
 8611SOL    HW236303   1.549   4.304   0.814 -0.0447 -2.3201  1.7454
 8612SOL     OW36304   2.653   4.280   2.664 -0.2248  0.3567  0.2127
 8612SOL    HW136305   2.699   4.191   2.672 -3.9003 -1.4267  4.1651
 8612SOL    HW236306   2.576   4.272   2.600  0.6650  1.2826 -0.9792
 8613SOL     OW36307   9.480   0.409   2.076  0.3333  0.0494 -0.8188
 8613SOL    HW136308   9.447   0.498   2.108  1.2742  0.0585  0.1715
 8613SOL    HW236309   9.471   0.342   2.150  1.1938 -0.2671 -0.9969
 8614SOL     OW36310   9.980   0.673   0.027  0.2488  0.2476  0.7232
 8614SOL    HW136311   9.951   0.727  -0.052 -0.5441 -1.3669 -0.1080
 8614SOL    HW236312   9.911   0.682   0.099  0.6249  1.1516  0.9842
 8615SOL     OW36313   8.687   0.470   3.658  0.3452 -0.1785 -0.2512
 8615SOL    HW136314   8.602   0.428   3.690 -0.5016  0.5233 -1.5390
 8615SOL    HW236315   8.730   0.411   3.591  0.3042 -0.0294 -0.4093
 8616SOL     OW36316   9.381   4.600   2.974  0.1785  0.3151  0.4147
 8616SOL    HW136317   9.415   4.509   2.999 -1.6269 -0.6883 -0.6862
 8616SOL    HW236318   9.402   4.618   2.878 -1.4482  0.1102  0.0082
 8617SOL     OW36319   3.300   0.277   2.561 -0.0422  0.5707 -0.3750
 8617SOL    HW136320   3.291   0.323   2.649  1.8885 -1.4813  0.9520
 8617SOL    HW236321   3.389   0.232   2.556 -0.3911  0.0905 -3.1284
 8618SOL     OW36322   9.934   5.104   0.748 -0.1360  0.4691 -0.2502
 8618SOL    HW136323   9.905   5.050   0.669 -0.7169  3.7842 -2.3954
 8618SOL    HW236324  10.033   5.093   0.762 -0.1776 -0.7970 -0.8993
 8619SOL     OW36325   7.752   8.919   1.972 -0.2965 -0.0972  0.3896
 8619SOL    HW136326   7.821   8.847   1.985 -0.1028  0.1095  0.4990
 8619SOL    HW236327   7.782   8.981   1.899 -0.2623  0.1242  0.5936
 8620SOL     OW36328   0.078   0.246   2.167 -0.3139  0.4018  0.0952
 8620SOL    HW136329   0.045   0.164   2.213 -0.3620 -0.2442 -1.0460
 8620SOL    HW236330   0.173   0.232   2.139 -0.8085  0.1162 -1.4948
 8621SOL     OW36331   0.089   0.750   1.863  0.4054 -0.0244  0.5625
 8621SOL    HW136332   0.145   0.795   1.793 -0.6680 -0.4363 -0.5817
 8621SOL    HW236333   0.138   0.669   1.897 -0.4541 -1.7679 -2.1616
 8622SOL     OW36334   6.804   9.317   0.646  0.1838  0.6148 -0.2454
 8622SOL    HW136335   6.875   9.259   0.686  0.8752  1.0662 -0.8155
 8622SOL    HW236336   6.715   9.274   0.662  0.7985 -1.3671 -1.9356
 8623SOL     OW36337   8.049   6.635   3.785  0.4305  0.0064  0.5827
 8623SOL    HW136338   8.110   6.713   3.801  0.5478  0.4393 -1.8013
 8623SOL    HW236339   8.067   6.596   3.695 -2.1829 -0.4458  0.2060
 8624SOL     OW36340   9.440   9.941   2.805 -0.0432 -0.0033  0.0275
 8624SOL    HW136341   9.421  10.040   2.804  2.5753  0.5300 -1.3163
 8624SOL    HW236342   9.385   9.896   2.735  2.5022  1.3109 -2.9437
 8625SOL     OW36343   1.909   5.544   2.928 -0.4231  0.0915 -0.5095
 8625SOL    HW136344   1.969   5.546   3.007 -2.3906 -0.3404  1.0321
 8625SOL    HW236345   1.853   5.627   2.925 -2.0081 -0.9330 -0.1030
 8626SOL     OW36346   2.804   9.974   3.187  0.4025 -0.4246 -0.1056
 8626SOL    HW136347   2.813   9.979   3.088 -0.8202  0.1361 -0.2013
 8626SOL    HW236348   2.833  10.061   3.228 -1.6263  0.3357 -0.1984
 8627SOL     OW36349   3.821   9.658   3.490  0.5679  0.1574  0.3067
 8627SOL    HW136350   3.868   9.588   3.435  1.3688  0.0565  1.1028
 8627SOL    HW236351   3.787   9.616   3.574 -0.7280  0.2913 -0.1476
 8628SOL     OW36352   0.854   3.328   3.597 -0.6749 -0.2349 -0.1033
 8628SOL    HW136353   0.934   3.374   3.633 -0.0000 -0.2396 -1.5498
 8628SOL    HW236354   0.850   3.340   3.498 -3.0697  0.7041  0.0624
 8629SOL     OW36355   9.013   7.341   1.678  0.3816 -0.7500  0.3671
 8629SOL    HW136356   8.953   7.293   1.742 -1.0361  0.5952  0.0871
 8629SOL    HW236357   9.082   7.392   1.729 -0.8005  0.3925  0.8695
 8630SOL     OW36358   9.454   5.080   2.705  0.2369 -0.2001  0.2161
 8630SOL    HW136359   9.504   5.010   2.756 -1.7403 -1.0579  1.0386
 8630SOL    HW236360   9.444   5.052   2.609  3.3598  1.0949 -0.5422
 8631SOL     OW36361   1.710   7.490   3.057  0.5336 -0.2471  0.1280
 8631SOL    HW136362   1.696   7.456   3.150  2.2231 -0.8051  0.2045
 8631SOL    HW236363   1.623   7.489   3.007  0.0318 -2.1862  0.9691
 8632SOL     OW36364   1.583   0.965   3.634  0.2854  0.1484 -0.2715
 8632SOL    HW136365   1.679   0.953   3.661  0.4730  0.2961 -0.8747
 8632SOL    HW236366   1.544   1.041   3.686 -0.2093 -1.4248  1.7526
 8633SOL     OW36367   4.848   9.559   0.175  0.0910  0.4176 -0.2070
 8633SOL    HW136368   4.845   9.500   0.094  2.3079 -0.4944  0.3336
 8633SOL    HW236369   4.779   9.528   0.241  2.8320 -3.2672  1.1219
 8634SOL     OW36370   1.798   2.215   1.280 -0.4263  0.5628  0.2993
 8634SOL    HW136371   1.777   2.281   1.352 -0.1950  1.6238 -0.5777
 8634SOL    HW236372   1.791   2.260   1.191 -0.8655 -0.7700 -0.3485
 8635SOL     OW36373   4.468   3.660   0.673  0.2046 -0.4749  0.0137
 8635SOL    HW136374   4.402   3.608   0.728 -0.2119 -0.6397 -0.6282
 8635SOL    HW236375   4.483   3.613   0.587 -0.5897  0.7276 -0.8110
 8636SOL     OW36376   3.310   6.752   0.829  0.6294 -0.3914  0.3901
 8636SOL    HW136377   3.250   6.695   0.886  1.7427 -0.5995  1.3706
 8636SOL    HW236378   3.371   6.694   0.775  0.1455 -0.1736 -0.3978
 8637SOL     OW36379   4.860   8.857   1.980 -0.4837 -0.1520 -0.0250
 8637SOL    HW136380   4.819   8.799   2.050 -0.9549 -0.2760 -0.4003
 8637SOL    HW236381   4.927   8.804   1.928  0.7994  0.2782  1.1449
 8638SOL     OW36382   9.058   7.314   0.753 -0.3866 -0.5004  0.2989
 8638SOL    HW136383   9.075   7.220   0.784 -1.4423 -0.5469  0.7408
 8638SOL    HW236384   8.962   7.336   0.766 -0.0932  0.7250  0.4012
 8639SOL     OW36385   2.987   3.064   3.703 -0.1932  0.0211 -0.1272
 8639SOL    HW136386   3.081   3.097   3.693  0.6031 -2.0346  0.4961
 8639SOL    HW236387   2.987   2.965   3.717 -2.4399  0.0329  0.1406
 8640SOL     OW36388   3.907   6.597   3.092  0.3300  0.2289 -0.1190
 8640SOL    HW136389   3.860   6.590   3.180  0.1189  0.3073 -0.2251
 8640SOL    HW236390   3.920   6.694   3.068  0.0976  0.2107 -0.3271
 8641SOL     OW36391   5.203   7.753   2.212 -0.1476  0.4440  0.7478
 8641SOL    HW136392   5.298   7.762   2.239 -0.0038  0.4616  0.2413
 8641SOL    HW236393   5.144   7.788   2.285  0.2314  0.4699  1.0438
 8642SOL     OW36394   3.447   5.504   1.687  0.0820 -0.4099  0.0802
 8642SOL    HW136395   3.492   5.571   1.746 -1.3201  1.5529 -1.0406
 8642SOL    HW236396   3.473   5.521   1.591 -1.9170 -0.1505 -0.4290
 8643SOL     OW36397   2.169   2.593   1.522  0.2027  0.2580 -0.5759
 8643SOL    HW136398   2.077   2.631   1.528 -0.2820 -0.3595 -3.5857
 8643SOL    HW236399   2.166   2.504   1.478  2.2060  0.0286 -0.2907
 8644SOL     OW36400   1.651   3.433   0.036 -0.5616 -0.3763 -0.3645
 8644SOL    HW136401   1.644   3.435   0.136  0.1951 -2.0535 -0.2672
 8644SOL    HW236402   1.735   3.479   0.008 -0.4932 -0.4084 -0.2112
 8645SOL     OW36403   1.265   0.485   3.055  0.3565  0.0114  0.0866
 8645SOL    HW136404   1.256   0.549   2.979  2.5551  1.8247  1.2983
 8645SOL    HW236405   1.354   0.439   3.049 -1.2689 -3.1429 -0.8836
 8646SOL     OW36406   0.506   8.008   0.642  0.1172  0.4745 -0.2101
 8646SOL    HW136407   0.550   8.053   0.719 -0.8533 -0.6415  1.0292
 8646SOL    HW236408   0.442   8.071   0.598 -0.1312  0.7952  0.5931
 8647SOL     OW36409   9.251   6.791   0.838 -0.0975  0.2288 -0.1219
 8647SOL    HW136410   9.250   6.729   0.759  0.0220  0.4770 -0.3166
 8647SOL    HW236411   9.194   6.752   0.910  1.0854 -0.7836  0.2745
 8648SOL     OW36412   1.936   7.371   1.036  0.2301 -0.0565  0.3480
 8648SOL    HW136413   1.861   7.414   1.086  0.7594 -1.0980  2.0759
 8648SOL    HW236414   2.023   7.412   1.063  0.5410 -0.7760  0.4724
 8649SOL     OW36415   1.086   8.475   2.354  0.0395  0.0360  0.3528
 8649SOL    HW136416   1.130   8.431   2.275 -1.0975 -0.8133  0.1849
 8649SOL    HW236417   0.992   8.499   2.331  0.4227  1.9567  0.6844
 8650SOL     OW36418   3.835   1.952   0.097 -0.2195  0.2741 -0.8947
 8650SOL    HW136419   3.808   1.892   0.172 -0.8158  0.3856 -1.0196
 8650SOL    HW236420   3.756   1.971   0.039  0.3209 -0.0778 -1.7440
 8651SOL     OW36421   0.267   3.509   3.753 -0.3545 -0.5032  1.0639
 8651SOL    HW136422   0.255   3.604   3.780 -0.3049 -0.6912  1.7528
 8651SOL    HW236423   0.229   3.449   3.824 -2.0907 -0.9746 -0.2368
 8652SOL     OW36424   9.113   8.565   2.592  0.1373  0.3809  0.4453
 8652SOL    HW136425   9.163   8.636   2.641 -0.9328 -0.1247  2.3289
 8652SOL    HW236426   9.035   8.534   2.648 -1.3819  0.0846 -1.7733
 8653SOL     OW36427   4.600   0.608   1.929 -0.4380 -0.2858  0.1743
 8653SOL    HW136428   4.656   0.675   1.978 -1.2357  0.4749  0.0621
 8653SOL    HW236429   4.504   0.618   1.957 -0.6072 -1.1554 -0.0951
 8654SOL     OW36430   3.504   8.184   2.172  0.4980 -0.1555  0.0764
 8654SOL    HW136431   3.442   8.118   2.214  1.0666 -1.1895 -0.6996
 8654SOL    HW236432   3.552   8.234   2.244 -0.2635 -0.2803  0.6724
 8655SOL     OW36433   8.741   0.993   2.905 -0.1894 -0.2369 -0.0327
 8655SOL    HW136434   8.690   0.966   2.823 -1.2660 -1.7956  1.1182
 8655SOL    HW236435   8.688   0.969   2.987  2.0076 -1.1053  1.1892
 8656SOL     OW36436   0.401   8.821   0.222 -0.4222 -0.1989  0.3858
 8656SOL    HW136437   0.403   8.736   0.275 -0.2001  1.0760  2.5287
 8656SOL    HW236438   0.306   8.842   0.197 -0.9609  0.7602  3.0351
 8657SOL     OW36439   8.665   1.779   0.176  0.2303  0.6297  0.0578
 8657SOL    HW136440   8.728   1.732   0.114 -0.6793  0.2864 -0.6108
 8657SOL    HW236441   8.701   1.773   0.270  1.3394  0.6941 -0.3523
 8658SOL     OW36442   0.342   2.081   1.533  0.6392 -1.0044  0.0670
 8658SOL    HW136443   0.396   2.119   1.459 -0.3433 -0.3262 -0.3150
 8658SOL    HW236444   0.372   1.988   1.553 -0.4486 -1.9557 -2.5805
 8659SOL     OW36445   0.700   3.008   2.052  0.4658 -0.1464 -0.4365
 8659SOL    HW136446   0.724   3.105   2.056 -0.6477  0.1023  0.3844
 8659SOL    HW236447   0.685   2.974   2.145 -0.9197 -0.6401 -0.8324
 8660SOL     OW36448   0.120   3.883   2.927  0.0309  0.8001  0.6184
 8660SOL    HW136449   0.065   3.855   3.006  1.7663 -1.0445  1.2367
 8660SOL    HW236450   0.079   3.847   2.844  1.4281 -2.5083  1.2777
 8661SOL     OW36451   2.062   0.614   3.651 -1.1312  0.6558 -0.2087
 8661SOL    HW136452   2.137   0.663   3.695 -1.8207  1.4439  0.1020
 8661SOL    HW236453   2.079   0.516   3.655 -0.6920  0.7751  0.9025
 8662SOL     OW36454   8.334   0.496   3.733  0.0483  0.1596 -0.3830
 8662SOL    HW136455   8.250   0.536   3.699  0.1470  0.2521 -0.5142
 8662SOL    HW236456   8.347   0.522   3.829  0.7812  1.5082 -0.8428
 8663SOL     OW36457   4.708   5.603   2.384  0.1368 -0.4135  0.0853
 8663SOL    HW136458   4.766   5.561   2.315 -0.6413  0.8625 -1.3799
 8663SOL    HW236459   4.667   5.531   2.441 -3.3311 -2.0136 -4.0696
 8664SOL     OW36460   3.319   6.066   2.933 -0.0328 -0.2842 -0.1927
 8664SOL    HW136461   3.292   6.007   3.009  1.0944 -0.7590 -0.1509
 8664SOL    HW236462   3.402   6.030   2.890  0.3579  0.9763 -0.5160
 8665SOL     OW36463   8.611   5.725   3.907 -0.5380  0.8018  0.1395
 8665SOL    HW136464   8.575   5.719   4.000  1.2751  0.3103  0.8233
 8665SOL    HW236465   8.652   5.815   3.893 -0.2444  0.6488  0.0185
 8666SOL     OW36466   0.768   8.051   1.098  0.2524  0.4849  0.1370
 8666SOL    HW136467   0.850   8.107   1.097  0.5026  0.1202 -1.4532
 8666SOL    HW236468   0.758   8.005   1.010 -1.5591  0.3856  0.3663
 8667SOL     OW36469   2.002   1.991   2.728 -0.3319 -0.3552 -0.4522
 8667SOL    HW136470   1.994   2.023   2.634 -0.6937  0.0614 -0.2777
 8667SOL    HW236471   1.966   1.897   2.734  3.1378 -1.8408 -1.5058
 8668SOL     OW36472   1.086   3.009   2.854  0.5265  0.1628 -0.0578
 8668SOL    HW136473   1.087   3.104   2.822  0.2556  0.0569 -0.3825
 8668SOL    HW236474   1.069   2.948   2.776  0.8227 -0.1606  0.1283
 8669SOL     OW36475   8.365   1.888   0.544 -0.3459  0.2791  0.4341
 8669SOL    HW136476   8.325   1.826   0.612  0.5321 -0.2797  0.4467
 8669SOL    HW236477   8.312   1.973   0.541 -1.1540 -0.2022  0.8960
 8670SOL     OW36478   2.488   1.549   1.399 -0.6141 -0.6908 -0.4050
 8670SOL    HW136479   2.581   1.526   1.374 -1.0254 -1.2531 -1.4380
 8670SOL    HW236480   2.484   1.574   1.496  0.6158 -0.5516 -0.3915
 8671SOL     OW36481   9.397   5.650   1.671  0.5217  0.3272 -0.5871
 8671SOL    HW136482   9.314   5.624   1.621  0.3957  0.5377 -0.4870
 8671SOL    HW236483   9.385   5.740   1.712  1.1882  0.8217 -1.4583
 8672SOL     OW36484   1.447   1.546   2.400 -0.1664  0.0279 -0.8215
 8672SOL    HW136485   1.360   1.497   2.405 -1.5823  2.6307  1.3224
 8672SOL    HW236486   1.436   1.629   2.345  0.3105  1.5177  1.2329
 8673SOL     OW36487   9.585   5.583   3.828 -0.4951 -0.6952 -0.6376
 8673SOL    HW136488   9.581   5.585   3.728 -4.0954  2.2183 -0.5295
 8673SOL    HW236489   9.650   5.653   3.859  0.3401 -1.3410 -0.9033
 8674SOL     OW36490   8.626   9.676   1.020 -0.1659 -0.0221  0.7626
 8674SOL    HW136491   8.562   9.605   1.048  0.1463 -0.9523 -0.7782
 8674SOL    HW236492   8.590   9.723   0.939  0.2955  0.6125  0.9231
 8675SOL     OW36493   9.422   2.687   0.173  0.0714 -0.6296  0.8173
 8675SOL    HW136494   9.484   2.652   0.103  0.2388 -2.2723  1.7566
 8675SOL    HW236495   9.339   2.722   0.129  1.0476  0.2808 -0.3408
 8676SOL     OW36496   0.918   5.114   1.613 -0.0756 -0.2896  0.0922
 8676SOL    HW136497   0.939   5.038   1.674  1.3847  0.5641  0.6718
 8676SOL    HW236498   0.996   5.133   1.554 -0.3086  0.9549  0.1588
 8677SOL     OW36499   2.571   0.049   1.546 -0.3450 -0.0375 -0.0784
 8677SOL    HW136500   2.630   0.010   1.475 -1.1441  0.0160 -0.7816
 8677SOL    HW236501   2.578   0.149   1.544 -0.6784 -0.0175 -0.3623
 8678SOL     OW36502   1.301   0.283   0.410 -0.0167  0.1336  0.1424
 8678SOL    HW136503   1.221   0.224   0.418  0.7207 -1.0458 -0.8578
 8678SOL    HW236504   1.382   0.234   0.442  0.7039  0.3668 -1.2566
 8679SOL     OW36505   3.785   7.155   2.823 -0.0667 -0.1840  0.3069
 8679SOL    HW136506   3.716   7.227   2.821  0.5617  0.4273  0.3399
 8679SOL    HW236507   3.821   7.140   2.731  1.6464  1.3656  0.6849
 8680SOL     OW36508   8.495   7.522   1.290  0.4274  0.0687  0.5974
 8680SOL    HW136509   8.443   7.591   1.239 -0.6749 -1.2562 -0.1229
 8680SOL    HW236510   8.593   7.539   1.278  0.1800  1.3167  0.1788
 8681SOL     OW36511   3.528   9.048   3.550  0.7702 -0.1187  0.2817
 8681SOL    HW136512   3.602   9.029   3.486 -0.0913 -1.2048 -0.4003
 8681SOL    HW236513   3.454   8.981   3.538 -0.8370  1.6336  0.1719
 8682SOL     OW36514   9.460   3.313   3.946 -0.9587 -0.1695 -0.1848
 8682SOL    HW136515   9.540   3.368   3.922 -0.6915 -0.5555 -0.1931
 8682SOL    HW236516   9.399   3.308   3.867  0.5018 -2.4406 -1.2331
 8683SOL     OW36517   1.082   6.333   0.619  0.1083  0.5853 -0.1642
 8683SOL    HW136518   1.118   6.296   0.705  0.3046  1.2756  0.0528
 8683SOL    HW236519   1.032   6.417   0.638  3.4886  2.9286 -1.1477
 8684SOL     OW36520   1.382   2.723   1.562  0.1626 -0.3604 -0.0950
 8684SOL    HW136521   1.437   2.794   1.607  2.6544 -2.7082  0.7062
 8684SOL    HW236522   1.326   2.677   1.631  1.7546 -1.9882  0.1278
 8685SOL     OW36523   2.416   6.119   0.856  0.1918 -0.5209 -0.3470
 8685SOL    HW136524   2.498   6.065   0.835  0.2747 -0.2031 -0.8334
 8685SOL    HW236525   2.412   6.199   0.797  0.7643  0.7284  1.2859
 8686SOL     OW36526   3.660   0.049   3.789  0.0503 -0.2875 -0.3954
 8686SOL    HW136527   3.741   0.099   3.817  1.3270 -1.5354 -1.7778
 8686SOL    HW236528   3.627   0.085   3.701 -0.1555 -0.6015 -0.4510
 8687SOL     OW36529   9.637   1.485   2.191 -0.0005  1.0501  0.4319
 8687SOL    HW136530   9.564   1.425   2.156  0.1042  0.5135  1.1264
 8687SOL    HW236531   9.721   1.433   2.202 -0.0819  1.1628  1.6754
 8688SOL     OW36532   0.678   2.107   3.183  0.0688 -0.4095  0.4909
 8688SOL    HW136533   0.603   2.158   3.141 -0.7441 -0.3590  1.9872
 8688SOL    HW236534   0.643   2.024   3.225  0.5106  0.6705  3.0394
 8689SOL     OW36535   8.637   3.139   0.843  0.6340 -0.3426  0.1728
 8689SOL    HW136536   8.562   3.078   0.870  0.4740 -0.1334  0.1972
 8689SOL    HW236537   8.696   3.156   0.922  0.2470  0.1533  0.3525
 8690SOL     OW36538   9.001   3.545   2.771  0.6133  0.7781  0.1520
 8690SOL    HW136539   9.055   3.570   2.851 -0.6447 -1.1672  1.6478
 8690SOL    HW236540   9.052   3.481   2.714  0.0063 -0.9181  1.4702
 8691SOL     OW36541   2.170   3.159   0.298  0.2113  0.2386 -1.2095
 8691SOL    HW136542   2.095   3.101   0.330  0.5346 -0.1529 -1.1498
 8691SOL    HW236543   2.213   3.116   0.218  0.5254  0.3427 -1.0969
 8692SOL     OW36544   9.277   5.021   2.244  0.0134  0.3511 -0.6138
 8692SOL    HW136545   9.192   5.069   2.225 -0.1681  0.4892  0.5424
 8692SOL    HW236546   9.325   5.003   2.158 -1.4739 -0.2729 -1.3250
 8693SOL     OW36547   9.695   5.560   2.036 -0.4243 -0.3109  0.3164
 8693SOL    HW136548   9.669   5.464   2.048  2.5860 -0.8967  2.6422
 8693SOL    HW236549   9.793   5.566   2.016 -0.5180  2.2970  0.4707
 8694SOL     OW36550   3.002   9.890   1.210 -0.0647  0.0864 -0.6922
 8694SOL    HW136551   3.064   9.909   1.286  1.0969  0.0581 -1.6217
 8694SOL    HW236552   2.967   9.797   1.218  1.8598 -0.7282 -1.4264
 8695SOL     OW36553   4.187   3.772   1.454  0.4123  0.7679  0.2633
 8695SOL    HW136554   4.139   3.794   1.369 -1.3189 -0.3077  0.9392
 8695SOL    HW236555   4.250   3.696   1.439  0.6328  1.0452 -0.2154
 8696SOL     OW36556   9.794   8.341   1.251 -0.3864  0.3090  0.4842
 8696SOL    HW136557   9.725   8.280   1.214  0.0986  0.1980 -0.2442
 8696SOL    HW236558   9.818   8.312   1.344 -2.6191  1.4287  1.4458
 8697SOL     OW36559   5.087   1.219   1.321 -0.0478  0.0291 -0.0440
 8697SOL    HW136560   5.008   1.206   1.262  0.5471 -1.0395 -0.6258
 8697SOL    HW236561   5.078   1.160   1.402 -0.1198  0.3331  0.1693
 8698SOL     OW36562   3.395   2.023   3.502  0.2270 -0.0554  0.1627
 8698SOL    HW136563   3.335   1.944   3.512  0.8318 -0.7691 -1.7119
 8698SOL    HW236564   3.443   2.039   3.588 -0.2747 -1.3963  0.7056
 8699SOL     OW36565   2.871   0.213   3.359  0.1654  0.1487 -0.0609
 8699SOL    HW136566   2.844   0.217   3.455  2.1115 -1.8316  0.6065
 8699SOL    HW236567   2.961   0.255   3.347 -0.4393  1.1507 -1.1762
 8700SOL     OW36568   1.710   5.010   3.816 -1.2080 -0.5610 -0.7653
 8700SOL    HW136569   1.776   5.029   3.889 -1.0023 -0.6012 -0.9414
 8700SOL    HW236570   1.670   5.096   3.785 -1.4990 -0.5684 -0.4143
 8701SOL     OW36571   3.937   7.009   3.641  0.0623  0.1979 -0.1440
 8701SOL    HW136572   3.899   6.939   3.701  0.3096  0.4100  0.2607
 8701SOL    HW236573   3.928   7.099   3.683 -0.8837  0.4945 -0.9707
 8702SOL     OW36574   0.066   0.354   3.416  0.1071 -0.1284 -0.1976
 8702SOL    HW136575   0.094   0.354   3.512 -0.3883  0.1753 -0.0522
 8702SOL    HW236576   0.130   0.299   3.363 -0.5645 -1.6801  0.5797
 8703SOL     OW36577   8.483   3.524   1.888  0.6097 -0.1933 -0.0890
 8703SOL    HW136578   8.408   3.490   1.832  1.8523 -0.4200 -1.6395
 8703SOL    HW236579   8.461   3.512   1.985 -0.7783 -1.4477 -0.5544
 8704SOL     OW36580   2.219   6.087   0.192  0.2200  0.2823 -0.3625
 8704SOL    HW136581   2.220   6.051   0.099  2.0533  0.2944 -0.3660
 8704SOL    HW236582   2.140   6.050   0.242  0.8934 -2.1063 -0.9987
 8705SOL     OW36583   8.661   0.426   2.640  0.1563 -0.5216  0.1437
 8705SOL    HW136584   8.660   0.498   2.709 -0.6300  2.5515 -2.9271
 8705SOL    HW236585   8.748   0.429   2.590 -0.7371 -0.2851 -1.4108
 8706SOL     OW36586   3.336   9.131   2.109  0.2236 -0.4304  0.3391
 8706SOL    HW136587   3.351   9.225   2.076  1.2154  0.1529  2.3712
 8706SOL    HW236588   3.241   9.104   2.090  0.1717  0.6280 -1.0676
 8707SOL     OW36589   2.076   2.404   2.120  0.2045 -0.0985  0.6305
 8707SOL    HW136590   2.090   2.329   2.184 -0.2276 -0.6430  0.0921
 8707SOL    HW236591   2.122   2.486   2.154  0.1116 -0.4265  1.5496
 8708SOL     OW36592   9.696   6.403   1.661  0.2541  0.2073 -0.6726
 8708SOL    HW136593   9.634   6.343   1.610 -0.8907  0.8948 -0.1040
 8708SOL    HW236594   9.745   6.462   1.597  2.6282 -2.4214 -1.3997
 8709SOL     OW36595   6.362   0.157   2.119 -0.5242  0.2212  0.1061
 8709SOL    HW136596   6.410   0.105   2.190 -2.0191  0.2274  1.1286
 8709SOL    HW236597   6.412   0.147   2.032  1.1295 -0.0608  1.0575
 8710SOL     OW36598   2.165   4.557   0.958  0.0104  0.1320  0.1853
 8710SOL    HW136599   2.083   4.526   0.910  0.5435 -0.6692 -0.2270
 8710SOL    HW236600   2.144   4.637   1.014 -0.7268  0.7826 -1.0270
 8711SOL     OW36601   3.522   6.011   1.970 -0.1644 -0.1541 -0.3405
 8711SOL    HW136602   3.424   6.030   1.978 -0.1890  0.1792 -1.3780
 8711SOL    HW236603   3.552   6.031   1.877  1.5189  2.6046  0.7557
 8712SOL     OW36604   2.032   9.605   2.769 -0.6408 -0.1730 -0.2752
 8712SOL    HW136605   2.013   9.568   2.678 -0.2466 -0.2620 -0.3244
 8712SOL    HW236606   2.004   9.700   2.773 -0.4565 -0.1053 -0.5601
 8713SOL     OW36607   1.288   1.939   2.305  0.0390  0.6518 -0.2134
 8713SOL    HW136608   1.290   2.019   2.364  0.4808  0.8754 -0.5247
 8713SOL    HW236609   1.381   1.918   2.275  0.0177 -0.3891  0.4202
 8714SOL     OW36610   4.248   6.255   2.612  0.1306 -0.2107 -0.3408
 8714SOL    HW136611   4.194   6.338   2.600 -1.6423 -0.7890  3.1013
 8714SOL    HW236612   4.303   6.263   2.696  2.4987 -1.1728 -1.7640
 8715SOL     OW36613   2.680   1.634   3.520 -0.3480  0.4300  0.3731
 8715SOL    HW136614   2.757   1.697   3.520  1.0540 -1.2281 -1.5254
 8715SOL    HW236615   2.682   1.579   3.604  1.1359 -0.2755 -0.0987
 8716SOL     OW36616   1.688   0.909   2.252  0.2051  0.2434  0.3491
 8716SOL    HW136617   1.633   0.845   2.199  1.2731 -0.8585  0.5570
 8716SOL    HW236618   1.675   1.002   2.216  1.1750 -0.5162 -2.0879
 8717SOL     OW36619   7.103   8.647   2.321  0.1925 -0.2908  0.4724
 8717SOL    HW136620   7.142   8.611   2.406 -1.7353  1.8687  2.3528
 8717SOL    HW236621   7.161   8.720   2.285 -0.6716  1.0710  1.7888
 8718SOL     OW36622   4.063   4.374   3.271 -0.0744  0.0425 -0.3921
 8718SOL    HW136623   4.094   4.316   3.347 -0.7681  0.3735  0.1463
 8718SOL    HW236624   3.970   4.347   3.244 -0.5372  1.1356  0.0974
 8719SOL     OW36625   7.547   7.844   3.127 -0.1635 -0.0143 -0.0523
 8719SOL    HW136626   7.497   7.908   3.069  0.3030 -0.1663 -0.6198
 8719SOL    HW236627   7.506   7.753   3.119 -0.1912 -0.0043 -0.0274
 8720SOL     OW36628   2.299   8.370   0.360  0.6060  0.0748  0.6565
 8720SOL    HW136629   2.245   8.453   0.372  0.8410  0.3463 -0.1440
 8720SOL    HW236630   2.394   8.388   0.385  0.5953 -0.0319  0.7732
 8721SOL     OW36631   8.507   2.111   2.172  0.0097 -0.3349 -0.4465
 8721SOL    HW136632   8.561   2.168   2.110  0.0914  0.3624  0.2617
 8721SOL    HW236633   8.459   2.040   2.119  0.6213 -0.1738 -1.2205
 8722SOL     OW36634   0.279   0.186   1.810 -0.2332 -0.1598 -0.2416
 8722SOL    HW136635   0.182   0.183   1.784 -0.0717 -0.2310 -0.8448
 8722SOL    HW236636   0.318   0.094   1.804 -0.0119 -0.0540 -0.4596
 8723SOL     OW36637   1.001   5.779   1.977  0.1182 -0.1561  0.1331
 8723SOL    HW136638   1.081   5.744   2.025 -0.0338  0.1971  0.6489
 8723SOL    HW236639   1.029   5.824   1.892  0.5154  0.3871  0.5492
 8724SOL     OW36640   7.801   9.973   2.806 -0.4979  0.8607 -0.1869
 8724SOL    HW136641   7.808  10.067   2.837 -0.4104  0.8862 -0.2850
 8724SOL    HW236642   7.742   9.921   2.869  0.3118  0.7147  0.4539
 8725SOL     OW36643   9.090   9.547   0.763  0.5021 -0.1060 -0.1466
 8725SOL    HW136644   9.129   9.569   0.853 -0.8204  1.3075  0.0986
 8725SOL    HW236645   9.082   9.630   0.709 -1.7025 -0.4552 -0.3703
 8726SOL     OW36646   9.964   9.685   0.682 -0.4548 -0.0364 -0.1258
 8726SOL    HW136647   9.963   9.588   0.709  1.0172 -0.2601 -0.7718
 8726SOL    HW236648   9.910   9.697   0.598  1.4874 -0.8121 -1.5417
 8727SOL     OW36649   1.452   7.759   4.040  0.1161 -0.2595 -0.2888
 8727SOL    HW136650   1.543   7.753   4.081 -0.0650 -1.6270 -0.0613
 8727SOL    HW236651   1.414   7.667   4.029 -1.3128  0.3049 -0.2195
 8728SOL     OW36652   4.628   0.537   3.731 -0.1949 -0.0713 -0.0531
 8728SOL    HW136653   4.587   0.578   3.813 -0.3158  0.4652 -0.3850
 8728SOL    HW236654   4.587   0.446   3.717 -0.7619  0.1662  0.0247
 8729SOL     OW36655   4.380   8.672   3.421  0.1884 -0.2484 -0.5063
 8729SOL    HW136656   4.410   8.742   3.485 -1.4793  0.1043 -0.0760
 8729SOL    HW236657   4.289   8.640   3.447 -0.3828 -0.3434 -2.5059
 8730SOL     OW36658   4.946   1.883   1.346  0.1510  0.0646  0.3993
 8730SOL    HW136659   4.951   1.894   1.246 -1.1188 -2.6817 -0.0228
 8730SOL    HW236660   5.005   1.808   1.374  0.1164  0.4975  1.6534
 8731SOL     OW36661   3.165   3.897   1.637 -0.6472 -0.6221  0.8863
 8731SOL    HW136662   3.117   3.942   1.562 -1.1426 -2.1628  0.2605
 8731SOL    HW236663   3.124   3.807   1.653  0.4813 -0.9495  1.9521
 8732SOL     OW36664   9.989   6.782   1.662 -0.5340 -0.3673 -0.2426
 8732SOL    HW136665  10.050   6.860   1.650 -0.7396 -0.2440 -0.4978
 8732SOL    HW236666   9.934   6.795   1.744 -0.1293 -0.5376  0.0561
 8733SOL     OW36667   3.440   3.243   3.774  0.2291  0.2447 -0.0608
 8733SOL    HW136668   3.378   3.186   3.829 -1.1858  1.8311  0.0155
 8733SOL    HW236669   3.495   3.300   3.834 -0.2275  0.8592 -0.2166
 8734SOL     OW36670   7.240   0.273   2.656  0.2920 -0.5091 -0.1845
 8734SOL    HW136671   7.267   0.285   2.752  1.2388 -1.0370 -0.3814
 8734SOL    HW236672   7.212   0.178   2.642 -0.8689 -0.1749 -0.1858
 8735SOL     OW36673   4.530   0.702   2.321 -0.2914  0.3914  0.0343
 8735SOL    HW136674   4.520   0.774   2.252  0.3875  0.6161  0.1689
 8735SOL    HW236675   4.611   0.648   2.301  0.1223  0.6948  0.8664
 8736SOL     OW36676   3.806   0.195   0.412 -0.1862 -0.1232  0.4641
 8736SOL    HW136677   3.856   0.276   0.445 -0.5931 -0.4963  2.0353
 8736SOL    HW236678   3.737   0.169   0.479 -0.2727 -1.5936 -0.1796
 8737SOL     OW36679   7.583   0.105   1.402 -0.1185 -0.1708  0.1388
 8737SOL    HW136680   7.532   0.169   1.345 -0.4194 -0.0679  0.5178
 8737SOL    HW236681   7.679   0.107   1.376 -0.0371  0.8026  0.4757
 8738SOL     OW36682   1.675   8.209   1.156 -0.6289  0.5646  0.3543
 8738SOL    HW136683   1.674   8.156   1.242  0.0345  0.8243  0.5197
 8738SOL    HW236684   1.704   8.302   1.175 -3.3628  1.4552  0.3208
 8739SOL     OW36685   8.219   2.841   1.095 -0.5401  0.6285 -0.5490
 8739SOL    HW136686   8.287   2.769   1.080  0.2512  1.7348 -2.3535
 8739SOL    HW236687   8.144   2.830   1.029 -2.8106 -1.3462  2.2309
 8740SOL     OW36688   8.798   1.774   0.432 -0.4983  0.6869  0.2184
 8740SOL    HW136689   8.802   1.850   0.497 -1.2554  0.7345  0.2168
 8740SOL    HW236690   8.732   1.706   0.465 -0.8636  0.6966 -0.4873
 8741SOL     OW36691   1.970   1.561   3.275  0.4077  0.2722  0.3102
 8741SOL    HW136692   1.887   1.533   3.227  1.1944 -1.6703  0.0511
 8741SOL    HW236693   2.017   1.631   3.221 -1.4202  1.9444  0.8209
 8742SOL     OW36694   7.575   7.531   3.034 -0.6019 -0.1298  0.2306
 8742SOL    HW136695   7.658   7.554   3.084 -0.1211 -0.4047 -0.4381
 8742SOL    HW236696   7.544   7.440   3.060 -0.1494 -0.4176 -0.2492
 8743SOL     OW36697   8.783   6.757   1.929 -0.4534 -0.1239  0.3036
 8743SOL    HW136698   8.726   6.676   1.916 -0.7104  0.3368 -1.6327
 8743SOL    HW236699   8.859   6.755   1.864 -1.2993  1.9171 -0.7971
 8744SOL     OW36700   4.205   4.685   1.748  0.3477  0.0003  0.3209
 8744SOL    HW136701   4.188   4.590   1.720 -1.1569  0.6466 -1.0473
 8744SOL    HW236702   4.164   4.701   1.837  2.7267 -1.2967  1.6896
 8745SOL     OW36703   7.667   0.804   3.969 -0.1643 -0.6049  0.4136
 8745SOL    HW136704   7.700   0.793   3.875 -1.5561 -1.6064  0.0208
 8745SOL    HW236705   7.633   0.897   3.982  2.0008  0.1919  0.5806
 8746SOL     OW36706   9.398   6.592   0.022 -0.3158  0.1922 -0.5896
 8746SOL    HW136707   9.379   6.524   0.093  2.2540 -0.3786 -0.3709
 8746SOL    HW236708   9.331   6.584  -0.052 -0.6254 -1.9178 -0.1064
 8747SOL     OW36709   1.419   3.819   2.275 -0.5304 -0.1760 -0.9574
 8747SOL    HW136710   1.354   3.892   2.296 -0.5608 -0.6674  0.7624
 8747SOL    HW236711   1.369   3.739   2.241 -0.6266  0.1274 -1.5388
 8748SOL     OW36712   0.618   7.534   3.472  0.1279 -0.1822  0.2342
 8748SOL    HW136713   0.677   7.577   3.541  0.5841  0.1547 -0.3583
 8748SOL    HW236714   0.646   7.439   3.458 -0.2340 -0.3717  0.8211
 8749SOL     OW36715   4.924   7.426   3.196  0.0271 -0.1458  0.2198
 8749SOL    HW136716   4.962   7.358   3.132  0.0446 -0.2882  0.3813
 8749SOL    HW236717   4.827   7.440   3.175 -0.8472 -2.6646  2.2530
 8750SOL     OW36718   1.353   7.903   0.769  0.2145 -0.0305  0.0100
 8750SOL    HW136719   1.333   7.988   0.719  2.6966  0.5483 -0.0238
 8750SOL    HW236720   1.426   7.919   0.835 -0.8345 -1.6069  1.5917
 8751SOL     OW36721   8.458   2.983   3.217  0.2863 -0.3213  0.7935
 8751SOL    HW136722   8.550   2.954   3.241  0.1882 -0.4216  1.0465
 8751SOL    HW236723   8.404   2.997   3.300  0.1359 -0.0571  0.6543
 8752SOL     OW36724   1.864   6.338   2.808 -0.0343  0.4512  0.3327
 8752SOL    HW136725   1.923   6.305   2.882  0.8023 -0.3054 -0.6576
 8752SOL    HW236726   1.831   6.260   2.755 -0.5293  1.0012 -0.1682
 8753SOL     OW36727   9.439   9.826   0.408  0.3045 -0.2362 -0.3375
 8753SOL    HW136728   9.487   9.899   0.457 -0.1814 -0.9030  1.1726
 8753SOL    HW236729   9.452   9.838   0.310  2.5918  0.2658 -0.0101
 8754SOL     OW36730   7.409   9.222   1.466  0.5504 -0.3987  0.0731
 8754SOL    HW136731   7.378   9.195   1.557  0.4762  3.4543  1.3010
 8754SOL    HW236732   7.342   9.285   1.425  2.8093  1.6468 -0.6144
 8755SOL     OW36733   3.431   3.011   1.390  0.2098 -0.2231 -0.6630
 8755SOL    HW136734   3.361   3.030   1.321  0.3640  1.1063 -0.4759
 8755SOL    HW236735   3.520   3.038   1.355  0.0600  2.1717  0.7129
 8756SOL     OW36736   9.800   4.168   2.478  0.2111  0.1654 -0.1449
 8756SOL    HW136737   9.861   4.245   2.497 -0.3172  0.7441 -0.7430
 8756SOL    HW236738   9.830   4.121   2.396  0.8783 -0.6351  0.5508
 8757SOL     OW36739   4.112   3.358   1.197  0.6049 -0.1077  0.3318
 8757SOL    HW136740   4.057   3.406   1.265 -0.0166 -1.6015  0.9114
 8757SOL    HW236741   4.209   3.376   1.212  0.5669 -1.6430  2.5776
 8758SOL     OW36742   2.590   7.270   0.065  0.6261 -0.5582  0.0876
 8758SOL    HW136743   2.649   7.222  -0.000 -1.0299 -1.8852 -0.4579
 8758SOL    HW236744   2.621   7.365   0.073  0.3969 -0.1231 -3.2518
 8759SOL     OW36745   2.603   9.705   1.704 -0.4816  0.1189  0.2967
 8759SOL    HW136746   2.694   9.712   1.663 -0.0226 -1.5659  0.9926
 8759SOL    HW236747   2.610   9.715   1.803 -1.3807  2.4053  0.1775
 8760SOL     OW36748   1.379   9.411   3.916  0.7706 -0.4137  0.1235
 8760SOL    HW136749   1.436   9.455   3.847 -0.3844  1.8353  0.5731
 8760SOL    HW236750   1.297   9.375   3.872  1.8733 -2.5349 -0.3043
 8761SOL     OW36751   7.492   8.601   1.667 -0.5312 -0.7457  0.2812
 8761SOL    HW136752   7.430   8.654   1.609  1.1709  0.8493 -0.1194
 8761SOL    HW236753   7.535   8.662   1.734 -0.4757 -2.1028  1.5157
 8762SOL     OW36754   3.741   3.352   1.545  0.2942 -0.2172 -0.3944
 8762SOL    HW136755   3.817   3.305   1.591 -0.2004 -0.8438 -0.2155
 8762SOL    HW236756   3.666   3.365   1.610  0.2076  0.3076 -0.6002
 8763SOL     OW36757   0.372   4.909   1.268  0.4446 -0.0660 -0.5733
 8763SOL    HW136758   0.380   4.943   1.175 -0.1175  1.2528 -0.1504
 8763SOL    HW236759   0.451   4.939   1.322 -0.9411  2.2389  0.2868
 8764SOL     OW36760   3.665   3.506   1.248 -0.1228  0.0731 -0.6247
 8764SOL    HW136761   3.753   3.539   1.282 -0.4564 -0.3823  0.7233
 8764SOL    HW236762   3.626   3.574   1.186  1.0094  0.4382 -0.9477
 8765SOL     OW36763   8.614   8.085   1.064  0.7218 -0.6323  0.0370
 8765SOL    HW136764   8.672   8.164   1.086 -0.6156 -0.3068  2.5313
 8765SOL    HW236765   8.663   8.001   1.086  0.8342 -0.4005  0.6903
 8766SOL     OW36766   4.143   1.414   1.183  0.0055 -0.3356 -0.3733
 8766SOL    HW136767   4.195   1.496   1.159 -0.9666  0.3226 -0.2303
 8766SOL    HW236768   4.088   1.386   1.105 -0.0183 -0.5856 -0.2665
 8767SOL     OW36769   0.918   9.268   1.254 -0.0958 -0.4203 -0.4942
 8767SOL    HW136770   1.012   9.301   1.262  0.2582 -0.9953 -2.0790
 8767SOL    HW236771   0.896   9.213   1.335  0.8871 -0.1724 -0.0439
 8768SOL     OW36772   0.973   7.671   1.301  0.1070  0.2899 -0.1188
 8768SOL    HW136773   1.071   7.659   1.312  0.2741  1.6836 -0.0144
 8768SOL    HW236774   0.932   7.585   1.271  1.4816 -0.0657 -1.0211
 8769SOL     OW36775   7.976   1.696   0.689 -0.4827 -0.1721 -0.0532
 8769SOL    HW136776   7.980   1.793   0.664 -1.5830 -0.5204 -1.6449
 8769SOL    HW236777   7.902   1.682   0.754 -1.6451 -0.2653 -1.3833
 8770SOL     OW36778   0.850   0.271   3.126  0.1104  0.0828  0.0737
 8770SOL    HW136779   0.860   0.369   3.139 -0.5636  0.2591 -0.6684
 8770SOL    HW236780   0.864   0.249   3.029 -0.6796 -0.4228  0.0712
 8771SOL     OW36781   1.256   4.491   1.094 -0.5815  0.3080 -0.0308
 8771SOL    HW136782   1.250   4.580   1.049 -2.0262  0.1864 -0.1142
 8771SOL    HW236783   1.327   4.436   1.050  0.3150  1.4083  0.0163
 8772SOL     OW36784   8.402   7.268   1.369  0.3386 -0.5637  0.2304
 8772SOL    HW136785   8.414   7.364   1.346  2.7020 -1.0435 -0.6731
 8772SOL    HW236786   8.418   7.255   1.467 -0.5681  0.0326  0.4666
 8773SOL     OW36787   2.042   7.169   1.300 -0.6303  0.5611  0.0387
 8773SOL    HW136788   1.952   7.168   1.256 -0.0321 -0.1942 -1.1802
 8773SOL    HW236789   2.088   7.082   1.285  0.3579  0.9802  0.5674
 8774SOL     OW36790   5.954   7.556   3.154  0.5217  0.4770  0.5149
 8774SOL    HW136791   5.862   7.517   3.155  1.2867 -1.3954 -0.4052
 8774SOL    HW236792   5.962   7.624   3.227 -1.0217 -0.6611  1.7759
 8775SOL     OW36793   2.246   0.190   0.875  0.1515 -0.2927 -0.6859
 8775SOL    HW136794   2.198   0.109   0.841  0.0252 -1.5365  2.2918
 8775SOL    HW236795   2.343   0.183   0.853  0.1765 -1.3776 -0.2787
 8776SOL     OW36796   2.131   0.623   1.737  0.1449  0.1941  0.6065
 8776SOL    HW136797   2.158   0.581   1.824 -0.5349 -0.5877  0.4481
 8776SOL    HW236798   2.207   0.677   1.701  0.4957  0.3767  1.5952
 8777SOL     OW36799   3.308   4.740   3.090 -0.2230  0.6305 -0.0810
 8777SOL    HW136800   3.294   4.729   2.992  0.9899  0.0827 -0.2034
 8777SOL    HW236801   3.361   4.823   3.107  0.2981  0.2737  0.0502
 8778SOL     OW36802   9.535   6.252   3.856  0.6890 -0.1196  0.4484
 8778SOL    HW136803   9.548   6.155   3.832  0.8277 -0.0519  0.2521
 8778SOL    HW236804   9.557   6.265   3.952 -0.5942 -0.5434  0.8205
 8779SOL     OW36805   1.224   6.593   1.062  0.1598  0.0151  0.1232
 8779SOL    HW136806   1.260   6.653   1.133  2.5443 -1.3094  0.0789
 8779SOL    HW236807   1.195   6.649   0.984  3.7397  1.0722 -0.5369
 8780SOL     OW36808   3.625   3.260   1.148 -0.4276  0.5082  0.0468
 8780SOL    HW136809   3.638   3.343   1.201 -0.6950  0.2234  0.5664
 8780SOL    HW236810   3.618   3.282   1.051  2.0986  0.8622 -0.0942
 8781SOL     OW36811   0.436   1.192   0.638  0.4970 -0.1072 -0.6221
 8781SOL    HW136812   0.504   1.120   0.637  0.8554  0.2158  0.1916
 8781SOL    HW236813   0.347   1.155   0.611  0.5835 -0.9383  0.2564
 8782SOL     OW36814   0.149   0.474   0.188  0.6845  0.8064  0.0025
 8782SOL    HW136815   0.117   0.381   0.199  1.8171  0.2388 -1.3403
 8782SOL    HW236816   0.083   0.527   0.134 -0.0243  0.8220  0.8901
 8783SOL     OW36817   9.732   1.489   3.310  0.6086 -0.1932  0.3906
 8783SOL    HW136818   9.693   1.463   3.222 -0.5411 -1.3898  1.2241
 8783SOL    HW236819   9.775   1.409   3.352  1.0880  0.3465  0.9412
 8784SOL     OW36820   2.884   8.162   3.845  0.0833 -0.1794  0.4233
 8784SOL    HW136821   2.869   8.220   3.925  0.7418  0.2514  0.2363
 8784SOL    HW236822   2.828   8.079   3.853 -0.9854  0.5570  0.6039
 8785SOL     OW36823   0.442   1.657   3.370 -0.6720 -0.1228  0.1914
 8785SOL    HW136824   0.497   1.578   3.398 -0.1703 -0.1032 -0.6920
 8785SOL    HW236825   0.389   1.690   3.447 -0.0880 -0.6814  0.8414
 8786SOL     OW36826   2.028   8.584   0.685  0.0979 -0.4376  0.5298
 8786SOL    HW136827   2.099   8.654   0.693  1.0935 -1.1100 -1.9245
 8786SOL    HW236828   2.018   8.536   0.772 -0.7637  2.8746  2.3136
 8787SOL     OW36829   2.312   7.926   0.924 -0.0483  0.5288 -0.1487
 8787SOL    HW136830   2.234   7.963   0.974  1.1414  2.0463  0.6252
 8787SOL    HW236831   2.365   7.866   0.984 -0.2527  0.0167 -0.4780
 8788SOL     OW36832   1.282   4.648   0.586  0.0670 -0.7131 -0.0473
 8788SOL    HW136833   1.207   4.690   0.637  1.6088  0.4376  1.3272
 8788SOL    HW236834   1.311   4.709   0.512  1.0978 -0.1401  0.8124
 8789SOL     OW36835   4.757   8.874   2.733  0.0620 -0.0916  0.0216
 8789SOL    HW136836   4.715   8.938   2.668  0.9669 -0.2745 -0.7555
 8789SOL    HW236837   4.694   8.797   2.749  0.1654 -0.4719 -1.3077
 8790SOL     OW36838   9.135   1.040   2.635 -0.1104 -0.1825  0.2410
 8790SOL    HW136839   9.191   1.115   2.599  1.6611  0.0449  3.3050
 8790SOL    HW236840   9.092   1.068   2.720 -3.7589 -0.9128 -1.2772
 8791SOL     OW36841   2.195   6.350   0.113  0.4736  0.0497  0.4160
 8791SOL    HW136842   2.111   6.344   0.059 -0.3829  0.3652  1.6934
 8791SOL    HW236843   2.216   6.260   0.151  1.5085 -0.3566 -1.0373
 8792SOL     OW36844   8.210   8.461   1.103 -0.1809 -0.3048 -0.4332
 8792SOL    HW136845   8.238   8.531   1.037 -1.1578 -1.3838 -2.0458
 8792SOL    HW236846   8.285   8.397   1.118 -0.2880 -0.6520 -1.3266
 8793SOL     OW36847   2.617   9.438   2.669  0.0249 -0.1781 -0.1242
 8793SOL    HW136848   2.528   9.420   2.627 -0.5200 -1.5543  1.5273
 8793SOL    HW236849   2.603   9.485   2.757  0.8026 -1.6527  0.8150
 8794SOL     OW36850   2.182   1.467   2.133 -0.2114 -1.0113  0.7168
 8794SOL    HW136851   2.093   1.422   2.143 -1.1481  0.5879 -0.0462
 8794SOL    HW236852   2.214   1.499   2.222 -2.2888  1.8055  0.5332
 8795SOL     OW36853   3.472   1.822   0.918  0.3460 -0.1626 -0.1590
 8795SOL    HW136854   3.556   1.774   0.945  0.4541  0.0201 -0.1687
 8795SOL    HW236855   3.477   1.844   0.820  1.3457  1.9783  0.3441
 8796SOL     OW36856   8.471   7.477   2.427  0.2919 -0.2995  0.3175
 8796SOL    HW136857   8.470   7.378   2.444  3.0112 -0.6277 -1.0376
 8796SOL    HW236858   8.379   7.514   2.437 -1.1775 -3.3285 -1.1830
 8797SOL     OW36859   2.935   3.831   0.423  0.0175 -0.1234  0.2974
 8797SOL    HW136860   2.989   3.905   0.382  0.6251 -0.5860  0.2599
 8797SOL    HW236861   2.908   3.857   0.516  0.8720 -0.1647  0.5626
 8798SOL     OW36862   1.539   9.283   0.420 -0.5008  0.4214  0.2380
 8798SOL    HW136863   1.484   9.216   0.469  0.2025 -0.7067 -0.5013
 8798SOL    HW236864   1.529   9.268   0.321  0.1137  1.0458  0.0805
 8799SOL     OW36865   0.448   4.069   3.224  1.0496 -0.2886  0.1001
 8799SOL    HW136866   0.449   4.169   3.219  1.0569 -0.2668  0.4910
 8799SOL    HW236867   0.539   4.036   3.249  1.0911 -0.4024 -0.2032
 8800SOL     OW36868   2.571   0.367   2.494 -0.1786 -0.2161  0.6487
 8800SOL    HW136869   2.616   0.389   2.408 -0.4524 -0.6870  0.3813
 8800SOL    HW236870   2.474   0.391   2.488 -0.3331 -0.8363  0.5976
 8801SOL     OW36871   1.111   8.398   1.701  0.4686  0.2569 -0.4074
 8801SOL    HW136872   1.143   8.372   1.792  1.2186 -0.1479 -0.7875
 8801SOL    HW236873   1.016   8.370   1.690 -0.9698  3.9530  1.7561
 8802SOL     OW36874   5.772   8.812   3.296  0.4735  0.2258 -0.6245
 8802SOL    HW136875   5.759   8.713   3.300 -0.5513  0.4217  1.5775
 8802SOL    HW236876   5.687   8.856   3.267 -0.6209  0.7577  3.1396
 8803SOL     OW36877   9.747   5.847   0.655 -0.3697 -0.1655  0.1051
 8803SOL    HW136878   9.801   5.870   0.573 -1.0457 -3.0746 -1.2347
 8803SOL    HW236879   9.730   5.930   0.708  2.9463  1.2654 -0.9450
 8804SOL     OW36880   1.087   9.553   3.492  0.1818  0.0358  0.0486
 8804SOL    HW136881   1.079   9.616   3.414  2.1835  0.2822 -0.0043
 8804SOL    HW236882   1.003   9.500   3.501 -0.4795  0.7417 -1.6380
 8805SOL     OW36883   4.870   8.866   1.336  0.0633 -0.2621  0.0995
 8805SOL    HW136884   4.873   8.808   1.256  0.9386 -2.2001  1.5032
 8805SOL    HW236885   4.776   8.871   1.371 -0.0776 -0.4955 -0.2555
 8806SOL     OW36886   0.788   1.141   0.324  0.4997 -0.3666 -0.1273
 8806SOL    HW136887   0.788   1.042   0.309 -0.4570 -0.6030  1.4172
 8806SOL    HW236888   0.841   1.185   0.251  1.9011 -2.1069 -0.2042
 8807SOL     OW36889   1.244   6.878   1.021 -0.7901  0.0544 -0.3586
 8807SOL    HW136890   1.183   6.915   1.092  0.6460  0.1357  0.8542
 8807SOL    HW236891   1.308   6.949   0.992 -1.7956  0.2183 -2.2358
 8808SOL     OW36892   0.092   5.633   0.094  0.5862 -0.7471 -0.6161
 8808SOL    HW136893   0.161   5.573   0.135  0.8796  0.4024  0.6047
 8808SOL    HW236894   0.007   5.627   0.147  0.7626  0.2621 -0.2158
 8809SOL     OW36895   4.438   2.528   0.546 -0.4950  0.2636 -0.2737
 8809SOL    HW136896   4.406   2.619   0.519  1.6709  0.4178 -2.4489
 8809SOL    HW236897   4.426   2.464   0.471  3.0662  0.0505 -0.7196
 8810SOL     OW36898   1.407   9.684   1.676 -0.5107 -0.1517  0.1027
 8810SOL    HW136899   1.332   9.619   1.665 -0.9987  0.7859 -2.3286
 8810SOL    HW236900   1.493   9.633   1.683 -0.9798 -1.0976 -0.8396
 8811SOL     OW36901   0.236   3.383   1.786 -0.1025  0.2196  0.2676
 8811SOL    HW136902   0.220   3.428   1.874 -0.1696  0.5159  0.1035
 8811SOL    HW236903   0.230   3.450   1.713 -1.2064 -0.2270 -0.0672
 8812SOL     OW36904   8.215   0.085   3.230  0.1341 -0.7588 -0.9082
 8812SOL    HW136905   8.297   0.129   3.194  0.8327 -0.9135  0.4491
 8812SOL    HW236906   8.242   0.006   3.286 -0.8692  0.0383  0.7224
 8813SOL     OW36907   3.226   4.130   3.800 -0.1077 -0.0680  0.0953
 8813SOL    HW136908   3.270   4.044   3.824  0.0970 -0.0233 -0.1199
 8813SOL    HW236909   3.259   4.161   3.711  1.4164  1.3338  1.1369
 8814SOL     OW36910   9.494   4.254   3.820 -0.0553  0.5618  0.5244
 8814SOL    HW136911   9.402   4.215   3.827 -1.0467  2.2988 -2.0566
 8814SOL    HW236912   9.558   4.200   3.876 -2.3286 -1.5855  1.1293
 8815SOL     OW36913   4.035   8.226   1.032  0.3197  0.2351  0.2129
 8815SOL    HW136914   4.121   8.257   1.073  1.6107 -0.6059 -1.7659
 8815SOL    HW236915   4.031   8.258   0.937 -1.3926 -0.0498  0.1774
 8816SOL     OW36916   0.537   2.125   4.031  0.1732 -0.4569  0.1966
 8816SOL    HW136917   0.589   2.049   4.070 -2.2878 -1.6065  1.3322
 8816SOL    HW236918   0.473   2.160   4.099 -0.5097  0.9453 -1.1517
 8817SOL     OW36919   3.775   4.571   1.610  0.0348  0.0787  0.2607
 8817SOL    HW136920   3.808   4.485   1.571 -1.3765 -0.6233  0.5816
 8817SOL    HW236921   3.850   4.637   1.614  0.7670 -0.6406 -1.3665
 8818SOL     OW36922   3.657   6.067   2.631  0.5381 -0.2523  0.0283
 8818SOL    HW136923   3.708   6.152   2.642  0.5249 -0.2877  0.3838
 8818SOL    HW236924   3.710   5.990   2.667 -1.0476  0.1373  3.4512
 8819SOL     OW36925   0.374   6.952   3.228 -0.3689 -0.0497 -0.2444
 8819SOL    HW136926   0.424   7.002   3.157  1.0733 -2.9215 -1.3757
 8819SOL    HW236927   0.323   6.877   3.185  0.6307 -1.9193  1.7271
 8820SOL     OW36928   4.331   0.460   1.327 -0.0046 -0.3047  0.3184
 8820SOL    HW136929   4.347   0.521   1.404 -0.5165  0.7755 -0.4130
 8820SOL    HW236930   4.416   0.415   1.301  0.8300  1.6431 -0.4279
 8821SOL     OW36931   1.085   2.197   0.279  0.2690  0.3083 -0.0564
 8821SOL    HW136932   0.989   2.179   0.259 -0.1037  1.9685  0.1591
 8821SOL    HW236933   1.127   2.115   0.319 -0.3188 -1.3365 -2.6971
 8822SOL     OW36934   1.448   5.074   3.077 -0.1935 -0.3607 -0.0790
 8822SOL    HW136935   1.529   5.055   3.021 -1.4788 -2.1122 -1.3887
 8822SOL    HW236936   1.407   5.161   3.048 -0.5714 -1.0226 -1.5335
 8823SOL     OW36937   9.017   8.479   1.157  0.2187 -0.5055 -0.3837
 8823SOL    HW136938   9.108   8.481   1.199  0.2177  0.4540 -0.4241
 8823SOL    HW236939   9.026   8.488   1.058 -0.0116  1.5017 -0.2493
 8824SOL     OW36940   1.862   1.581   2.025  0.0058 -0.7956  0.5408
 8824SOL    HW136941   1.903   1.490   2.027  1.9224 -0.0024 -0.6567
 8824SOL    HW236942   1.826   1.599   1.933  2.0286  0.6348 -0.0094
 8825SOL     OW36943   8.470   9.688   0.490 -0.0574 -0.5956  0.0901
 8825SOL    HW136944   8.491   9.730   0.402 -0.7511 -0.1490  0.1341
 8825SOL    HW236945   8.408   9.747   0.542 -0.5224 -1.3630  0.4257
 8826SOL     OW36946   8.236   6.106   1.488 -0.4408 -0.0765  0.4334
 8826SOL    HW136947   8.188   6.120   1.402 -2.1219 -0.3499  1.3105
 8826SOL    HW236948   8.239   6.193   1.538 -0.9589 -0.2962  0.8500
 8827SOL     OW36949   4.696   0.208   2.341 -0.1719  0.0039 -0.2574
 8827SOL    HW136950   4.601   0.232   2.364  0.6412  1.2465  1.9759
 8827SOL    HW236951   4.721   0.249   2.254 -1.8053 -0.6546 -1.0577
 8828SOL     OW36952   3.915   6.020   2.412 -0.1090 -0.1696 -0.8561
 8828SOL    HW136953   3.840   6.083   2.391  1.1316  1.2115 -1.2379
 8828SOL    HW236954   3.957   6.045   2.499 -0.1606 -1.0267 -0.5740
 8829SOL     OW36955   3.586   7.880   0.940 -0.4963  0.1535  0.3446
 8829SOL    HW136956   3.606   7.926   0.854  0.0471  1.5821  1.2259
 8829SOL    HW236957   3.664   7.824   0.967 -0.8266 -0.6329 -0.2811
 8830SOL     OW36958   1.381   4.368   2.153  0.0498 -0.0328 -0.3727
 8830SOL    HW136959   1.417   4.449   2.105 -0.6439  0.6269  0.2111
 8830SOL    HW236960   1.413   4.369   2.247  1.7646 -1.5541 -0.8914
 8831SOL     OW36961   8.214   9.934   2.015  0.4519 -0.0520 -0.0899
 8831SOL    HW136962   8.255   9.926   1.925  1.0330 -0.1743  0.1839
 8831SOL    HW236963   8.255   9.867   2.077  0.4569  0.4054  0.4093
 8832SOL     OW36964   3.063   5.866   2.900  0.6274 -0.0103 -0.0704
 8832SOL    HW136965   3.057   5.774   2.862  1.5603 -0.8820  1.8375
 8832SOL    HW236966   3.001   5.875   2.977 -0.4999  1.4216 -1.1224
 8833SOL     OW36967   0.370   4.822   0.712  0.0864 -0.1208  0.1542
 8833SOL    HW136968   0.349   4.821   0.614  0.8736  0.5501 -0.0233
 8833SOL    HW236969   0.302   4.767   0.761  0.2247 -1.2236 -0.8697
 8834SOL     OW36970   2.983   8.990   3.312  0.0785  0.1137  0.5567
 8834SOL    HW136971   2.926   8.916   3.348  0.3480 -0.2364  0.2794
 8834SOL    HW236972   2.935   9.077   3.321  0.1547  0.0367  1.7658
 8835SOL     OW36973   4.808   7.525   0.593  0.5115  0.0787 -0.2476
 8835SOL    HW136974   4.739   7.591   0.621  1.0465 -0.4303  2.4466
 8835SOL    HW236975   4.885   7.573   0.550 -0.1354  0.9653 -0.4182
 8836SOL     OW36976   3.960   8.648   1.114  0.0753  0.2236 -0.6693
 8836SOL    HW136977   3.914   8.641   1.025  0.8461 -2.1289 -0.9081
 8836SOL    HW236978   3.898   8.615   1.186  0.9128 -1.8325 -0.8539
 8837SOL     OW36979   5.630   8.452   2.428  0.1958  0.0602  0.1730
 8837SOL    HW136980   5.530   8.445   2.436  0.3644 -3.2488 -0.2068
 8837SOL    HW236981   5.673   8.416   2.510  1.1408 -1.1312 -0.8323
 8838SOL     OW36982   9.418   1.936   0.026  0.2199  0.5605  0.0268
 8838SOL    HW136983   9.366   1.952   0.109  0.4780  1.7431 -0.0302
 8838SOL    HW236984   9.380   1.991  -0.049  0.3279 -0.0751 -0.5019
 8839SOL     OW36985   9.221   6.185   3.204  0.2581  0.2786 -0.0701
 8839SOL    HW136986   9.298   6.123   3.221 -0.0492  0.2556  1.3171
 8839SOL    HW236987   9.155   6.176   3.278 -0.3501  1.4191 -0.4694
 8840SOL     OW36988   0.339   5.254   1.738  0.0685  0.0176  0.0385
 8840SOL    HW136989   0.412   5.309   1.779 -2.0472  1.2260  2.3077
 8840SOL    HW236990   0.297   5.305   1.663 -0.7440  0.7872  1.0093
 8841SOL     OW36991   8.419   7.169   2.583 -0.5815 -0.1476 -0.0967
 8841SOL    HW136992   8.427   7.213   2.672 -2.3266 -0.4882  0.2582
 8841SOL    HW236993   8.475   7.086   2.580 -1.0283 -0.4926  0.9173
 8842SOL     OW36994   7.362   3.319   0.377 -0.0093 -0.0005  0.0404
 8842SOL    HW136995   7.420   3.377   0.434 -0.6890  0.0896  0.6397
 8842SOL    HW236996   7.416   3.283   0.301  0.8278  0.0869  0.5902
 8843SOL     OW36997   4.417   4.946   2.203 -0.4410 -0.2527 -0.5163
 8843SOL    HW136998   4.473   4.909   2.277 -0.2494  1.9082  0.4570
 8843SOL    HW236999   4.349   4.878   2.175  0.6622 -1.7508  0.4058
 8844SOL     OW37000   4.102   8.003   1.238 -0.4467  0.3828  0.2400
 8844SOL    HW137001   4.111   8.027   1.141 -1.3774  1.1655  0.3495
 8844SOL    HW237002   4.072   7.908   1.246 -1.9465  0.8099 -0.2630
 8845SOL     OW37003   9.029   5.541   0.155 -0.2183  0.1032  0.3501
 8845SOL    HW137004   9.099   5.560   0.224 -1.9009  0.1736  2.0741
 8845SOL    HW237005   9.040   5.604   0.079 -0.0370  1.8662  1.8072
 8846SOL     OW37006   8.944   6.028   0.724  0.5113  0.7958  0.0012
 8846SOL    HW137007   8.912   6.041   0.818 -1.2469 -0.5883 -0.3769
 8846SOL    HW237008   8.866   6.010   0.664  1.9154 -2.5539 -0.9652
 8847SOL     OW37009   0.287   4.311   0.202  0.1602  0.5300 -0.2038
 8847SOL    HW137010   0.363   4.371   0.178  0.6837 -0.4788 -1.0805
 8847SOL    HW237011   0.308   4.217   0.176 -1.2467  0.1838 -0.1542
 8848SOL     OW37012   1.994   5.507   2.354 -0.5729  0.0722  0.5892
 8848SOL    HW137013   1.913   5.471   2.308  0.0539 -1.5732  0.7508
 8848SOL    HW237014   2.069   5.515   2.288 -0.4440  0.2230  0.7521
 8849SOL     OW37015   3.504   0.523   3.132 -0.3870  0.1239  0.2983
 8849SOL    HW137016   3.602   0.515   3.116 -0.2696 -0.3474  1.2022
 8849SOL    HW237017   3.485   0.507   3.229 -1.2444  1.1935  0.3212
 8850SOL     OW37018   6.375   9.299   1.802 -0.1158 -0.7618 -0.5017
 8850SOL    HW137019   6.353   9.363   1.728 -2.4870 -0.2160  0.6219
 8850SOL    HW237020   6.370   9.206   1.768 -1.5251 -0.5250 -0.9811
 8851SOL     OW37021   7.789   2.429   0.001 -0.0067  0.5446 -0.6359
 8851SOL    HW137022   7.748   2.370  -0.067 -0.8052  1.2848 -0.8078
 8851SOL    HW237023   7.881   2.457  -0.029 -0.4827  1.1260 -1.5584
 8852SOL     OW37024   1.779   4.680   3.960 -0.2452 -0.1347 -0.0951
 8852SOL    HW137025   1.844   4.620   4.007  0.4387  0.0759 -0.7443
 8852SOL    HW237026   1.818   4.708   3.872 -0.9098  0.5921 -0.1654
 8853SOL     OW37027   0.886   5.664   2.462  0.2053  0.0961  0.0272
 8853SOL    HW137028   0.880   5.661   2.363 -0.1951 -0.1881  0.0591
 8853SOL    HW237029   0.797   5.640   2.502  0.4887 -0.2546  0.4596
 8854SOL     OW37030   4.444   8.603   1.468  0.1570 -0.1998 -0.4344
 8854SOL    HW137031   4.496   8.544   1.529 -1.4657 -3.1373 -1.7603
 8854SOL    HW237032   4.380   8.548   1.414  0.4173  2.4599 -3.6806
 8855SOL     OW37033   8.377   5.769   3.559  0.9494 -0.5566 -0.5525
 8855SOL    HW137034   8.278   5.783   3.556  1.1819  1.6284  1.2152
 8855SOL    HW237035   8.417   5.803   3.474  0.4413  0.8506 -0.2448
 8856SOL     OW37036   3.818   7.069   0.057  0.3378 -0.2297  0.0015
 8856SOL    HW137037   3.892   7.097   0.119 -0.8706 -1.4200  2.0381
 8856SOL    HW237038   3.747   7.139   0.056  0.3744 -0.1943 -0.0448
 8857SOL     OW37039   0.781   0.257   0.216  0.0387  0.0668  0.4774
 8857SOL    HW137040   0.743   0.170   0.187  1.5129 -1.2787  2.4360
 8857SOL    HW237041   0.831   0.299   0.141 -1.3847 -0.3351 -0.7295
 8858SOL     OW37042   0.590   4.564   1.762  0.0157 -0.6984  0.0688
 8858SOL    HW137043   0.503   4.515   1.758 -0.0107 -0.7654  1.3328
 8858SOL    HW237044   0.577   4.660   1.737 -0.4463 -0.6664  0.4483
 8859SOL     OW37045   4.624   9.290   0.561  0.0761 -0.1648 -0.1185
 8859SOL    HW137046   4.528   9.266   0.551 -0.0551  0.1523  0.3718
 8859SOL    HW237047   4.631   9.386   0.590  0.5749  0.2726 -1.6630
 8860SOL     OW37048   8.701   1.548   1.537  0.0656 -0.5785  0.3648
 8860SOL    HW137049   8.723   1.587   1.626  2.1656 -0.0585 -0.3425
 8860SOL    HW237050   8.751   1.462   1.525  0.0532 -0.4776 -0.4380
 8861SOL     OW37051   9.599   2.329   2.354 -0.0877  0.6514  0.3478
 8861SOL    HW137052   9.677   2.268   2.338  0.9932  2.0445  0.2175
 8861SOL    HW237053   9.627   2.402   2.417 -1.6090  0.5583  1.1528
 8862SOL     OW37054   0.540   2.526   0.146  0.3810 -0.4130  0.3390
 8862SOL    HW137055   0.495   2.613   0.165 -0.9683 -1.3757  1.6203
 8862SOL    HW237056   0.623   2.543   0.093 -0.4428  1.5499 -0.3770
 8863SOL     OW37057   2.616   3.893   1.621  0.5607  0.6451 -0.6386
 8863SOL    HW137058   2.697   3.948   1.642  1.0250  0.4793 -1.9376
 8863SOL    HW237059   2.551   3.948   1.568  0.0263  0.6324 -0.0032
 8864SOL     OW37060   1.257   2.621   1.799  0.5056  0.5019  0.2406
 8864SOL    HW137061   1.262   2.526   1.770  0.6219  0.4786  0.3353
 8864SOL    HW237062   1.338   2.644   1.853  0.2944  0.5457  0.5410
 8865SOL     OW37063   0.638   1.958   1.723  0.3147 -0.7014 -0.0671
 8865SOL    HW137064   0.562   1.911   1.678 -0.6825  0.1763  0.6813
 8865SOL    HW237065   0.676   1.898   1.793 -0.8178 -0.4910  0.7443
 8866SOL     OW37066   2.547   4.822   2.291  0.4411 -0.0812 -0.0930
 8866SOL    HW137067   2.622   4.860   2.238  2.3953 -0.9059  1.9949
 8866SOL    HW237068   2.503   4.894   2.345  1.1967  0.0033  0.4054
 8867SOL     OW37069   4.237   8.237   1.874 -0.2815 -0.5841  0.0561
 8867SOL    HW137070   4.284   8.321   1.847 -0.2286 -0.3605  0.8347
 8867SOL    HW237071   4.166   8.215   1.806 -0.5285  0.2765  0.0375
 8868SOL     OW37072   8.533   6.853   1.565 -0.3556  0.3419 -0.2714
 8868SOL    HW137073   8.617   6.799   1.577 -0.5966  0.2762  1.2458
 8868SOL    HW237074   8.461   6.794   1.528 -0.8500 -0.6371  2.1248
 8869SOL     OW37075   8.677   7.931   2.305 -0.0108  0.0808 -0.3261
 8869SOL    HW137076   8.739   7.867   2.351 -2.3630 -0.3606  2.4206
 8869SOL    HW237077   8.583   7.898   2.315 -0.8747  1.6514 -2.8400
 8870SOL     OW37078   0.710   2.456   3.717 -0.2551  0.2673 -0.1936
 8870SOL    HW137079   0.801   2.451   3.759  0.1452  0.7435 -0.9814
 8870SOL    HW237080   0.640   2.457   3.788  0.5379  4.4113  0.6463
 8871SOL     OW37081   4.045   0.602   0.793  0.2170 -0.1950 -0.0060
 8871SOL    HW137082   3.992   0.528   0.752  0.4692 -0.3693 -0.0209
 8871SOL    HW237083   4.012   0.619   0.886 -0.9246  0.7883 -0.5906
 8872SOL     OW37084   8.324   6.649   0.859 -0.1823 -0.1992 -0.7760
 8872SOL    HW137085   8.415   6.631   0.822 -1.2300 -3.3257 -2.0511
 8872SOL    HW237086   8.256   6.642   0.786 -1.7651 -1.2183  0.7431
 8873SOL     OW37087   0.220   8.028   3.653  0.2272 -0.2225 -0.1408
 8873SOL    HW137088   0.125   8.050   3.673  0.1537  0.3800 -1.0954
 8873SOL    HW237089   0.230   7.930   3.637 -0.0679 -0.4145  0.8256
 8874SOL     OW37090   3.905   8.243   3.615  0.4148  0.4270  0.0973
 8874SOL    HW137091   3.970   8.182   3.568  1.5151  1.0820  0.7545
 8874SOL    HW237092   3.870   8.197   3.697 -1.3223 -0.6226 -1.1944
 8875SOL     OW37093   8.993   9.779   0.923  0.1940 -0.5842 -0.0425
 8875SOL    HW137094   8.893   9.783   0.917  0.2511 -0.3092 -1.0566
 8875SOL    HW237095   9.025   9.850   0.985  0.0330  2.8414 -3.6407
 8876SOL     OW37096   9.931   6.110   3.980 -0.2216 -0.7158 -0.2827
 8876SOL    HW137097   9.885   6.116   3.892 -1.2899  0.5123  0.3433
 8876SOL    HW237098  10.029   6.092   3.966  0.0148  1.5782 -1.7745
 8877SOL     OW37099   1.338   3.780   1.725 -0.2577 -0.1035 -0.2368
 8877SOL    HW137100   1.346   3.680   1.733 -1.3502 -0.2191 -0.4299
 8877SOL    HW237101   1.342   3.821   1.816  1.2546 -0.2331 -0.2429
 8878SOL     OW37102   1.386   1.843   0.099 -0.8277 -0.1300  0.1797
 8878SOL    HW137103   1.458   1.812   0.161 -2.4717  0.1457  2.2988
 8878SOL    HW237104   1.428   1.884   0.018  1.3796 -1.1613  0.7452
 8879SOL     OW37105   8.969   0.123   3.168 -0.1611  0.4359  0.4926
 8879SOL    HW137106   8.984   0.120   3.069  0.5506  2.3298  0.5183
 8879SOL    HW237107   8.875   0.151   3.187 -0.5558 -0.7784  0.3578
 8880SOL     OW37108   3.029   2.546   2.880  0.6875  0.2515 -0.4808
 8880SOL    HW137109   2.954   2.602   2.916  0.7083  0.2926 -0.5014
 8880SOL    HW237110   2.992   2.461   2.843  0.5299  0.7342 -1.4614
 8881SOL     OW37111   4.077   0.086   0.460  0.2499  0.2374 -0.4803
 8881SOL    HW137112   3.987   0.109   0.423 -0.9383 -0.7370  1.7148
 8881SOL    HW237113   4.078  -0.009   0.490  1.2457  0.8546  1.5902
 8882SOL     OW37114   9.400   2.426   1.647 -0.4445  0.6257 -0.0324
 8882SOL    HW137115   9.480   2.443   1.590  0.6910  0.9268  1.5931
 8882SOL    HW237116   9.388   2.327   1.659  0.3291  0.5961  0.5654
 8883SOL     OW37117   3.591   2.032   4.027 -0.3959 -0.0216 -0.5135
 8883SOL    HW137118   3.562   1.936   4.026 -2.0328  0.4560 -0.7161
 8883SOL    HW237119   3.526   2.086   4.081  0.7939  0.9022  0.0474
 8884SOL     OW37120   9.314   8.899   2.600 -0.1287 -0.3425 -0.1519
 8884SOL    HW137121   9.408   8.878   2.576 -0.0799 -0.4123  0.0946
 8884SOL    HW237122   9.291   8.856   2.688 -1.2678 -2.6467 -1.5539
 8885SOL     OW37123   3.093   9.209   0.943  0.3958  0.3385  0.3904
 8885SOL    HW137124   3.066   9.189   0.849  1.6362 -0.1608  0.1316
 8885SOL    HW237125   3.037   9.155   1.007  0.4665 -0.3311 -0.1133
 8886SOL     OW37126   8.411   6.654   1.421  0.6753  0.8623 -0.2267
 8886SOL    HW137127   8.321   6.681   1.384  0.0864 -0.6829  0.0187
 8886SOL    HW237128   8.464   6.611   1.349 -0.1785 -1.4654  0.4997
 8887SOL     OW37129   8.360   6.733   0.527 -0.2833 -0.3590  0.0550
 8887SOL    HW137130   8.281   6.777   0.570  0.9541  0.3735  1.6348
 8887SOL    HW237131   8.417   6.692   0.598  2.5210  2.0403 -0.7440
 8888SOL     OW37132   4.221   1.462   2.734  0.1927 -0.0762 -0.1235
 8888SOL    HW137133   4.195   1.525   2.807 -0.2291 -1.5704  1.0377
 8888SOL    HW237134   4.138   1.422   2.694  0.5267 -2.2457  1.2623
 8889SOL     OW37135   8.039   9.028   3.350 -0.5287 -0.1319 -0.6428
 8889SOL    HW137136   8.047   8.964   3.426  0.7081 -0.5364 -1.0888
 8889SOL    HW237137   7.994   9.112   3.381  2.5421  0.8915  1.3054
 8890SOL     OW37138   0.430   9.852   3.913  0.1556  0.1582  0.2381
 8890SOL    HW137139   0.488   9.779   3.875  0.7582  1.0626 -0.6259
 8890SOL    HW237140   0.381   9.818   3.993  2.1839 -0.5249  1.2268
 8891SOL     OW37141   9.975   5.362   0.867 -0.3593 -0.0105  0.1704
 8891SOL    HW137142   9.948   5.278   0.819 -1.1424  0.1929  0.2474
 8891SOL    HW237143   9.971   5.346   0.965  0.4985 -0.1956  0.1732
 8892SOL     OW37144   1.362   5.542   0.844  0.1270  0.1184  0.7101
 8892SOL    HW137145   1.386   5.605   0.918  0.7823  1.1700 -0.3743
 8892SOL    HW237146   1.383   5.584   0.756 -2.0163 -0.5407 -0.1440
 8893SOL     OW37147   8.597   7.457   2.771  0.2857 -0.5229  0.2364
 8893SOL    HW137148   8.611   7.376   2.829  0.6619 -0.1524  0.6633
 8893SOL    HW237149   8.659   7.453   2.693  0.5813 -0.4433  0.4693
 8894SOL     OW37150   2.448   5.262   0.907  0.1110 -0.1469 -0.7605
 8894SOL    HW137151   2.546   5.278   0.921 -0.3376  0.5115  1.9669
 8894SOL    HW237152   2.433   5.219   0.818  2.7095  1.3707 -1.9598
 8895SOL     OW37153   8.142   9.109   1.999 -0.4464  0.3341  0.1725
 8895SOL    HW137154   8.215   9.174   2.017  2.5886 -2.8069 -0.1406
 8895SOL    HW237155   8.160   9.062   1.912 -0.8898 -2.9881  1.8025
 8896SOL     OW37156   3.048   8.842   1.430  0.4730  0.4924  0.0116
 8896SOL    HW137157   3.005   8.922   1.389 -0.3798 -0.4143 -0.8953
 8896SOL    HW237158   3.000   8.817   1.514  0.0742  0.2946 -0.2750
 8897SOL     OW37159   9.116   2.829   3.766  0.3026 -0.0775  0.2656
 8897SOL    HW137160   9.020   2.800   3.761 -0.5414  2.2072  2.2761
 8897SOL    HW237161   9.132   2.900   3.697  0.6887 -0.8197 -0.4106
 8898SOL     OW37162   2.827   9.344   2.536  0.3489  0.3076 -0.2726
 8898SOL    HW137163   2.763   9.388   2.599  2.6322  0.4830  2.0147
 8898SOL    HW237164   2.921   9.365   2.564  1.4361 -1.3794 -2.5013
 8899SOL     OW37165   2.073   0.071   3.368 -0.0261  0.1502  0.5442
 8899SOL    HW137166   2.169   0.066   3.395 -0.5863 -0.6683  2.4954
 8899SOL    HW237167   2.020   0.113   3.442 -1.3223 -0.2872 -0.1158
 8900SOL     OW37168   7.987   9.806   0.746  0.3797  0.1788 -0.0245
 8900SOL    HW137169   8.056   9.810   0.818 -0.4619 -0.2658  0.8009
 8900SOL    HW237170   7.947   9.715   0.742  0.9076 -0.0086 -1.5212
 8901SOL     OW37171   3.606   3.839   3.318  0.1064 -0.3885  0.0019
 8901SOL    HW137172   3.573   3.767   3.258 -0.2654  0.2467 -0.5705
 8901SOL    HW237173   3.569   3.927   3.287 -0.3720 -0.0969  1.3649
 8902SOL     OW37174   2.932   4.701   3.650  0.1522 -0.9255 -0.1943
 8902SOL    HW137175   2.978   4.730   3.734 -2.2820 -2.3691  1.7134
 8902SOL    HW237176   2.937   4.601   3.642 -0.9179 -0.9241 -1.0061
 8903SOL     OW37177   9.126   5.283   1.585  0.0229  0.0701  0.5555
 8903SOL    HW137178   9.056   5.312   1.520 -0.5886 -0.3836  1.0111
 8903SOL    HW237179   9.135   5.351   1.658 -1.0799 -0.6375  1.3694
 8904SOL     OW37180   0.090   6.730   1.149  0.3864 -0.0388 -0.0953
 8904SOL    HW137181   0.061   6.758   1.058  0.4138  0.3229  0.0060
 8904SOL    HW237182   0.128   6.809   1.198 -1.5540  0.2488  0.9964
 8905SOL     OW37183   9.393   0.626   0.239 -0.2533  0.3871  0.0944
 8905SOL    HW137184   9.457   0.622   0.315 -2.1102 -0.1495  1.6736
 8905SOL    HW237185   9.431   0.576   0.161  0.0553 -2.3831  1.9280
 8906SOL     OW37186   9.221   2.030   0.218 -0.2278  0.0343  0.9332
 8906SOL    HW137187   9.183   2.007   0.128 -0.5992  0.2599  1.0265
 8906SOL    HW237188   9.218   2.130   0.229 -0.5799 -0.0229  1.3633
 8907SOL     OW37189   0.884   0.524   3.201 -0.3074  0.2145 -1.0646
 8907SOL    HW137190   0.933   0.526   3.288 -0.3765 -1.1895 -0.9793
 8907SOL    HW237191   0.800   0.577   3.208 -0.2306  0.2411 -0.3350
 8908SOL     OW37192   2.243   5.935   0.777 -0.1024 -0.7303  0.3784
 8908SOL    HW137193   2.298   6.006   0.821  1.8010  0.1062 -3.1743
 8908SOL    HW237194   2.149   5.969   0.766 -0.0066 -0.0389  1.6056
 8909SOL     OW37195   3.337   9.506   0.396  0.2963 -0.6502 -0.8471
 8909SOL    HW137196   3.290   9.535   0.479  1.6228 -0.1582 -0.2442
 8909SOL    HW237197   3.275   9.452   0.339 -1.4273  1.1812 -0.7713
 8910SOL     OW37198   7.950   1.397   1.796  0.5731  0.6048 -0.1878
 8910SOL    HW137199   7.875   1.348   1.840 -0.7355  1.6147 -1.2274
 8910SOL    HW237200   8.013   1.431   1.866  0.3072 -0.6251  0.6723
 8911SOL     OW37201   3.955   3.109   1.301  0.2488 -0.2722 -0.0564
 8911SOL    HW137202   3.960   3.193   1.247  1.2676 -0.3793 -0.1382
 8911SOL    HW237203   4.047   3.069   1.309 -0.4725 -2.2600 -1.3978
 8912SOL     OW37204   9.900   8.037   3.699 -0.0733 -0.1887 -0.5070
 8912SOL    HW137205   9.909   7.948   3.654 -1.5528 -0.5110 -0.1985
 8912SOL    HW237206   9.807   8.048   3.732  0.5898  0.6908  1.1380
 8913SOL     OW37207   8.651   5.686   2.861 -0.1640  0.2313  0.1814
 8913SOL    HW137208   8.746   5.703   2.834 -0.9921  2.1506 -1.6981
 8913SOL    HW237209   8.621   5.757   2.925 -0.3394 -0.3438  0.7361
 8914SOL     OW37210   2.591   1.225   2.319 -0.2619  0.2344  0.6736
 8914SOL    HW137211   2.509   1.282   2.309  0.0604  0.7444  0.8775
 8914SOL    HW237212   2.663   1.279   2.362  1.1368  0.7128 -2.2061
 8915SOL     OW37213   2.551   8.373   3.979  0.7653  0.1114  0.1948
 8915SOL    HW137214   2.615   8.449   3.973  0.5928  0.4236  1.9214
 8915SOL    HW237215   2.458   8.409   3.984  0.6987 -0.1900  1.2504
 8916SOL     OW37216   9.411   5.934   2.897  0.2323 -0.1502  0.1066
 8916SOL    HW137217   9.441   5.885   2.979 -0.5911 -0.6436  0.1172
 8916SOL    HW237218   9.323   5.977   2.915  0.1803 -0.0321 -0.4353
 8917SOL     OW37219   7.595   7.680   2.569  0.0768 -0.5203 -0.3311
 8917SOL    HW137220   7.577   7.585   2.594 -2.1047  0.5115  2.2891
 8917SOL    HW237221   7.539   7.705   2.490  1.0745 -1.5171 -1.3868
 8918SOL     OW37222   1.530   5.337   1.665  0.1635  0.2711  0.1975
 8918SOL    HW137223   1.524   5.430   1.699 -0.5650  0.5130 -0.5820
 8918SOL    HW237224   1.558   5.276   1.739  1.6243  1.2535  0.4657
 8919SOL     OW37225   3.565   7.569   1.728 -0.3294  0.2708  0.1524
 8919SOL    HW137226   3.504   7.494   1.752 -0.4743 -0.0477 -1.2071
 8919SOL    HW237227   3.652   7.558   1.777 -0.7788 -0.1170  0.8774
 8920SOL     OW37228   9.156   4.705   2.338  0.4851  0.4354  0.1163
 8920SOL    HW137229   9.081   4.762   2.372 -0.4430 -2.2713  2.8208
 8920SOL    HW237230   9.150   4.697   2.238 -3.1364 -0.0948  0.3201
 8921SOL     OW37231   9.628   6.079   2.298 -0.1151  0.2095 -0.0244
 8921SOL    HW137232   9.559   6.037   2.357  0.0058  0.3013  0.1810
 8921SOL    HW237233   9.664   6.161   2.343 -0.6385  0.7635 -0.5926
 8922SOL     OW37234   1.102   2.813   2.649  1.3555 -0.8724 -0.5645
 8922SOL    HW137235   1.157   2.780   2.726  0.4233 -0.1590  0.4269
 8922SOL    HW237236   1.141   2.780   2.564  2.3285 -1.8023  0.2242
 8923SOL     OW37237   1.335   6.139   2.065 -0.4171 -0.0706  0.7557
 8923SOL    HW137238   1.377   6.070   2.007  0.3696  0.6001  0.5105
 8923SOL    HW237239   1.261   6.098   2.118 -1.2733 -0.6405 -0.8558
 8924SOL     OW37240   8.255   9.378   1.438 -0.5152 -0.0180  0.4947
 8924SOL    HW137241   8.175   9.430   1.409 -0.0490  0.0963 -0.6099
 8924SOL    HW237242   8.228   9.283   1.456 -1.3849  0.6146  2.6234
 8925SOL     OW37243   9.869   6.777   3.895  0.2028  0.0358  0.2388
 8925SOL    HW137244   9.791   6.740   3.945 -1.0199 -1.0794 -2.3879
 8925SOL    HW237245   9.938   6.706   3.884  0.9019  0.5640  1.1935
 8926SOL     OW37246   0.153   9.970   3.567  0.5931  0.3853  0.1137
 8926SOL    HW137247   0.153  10.015   3.477 -1.1520  1.2083  0.5038
 8926SOL    HW237248   0.094   9.889   3.564  1.6059 -0.3655  0.1592
 8927SOL     OW37249   4.095   8.167   0.444  0.3188 -0.0453  0.0741
 8927SOL    HW137250   4.091   8.262   0.411 -3.5295  0.2240  1.0618
 8927SOL    HW237251   4.064   8.105   0.372  1.0300 -0.3922  0.0602
 8928SOL     OW37252   4.072   4.801   1.982 -0.3749  0.1579  0.1959
 8928SOL    HW137253   4.060   4.821   2.079 -1.0237  0.5949  0.0346
 8928SOL    HW237254   3.999   4.846   1.930 -0.3053 -0.4598 -0.4427
 8929SOL     OW37255   0.078   5.610   1.076 -0.1059 -0.0633 -0.7762
 8929SOL    HW137256  -0.005   5.554   1.070 -0.0864 -0.2995  1.0536
 8929SOL    HW237257   0.153   5.556   1.114  0.0658  1.0170  0.4653
 8930SOL     OW37258   8.833   3.192   1.009 -0.6721 -0.0097  0.4262
 8930SOL    HW137259   8.785   3.255   1.070 -1.5551  1.0718 -1.3342
 8930SOL    HW237260   8.929   3.219   1.001 -0.2727 -0.8411  2.2093
 8931SOL     OW37261   8.408   4.035   0.406 -0.8106  0.2345  0.2024
 8931SOL    HW137262   8.323   4.088   0.406 -0.2886  1.0957 -0.5172
 8931SOL    HW237263   8.388   3.940   0.385 -1.3924  0.8013 -1.9784
 8932SOL     OW37264   6.650   9.427   2.595 -0.3338 -0.2132  0.2506
 8932SOL    HW137265   6.669   9.433   2.693  0.4692  3.0062 -0.0600
 8932SOL    HW237266   6.645   9.330   2.569  3.3633 -1.1830  2.7075
 8933SOL     OW37267   7.587   7.993   2.188 -0.1476 -0.1510 -0.1695
 8933SOL    HW137268   7.661   8.014   2.252 -0.8802  0.5362  0.4530
 8933SOL    HW237269   7.516   8.063   2.195 -0.9721 -0.9442 -0.6008
 8934SOL     OW37270   4.463   8.623   2.006  0.1314 -0.0919  0.3600
 8934SOL    HW137271   4.422   8.714   2.011  0.3523  0.0301 -0.0383
 8934SOL    HW237272   4.546   8.621   2.063 -0.3609 -0.3066  1.0768
 8935SOL     OW37273   3.183   7.483   2.619  0.4397 -0.2892 -0.6686
 8935SOL    HW137274   3.244   7.562   2.633 -0.6100  0.5718 -0.8692
 8935SOL    HW237275   3.107   7.488   2.683  0.3512 -1.1395 -0.7040
 8936SOL     OW37276   3.052   5.986   1.041 -0.2056  0.3399 -0.0532
 8936SOL    HW137277   3.090   6.020   1.127  0.8318  1.0145 -0.7773
 8936SOL    HW237278   3.029   6.063   0.981 -1.0983 -0.1202 -0.3191
 8937SOL     OW37279   4.173   9.837   0.043  0.5610  0.4513 -0.2105
 8937SOL    HW137280   4.087   9.790   0.060  0.2429  1.2188  0.3350
 8937SOL    HW237281   4.241   9.771   0.010  0.2449 -0.4543  0.9399
 8938SOL     OW37282   1.687   6.268   2.111  0.1014  0.1607  0.4287
 8938SOL    HW137283   1.649   6.232   2.196 -1.6753 -1.1469 -0.8950
 8938SOL    HW237284   1.616   6.316   2.060  1.0238  0.4556 -0.5905
 8939SOL     OW37285   0.114   4.561   1.521 -0.0877 -0.8201 -0.2879
 8939SOL    HW137286   0.067   4.634   1.570 -1.1726 -1.7134  0.0091
 8939SOL    HW237287   0.142   4.595   1.431 -1.1105 -0.2074 -0.3881
 8940SOL     OW37288   3.533   8.930   0.256  0.2033  0.3188 -0.3624
 8940SOL    HW137289   3.461   8.888   0.201 -1.6943 -0.7647  2.8364
 8940SOL    HW237290   3.535   9.028   0.238 -0.7032  0.0566 -1.9874
 8941SOL     OW37291   4.639   9.889   0.694 -0.2394  0.6366  0.1953
 8941SOL    HW137292   4.550   9.886   0.738 -0.4185  2.5063  0.0044
 8941SOL    HW237293   4.706   9.840   0.750 -1.2745 -0.3577  0.5743
 8942SOL     OW37294   9.139   5.054   1.413  0.2255 -0.5471 -0.1940
 8942SOL    HW137295   9.113   4.981   1.475 -1.7798  0.2845 -0.0120
 8942SOL    HW237296   9.215   5.024   1.356  1.5973 -1.5898  2.1251
 8943SOL     OW37297   4.623   4.586   2.067  0.1538 -0.0705 -0.0146
 8943SOL    HW137298   4.541   4.531   2.079  1.3475 -1.8900 -0.1016
 8943SOL    HW237299   4.664   4.604   2.157  0.7039 -0.7854 -0.1186
 8944SOL     OW37300   7.909   9.554   2.329 -0.5249 -0.1714  0.1307
 8944SOL    HW137301   7.850   9.564   2.248  1.3264  3.2171 -0.8999
 8944SOL    HW237302   7.861   9.590   2.409 -1.1085 -0.4515 -0.0908
 8945SOL     OW37303   3.582   1.291   0.625 -0.5785 -0.1534  0.3072
 8945SOL    HW137304   3.651   1.359   0.651 -2.0660  1.4100  0.2233
 8945SOL    HW237305   3.539   1.254   0.707 -0.8634  0.1626  0.3019
 8946SOL     OW37306   8.934   2.307   2.240 -0.3909  0.9529 -0.2372
 8946SOL    HW137307   8.878   2.227   2.256  1.9647 -0.8984 -0.9188
 8946SOL    HW237308   8.978   2.300   2.150  0.7091  2.4711  0.1492
 8947SOL     OW37309   1.146   6.006   2.222 -0.4404 -0.2346  0.1045
 8947SOL    HW137310   1.053   5.970   2.224 -0.2182 -0.7813  0.8759
 8947SOL    HW237311   1.211   5.930   2.221 -0.0156  0.1489 -1.0602
 8948SOL     OW37312   9.991   7.480   1.365 -0.0994  0.0991 -0.6877
 8948SOL    HW137313   9.943   7.534   1.296 -0.2054 -0.3792 -0.9906
 8948SOL    HW237314   9.955   7.387   1.366  0.7593 -0.2418 -0.8596
 8949SOL     OW37315   1.270   7.495   3.078 -0.1008  1.0584  0.4822
 8949SOL    HW137316   1.191   7.479   3.019 -0.5499 -0.4502  1.4636
 8949SOL    HW237317   1.341   7.541   3.026 -0.9714  0.8931 -0.8916
 8950SOL     OW37318   3.438   1.687   2.561  0.2537 -0.2908 -0.2967
 8950SOL    HW137319   3.466   1.736   2.478  0.6783  0.0062  0.0240
 8950SOL    HW237320   3.346   1.649   2.547 -0.0595  0.5529 -0.5645
 8951SOL     OW37321   3.157   2.591   3.825 -0.0065  0.3110  0.0925
 8951SOL    HW137322   3.153   2.647   3.743 -2.0458 -1.3976 -1.0179
 8951SOL    HW237323   3.250   2.560   3.840  0.3312  0.3982 -1.7336
 8952SOL     OW37324   9.856   5.567   2.292 -0.4750  0.0700  0.2677
 8952SOL    HW137325   9.793   5.597   2.220 -1.3006  1.1970  1.4344
 8952SOL    HW237326   9.911   5.490   2.259  0.8403  2.0624 -2.3947
 8953SOL     OW37327   2.178   0.764   2.938 -0.1911  0.1628  0.4142
 8953SOL    HW137328   2.228   0.849   2.959 -1.0759  0.3746  1.6963
 8953SOL    HW237329   2.088   0.787   2.903  0.7066 -0.2170 -2.2232
 8954SOL     OW37330   7.885   8.575   2.256 -0.2437  0.6409 -0.4160
 8954SOL    HW137331   7.956   8.636   2.292  1.5620 -1.1963 -0.7880
 8954SOL    HW237332   7.816   8.560   2.327  0.1579  1.8029  0.2406
 8955SOL     OW37333   1.418   3.923   4.015  0.7209 -0.4999 -0.0192
 8955SOL    HW137334   1.510   3.898   4.045  1.0452  0.4667 -0.2072
 8955SOL    HW237335   1.359   3.936   4.095  1.5255  1.8501  0.2120
 8956SOL     OW37336   9.787   8.299   0.029  0.3580  0.0507  0.3656
 8956SOL    HW137337   9.688   8.300   0.044  0.2845 -0.2686 -0.0764
 8956SOL    HW237338   9.818   8.206   0.012  0.4884  0.3326 -1.0201
 8957SOL     OW37339   1.059   1.954   1.048 -0.4530  0.1564  1.3174
 8957SOL    HW137340   1.065   2.006   1.132  1.6028  1.0408  0.6522
 8957SOL    HW237341   1.003   2.003   0.981 -1.3416 -0.1239  1.8515
 8958SOL     OW37342   8.059   0.781   2.850  0.3419 -0.0371 -0.8898
 8958SOL    HW137343   8.091   0.875   2.845 -1.0087  0.4390 -0.5850
 8958SOL    HW237344   8.129   0.720   2.812  1.5127  1.0112 -0.4135
 8959SOL     OW37345   0.822   5.116   1.028  0.0215  0.3896  0.1295
 8959SOL    HW137346   0.785   5.206   1.048  1.6007  0.5146  2.7749
 8959SOL    HW237347   0.748   5.054   1.002 -1.3054  1.9723  0.0871
 8960SOL     OW37348   4.252   7.937   0.937  0.2012 -0.1071  0.4557
 8960SOL    HW137349   4.296   8.027   0.935  2.1841 -0.9681  2.8470
 8960SOL    HW237350   4.260   7.894   0.847  0.1865  1.6623 -0.4073
 8961SOL     OW37351   3.207   0.529   0.323 -0.2150 -0.2309 -0.3480
 8961SOL    HW137352   3.283   0.540   0.259  1.5313  0.4640  1.7857
 8961SOL    HW237353   3.120   0.532   0.273  0.9787  3.0301 -2.3825
 8962SOL     OW37354   7.950   2.552   1.189 -0.3404 -0.1824  0.0626
 8962SOL    HW137355   7.884   2.503   1.131  0.8594 -0.5716 -0.9929
 8962SOL    HW237356   8.043   2.529   1.160  0.2540  1.2322  0.8154
 8963SOL     OW37357   3.569   0.849   2.490  0.1278  0.2878 -0.4434
 8963SOL    HW137358   3.484   0.797   2.483  0.9625 -0.8134 -3.2115
 8963SOL    HW237359   3.640   0.790   2.530  0.5595 -0.0672 -1.7155
 8964SOL     OW37360   8.771   2.148   2.829 -0.6089 -0.7674  0.5880
 8964SOL    HW137361   8.808   2.113   2.743 -0.6766 -1.7421  0.9545
 8964SOL    HW237362   8.672   2.159   2.820 -0.5760 -0.5808  0.4432
 8965SOL     OW37363   8.107   1.588   2.953 -0.2530  0.0027 -0.3564
 8965SOL    HW137364   8.195   1.621   2.917  1.2178 -0.6909  2.4473
 8965SOL    HW237365   8.078   1.507   2.902 -0.0482  1.1152 -2.2879
 8966SOL     OW37366   3.815   7.764   1.037 -0.4378  0.0072  0.0725
 8966SOL    HW137367   3.869   7.769   1.120 -0.7589 -2.0119  0.4305
 8966SOL    HW237368   3.873   7.734   0.961 -1.0719 -2.4824  0.5251
 8967SOL     OW37369   2.401   7.961   3.334 -0.0628 -0.0694  0.1448
 8967SOL    HW137370   2.343   8.039   3.310 -1.7829 -0.8814  1.5408
 8967SOL    HW237371   2.439   7.975   3.426  0.7485 -0.2509 -0.1545
 8968SOL     OW37372   2.712   2.276   1.587 -0.3628  0.1392 -0.3843
 8968SOL    HW137373   2.661   2.299   1.670 -1.0355  0.6684 -0.9320
 8968SOL    HW237374   2.788   2.339   1.575  0.4731 -0.6801  0.4610
 8969SOL     OW37375   9.667   7.524   3.253  0.2331  0.1627  0.4158
 8969SOL    HW137376   9.599   7.455   3.276 -0.5714  0.4940 -0.8978
 8969SOL    HW237377   9.743   7.520   3.318 -0.4773 -1.0059  1.1794
 8970SOL     OW37378   2.497   3.983   2.541 -0.3695  0.7480 -0.1332
 8970SOL    HW137379   2.406   4.014   2.514 -0.2195  0.6247 -0.8016
 8970SOL    HW237380   2.541   3.937   2.464 -0.6381 -1.2661  0.8895
 8971SOL     OW37381   6.828   9.106   3.457 -0.1420 -0.3670  0.4026
 8971SOL    HW137382   6.729   9.115   3.469 -0.1159 -2.2940  2.4091
 8971SOL    HW237383   6.874   9.188   3.493 -0.8747 -0.5570  1.7898
 8972SOL     OW37384   2.950   2.421   1.605  0.3456 -0.2697  0.5185
 8972SOL    HW137385   2.992   2.346   1.555 -1.1743 -0.7916 -0.0258
 8972SOL    HW237386   2.976   2.508   1.564 -1.0877 -0.7022 -1.3978
 8973SOL     OW37387   2.825   6.539   3.491  0.1597 -0.2163 -0.4817
 8973SOL    HW137388   2.774   6.489   3.561 -0.6762  1.0546 -0.1513
 8973SOL    HW237389   2.804   6.501   3.401 -0.6848 -0.2858 -0.2635
 8974SOL     OW37390   6.589   0.406   2.570 -0.1438 -0.1537  0.0044
 8974SOL    HW137391   6.583   0.431   2.473 -0.2522 -2.5279 -0.6092
 8974SOL    HW237392   6.518   0.339   2.592  1.7126 -1.8320  1.0076
 8975SOL     OW37393   4.522   8.988   1.204 -0.7338 -0.1161  0.6694
 8975SOL    HW137394   4.597   9.028   1.151 -0.7371  1.8832  2.0974
 8975SOL    HW237395   4.519   8.889   1.189  1.4136 -0.0593 -0.3385
 8976SOL     OW37396   9.808   7.897   2.198 -0.1203 -0.7338  0.3325
 8976SOL    HW137397   9.837   7.808   2.235  0.2279 -1.1342 -0.8658
 8976SOL    HW237398   9.884   7.962   2.205 -0.8945 -0.0413  2.7096
 8977SOL     OW37399   4.431   9.089   2.195  0.6991 -0.2873  0.2079
 8977SOL    HW137400   4.513   9.145   2.185  0.5931 -0.0903  0.4358
 8977SOL    HW237401   4.439   9.035   2.279  0.6513 -0.3592  0.1652
 8978SOL     OW37402   7.711   6.375   2.853  0.0477  0.1594  0.1240
 8978SOL    HW137403   7.686   6.341   2.944 -0.9995  1.2362  0.2501
 8978SOL    HW237404   7.798   6.424   2.859 -0.8344  1.6727  0.8914
 8979SOL     OW37405   6.176   7.584   2.957  0.1050 -0.8416  0.5107
 8979SOL    HW137406   6.219   7.494   2.945  0.7348 -0.7470  1.9124
 8979SOL    HW237407   6.087   7.573   3.001 -0.4841 -0.8807 -0.6580
 8980SOL     OW37408   0.062   2.755   2.055 -0.1963  0.7095  0.0846
 8980SOL    HW137409  -0.012   2.785   1.995 -0.4754 -0.3089 -0.0850
 8980SOL    HW237410   0.128   2.829   2.066 -0.4500  1.1055 -1.0032
 8981SOL     OW37411   8.351   4.147   3.812 -0.3509 -0.4885 -0.2769
 8981SOL    HW137412   8.259   4.133   3.848 -0.6413  0.0463 -0.7828
 8981SOL    HW237413   8.407   4.192   3.881 -0.2243 -1.5705  0.3328
 8982SOL     OW37414   2.244   8.077   1.647 -0.5181  0.5637  0.3321
 8982SOL    HW137415   2.313   8.013   1.682  0.3702  1.7374  0.7691
 8982SOL    HW237416   2.214   8.136   1.721 -0.4817  1.4100 -0.3273
 8983SOL     OW37417   0.543   9.249   1.814 -0.4791 -0.6829 -0.2996
 8983SOL    HW137418   0.519   9.314   1.742  0.0151  1.0745  1.0882
 8983SOL    HW237419   0.459   9.212   1.854 -0.7834  0.1665 -0.1437
 8984SOL     OW37420   7.708   1.050   2.610 -0.4091  0.6501 -0.1164
 8984SOL    HW137421   7.738   1.138   2.647  0.9890 -0.2085  0.8821
 8984SOL    HW237422   7.788   0.996   2.585 -1.1848 -0.9194  0.7016
 8985SOL     OW37423   9.787   3.100   3.183 -0.3593 -0.2234 -0.5844
 8985SOL    HW137424   9.856   3.170   3.163 -0.4754 -0.3366 -1.3833
 8985SOL    HW237425   9.788   3.030   3.112  0.1393 -1.3440  0.4969
 8986SOL     OW37426   2.960   0.305   0.052 -0.4606 -0.0381  0.2005
 8986SOL    HW137427   3.037   0.271   0.105  1.2626  1.2856 -1.3726
 8986SOL    HW237428   2.884   0.240   0.055  0.2520 -0.7716  2.7957
 8987SOL     OW37429   9.270   0.768   2.748 -0.1163  0.2318  0.2890
 8987SOL    HW137430   9.193   0.735   2.694  1.3617  0.8737 -2.3047
 8987SOL    HW237431   9.280   0.712   2.830 -3.0568 -0.1070  0.4601
 8988SOL     OW37432   1.647   2.626   0.664  0.2424  0.2696 -0.5794
 8988SOL    HW137433   1.724   2.689   0.675 -0.0465  0.6021 -0.4578
 8988SOL    HW237434   1.572   2.673   0.618 -0.4790  0.4229  0.7343
 8989SOL     OW37435   0.486   8.723   3.332 -0.5590  0.1109  0.4024
 8989SOL    HW137436   0.433   8.640   3.314 -0.2024 -0.2670  1.1232
 8989SOL    HW237437   0.553   8.706   3.403  0.1260  0.7697 -0.0780
 8990SOL     OW37438   0.429   9.438   0.435  0.4564  0.1843 -0.4508
 8990SOL    HW137439   0.473   9.353   0.404 -0.1875  0.4616 -2.1723
 8990SOL    HW237440   0.436   9.444   0.534 -0.4014 -2.4073 -0.1876
 8991SOL     OW37441   1.179   3.447   2.467  0.3297 -0.1423  0.3523
 8991SOL    HW137442   1.110   3.461   2.396 -0.3749  0.6512  1.1683
 8991SOL    HW237443   1.167   3.356   2.507 -1.1348  0.4903  1.4080
 8992SOL     OW37444   0.659   6.282   0.508  0.3807  0.6098 -0.0309
 8992SOL    HW137445   0.657   6.284   0.608 -1.4490  0.7247 -0.0509
 8992SOL    HW237446   0.638   6.190   0.477 -0.8320  0.9841 -0.3289
 8993SOL     OW37447   0.741   5.482   3.643  0.6250  0.5072 -0.9908
 8993SOL    HW137448   0.811   5.420   3.679 -0.9651 -0.3581  0.7242
 8993SOL    HW237449   0.667   5.429   3.603 -0.1405  1.3304 -0.6853
 8994SOL     OW37450   8.024   0.290   0.161  0.6651  0.4343 -0.0126
 8994SOL    HW137451   7.957   0.364   0.158 -1.4269 -1.3428  0.9584
 8994SOL    HW237452   8.043   0.259   0.067  0.6731  1.4318 -0.3419
 8995SOL     OW37453   9.518   4.232   3.143  0.3394 -0.3854  0.2915
 8995SOL    HW137454   9.587   4.294   3.178 -0.7556  1.0709 -0.0651
 8995SOL    HW237455   9.559   4.144   3.122  1.9048  0.2025  0.8640
 8996SOL     OW37456   9.202   9.519   3.102  0.0614 -0.1970  0.0983
 8996SOL    HW137457   9.125   9.580   3.115  0.7028  0.8759 -1.0470
 8996SOL    HW237458   9.179   9.449   3.034 -0.6983 -1.2938  1.4626
 8997SOL     OW37459   3.719   0.694   0.792  0.5608 -0.3534 -0.2292
 8997SOL    HW137460   3.723   0.779   0.739  1.2297 -1.1494 -1.4583
 8997SOL    HW237461   3.773   0.704   0.876  1.5783  0.0452 -0.9274
 8998SOL     OW37462   8.049   6.211   1.814  0.0186  0.1761  0.0718
 8998SOL    HW137463   8.067   6.166   1.901  1.1868 -1.6363 -1.1013
 8998SOL    HW237464   7.953   6.196   1.788  0.1669 -0.8835  0.1212
 8999SOL     OW37465   8.224   0.892   3.595 -0.4419 -0.3551  0.6475
 8999SOL    HW137466   8.168   0.892   3.513 -2.8120  1.7478  2.1899
 8999SOL    HW237467   8.216   0.803   3.640 -2.4968 -0.1435  0.7651
 9000SOL     OW37468   0.645   0.388   3.954  0.9325  0.1583  0.2839
 9000SOL    HW137469   0.601   0.401   4.043 -0.3011  2.3338 -0.6053
 9000SOL    HW237470   0.743   0.370   3.967  0.9173  1.2259  2.0629
 9001SOL     OW37471   3.043   8.085   2.138  0.0364 -0.3842 -0.0280
 9001SOL    HW137472   2.947   8.060   2.121 -0.5282  1.1577  0.8228
 9001SOL    HW237473   3.057   8.181   2.116  1.1632 -0.3550  0.7940
 9002SOL     OW37474   9.596   4.915   3.134  0.3111  0.5782 -0.0127
 9002SOL    HW137475   9.613   4.935   3.231  0.4871 -1.8478  0.4722
 9002SOL    HW237476   9.660   4.847   3.101  0.3209  1.4498 -1.9016
 9003SOL     OW37477   3.124   7.742   1.594 -0.7219 -1.0093  0.1903
 9003SOL    HW137478   3.060   7.789   1.533  0.3051 -0.4515 -0.4682
 9003SOL    HW237479   3.115   7.779   1.687 -1.9279 -1.5053  0.2864
 9004SOL     OW37480   9.053   7.789   0.836  0.4554  0.2773  0.5650
 9004SOL    HW137481   9.039   7.700   0.878  0.6239  0.1055  0.2594
 9004SOL    HW237482   9.127   7.784   0.769 -0.0728  0.4469 -0.0413
 9005SOL     OW37483   3.382   3.741   1.563 -0.5683  0.4177  0.6433
 9005SOL    HW137484   3.396   3.752   1.464 -0.2701 -0.5813  0.5652
 9005SOL    HW237485   3.307   3.800   1.592 -0.0894  1.3697 -0.0224
 9006SOL     OW37486   3.018   8.148   1.812  0.1494  0.1051 -0.1661
 9006SOL    HW137487   3.074   8.228   1.789  0.9468  0.0429  1.4259
 9006SOL    HW237488   3.077   8.078   1.855 -0.8249 -0.6847 -0.1113
 9007SOL     OW37489   9.860   2.939   1.826 -0.0109 -0.4740  0.0634
 9007SOL    HW137490   9.795   2.983   1.887  0.0392 -0.7386  0.3063
 9007SOL    HW237491   9.815   2.918   1.739 -0.5280 -1.5426  0.5723
 9008SOL     OW37492   2.700   3.016   2.221 -0.7971  0.2987  0.3454
 9008SOL    HW137493   2.618   3.044   2.270 -0.8548  2.9724 -1.2347
 9008SOL    HW237494   2.778   3.071   2.253  0.3375 -1.8793  1.4860
 9009SOL     OW37495   3.260   7.024   2.724  0.4686 -0.3161  0.7924
 9009SOL    HW137496   3.192   6.989   2.658  1.2457 -1.3936  0.5507
 9009SOL    HW237497   3.282   7.119   2.701 -1.5031  0.3057  1.3204
 9010SOL     OW37498   7.852   9.567   3.738 -0.1110 -0.0719  0.2948
 9010SOL    HW137499   7.762   9.604   3.714 -0.0458  0.5248  0.9346
 9010SOL    HW237500   7.849   9.468   3.736 -0.8720 -0.0615  0.6043
 9011SOL     OW37501   1.813   9.565   1.434  0.8293  0.1408  0.3967
 9011SOL    HW137502   1.886   9.550   1.368 -0.1331 -2.5540 -0.1263
 9011SOL    HW237503   1.736   9.610   1.388  0.3307 -1.3343 -0.2247
 9012SOL     OW37504   3.599   3.873   1.661  0.3940 -0.5131 -0.2503
 9012SOL    HW137505   3.530   3.801   1.657  0.2978 -0.5441  1.3612
 9012SOL    HW237506   3.677   3.848   1.605  0.2617 -1.7694  0.1006
 9013SOL     OW37507   4.577   9.800   3.578  0.2176  0.2192  0.4553
 9013SOL    HW137508   4.561   9.834   3.485  1.1009  0.9520  0.5629
 9013SOL    HW237509   4.531   9.712   3.589 -1.1938  0.8633 -0.1735
 9014SOL     OW37510   2.046   3.066   3.103  0.2079 -0.5777  0.1274
 9014SOL    HW137511   2.108   3.074   3.025 -0.1513  1.3361  0.0166
 9014SOL    HW237512   2.035   2.970   3.128  1.6888 -1.0620 -1.0801
 9015SOL     OW37513   2.248   3.614   0.797 -0.0690 -0.3282 -0.1832
 9015SOL    HW137514   2.182   3.569   0.738  0.0182  0.6231 -1.0100
 9015SOL    HW237515   2.339   3.576   0.782  0.1016  0.4924 -1.2864
 9016SOL     OW37516   2.480   1.787   2.603  0.0910  0.0156 -0.8748
 9016SOL    HW137517   2.495   1.708   2.663  2.9819  1.2440  0.0686
 9016SOL    HW237518   2.437   1.861   2.656  1.8085  0.7741 -0.5145
 9017SOL     OW37519   7.306   9.301   2.825 -0.4224 -0.0051  0.2013
 9017SOL    HW137520   7.302   9.213   2.874 -0.7584 -1.0897 -1.7142
 9017SOL    HW237521   7.254   9.369   2.876 -0.1637 -0.8939  1.7226
 9018SOL     OW37522   3.721   9.123   1.496 -0.1386  0.7123  0.1028
 9018SOL    HW137523   3.741   9.025   1.491  1.5718  1.0150  0.8846
 9018SOL    HW237524   3.622   9.136   1.504 -0.4491 -0.9165 -0.8428
 9019SOL     OW37525   1.293   6.552   3.486  0.0956  0.3773 -0.4072
 9019SOL    HW137526   1.356   6.604   3.542  0.1536 -1.9686  1.7972
 9019SOL    HW237527   1.206   6.541   3.535 -0.9648  0.9500 -2.1109
 9020SOL     OW37528   7.725   0.727   3.261 -0.2776  1.2030 -0.2482
 9020SOL    HW137529   7.634   0.745   3.300 -0.5903 -0.4383 -0.1773
 9020SOL    HW237530   7.723   0.745   3.163 -1.1311 -0.3355 -0.5279
 9021SOL     OW37531   3.139   8.387   1.737  0.5177 -0.0481  0.5099
 9021SOL    HW137532   3.237   8.373   1.719  0.7607  0.1533  1.5994
 9021SOL    HW237533   3.122   8.485   1.747  0.0509 -0.0275 -0.5067
 9022SOL     OW37534   3.917   9.573   0.681  0.0145  0.1979 -0.1582
 9022SOL    HW137535   3.959   9.513   0.749  0.4493  0.4693 -0.1895
 9022SOL    HW237536   3.830   9.609   0.718  0.6802  1.0516  0.6184
 9023SOL     OW37537   3.933   2.897   1.685 -0.5392  0.2790 -0.1679
 9023SOL    HW137538   3.850   2.879   1.632 -0.5956 -0.1107  0.0530
 9023SOL    HW237539   3.983   2.811   1.699  1.1231  0.8461 -2.3422
 9024SOL     OW37540   7.700   9.331   2.215 -0.2389 -0.3967  0.2517
 9024SOL    HW137541   7.778   9.331   2.152 -0.3853  1.0976  0.0549
 9024SOL    HW237542   7.714   9.260   2.284  0.8283 -0.7887 -0.3409
 9025SOL     OW37543   8.764   8.491   0.126 -0.2964 -0.6310 -0.6828
 9025SOL    HW137544   8.825   8.547   0.182 -0.5727 -0.3531 -0.6567
 9025SOL    HW237545   8.816   8.418   0.083 -0.4804 -2.2986  1.8156
 9026SOL     OW37546   9.605   6.020   2.725  0.2449  0.0167 -0.0643
 9026SOL    HW137547   9.550   6.020   2.808  0.0940  2.1299 -0.1458
 9026SOL    HW237548   9.546   6.012   2.645  0.1348  1.2598 -0.1080
 9027SOL     OW37549   3.459   2.016   1.114  1.4001 -0.2624  0.5275
 9027SOL    HW137550   3.478   1.935   1.059  0.7498 -0.7881  1.0681
 9027SOL    HW237551   3.511   2.094   1.078  0.6208 -0.4808 -1.1310
 9028SOL     OW37552   0.894   6.448   3.068  0.3610 -0.0117  0.2509
 9028SOL    HW137553   0.902   6.539   3.028  0.3448  0.2664  0.8804
 9028SOL    HW237554   0.902   6.454   3.167 -1.8765 -0.4066  0.4855
 9029SOL     OW37555   3.148   1.539   3.190 -0.0484  0.3908  0.0061
 9029SOL    HW137556   3.161   1.477   3.267  0.7745  1.0908  0.4458
 9029SOL    HW237557   3.170   1.491   3.105 -0.5681 -0.2653  0.2396
 9030SOL     OW37558   1.726   9.221   2.141 -0.3727  1.1064 -0.3331
 9030SOL    HW137559   1.817   9.198   2.175 -0.4658  2.1407  0.6440
 9030SOL    HW237560   1.708   9.318   2.157 -2.2460  0.5897  0.9547
 9031SOL     OW37561   2.476   2.643   3.862 -0.4659 -0.2945  0.5331
 9031SOL    HW137562   2.514   2.690   3.942 -0.5157  0.8456 -0.1041
 9031SOL    HW237563   2.533   2.563   3.841 -0.8354 -0.9767  2.0978
 9032SOL     OW37564   8.575   4.475   2.866  0.1211 -0.2538 -0.1809
 9032SOL    HW137565   8.582   4.430   2.955 -2.1035 -1.9189 -0.7870
 9032SOL    HW237566   8.651   4.446   2.808  2.6792  2.3451  1.7622
 9033SOL     OW37567   2.526   4.473   2.073  0.4091 -0.3830 -0.3501
 9033SOL    HW137568   2.511   4.427   1.986  3.5456 -1.4715 -0.3898
 9033SOL    HW237569   2.518   4.407   2.148  1.0438 -0.1882 -0.1021
 9034SOL     OW37570   3.135   3.659   0.310  0.4837  0.3042  0.7267
 9034SOL    HW137571   3.103   3.582   0.253  1.5947  1.2692 -1.2507
 9034SOL    HW237572   3.056   3.708   0.345 -0.2384 -0.6963  0.5450
 9035SOL     OW37573   0.290   2.754   1.125  0.2673 -0.1492 -0.1244
 9035SOL    HW137574   0.281   2.666   1.172 -1.2214  0.4711  0.8059
 9035SOL    HW237575   0.208   2.772   1.071  0.4213  0.8002 -0.0596
 9036SOL     OW37576   8.843   9.891   1.354 -0.2146  0.9605 -0.1876
 9036SOL    HW137577   8.928   9.839   1.360 -1.7754 -1.4662  2.2986
 9036SOL    HW237578   8.806   9.885   1.261  1.6039  0.9345 -0.9340
 9037SOL     OW37579   8.890   3.686   1.007 -0.4180 -0.3031 -1.1543
 9037SOL    HW137580   8.850   3.735   1.084 -1.9819  0.4196 -2.4112
 9037SOL    HW237581   8.990   3.692   1.012 -0.5188  0.2609  0.4605
 9038SOL     OW37582   0.173   2.859   3.801 -0.2145 -0.6215 -0.1850
 9038SOL    HW137583   0.140   2.774   3.761  0.2463 -1.3138  0.8743
 9038SOL    HW237584   0.273   2.857   3.804 -0.1377  0.6028 -1.5387
 9039SOL     OW37585   0.207   3.344   2.652  0.3006 -0.7258  0.3540
 9039SOL    HW137586   0.203   3.348   2.752 -4.3362  0.4958  0.2449
 9039SOL    HW237587   0.184   3.251   2.621  0.9528 -0.8965  0.3625
 9040SOL     OW37588   3.051   7.911   2.567  0.3008 -0.0225  0.2162
 9040SOL    HW137589   3.087   7.863   2.487  0.1808 -2.2588  1.4645
 9040SOL    HW237590   3.095   7.877   2.650  0.1848  2.0299  1.1733
 9041SOL     OW37591   2.607   5.076   0.046 -0.0420  0.3761  0.7931
 9041SOL    HW137592   2.554   5.097  -0.037 -0.0296  1.5369  1.0639
 9041SOL    HW237593   2.611   4.977   0.059  0.2935  0.1746 -0.8087
 9042SOL     OW37594   0.695   4.151   1.727  0.3309  0.3085  0.0446
 9042SOL    HW137595   0.789   4.120   1.740  0.6055  0.5322 -1.4108
 9042SOL    HW237596   0.641   4.077   1.687  0.3091  0.7460 -0.7451
 9043SOL     OW37597   0.611   3.559   0.958  0.5469 -1.0567 -0.0455
 9043SOL    HW137598   0.629   3.626   0.886  0.1459  0.5714  1.3300
 9043SOL    HW237599   0.696   3.513   0.984  1.6134  1.8647  1.8313
 9044SOL     OW37600   9.590   8.177   2.795  0.0498  0.6255  0.0680
 9044SOL    HW137601   9.669   8.126   2.829  0.3419  0.2373 -1.1427
 9044SOL    HW237602   9.506   8.128   2.816  0.2757  0.0284 -0.3875
 9045SOL     OW37603   4.516   7.583   3.536  0.2223  0.4330  0.2474
 9045SOL    HW137604   4.443   7.624   3.590  1.9084  1.2943  1.8814
 9045SOL    HW237605   4.493   7.590   3.439 -0.8957  2.5481  0.6541
 9046SOL     OW37606   1.418   6.429   0.953 -0.1596  0.3601  0.1843
 9046SOL    HW137607   1.344   6.483   0.992 -0.2796 -0.1740  0.7176
 9046SOL    HW237608   1.496   6.428   1.016  0.4100  1.1643 -0.5102
 9047SOL     OW37609   0.316   7.938   3.304  0.1054 -0.2474 -0.4994
 9047SOL    HW137610   0.217   7.945   3.302  0.2833  2.4701 -1.7198
 9047SOL    HW237611   0.347   7.881   3.228 -0.4539 -0.1703 -0.7874
 9048SOL     OW37612   2.876   5.414   3.938  0.4559  0.2578  0.1342
 9048SOL    HW137613   2.895   5.479   4.012 -1.1468  0.6727  0.2056
 9048SOL    HW237614   2.855   5.324   3.977 -0.7773  0.5736  0.2191
 9049SOL     OW37615   9.709   4.034   3.092  0.1880 -0.0132 -0.1946
 9049SOL    HW137616   9.752   4.056   3.005  0.6674  1.6711  0.4487
 9049SOL    HW237617   9.778   4.025   3.163 -0.2216 -1.1257  0.0801
 9050SOL     OW37618   5.955   8.387   2.295  0.0123 -0.1539  0.1432
 9050SOL    HW137619   5.887   8.321   2.263 -0.8210  1.3907 -1.3332
 9050SOL    HW237620   6.004   8.425   2.217  0.5130  0.9458  0.9881
 9051SOL     OW37621   9.399   3.266   2.618  0.2250 -0.6112 -0.4329
 9051SOL    HW137622   9.415   3.238   2.523  0.7226  0.9407 -0.8221
 9051SOL    HW237623   9.485   3.293   2.660 -0.1987  0.1219 -0.0135
 9052SOL     OW37624   3.592   2.779   3.425 -0.2224 -0.2059 -0.3678
 9052SOL    HW137625   3.597   2.680   3.442  1.3396 -0.0611  0.0981
 9052SOL    HW237626   3.683   2.814   3.407 -0.7211  1.2304 -0.1266
 9053SOL     OW37627   4.704   0.185   0.422 -0.2899 -0.0596 -0.0696
 9053SOL    HW137628   4.688   0.215   0.516 -0.7824 -0.8667  0.1074
 9053SOL    HW237629   4.628   0.128   0.392  0.4378 -0.7830 -0.5491
 9054SOL     OW37630   4.645   0.154   0.753  0.8433 -0.0389  0.0591
 9054SOL    HW137631   4.685   0.158   0.845 -1.1924 -1.3068  1.0217
 9054SOL    HW237632   4.655   0.062   0.716  0.1418  0.0267 -0.3024
 9055SOL     OW37633   3.142   9.453   1.045 -0.5770  0.4234 -0.5568
 9055SOL    HW137634   3.130   9.359   1.015  1.2019 -0.6770  2.0038
 9055SOL    HW237635   3.206   9.500   0.983  1.2912 -1.1415  0.1176
 9056SOL     OW37636   3.265   1.653   0.407 -0.3015  0.1991  0.4985
 9056SOL    HW137637   3.268   1.628   0.504  0.6791 -3.0987 -0.3181
 9056SOL    HW237638   3.171   1.642   0.373 -0.3203 -0.2876  0.6968
 9057SOL     OW37639   0.248   9.456   1.403  0.4991 -0.1559 -0.2319
 9057SOL    HW137640   0.308   9.536   1.414  0.1138 -0.1695  2.2120
 9057SOL    HW237641   0.168   9.467   1.461  0.9120 -2.7654  0.9137
 9058SOL     OW37642   9.497   4.246   1.456  0.4174 -0.3457 -0.5825
 9058SOL    HW137643   9.510   4.152   1.489 -0.3970 -0.5685 -0.8875
 9058SOL    HW237644   9.413   4.284   1.496 -0.4335 -0.5240 -2.1796
 9059SOL     OW37645   1.927   2.030   2.985  0.2226  0.2142  0.6955
 9059SOL    HW137646   1.914   1.936   3.016  1.5561  0.3987  1.8610
 9059SOL    HW237647   1.956   2.029   2.889 -2.4624 -0.4175 -0.1349
 9060SOL     OW37648   1.307   2.514   3.729  0.1457 -0.5986  0.0453
 9060SOL    HW137649   1.264   2.603   3.740  0.2470 -0.3316 -1.5248
 9060SOL    HW237650   1.328   2.475   3.818  0.5017  1.1413  0.7352
 9061SOL     OW37651   3.669   3.165   2.352 -0.4515  0.3367  0.0957
 9061SOL    HW137652   3.595   3.104   2.383 -0.1728  1.6169  3.3938
 9061SOL    HW237653   3.753   3.143   2.401  0.8010  0.4329 -1.9738
 9062SOL     OW37654   7.458   2.140   0.607 -0.1294  0.2257  0.4779
 9062SOL    HW137655   7.501   2.055   0.637 -1.0865 -0.6537 -0.5559
 9062SOL    HW237656   7.511   2.180   0.533  0.2330  0.4368  0.8528
 9063SOL     OW37657   2.836   0.438   1.742 -0.3680 -0.4290  0.7893
 9063SOL    HW137658   2.758   0.487   1.782 -0.0737 -0.4159  1.3528
 9063SOL    HW237659   2.894   0.403   1.816  0.3489 -0.1282  0.3726
 9064SOL     OW37660   7.902   9.232   3.455 -0.2574 -0.2968  0.4781
 9064SOL    HW137661   7.888   9.322   3.412  1.0079 -0.1549  0.3294
 9064SOL    HW237662   7.862   9.232   3.546 -1.1867  0.0736  0.0779
 9065SOL     OW37663   0.747   2.678   1.828  0.6291  0.0671  0.0139
 9065SOL    HW137664   0.844   2.695   1.816  0.6416 -0.3686 -0.5203
 9065SOL    HW237665   0.696   2.763   1.815  0.9001  0.2049 -0.1355
 9066SOL     OW37666   1.715   5.099   0.882 -0.5589 -0.0449 -0.4243
 9066SOL    HW137667   1.626   5.144   0.893 -0.0307  0.7834  0.6431
 9066SOL    HW237668   1.786   5.168   0.864  0.1325 -0.5091  0.4410
 9067SOL     OW37669   5.037   7.243   3.053 -0.3928 -0.2981  0.6010
 9067SOL    HW137670   5.086   7.197   3.128 -2.0329 -0.4758  1.5776
 9067SOL    HW237671   5.060   7.198   2.967  1.5239 -0.0893  0.9699
 9068SOL     OW37672   2.071   5.333   3.885 -0.2829  0.1499 -0.2361
 9068SOL    HW137673   2.133   5.279   3.828  0.7991  0.6723  0.4094
 9068SOL    HW237674   2.125   5.398   3.939 -1.3817  0.4059  0.5668
 9069SOL     OW37675   8.511   5.930   2.952 -0.5370  0.3413  0.0629
 9069SOL    HW137676   8.430   5.875   2.971  0.8670 -1.2435  1.6479
 9069SOL    HW237677   8.571   5.930   3.031  1.4230  0.7816 -1.3772
 9070SOL     OW37678   4.537   7.396   3.764  0.0245 -0.0230 -0.1132
 9070SOL    HW137679   4.498   7.331   3.698  0.6853 -0.1559 -0.3710
 9070SOL    HW237680   4.546   7.486   3.721  0.9883 -0.2457 -0.3859
 9071SOL     OW37681   3.736   8.121   0.063  0.7963  0.2495 -0.9331
 9071SOL    HW137682   3.765   8.206   0.106 -0.6788  0.0169  0.5774
 9071SOL    HW237683   3.639   8.126   0.040  0.5764 -1.1722 -0.3931
 9072SOL     OW37684   7.640   6.615   2.725  0.0434  0.2587  0.8318
 9072SOL    HW137685   7.660   6.679   2.799  0.7467 -0.0028  0.8732
 9072SOL    HW237686   7.671   6.523   2.751  1.6526  0.4393 -0.3639
 9073SOL     OW37687   2.704   0.320   1.278 -0.0809 -0.3938  0.7949
 9073SOL    HW137688   2.669   0.352   1.190  2.3496  1.4693  0.4499
 9073SOL    HW237689   2.785   0.262   1.262 -0.9622 -1.8894  1.7094
 9074SOL     OW37690   8.392   6.753   3.904 -0.1434  0.4957 -0.1645
 9074SOL    HW137691   8.401   6.670   3.849  0.9600  1.5068 -1.5314
 9074SOL    HW237692   8.346   6.731   3.991  2.8456 -2.1372  0.8265
 9075SOL     OW37693   0.808   5.238   3.189 -0.5159 -0.4880 -0.0320
 9075SOL    HW137694   0.838   5.295   3.113 -0.6747 -0.6939 -0.2511
 9075SOL    HW237695   0.888   5.204   3.239 -0.4561  1.0250  0.9241
 9076SOL     OW37696   4.267   2.584   3.382 -0.4921  0.2880 -0.2413
 9076SOL    HW137697   4.225   2.674   3.385 -2.3001 -0.5336 -0.5705
 9076SOL    HW237698   4.283   2.558   3.287  2.7316  1.4577 -0.0965
 9077SOL     OW37699   2.913   3.173   2.303  1.0730 -0.2892 -0.3490
 9077SOL    HW137700   2.975   3.231   2.252  0.0910 -0.3768 -1.6638
 9077SOL    HW237701   2.965   3.115   2.366  2.2127  0.4589 -0.5964
 9078SOL     OW37702   8.556   4.610   3.973 -0.0994 -0.2468  0.5279
 9078SOL    HW137703   8.511   4.699   3.961  0.1409 -0.1600  0.2670
 9078SOL    HW237704   8.619   4.616   4.050  0.2759 -0.0489  0.2043
 9079SOL     OW37705   3.828   2.915   2.997 -0.0930  0.1870 -0.2508
 9079SOL    HW137706   3.868   2.996   2.955  1.2886  1.1419  2.7411
 9079SOL    HW237707   3.741   2.938   3.039 -1.5530 -0.8034 -2.5938
 9080SOL     OW37708   5.955   9.516   2.136  0.2808 -0.3889 -0.3838
 9080SOL    HW137709   5.989   9.578   2.066  1.6963 -1.8943 -1.0694
 9080SOL    HW237710   6.014   9.435   2.141  0.1626 -0.3517  2.5068
 9081SOL     OW37711   7.303   0.804   2.634  0.0103 -0.6773 -0.3228
 9081SOL    HW137712   7.297   0.740   2.557 -2.4307  0.4272 -1.0981
 9081SOL    HW237713   7.211   0.822   2.669  1.0933 -1.3007  3.0028
 9082SOL     OW37714   1.733   4.877   2.183  0.5597 -0.1812 -0.9081
 9082SOL    HW137715   1.666   4.915   2.119  0.0834  2.5112  1.0814
 9082SOL    HW237716   1.747   4.780   2.163 -2.5359 -0.3671 -2.5308
 9083SOL     OW37717   8.259   1.714   0.344 -0.3686  0.3501 -0.4861
 9083SOL    HW137718   8.301   1.787   0.397  0.9209 -0.1152 -0.8430
 9083SOL    HW237719   8.287   1.625   0.380 -1.1436  0.0226 -0.6637
 9084SOL     OW37720   0.581   5.601   2.086  0.3146 -0.0436  0.4042
 9084SOL    HW137721   0.532   5.514   2.079 -0.0496  0.1178  0.9111
 9084SOL    HW237722   0.639   5.613   2.006  0.0008 -0.5317  0.0999
 9085SOL     OW37723   4.444   8.335   0.224 -0.4775 -0.5145 -0.1734
 9085SOL    HW137724   4.526   8.392   0.236 -0.4727 -0.4215 -0.6281
 9085SOL    HW237725   4.383   8.379   0.158  0.3251 -1.8730 -1.8501
 9086SOL     OW37726   9.163   6.046   2.974  0.2308  0.1964 -0.4102
 9086SOL    HW137727   9.168   6.094   3.062  1.0864 -1.5517  0.5025
 9086SOL    HW237728   9.068   6.046   2.942 -0.2653 -0.1298  1.0452
 9087SOL     OW37729   8.033   2.350   0.808 -0.1902 -0.3385  0.2060
 9087SOL    HW137730   8.039   2.251   0.820  0.9981 -0.5771 -1.9873
 9087SOL    HW237731   7.941   2.373   0.776 -0.0071 -0.9396 -0.7933
 9088SOL     OW37732   7.808   8.803   0.803 -0.0244 -0.6363  0.4399
 9088SOL    HW137733   7.726   8.857   0.820  0.3735 -0.1153  0.7147
 9088SOL    HW237734   7.799   8.714   0.846 -0.2543 -0.4097  0.8666
 9089SOL     OW37735   4.006   1.843   1.773 -0.6906  0.2865 -0.4846
 9089SOL    HW137736   3.980   1.877   1.683  0.9170 -1.6857 -1.7493
 9089SOL    HW237737   4.097   1.800   1.768 -1.2199 -1.2186  1.7380
 9090SOL     OW37738   0.400   2.073   3.113  0.2250 -0.2506  0.2466
 9090SOL    HW137739   0.355   1.990   3.143 -0.3002 -1.0043 -2.5040
 9090SOL    HW237740   0.345   2.152   3.139 -0.4519 -0.8971  0.7944
 9091SOL     OW37741   7.249   8.958   1.818 -0.2639  0.3718 -0.4912
 9091SOL    HW137742   7.262   8.998   1.909 -1.2930  1.3807 -0.7747
 9091SOL    HW237743   7.264   9.029   1.749 -0.5192 -0.1357 -1.0622
 9092SOL     OW37744   1.404   6.886   0.077 -0.2402 -0.2555 -0.1738
 9092SOL    HW137745   1.467   6.846   0.010 -1.0302 -0.8424 -0.5776
 9092SOL    HW237746   1.456   6.933   0.148  0.5997  0.6648 -1.3867
 9093SOL     OW37747   9.063   7.847   2.608  0.0471 -0.0088 -0.2432
 9093SOL    HW137748   9.063   7.885   2.700  0.3217  2.8557 -1.3714
 9093SOL    HW237749   8.996   7.773   2.602 -0.2685  0.0608  2.1448
 9094SOL     OW37750   8.116   2.388   1.389 -0.0338  0.4528 -0.0207
 9094SOL    HW137751   8.026   2.408   1.429 -1.1170  0.2001 -2.2511
 9094SOL    HW237752   8.122   2.430   1.298  1.2404 -1.4217 -0.8324
 9095SOL     OW37753   4.492   9.701   0.315 -0.8338 -0.6079 -0.1794
 9095SOL    HW137754   4.479   9.713   0.217 -2.2461 -0.4398  0.0228
 9095SOL    HW237755   4.548   9.620   0.332  1.4898  0.7213 -1.2071
 9096SOL     OW37756   8.171   5.495   3.029  0.0851 -0.4611  0.0204
 9096SOL    HW137757   8.136   5.402   3.034  0.8087 -0.6743  1.2710
 9096SOL    HW237758   8.163   5.539   3.118 -0.0103  0.5884 -0.4976
 9097SOL     OW37759   1.869   4.946   3.193  0.2699  0.2169 -0.1176
 9097SOL    HW137760   1.825   5.035   3.200  0.0223  0.2386 -1.8794
 9097SOL    HW237761   1.818   4.888   3.129 -0.9073 -2.0017  2.7187
 9098SOL     OW37762   0.532   1.079   2.327  0.2266  0.3814  0.2872
 9098SOL    HW137763   0.598   1.069   2.401  0.6160  1.2904  0.0671
 9098SOL    HW237764   0.447   1.117   2.364  0.4053  0.7925  0.2783
 9099SOL     OW37765   3.481   4.919   2.839  0.1931  0.2312  0.0347
 9099SOL    HW137766   3.497   4.821   2.854 -0.9429 -0.4198 -2.7040
 9099SOL    HW237767   3.542   4.952   2.768 -2.3115  0.4496 -2.1213
 9100SOL     OW37768   3.168   3.453   2.880  0.2190 -0.4275  0.4988
 9100SOL    HW137769   3.241   3.483   2.818 -2.9157 -0.0002 -3.1688
 9100SOL    HW237770   3.190   3.363   2.917  3.0698  0.1580  0.3477
 9101SOL     OW37771   4.469   5.020   1.925 -0.2667  0.1272 -0.3621
 9101SOL    HW137772   4.390   4.992   1.980  0.1807 -1.4311 -0.4934
 9101SOL    HW237773   4.487   4.951   1.855  1.0988  0.5605 -0.4516
 9102SOL     OW37774   8.510   9.155   0.021  0.1329 -0.2909  0.9142
 9102SOL    HW137775   8.466   9.155   0.110  0.5063 -2.9368  1.1383
 9102SOL    HW237776   8.587   9.218   0.022 -1.1476  1.2722  1.7937
 9103SOL     OW37777   2.714   3.895   0.264  0.1024  0.0827 -0.0933
 9103SOL    HW137778   2.767   3.936   0.190  0.3049  0.7821  0.4261
 9103SOL    HW237779   2.771   3.828   0.313  0.5014  0.7846  0.4225
 9104SOL     OW37780   1.696   6.028   3.550 -0.5433 -0.1956  0.2013
 9104SOL    HW137781   1.700   5.941   3.598 -2.5790 -1.8903 -2.5599
 9104SOL    HW237782   1.605   6.069   3.562  0.2354  1.3327  1.0661
 9105SOL     OW37783   0.481   4.715   2.455  0.3351 -0.3030 -0.0170
 9105SOL    HW137784   0.434   4.637   2.496  0.1801 -0.3218 -0.2308
 9105SOL    HW237785   0.420   4.794   2.454  0.7886  0.0747  1.0153
 9106SOL     OW37786   8.062   1.103   2.197  0.1566 -0.6785 -0.4242
 9106SOL    HW137787   8.122   1.098   2.277 -0.3743 -1.0943 -0.0499
 9106SOL    HW237788   7.988   1.037   2.207 -1.8979  1.6521  0.3621
 9107SOL     OW37789   9.143   2.458   0.918  0.3860 -0.4291 -0.0416
 9107SOL    HW137790   9.069   2.444   0.984  0.0130  0.6234 -0.2215
 9107SOL    HW237791   9.109   2.514   0.842  1.1924 -0.4665 -0.4307
 9108SOL     OW37792   3.111   1.508   2.748 -0.0739  0.6068 -0.4425
 9108SOL    HW137793   3.012   1.519   2.744 -0.2764 -0.5673  0.8557
 9108SOL    HW237794   3.148   1.504   2.656 -1.1804  1.4889 -0.9361
 9109SOL     OW37795   9.959   4.454   1.263  0.3188  0.3919  0.1120
 9109SOL    HW137796   9.880   4.498   1.220  0.3940  0.4814  0.0682
 9109SOL    HW237797   9.927   4.373   1.313  0.1779  0.5086  0.2145
 9110SOL     OW37798   7.547   7.119   2.463 -0.0086 -0.6116 -0.3082
 9110SOL    HW137799   7.525   7.134   2.366  2.9522 -1.2952 -1.1127
 9110SOL    HW237800   7.521   7.026   2.489 -0.0322 -0.7092 -0.6722
 9111SOL     OW37801   0.644   3.141   2.868 -0.2377  0.4019  0.3554
 9111SOL    HW137802   0.594   3.059   2.893 -0.2685  0.0444 -0.8277
 9111SOL    HW237803   0.650   3.147   2.768  2.8914 -0.0627  0.4744
 9112SOL     OW37804   0.286   7.339   0.921  0.4694 -0.1857  0.2399
 9112SOL    HW137805   0.193   7.322   0.956  0.4382  0.7673  0.6351
 9112SOL    HW237806   0.305   7.277   0.845 -1.1156  0.7024 -0.9192
 9113SOL     OW37807   0.778   3.747   2.860  0.0173  0.0993 -0.2583
 9113SOL    HW137808   0.684   3.714   2.872  0.3434 -0.2095  1.4148
 9113SOL    HW237809   0.810   3.721   2.769 -0.7127 -1.7508 -0.0072
 9114SOL     OW37810   2.019   5.743   0.161 -0.7358 -0.3036 -0.8100
 9114SOL    HW137811   2.086   5.726   0.088 -0.2330  1.3831 -0.7571
 9114SOL    HW237812   2.058   5.805   0.229 -2.2513  0.4905 -0.6356
 9115SOL     OW37813   9.005   0.155   0.225  0.4285 -0.0065  0.5100
 9115SOL    HW137814   8.950   0.138   0.143  0.4105 -1.7421  0.8701
 9115SOL    HW237815   9.039   0.250   0.223 -1.2913  0.6018 -0.4523
 9116SOL     OW37816   1.139   7.398   0.045 -0.4972 -0.1729 -0.0386
 9116SOL    HW137817   1.197   7.321   0.070  0.4978  0.1579 -1.3081
 9116SOL    HW237818   1.190   7.462  -0.011 -1.6436  0.8810  0.0925
 9117SOL     OW37819   7.532   9.108   2.369 -0.3637  0.3616  0.5251
 9117SOL    HW137820   7.615   9.126   2.423  0.7573  0.4799 -1.1670
 9117SOL    HW237821   7.455   9.158   2.408  0.5883  1.0557  1.5548
 9118SOL     OW37822   8.700   3.056   1.953 -0.2362 -0.0152 -0.2144
 9118SOL    HW137823   8.601   3.066   1.946 -0.3354 -0.2346  0.7947
 9118SOL    HW237824   8.743   3.146   1.963 -0.4515 -0.0143  0.7299
 9119SOL     OW37825   8.932   5.233   1.244  0.1534  0.0388  0.2301
 9119SOL    HW137826   9.011   5.175   1.260  0.4778  0.1876 -0.7876
 9119SOL    HW237827   8.924   5.300   1.319  2.6267  1.8224 -1.0120
 9120SOL     OW37828   6.360   0.293   2.675  0.2689  0.2458  0.2389
 9120SOL    HW137829   6.344   0.199   2.645 -1.7339  0.7592 -0.3502
 9120SOL    HW237830   6.274   0.333   2.708  0.8731  2.1995 -0.4599
 9121SOL     OW37831   3.176   8.919   2.174  0.1872  0.1080  0.3665
 9121SOL    HW137832   3.224   8.947   2.258  0.7459  1.2439 -0.3173
 9121SOL    HW237833   3.219   8.837   2.137  1.5875  1.0743 -0.2002
 9122SOL     OW37834   8.147   1.422   3.170 -0.4861 -0.2990  0.1685
 9122SOL    HW137835   8.130   1.492   3.100 -0.4966 -1.6212 -1.1674
 9122SOL    HW237836   8.229   1.446   3.222 -0.6608  0.8584 -0.0786
 9123SOL     OW37837   2.448   1.970   0.782 -0.5434  0.0763  0.6657
 9123SOL    HW137838   2.462   1.887   0.835  0.8528  0.2774  0.6237
 9123SOL    HW237839   2.438   2.048   0.843 -2.5296 -0.1940  0.7301
 9124SOL     OW37840   7.319   8.918   1.057 -0.0482 -0.0656 -0.0100
 9124SOL    HW137841   7.276   9.000   1.093 -0.9944 -1.3360  1.8390
 9124SOL    HW237842   7.408   8.904   1.102 -0.3669 -0.6107  0.4631
 9125SOL     OW37843   2.193   6.958   1.248 -0.1158 -0.4104  0.3838
 9125SOL    HW137844   2.258   6.949   1.172 -0.7210 -0.8345 -0.0983
 9125SOL    HW237845   2.118   6.893   1.234 -0.5724 -0.0150  1.0022
 9126SOL     OW37846   8.513   6.636   2.571 -0.6554 -0.3476  0.2836
 9126SOL    HW137847   8.429   6.691   2.575  1.2297  2.8039 -1.2502
 9126SOL    HW237848   8.582   6.677   2.631  1.7671  0.8040 -3.1490
 9127SOL     OW37849   8.341   3.147   2.470  0.1648  0.3678  0.3644
 9127SOL    HW137850   8.328   3.057   2.512 -2.3678  0.8488  0.7145
 9127SOL    HW237851   8.360   3.214   2.541 -2.6607  0.9178  0.6655
 9128SOL     OW37852   3.592   0.916   0.042 -0.3030 -0.5094  0.0421
 9128SOL    HW137853   3.515   0.853   0.026 -0.3020  0.0479 -2.3663
 9128SOL    HW237854   3.617   0.960  -0.044  0.2412  2.1884  1.5376
 9129SOL     OW37855   6.174   8.267   2.699  0.0817  0.5412  0.0442
 9129SOL    HW137856   6.266   8.302   2.678  2.1673 -3.0541  2.4923
 9129SOL    HW237857   6.155   8.281   2.796 -0.0731 -2.5612  0.5189
 9130SOL     OW37858   0.401   6.840   0.805 -0.1025  0.5899 -0.6670
 9130SOL    HW137859   0.397   6.884   0.895  0.2216 -2.7979  1.0943
 9130SOL    HW237860   0.497   6.828   0.778 -0.1747  0.1425 -0.7222
 9131SOL     OW37861   3.192   5.295   3.897  0.3016  0.8042 -0.2975
 9131SOL    HW137862   3.151   5.211   3.862  0.8000  0.1947  0.5849
 9131SOL    HW237863   3.171   5.306   3.994  4.1584 -0.7407  0.8060
 9132SOL     OW37864   2.029   4.235   3.277  0.0170  0.6916 -0.2309
 9132SOL    HW137865   1.951   4.196   3.325  0.6593 -0.5341 -0.1539
 9132SOL    HW237866   2.034   4.333   3.294 -1.7670  0.8595 -0.6123
 9133SOL     OW37867   0.903   3.196   1.520 -0.2206 -0.1411  0.3331
 9133SOL    HW137868   0.839   3.242   1.459  1.2264  0.6701 -0.6050
 9133SOL    HW237869   0.871   3.103   1.537 -0.3324 -0.6094 -2.2144
 9134SOL     OW37870   7.275   0.099   3.658 -0.2251  0.1121  0.4677
 9134SOL    HW137871   7.263   0.198   3.670 -1.2716  0.3603 -2.2128
 9134SOL    HW237872   7.372   0.076   3.658  0.0882  1.3976 -0.5812
 9135SOL     OW37873   2.680   3.015   1.580  0.1631  0.1737  0.3037
 9135SOL    HW137874   2.588   2.989   1.609  0.9182 -1.0537  1.7175
 9135SOL    HW237875   2.747   2.956   1.626  1.6119  0.4452 -1.3926
 9136SOL     OW37876   3.876   1.174   1.703 -0.7560 -0.1139  0.2872
 9136SOL    HW137877   3.805   1.239   1.730 -0.8256  0.8029 -2.0198
 9136SOL    HW237878   3.841   1.081   1.713 -2.2184  0.3238 -0.5959
 9137SOL     OW37879   7.796   0.650   2.319 -1.5702  0.0183  0.3675
 9137SOL    HW137880   7.871   0.598   2.278 -2.2612 -0.7683  0.0851
 9137SOL    HW237881   7.771   0.610   2.407 -0.8212  1.0421  1.0514
 9138SOL     OW37882   2.913   0.206   2.515  0.4886 -0.4085  0.0889
 9138SOL    HW137883   2.864   0.281   2.559 -1.2871 -0.8375 -1.0967
 9138SOL    HW237884   2.984   0.244   2.454 -1.0267  0.3634 -1.2280
 9139SOL     OW37885   7.390   9.130   0.156 -0.1051 -0.3162  0.3194
 9139SOL    HW137886   7.310   9.070   0.143 -0.0096 -0.1640 -1.0277
 9139SOL    HW237887   7.360   9.225   0.157  0.0890 -0.2387 -0.5556
 9140SOL     OW37888   1.668   5.092   2.912  0.5114  0.7076 -0.3930
 9140SOL    HW137889   1.674   5.023   2.839  1.2714  0.7211 -0.3497
 9140SOL    HW237890   1.742   5.158   2.901 -0.2933  1.6000 -0.5134
 9141SOL     OW37891   3.496   3.600   2.208  0.5738 -0.7087  0.2722
 9141SOL    HW137892   3.470   3.513   2.249 -1.4757 -0.4633 -0.4282
 9141SOL    HW237893   3.502   3.589   2.108 -1.2558  0.2970  0.0295
 9142SOL     OW37894   0.656   4.885   1.430 -0.4191  0.3411  0.2979
 9142SOL    HW137895   0.637   4.844   1.341 -2.9538  0.8392  0.5616
 9142SOL    HW237896   0.680   4.981   1.418  0.2466  0.1518  0.0851
 9143SOL     OW37897   3.582   7.171   2.231 -0.3422  0.0703 -0.2268
 9143SOL    HW137898   3.674   7.138   2.212 -1.0310 -0.7891 -2.2927
 9143SOL    HW237899   3.575   7.268   2.206 -0.3409 -0.2069 -1.3193
 9144SOL     OW37900   2.110   5.537   2.728  0.0451  0.0451 -0.2867
 9144SOL    HW137901   2.079   5.475   2.657  0.2153 -1.0670  0.5995
 9144SOL    HW237902   2.034   5.557   2.791  0.1139  0.3691 -0.3025
 9145SOL     OW37903   9.302   6.837   3.745  0.1716  0.1018 -0.4269
 9145SOL    HW137904   9.335   6.928   3.719 -0.7292  1.1251  1.8493
 9145SOL    HW237905   9.208   6.825   3.711 -0.3595  0.7476  0.7672
 9146SOL     OW37906   8.917   4.896   1.078  0.3876  0.1664  0.2922
 9146SOL    HW137907   8.847   4.833   1.044  2.2082 -1.3909 -0.6841
 9146SOL    HW237908   8.952   4.951   1.002  0.2935  0.8796  0.7614
 9147SOL     OW37909   9.399   8.010   2.907 -0.0548  0.1497 -0.6804
 9147SOL    HW137910   9.313   7.968   2.879 -0.9323  0.5528  1.3930
 9147SOL    HW237911   9.428   7.973   2.995  2.0425 -0.1731 -1.4580
 9148SOL     OW37912   0.104   4.736   3.734  0.2237 -0.2725  0.3381
 9148SOL    HW137913   0.204   4.738   3.723  0.4339 -2.4988  1.5240
 9148SOL    HW237914   0.067   4.657   3.686 -0.9657  0.4503  0.0433
 9149SOL     OW37915   6.823   7.798   3.109 -0.2424  0.0139  0.4492
 9149SOL    HW137916   6.807   7.739   3.029  1.2126  0.8733 -0.5013
 9149SOL    HW237917   6.816   7.894   3.082  1.0432  0.3274  1.1568
 9150SOL     OW37918   9.696   0.288   0.787  0.0572  0.0181 -0.1363
 9150SOL    HW137919   9.726   0.198   0.756  0.1359  0.6332 -1.9426
 9150SOL    HW237920   9.754   0.319   0.863  1.0763 -0.7476 -0.5925
 9151SOL     OW37921   9.152   2.042   3.136  0.1446  0.1517 -0.4274
 9151SOL    HW137922   9.089   2.064   3.062  0.8270 -0.7005 -1.2822
 9151SOL    HW237923   9.171   2.124   3.190 -2.3907  0.2194  0.4087
 9152SOL     OW37924   4.615   8.171   3.667  0.4155 -0.3456 -0.4557
 9152SOL    HW137925   4.551   8.248   3.674 -0.9531 -1.5398  0.4704
 9152SOL    HW237926   4.662   8.175   3.579 -0.3410  0.9988 -0.8228
 9153SOL     OW37927   2.341   7.396   0.051  0.3581  0.6361  0.4567
 9153SOL    HW137928   2.353   7.493   0.030  0.2029  0.5394 -0.0979
 9153SOL    HW237929   2.424   7.346   0.026  0.5533  0.6687  1.0289
 9154SOL     OW37930   3.362   9.974   0.287  0.2666  0.2395  0.1026
 9154SOL    HW137931   3.414  10.001   0.368  1.4064  0.9322 -0.8410
 9154SOL    HW237932   3.393   9.884   0.256  0.6767  0.5105 -0.2731
 9155SOL     OW37933   0.644   2.921   3.495  0.4446 -0.5595 -0.4648
 9155SOL    HW137934   0.695   2.848   3.449  1.8391 -0.1682  0.4149
 9155SOL    HW237935   0.706   2.972   3.555 -1.2307 -0.8481  1.5836
 9156SOL     OW37936   2.250   9.097   3.336 -0.4996 -0.4271 -0.6216
 9156SOL    HW137937   2.192   9.025   3.299 -0.3308 -1.6085  1.2927
 9156SOL    HW237938   2.199   9.149   3.405  0.8680 -1.9684  1.6392
 9157SOL     OW37939   3.041   5.846   1.738 -0.7177 -0.4266 -0.0738
 9157SOL    HW137940   2.962   5.785   1.741 -0.2976 -0.9429  2.7748
 9157SOL    HW237941   3.118   5.800   1.693 -0.3072 -2.2185  2.3226
 9158SOL     OW37942   0.053   5.584   3.297 -0.4407  0.0962  0.0285
 9158SOL    HW137943  -0.002   5.543   3.225  0.6917 -0.3161 -0.6224
 9158SOL    HW237944   0.142   5.611   3.260 -0.5897  1.7275  0.8046
 9159SOL     OW37945   0.298   7.434   0.571 -0.0407 -0.2305 -1.0903
 9159SOL    HW137946   0.378   7.462   0.624 -2.1155  0.5614  1.7523
 9159SOL    HW237947   0.260   7.350   0.611 -0.5961 -0.6502 -2.4693
 9160SOL     OW37948   0.917   6.821   1.848  0.2421 -0.4806  0.0007
 9160SOL    HW137949   0.841   6.877   1.883 -0.5541 -1.9602  0.6618
 9160SOL    HW237950   0.947   6.757   1.918  1.5067 -0.5386 -0.5821
 9161SOL     OW37951   8.025   1.110   0.411 -0.1429  0.1288 -0.3675
 9161SOL    HW137952   8.025   1.020   0.454  0.4938 -0.6026 -1.8782
 9161SOL    HW237953   8.019   1.180   0.482 -0.1432 -1.0828  0.8546
 9162SOL     OW37954   9.362   1.596   3.502  0.0851  0.1268  0.3691
 9162SOL    HW137955   9.369   1.500   3.528  2.0570  0.4249  1.0440
 9162SOL    HW237956   9.290   1.640   3.556 -0.5915 -0.8637  0.2981
 9163SOL     OW37957   1.664   1.457   2.839  0.1616 -0.3202 -0.3879
 9163SOL    HW137958   1.626   1.520   2.771 -0.2313  0.3680  0.4479
 9163SOL    HW237959   1.724   1.391   2.794 -0.7100 -0.3739 -1.5045
 9164SOL     OW37960   4.750   8.461   3.442 -0.0881  0.0979 -1.0287
 9164SOL    HW137961   4.651   8.448   3.432 -0.3579  1.0907  0.1307
 9164SOL    HW237962   4.774   8.555   3.421  0.7253 -0.3276 -2.0254
 9165SOL     OW37963   3.925   9.567   3.801 -0.2656 -0.1769  0.8181
 9165SOL    HW137964   3.926   9.667   3.811 -1.4777  0.0558 -1.0887
 9165SOL    HW237965   3.832   9.537   3.778  0.3397 -1.6180  0.2055
 9166SOL     OW37966   1.599   9.482   1.993  0.0176  0.1023 -0.1539
 9166SOL    HW137967   1.628   9.460   2.086 -0.8902  2.5263  0.7376
 9166SOL    HW237968   1.672   9.531   1.946 -0.0775  0.1591 -0.2423
 9167SOL     OW37969   4.445   4.102   0.457 -0.1704 -0.2428 -0.5157
 9167SOL    HW137970   4.487   4.077   0.370 -1.4346 -1.9707 -0.6498
 9167SOL    HW237971   4.494   4.056   0.532  1.6783  2.1863 -0.1708
 9168SOL     OW37972   5.853   9.718   3.496  0.0042  0.0368 -0.3143
 9168SOL    HW137973   5.917   9.727   3.419  1.4984  0.0711  0.9036
 9168SOL    HW237974   5.884   9.643   3.555 -0.1322  1.1525  1.1953
 9169SOL     OW37975   1.712   7.803   3.279  0.1923  0.3219  0.4425
 9169SOL    HW137976   1.669   7.780   3.192  0.6369  2.1449 -0.2696
 9169SOL    HW237977   1.657   7.870   3.327  1.1406  1.0617  0.5036
 9170SOL     OW37978   2.052   4.887   2.724 -0.2847  0.6119  0.6458
 9170SOL    HW137979   2.073   4.823   2.650 -3.9607  0.4244 -0.3251
 9170SOL    HW237980   2.071   4.845   2.812 -0.5624 -1.0051 -0.0546
 9171SOL     OW37981   9.889   9.485   1.878  0.3247 -0.2271  0.3830
 9171SOL    HW137982   9.848   9.394   1.879 -0.7498  0.2487  1.2689
 9171SOL    HW237983   9.843   9.543   1.810  1.4034 -0.5139 -0.6039
 9172SOL     OW37984   1.133   5.676   2.523  0.4148 -0.3632  0.2020
 9172SOL    HW137985   1.184   5.730   2.456  1.0212  2.2840  2.6805
 9172SOL    HW237986   1.035   5.682   2.504  0.6823 -1.1666 -1.4970
 9173SOL     OW37987   4.379   2.248   1.317  0.2348  0.1702  0.2118
 9173SOL    HW137988   4.356   2.316   1.247  0.4838  0.8583  0.7837
 9173SOL    HW237989   4.475   2.221   1.308  0.7498  1.5337  1.3205
 9174SOL     OW37990   8.011   6.112   2.332  0.7482  0.1379  0.3138
 9174SOL    HW137991   8.081   6.060   2.380 -0.1081  1.0301  2.5898
 9174SOL    HW237992   8.018   6.209   2.357  1.4443  0.9524 -2.7970
 9175SOL     OW37993   7.321   9.329   3.171 -0.1544 -0.7444 -0.1416
 9175SOL    HW137994   7.302   9.402   3.105  3.2045  0.6667  0.3606
 9175SOL    HW237995   7.346   9.369   3.259 -1.1846 -2.5886  1.0273
 9176SOL     OW37996   0.856   0.823   2.154 -0.3037  0.0883  0.5276
 9176SOL    HW137997   0.763   0.857   2.172 -0.3698 -0.3495  1.0146
 9176SOL    HW237998   0.917   0.900   2.139 -0.9650  0.3572 -0.8785
 9177SOL     OW37999   9.637   9.186   3.168 -0.0222  0.5823 -0.5843
 9177SOL    HW138000   9.558   9.247   3.155 -0.6457 -0.3694 -1.3209
 9177SOL    HW238001   9.606   9.095   3.194  1.0027  1.0220  2.3051
 9178SOL     OW38002   1.624   9.431   1.038 -0.0270  0.3594 -0.4577
 9178SOL    HW138003   1.635   9.370   1.116  2.1148  0.5714 -0.5744
 9178SOL    HW238004   1.668   9.519   1.057 -0.9863  1.0270 -1.2350
 9179SOL     OW38005   8.712   1.415   3.505 -0.0494  0.4556 -0.2253
 9179SOL    HW138006   8.696   1.398   3.408 -1.6163  1.3429 -0.1536
 9179SOL    HW238007   8.623   1.420   3.552  0.7012 -0.1578  1.2806
 9180SOL     OW38008   3.034   6.554   2.177  0.6097 -0.0669  0.3879
 9180SOL    HW138009   3.080   6.577   2.091 -0.7847 -0.1297 -0.3790
 9180SOL    HW238010   2.995   6.637   2.217 -1.2309 -0.4848 -0.5092
 9181SOL     OW38011   9.287   7.528   0.379 -0.2477  0.6084  0.5137
 9181SOL    HW138012   9.336   7.447   0.411 -0.4303  0.8057  1.2984
 9181SOL    HW238013   9.328   7.560   0.294  0.4716  0.2932  0.7390
 9182SOL     OW38014   2.801   2.104   2.489  0.0662 -0.0144  0.0759
 9182SOL    HW138015   2.849   2.178   2.441 -1.0028 -0.2190 -1.3265
 9182SOL    HW238016   2.734   2.143   2.552  0.7271  0.2403  0.6216
 9183SOL     OW38017   3.212   6.999   0.602  0.3945 -0.4602  0.2475
 9183SOL    HW138018   3.273   7.018   0.680  0.9676  3.0031 -0.9564
 9183SOL    HW238019   3.121   7.035   0.622  0.8735  1.5929 -1.1331
 9184SOL     OW38020   8.191   4.796   0.416  0.0813 -0.7925  0.5407
 9184SOL    HW138021   8.239   4.849   0.486  1.2348 -1.0570 -0.0254
 9184SOL    HW238022   8.093   4.815   0.420  0.3066  0.2322  1.3218
 9185SOL     OW38023   9.014   7.079   0.481 -0.2332 -0.4566 -0.7454
 9185SOL    HW138024   8.986   7.072   0.385  1.5183  0.8554 -1.3736
 9185SOL    HW238025   9.070   7.160   0.494 -3.7062  1.6365  2.2256
 9186SOL     OW38026   3.032   0.083   2.759 -0.2093  0.2950 -0.3258
 9186SOL    HW138027   2.971   0.041   2.826 -1.7236  0.6122 -1.4794
 9186SOL    HW238028   2.981   0.104   2.676  0.9862  2.4995 -0.5435
 9187SOL     OW38029   3.003   5.026   2.270  0.2421  0.3559  0.3438
 9187SOL    HW138030   2.983   5.009   2.173  0.5154 -0.7254  0.4783
 9187SOL    HW238031   3.002   4.940   2.321  0.5820  0.8590  1.2159
 9188SOL     OW38032   0.820   6.061   0.824 -0.5288  0.0506 -0.1898
 9188SOL    HW138033   0.850   5.966   0.813  2.5882  1.0440 -0.7457
 9188SOL    HW238034   0.892   6.114   0.867 -1.2136  2.7329 -2.2015
 9189SOL     OW38035   7.274   9.529   3.631  0.0992 -0.5393  0.3805
 9189SOL    HW138036   7.326   9.581   3.699  1.3425  0.5302 -1.3632
 9189SOL    HW238037   7.184   9.571   3.620 -0.2398 -0.9102  1.5648
 9190SOL     OW38038   9.843   3.420   3.426  0.6236  0.1274  0.0351
 9190SOL    HW138039   9.779   3.369   3.483  0.3777 -0.1321 -0.4754
 9190SOL    HW238040   9.919   3.453   3.482  0.5216 -0.3600  0.4603
 9191SOL     OW38041   3.285   0.755   3.517 -0.0275 -0.0174 -0.1021
 9191SOL    HW138042   3.220   0.817   3.474 -0.1744 -1.1582 -1.5422
 9191SOL    HW238043   3.237   0.676   3.555  0.4527 -0.5963 -0.6882
 9192SOL     OW38044   3.692   9.222   0.930  0.1741  0.5927  0.3378
 9192SOL    HW138045   3.715   9.133   0.969  0.9027  0.5408 -0.2039
 9192SOL    HW238046   3.593   9.227   0.916  0.3735 -1.0972 -1.9523
 9193SOL     OW38047   9.894   7.987   0.378 -0.3851  0.1496 -0.1745
 9193SOL    HW138048   9.941   8.019   0.295 -0.8682 -0.0709 -0.5316
 9193SOL    HW238049   9.798   8.013   0.374 -0.8632 -1.6232 -0.6319
 9194SOL     OW38050   1.925   2.358   1.891  0.6851 -0.1685 -0.3897
 9194SOL    HW138051   1.871   2.273   1.895 -0.7848  0.7800  0.2094
 9194SOL    HW238052   1.994   2.356   1.963  1.6436 -1.5040 -1.3191
 9195SOL     OW38053   8.605   9.015   0.587 -0.4082  0.1128 -0.3613
 9195SOL    HW138054   8.608   8.974   0.496  0.3961  0.4015 -0.4676
 9195SOL    HW238055   8.698   9.025   0.622 -0.5155  2.6734 -0.7118
 9196SOL     OW38056   7.813   2.030   1.061  0.1693 -0.2392 -0.1935
 9196SOL    HW138057   7.829   2.047   1.158 -0.0439 -1.0513 -0.0128
 9196SOL    HW238058   7.759   2.105   1.022  0.5884  0.2736  0.2246
 9197SOL     OW38059   4.608   7.941   1.761 -0.1696 -0.5280  0.2837
 9197SOL    HW138060   4.549   7.862   1.774  0.2194 -0.8421  0.1407
 9197SOL    HW238061   4.585   7.985   1.674  0.2270 -1.0165 -0.0704
 9198SOL     OW38062   4.426   2.746   1.222 -0.1057 -0.1200  0.2949
 9198SOL    HW138063   4.336   2.758   1.265 -1.3785 -3.1345 -1.3265
 9198SOL    HW238064   4.498   2.763   1.289 -1.8795  1.9589  1.7349
 9199SOL     OW38065   3.448   9.715   0.251  0.6336 -0.0566 -0.4015
 9199SOL    HW138066   3.443   9.675   0.342 -0.0770 -1.2086 -0.9444
 9199SOL    HW238067   3.544   9.729   0.226  0.8249  0.4378  0.5830
 9200SOL     OW38068   0.834   3.276   3.351  0.2519 -0.6283  0.1049
 9200SOL    HW138069   0.788   3.196   3.310 -0.0186  0.3026 -1.4579
 9200SOL    HW238070   0.922   3.289   3.306 -0.1260  0.5136 -0.3238
 9201SOL     OW38071   7.895   5.783   0.858  0.3214 -0.4658  0.0472
 9201SOL    HW138072   7.800   5.784   0.890  0.0816  0.0620 -0.6810
 9201SOL    HW238073   7.897   5.784   0.758  1.0466 -3.9409 -0.0154
 9202SOL     OW38074   2.968   7.077   0.672 -0.3576 -0.6799 -0.3886
 9202SOL    HW138075   2.932   7.079   0.766  0.1679  1.3567 -0.1903
 9202SOL    HW238076   2.911   7.135   0.614 -0.1260 -1.1796 -1.1207
 9203SOL     OW38077   9.823   3.243   0.699  0.2490 -0.1960 -0.0153
 9203SOL    HW138078   9.748   3.309   0.697 -0.0430 -0.5531 -0.9029
 9203SOL    HW238079   9.821   3.194   0.786  0.4032  0.8786  0.6054
 9204SOL     OW38080   2.667   2.004   3.451 -0.0293 -0.2966 -0.3395
 9204SOL    HW138081   2.735   1.947   3.498 -0.3220 -0.5400 -0.2101
 9204SOL    HW238082   2.586   2.014   3.509 -0.1690 -0.1358 -0.5597
 9205SOL     OW38083   3.131   0.490   1.380  0.1424  0.1265  0.2637
 9205SOL    HW138084   3.124   0.559   1.307 -1.5971 -0.9526 -0.6124
 9205SOL    HW238085   3.060   0.507   1.448 -0.5463 -1.0212 -0.1595
 9206SOL     OW38086   7.025   9.201   0.748 -0.3171  0.1778 -0.2044
 9206SOL    HW138087   7.087   9.126   0.722 -1.8952 -0.6510 -1.6890
 9206SOL    HW238088   7.060   9.287   0.710 -0.6437 -0.4527 -1.9865
 9207SOL     OW38089   0.817   5.429   0.837 -0.2055 -0.4038 -0.0882
 9207SOL    HW138090   0.837   5.409   0.741 -2.6011  0.1019 -0.7263
 9207SOL    HW238091   0.728   5.473   0.844 -0.0879 -0.4851  2.3956
 9208SOL     OW38092   4.543   9.801   0.024 -0.3091  0.6571  0.0295
 9208SOL    HW138093   4.523   9.826  -0.071  1.4464  1.5391 -0.1209
 9208SOL    HW238094   4.642   9.794   0.037 -0.5574 -0.1842  1.6161
 9209SOL     OW38095   1.161   2.745   3.781  0.3530  0.0011  0.7843
 9209SOL    HW138096   1.220   2.816   3.742 -1.5505  1.0104 -0.3108
 9209SOL    HW238097   1.176   2.739   3.879  2.3671  0.1460  0.4976
 9210SOL     OW38098   8.071   0.584   0.519 -0.1804 -0.1426 -0.1626
 9210SOL    HW138099   8.015   0.540   0.449 -1.0684  1.9303 -0.7914
 9210SOL    HW238100   8.077   0.525   0.600 -0.5230 -1.8168 -1.3342
 9211SOL     OW38101   8.925   8.270   0.059 -0.6377 -0.0214 -0.5032
 9211SOL    HW138102   8.871   8.200   0.013  0.4654 -1.3811  0.2235
 9211SOL    HW238103   8.984   8.317  -0.007 -1.5917  0.4218 -1.0386
 9212SOL     OW38104   1.908   9.212   0.815 -0.0095 -0.0851  0.1258
 9212SOL    HW138105   1.827   9.269   0.812 -0.4814 -0.6844  1.1719
 9212SOL    HW238106   1.897   9.141   0.885  0.8939 -0.9494 -0.5785
 9213SOL     OW38107   8.300   4.602   3.823 -0.0120 -0.1819  0.0204
 9213SOL    HW138108   8.379   4.545   3.797 -0.0856  0.4730 -1.6931
 9213SOL    HW238109   8.318   4.696   3.797 -1.0397  0.1121  0.3769
 9214SOL     OW38110   2.000   9.676   3.038 -0.3120  0.0555  0.2263
 9214SOL    HW138111   1.953   9.588   3.046 -3.4727  1.6013 -0.3348
 9214SOL    HW238112   1.956   9.730   2.966  2.1806  1.7469 -0.0808
 9215SOL     OW38113   4.661   9.566   0.615  0.0397 -0.5595 -0.0929
 9215SOL    HW138114   4.609   9.649   0.632 -0.6024 -1.0640  0.4317
 9215SOL    HW238115   4.753   9.590   0.582 -0.6128  0.3216 -1.2757
 9216SOL     OW38116   1.893   0.502   3.892 -0.5699  0.2429  0.0291
 9216SOL    HW138117   1.874   0.518   3.795  2.0321 -1.2176 -0.7769
 9216SOL    HW238118   1.958   0.571   3.925 -1.0850  0.4517  0.6211
 9217SOL     OW38119   8.284   8.071   0.139 -0.0731  0.2775  0.1895
 9217SOL    HW138120   8.184   8.068   0.131 -0.2664  0.5742  2.4042
 9217SOL    HW238121   8.312   8.160   0.173  0.8717 -0.2498  0.7946
 9218SOL     OW38122   9.049   1.906   1.392  0.2856 -0.1333  0.1253
 9218SOL    HW138123   9.017   1.849   1.317 -0.2418  0.3068  0.0093
 9218SOL    HW238124   9.017   1.868   1.479  2.0726 -1.4100  0.2248
 9219SOL     OW38125   8.949   1.744   1.160 -1.0311  0.0180 -0.5029
 9219SOL    HW138126   8.935   1.813   1.089 -1.4686  0.4664  0.0086
 9219SOL    HW238127   8.861   1.706   1.187 -0.8987  0.0705  0.0139
 9220SOL     OW38128   9.979   4.367   2.530  0.0269 -0.1955 -0.2436
 9220SOL    HW138129   9.986   4.458   2.570  3.2601  0.2622 -1.7358
 9220SOL    HW238130  10.047   4.306   2.571 -0.5854 -1.3137 -0.8498
 9221SOL     OW38131   8.623   5.886   1.923 -0.4910 -0.1894  0.1993
 9221SOL    HW138132   8.661   5.826   1.993  1.0260 -0.7930 -1.1084
 9221SOL    HW238133   8.695   5.911   1.858 -1.7213  0.8808 -0.7783
 9222SOL     OW38134   4.354   0.096   1.402 -0.6613 -0.7955  0.0063
 9222SOL    HW138135   4.280   0.135   1.457 -2.1411 -1.8681 -1.1729
 9222SOL    HW238136   4.442   0.125   1.439 -1.6725  1.4288  0.7625
 9223SOL     OW38137   9.842   8.992   2.556  0.2786  0.1160 -0.0359
 9223SOL    HW138138   9.903   8.971   2.480 -1.4435 -0.5809 -1.2484
 9223SOL    HW238139   9.780   9.066   2.530  0.2309  0.4477  0.9879
 9224SOL     OW38140   3.335   9.550   0.852  0.0095  0.1188 -0.2167
 9224SOL    HW138141   3.373   9.641   0.869 -1.1567  0.4747  0.5330
 9224SOL    HW238142   3.312   9.542   0.755 -1.8001  1.3746  0.0843
 9225SOL     OW38143   0.850   7.964   2.009  0.2458  0.4424  0.2375
 9225SOL    HW138144   0.800   7.960   2.095 -0.8808 -2.0198 -0.4959
 9225SOL    HW238145   0.944   7.933   2.023 -0.1468 -0.6705  0.4467
 9226SOL     OW38146   3.602   2.960   1.822 -0.0433 -0.4045 -0.2553
 9226SOL    HW138147   3.522   2.975   1.765 -0.1832 -1.1383 -0.2645
 9226SOL    HW238148   3.681   2.939   1.764  0.2761  0.8007 -0.2711
 9227SOL     OW38149   1.226   1.093   2.310  0.1246  0.0562 -0.2018
 9227SOL    HW138150   1.258   1.116   2.402  0.9455 -2.8682  0.3046
 9227SOL    HW238151   1.288   1.133   2.243  0.3796  0.9560  0.5488
 9228SOL     OW38152   8.889   7.436   3.448  0.7587 -0.4559 -0.1749
 9228SOL    HW138153   8.988   7.442   3.435  1.0258 -0.1243  1.8101
 9228SOL    HW238154   8.869   7.430   3.546 -1.2454  0.7097 -0.4919
 9229SOL     OW38155   4.570   1.756   1.752 -0.3448  0.0592  0.5249
 9229SOL    HW138156   4.612   1.705   1.827  1.5406  1.1854  0.2700
 9229SOL    HW238157   4.642   1.796   1.695 -1.7632  0.2058 -1.2102
 9230SOL     OW38158   0.650   7.204   1.536 -0.4370  0.2728 -0.0960
 9230SOL    HW138159   0.642   7.299   1.565  1.4406 -0.1200  1.7604
 9230SOL    HW238160   0.683   7.148   1.611  1.1292 -1.3993 -1.9657
 9231SOL     OW38161   9.170   1.698   3.659  0.0153  0.0791  0.1085
 9231SOL    HW138162   9.080   1.736   3.637  0.1227  0.9057  1.0614
 9231SOL    HW238163   9.158   1.617   3.717 -0.0881  0.8814  1.2309
 9232SOL     OW38164   9.667   1.924   3.318  0.1247 -0.7385  0.6408
 9232SOL    HW138165   9.759   1.921   3.279 -0.2880 -1.7812 -0.2747
 9232SOL    HW238166   9.635   1.831   3.333 -0.8351 -0.3732  0.8583
 9233SOL     OW38167   0.547   6.689   1.119 -0.1506  0.9165  0.4949
 9233SOL    HW138168   0.485   6.628   1.168 -0.5801  0.9974  0.0477
 9233SOL    HW238169   0.639   6.650   1.120 -0.0069  1.2575  1.9736
 9234SOL     OW38170   2.666   8.427   1.362  0.3574 -0.2094  0.3315
 9234SOL    HW138171   2.729   8.452   1.436 -0.7079 -0.3541  1.2989
 9234SOL    HW238172   2.590   8.492   1.360  0.3037 -0.2884 -0.5662
 9235SOL     OW38173   4.795   1.818   1.651  0.0289 -0.0608 -0.1408
 9235SOL    HW138174   4.794   1.768   1.564  0.6180  0.0833 -0.2324
 9235SOL    HW238175   4.862   1.892   1.646 -2.9009  2.6465 -1.0723
 9236SOL     OW38176   0.686   2.997   2.332  0.2752  0.3911 -0.2102
 9236SOL    HW138177   0.766   2.969   2.386  0.2191 -2.8645 -1.7033
 9236SOL    HW238178   0.606   3.002   2.392  0.7139 -0.7082  0.4976
 9237SOL     OW38179   8.165   8.360   0.702 -0.0866  0.3098 -0.2163
 9237SOL    HW138180   8.194   8.445   0.657 -0.4550  0.7677  0.4163
 9237SOL    HW238181   8.114   8.304   0.637 -0.3702  0.8437 -0.4556
 9238SOL     OW38182   3.363   8.529   0.098  0.3524  0.0500 -0.1017
 9238SOL    HW138183   3.456   8.522   0.135 -0.5410 -0.3042  2.1591
 9238SOL    HW238184   3.322   8.615   0.129  0.4223  0.9093 -2.3161
 9239SOL     OW38185   8.339   2.280   2.366  0.1144 -0.5085 -0.3956
 9239SOL    HW138186   8.399   2.209   2.331  2.5700  1.0432  0.5514
 9239SOL    HW238187   8.324   2.349   2.294  1.0118  0.0653 -0.0383
 9240SOL     OW38188   9.453   2.198   1.333 -0.4297  0.6153  0.0107
 9240SOL    HW138189   9.417   2.251   1.257 -1.7250  0.3767  0.4393
 9240SOL    HW238190   9.530   2.246   1.376 -0.1242  1.0505 -1.0283
 9241SOL     OW38191   4.689   9.665   2.328 -0.4523 -0.4792 -0.4636
 9241SOL    HW138192   4.735   9.733   2.385 -0.3477 -0.6446 -0.3473
 9241SOL    HW238193   4.721   9.573   2.353  0.0296 -0.5171 -1.1975
 9242SOL     OW38194   1.572   0.242   3.438 -0.8024 -0.6900  0.2461
 9242SOL    HW138195   1.601   0.159   3.486  0.4887 -0.9104 -0.8742
 9242SOL    HW238196   1.620   0.248   3.350 -1.1249  1.0696  0.1681
 9243SOL     OW38197   9.664   1.299   1.865  0.9606 -0.2482  0.3386
 9243SOL    HW138198   9.577   1.343   1.886  1.0256 -0.9291  2.0791
 9243SOL    HW238199   9.691   1.322   1.771 -0.1149  1.5675  0.4492
 9244SOL     OW38200   3.260   4.259   1.921 -0.1030 -0.0368  0.0525
 9244SOL    HW138201   3.190   4.187   1.919  1.0709 -1.2129  0.2844
 9244SOL    HW238202   3.349   4.218   1.945  0.6520  1.4395 -0.1806
 9245SOL     OW38203   2.755   1.836   2.450  0.1347  0.2549  0.2825
 9245SOL    HW138204   2.657   1.823   2.466  0.2988  0.4236  1.4441
 9245SOL    HW238205   2.778   1.933   2.460  0.7769 -0.0638  2.0504
 9246SOL     OW38206   2.360   3.880   3.295 -0.1307  0.9158  0.5559
 9246SOL    HW138207   2.295   3.943   3.251 -1.5176 -1.6853 -1.2519
 9246SOL    HW238208   2.310   3.807   3.340  1.5122 -0.9424 -0.5472
 9247SOL     OW38209   8.876   7.208   1.858  0.0894  0.3343 -0.4871
 9247SOL    HW138210   8.882   7.238   1.953 -1.2865  3.4103 -1.3197
 9247SOL    HW238211   8.798   7.146   1.847 -1.6275  2.4171 -0.2044
 9248SOL     OW38212   8.399   5.843   0.211  0.1037  0.6386  0.0312
 9248SOL    HW138213   8.409   5.758   0.161  1.0270 -0.1401  1.4804
 9248SOL    HW238214   8.485   5.895   0.207  0.8143 -0.2766  2.2391
 9249SOL     OW38215   7.999   1.903   2.464  0.5050  0.0891  0.4474
 9249SOL    HW138216   8.021   1.992   2.504  0.6486  0.3646 -0.2317
 9249SOL    HW238217   8.001   1.910   2.364  0.7221 -0.7260  0.3885
 9250SOL     OW38218   8.976   8.077   2.796 -0.0317  0.0003 -0.3903
 9250SOL    HW138219   8.886   8.094   2.835  0.4146  0.7000  0.3741
 9250SOL    HW238220   9.034   8.031   2.865  0.8882  1.6022 -0.0726
 9251SOL     OW38221   1.336   5.291   2.976  0.2867 -0.4945 -0.1395
 9251SOL    HW138222   1.402   5.363   2.958  1.1732 -0.8781  1.4683
 9251SOL    HW238223   1.304   5.252   2.889  2.0547 -0.2003 -0.9406
 9252SOL     OW38224   9.760   5.872   1.620 -0.9835  0.1013  0.2488
 9252SOL    HW138225   9.699   5.800   1.654 -0.4681 -0.4994 -0.0930
 9252SOL    HW238226   9.710   5.959   1.617 -1.6835 -0.2875  0.4321
 9253SOL     OW38227   0.958   3.864   3.605 -0.5229  0.0529 -0.3484
 9253SOL    HW138228   1.041   3.830   3.560 -0.1920 -0.1736  0.4341
 9253SOL    HW238229   0.939   3.810   3.686 -1.3505  0.2143 -0.4322
 9254SOL     OW38230   3.456   8.641   1.698 -0.5519  0.3342  0.2985
 9254SOL    HW138231   3.550   8.654   1.729 -1.1368  1.3543  1.6809
 9254SOL    HW238232   3.438   8.543   1.687  0.1707  0.0407  1.6236
 9255SOL     OW38233   3.179   6.800   3.700 -0.3709 -0.3597 -0.2877
 9255SOL    HW138234   3.153   6.705   3.681  2.0931 -1.6701  2.4211
 9255SOL    HW238235   3.116   6.839   3.768  1.5315 -1.7601  2.3286
 9256SOL     OW38236   8.425   3.748   2.369  0.0818  0.3077 -0.2410
 9256SOL    HW138237   8.463   3.685   2.437 -1.5317  0.4114  0.7842
 9256SOL    HW238238   8.372   3.819   2.415 -1.5982 -0.0151 -1.6295
 9257SOL     OW38239   0.241   2.542   3.265  0.8576  0.8466 -0.1967
 9257SOL    HW138240   0.232   2.588   3.177 -1.1635  0.2017 -0.3557
 9257SOL    HW238241   0.185   2.590   3.334  1.7532  0.8524  0.5380
 9258SOL     OW38242   0.540   4.763   2.830  0.1966  0.2626 -0.3261
 9258SOL    HW138243   0.567   4.860   2.834 -0.9216  0.5650  0.0882
 9258SOL    HW238244   0.622   4.706   2.830  0.8652  1.2059 -0.3779
 9259SOL     OW38245   3.779   3.628   2.254  0.2585 -0.4224  0.3503
 9259SOL    HW138246   3.826   3.708   2.217  0.9574 -0.6968  0.6344
 9259SOL    HW238247   3.684   3.629   2.226  0.4190  0.1816 -0.1703
 9260SOL     OW38248   1.548   7.786   1.541 -0.0017  0.3264  0.0177
 9260SOL    HW138249   1.493   7.852   1.593 -0.6516  0.2567 -0.5775
 9260SOL    HW238250   1.620   7.750   1.600 -0.4508  0.5846  0.7400
 9261SOL     OW38251   3.830   6.301   2.567 -0.3629  0.5877  0.3654
 9261SOL    HW138252   3.830   6.395   2.600 -0.3916  1.2374 -1.4132
 9261SOL    HW238253   3.809   6.300   2.469 -1.2677 -1.3409  0.5527
 9262SOL     OW38254   3.592   7.665   0.139  0.6381 -0.3412 -0.3333
 9262SOL    HW138255   3.592   7.752   0.188  1.8674 -0.6245  0.2010
 9262SOL    HW238256   3.517   7.608   0.173  0.1802  0.2845 -0.2812
 9263SOL     OW38257   0.243   2.953   1.531  0.1448  0.4502  0.0617
 9263SOL    HW138258   0.285   2.876   1.483  0.0219 -1.3010  2.6375
 9263SOL    HW238259   0.308   3.029   1.536  0.0606  0.7774 -3.0086
 9264SOL     OW38260   2.046   0.113   1.975 -0.7343  0.1700 -0.0086
 9264SOL    HW138261   2.143   0.091   1.980 -0.7029  0.8542  2.7764
 9264SOL    HW238262   2.034   0.212   1.978 -1.5838  0.0381  1.0837
 9265SOL     OW38263   2.786   1.686   1.799  0.4734 -0.3017 -0.1637
 9265SOL    HW138264   2.759   1.607   1.852  1.5375 -0.7167 -0.2154
 9265SOL    HW238265   2.718   1.758   1.808 -1.0537 -1.6248 -1.0126
 9266SOL     OW38266   9.187   0.557   2.464 -0.6524 -0.5393 -0.4968
 9266SOL    HW138267   9.179   0.653   2.437  0.9486 -0.1563  0.3133
 9266SOL    HW238268   9.281   0.526   2.450 -1.0470 -1.8510 -0.3030
 9267SOL     OW38269   3.889   2.272   1.289 -0.3804  0.4542  0.0770
 9267SOL    HW138270   3.918   2.182   1.257  0.8962  0.9653 -0.2369
 9267SOL    HW238271   3.795   2.289   1.260 -0.5656 -0.7041 -0.0111
 9268SOL     OW38272   4.483   7.993   3.978  0.7317  0.3569  0.0311
 9268SOL    HW138273   4.398   8.023   3.936 -0.6471 -0.5090  2.1025
 9268SOL    HW238274   4.506   7.901   3.946  0.9919  0.6781 -0.6934
 9269SOL     OW38275   8.996   2.365   0.555  0.5708 -0.2293 -0.1718
 9269SOL    HW138276   9.090   2.384   0.584  0.4082 -0.3961  0.4659
 9269SOL    HW238277   8.932   2.404   0.621  0.1823  0.2668 -0.8371
 9270SOL     OW38278   8.926   9.081   1.494 -0.3695 -0.4530 -0.0272
 9270SOL    HW138279   8.973   9.158   1.453 -0.6909 -0.2380  0.0087
 9270SOL    HW238280   8.829   9.084   1.469 -0.0907 -1.7197 -1.3450
 9271SOL     OW38281   0.663   7.945   1.333 -0.3174  0.6727  0.4096
 9271SOL    HW138282   0.608   7.862   1.334  0.4295  0.1785  1.0098
 9271SOL    HW238283   0.699   7.960   1.241 -0.6296  0.4508  0.2520
 9272SOL     OW38284   2.010   1.332   1.758  0.4041  0.1161 -0.2960
 9272SOL    HW138285   2.072   1.410   1.757 -0.0949  0.5189  0.1581
 9272SOL    HW238286   2.017   1.284   1.670 -0.0373  1.2661 -0.9778
 9273SOL     OW38287   6.638   8.620   3.379 -0.2476  0.3805  0.3576
 9273SOL    HW138288   6.689   8.572   3.307 -1.2931  0.7519 -0.6348
 9273SOL    HW238289   6.542   8.590   3.378 -0.2511  0.3013  1.6816
 9274SOL     OW38290   0.507   1.144   0.333  0.2504  0.0625 -0.0411
 9274SOL    HW138291   0.580   1.211   0.321 -0.7038  1.1147 -0.0734
 9274SOL    HW238292   0.547   1.053   0.348  1.5522  0.5169 -0.6477
 9275SOL     OW38293   2.490   1.540   2.745 -0.6511  0.0414 -0.0016
 9275SOL    HW138294   2.412   1.485   2.717  0.6256 -1.5800 -0.4858
 9275SOL    HW238295   2.570   1.480   2.758  0.7808  1.7738 -0.5795
 9276SOL     OW38296   8.512   9.323   1.358 -0.2111  0.8894 -0.1594
 9276SOL    HW138297   8.526   9.236   1.312 -0.1831  1.4061 -1.1551
 9276SOL    HW238298   8.415   9.339   1.373 -0.3411  1.4782 -1.5651
 9277SOL     OW38299   4.974   9.927   3.321 -0.3785  0.3937  0.0079
 9277SOL    HW138300   5.002   9.833   3.338 -0.0334  0.6174  0.6994
 9277SOL    HW238301   5.022   9.962   3.240  2.0862  1.0608  1.6875
 9278SOL     OW38302   2.766   3.507   3.207 -0.2725 -0.3623  0.1233
 9278SOL    HW138303   2.698   3.462   3.264 -1.7867  0.6364 -0.8314
 9278SOL    HW238304   2.724   3.586   3.162  1.9102  1.0941  0.5875
 9279SOL     OW38305   3.737   3.335   0.379  0.1908  0.6485  0.2052
 9279SOL    HW138306   3.772   3.429   0.380  1.1370  0.3270 -1.4655
 9279SOL    HW238307   3.814   3.272   0.387 -0.3265 -0.0138 -0.0984
 9280SOL     OW38308   8.371   5.446   2.002  0.2674  0.0749 -0.1324
 9280SOL    HW138309   8.308   5.432   1.925  1.0729 -2.4630 -0.3881
 9280SOL    HW238310   8.464   5.456   1.967  0.4792  0.1182  0.4452
 9281SOL     OW38311   0.671   3.071   3.238  0.6981  0.1969 -0.1950
 9281SOL    HW138312   0.587   3.124   3.226  1.5778  1.7095  0.2503
 9281SOL    HW238313   0.663   3.014   3.319  0.1778  0.4858 -0.0381
 9282SOL     OW38314   9.803   3.111   0.961  0.4667  0.1183  0.2773
 9282SOL    HW138315   9.746   3.110   1.043  0.7189 -2.9990  0.4769
 9282SOL    HW238316   9.778   3.034   0.902  1.4795  1.2941 -1.7457
 9283SOL     OW38317   2.503   4.816   0.636  0.0017  0.3423 -0.0165
 9283SOL    HW138318   2.537   4.754   0.707 -0.0444  0.7361  0.3507
 9283SOL    HW238319   2.578   4.838   0.573 -0.5021 -1.7371 -1.3507
 9284SOL     OW38320   8.692   1.579   1.161 -0.4072  0.1074 -0.0238
 9284SOL    HW138321   8.705   1.508   1.091  3.8322  0.7021  0.0095
 9284SOL    HW238322   8.660   1.536   1.246 -0.3830 -1.4005 -0.7525
 9285SOL     OW38323   3.784   1.753   1.932  0.1145 -0.1277 -0.5077
 9285SOL    HW138324   3.851   1.774   1.860  1.1513  1.0474  0.7609
 9285SOL    HW238325   3.705   1.813   1.922  0.5965  0.5673 -0.2377
 9286SOL     OW38326   2.035   2.797   0.294  0.1760 -0.3745  0.0315
 9286SOL    HW138327   2.013   2.743   0.213  0.8797  0.1434 -0.5133
 9286SOL    HW238328   1.973   2.875   0.300 -1.4093 -1.6925  1.2963
 9287SOL     OW38329   9.385   1.802   2.220  0.2429 -0.4589 -0.0904
 9287SOL    HW138330   9.311   1.784   2.155 -1.8953 -0.6393  2.3196
 9287SOL    HW238331   9.374   1.743   2.300  1.6968  1.1390  1.3266
 9288SOL     OW38332   2.451   1.730   0.883 -0.4466  0.1507  0.2198
 9288SOL    HW138333   2.501   1.698   0.963 -0.7218 -0.7646  0.0333
 9288SOL    HW238334   2.413   1.652   0.833  1.3936  0.5476 -1.9015
 9289SOL     OW38335   3.108   0.608   0.899  0.0802  0.1956 -0.4366
 9289SOL    HW138336   3.097   0.632   0.995  1.0000  3.4082 -1.0430
 9289SOL    HW238337   3.196   0.644   0.866 -1.0167  0.7630 -2.9038
 9290SOL     OW38338   1.324   3.583   2.157 -0.0317 -0.5672  0.7224
 9290SOL    HW138339   1.326   3.497   2.207  1.2915 -1.0993 -0.2032
 9290SOL    HW238340   1.245   3.584   2.096  0.6089 -1.6628 -0.1488
 9291SOL     OW38341   2.724   6.831   3.202  0.5057 -0.2457 -0.4932
 9291SOL    HW138342   2.632   6.856   3.233  1.0554  0.2323  0.7695
 9291SOL    HW238343   2.720   6.744   3.152 -0.3980 -0.9786  0.8439
 9292SOL     OW38344   0.199   0.032   3.318 -0.0808  0.1926  0.3790
 9292SOL    HW138345   0.279   0.091   3.328  0.4813 -0.1491 -1.8713
 9292SOL    HW238346   0.227  -0.056   3.281 -1.4351 -0.1179  0.0823
 9293SOL     OW38347   4.422   0.602   1.566  0.0453 -0.2928 -0.4794
 9293SOL    HW138348   4.506   0.656   1.560 -0.6766  0.6624 -2.3889
 9293SOL    HW238349   4.444   0.509   1.597  1.7632  0.0049 -0.7707
 9294SOL     OW38350   1.781   0.263   1.668  0.3609  0.4801  0.4864
 9294SOL    HW138351   1.797   0.353   1.627  0.0450  0.7956  1.0489
 9294SOL    HW238352   1.850   0.199   1.636 -0.5803  0.4124 -1.5151
 9295SOL     OW38353   9.303   3.217   1.386 -0.4709  0.1246 -0.4634
 9295SOL    HW138354   9.324   3.119   1.378 -0.5781  0.0084  0.6852
 9295SOL    HW238355   9.245   3.244   1.309 -0.0541 -0.6059 -1.0488
 9296SOL     OW38356   8.472   5.069   3.946  0.4689  0.1147 -0.0715
 9296SOL    HW138357   8.473   5.161   3.907  2.0955 -0.4390 -1.4179
 9296SOL    HW238358   8.565   5.043   3.973 -0.1844 -0.6324  1.5435
 9297SOL     OW38359   1.060   1.403   0.741  0.1915  0.1215 -0.4932
 9297SOL    HW138360   0.976   1.410   0.686 -0.3255 -1.5852  0.0773
 9297SOL    HW238361   1.037   1.414   0.837  0.5773 -0.7028 -0.3096
 9298SOL     OW38362   4.283   3.355   2.660 -0.1424 -0.1147  0.3959
 9298SOL    HW138363   4.186   3.369   2.681 -0.6847 -2.8094 -0.0801
 9298SOL    HW238364   4.298   3.259   2.639  2.7160  0.2389  0.7083
 9299SOL     OW38365   3.278   4.185   1.630  0.2154 -0.2818 -0.2326
 9299SOL    HW138366   3.270   4.193   1.730  1.2157 -0.3141 -0.1390
 9299SOL    HW238367   3.257   4.091   1.603  0.9693 -0.5432  0.0686
 9300SOL     OW38368   9.658   8.680   0.982 -0.4842  0.1174  0.3305
 9300SOL    HW138369   9.584   8.682   0.915 -0.2529 -0.6907  0.0451
 9300SOL    HW238370   9.706   8.593   0.977  1.2677  1.0819 -0.3174
 9301SOL     OW38371   8.938   6.692   3.866 -0.4620  0.8039 -0.2006
 9301SOL    HW138372   8.961   6.685   3.963  1.5659  2.3825 -0.5385
 9301SOL    HW238373   8.979   6.614   3.817 -0.3869  0.7140  0.0034
 9302SOL     OW38374   2.205   8.709   1.390 -0.6296  0.2656 -0.0629
 9302SOL    HW138375   2.255   8.759   1.461 -0.6839 -0.5907  0.5758
 9302SOL    HW238376   2.195   8.768   1.310  1.2260  0.5357 -0.1262
 9303SOL     OW38377   8.294   8.702   0.898 -0.8254 -0.3147  0.4813
 9303SOL    HW138378   8.218   8.766   0.912 -0.4586  0.3783 -0.5920
 9303SOL    HW238379   8.358   8.741   0.832  0.3421 -1.0086  1.1940
 9304SOL     OW38380   2.883   9.075   1.062 -0.1443 -0.4508 -0.3508
 9304SOL    HW138381   2.927   9.068   1.151 -1.0795 -2.7086 -0.0358
 9304SOL    HW238382   2.796   9.025   1.063 -1.8299  2.3010 -1.5351
 9305SOL     OW38383   2.168   3.969   2.645 -1.0561 -0.0243 -0.1691
 9305SOL    HW138384   2.142   3.903   2.575 -1.0757  0.3008 -0.4663
 9305SOL    HW238385   2.255   3.941   2.687  0.1854  1.0515 -1.9698
 9306SOL     OW38386   5.258   8.368   1.705 -0.2110  0.2764 -0.8346
 9306SOL    HW138387   5.218   8.445   1.655 -1.7384 -0.9252 -1.4852
 9306SOL    HW238388   5.187   8.300   1.725  0.8967 -0.4734  0.6865
 9307SOL     OW38389   0.442   1.510   2.587 -0.0999  0.9884 -0.3059
 9307SOL    HW138390   0.511   1.442   2.612  0.0944  1.0847 -0.5697
 9307SOL    HW238391   0.429   1.508   2.487  0.4994  1.8958 -0.4072
 9308SOL     OW38392   0.122   2.301   2.828  0.1338  0.1597 -0.3954
 9308SOL    HW138393   0.129   2.216   2.879  1.2139  1.1641  1.1827
 9308SOL    HW238394   0.084   2.372   2.887 -0.7359  0.7810 -1.6839
 9309SOL     OW38395   1.156   7.101   2.595  0.2565 -0.5590 -0.0640
 9309SOL    HW138396   1.253   7.104   2.568  0.3655 -0.7902  0.2958
 9309SOL    HW238397   1.112   7.022   2.552 -0.3558  0.8398 -2.1169
 9310SOL     OW38398   3.602   0.189   0.581 -0.4994  0.5949 -0.6035
 9310SOL    HW138399   3.503   0.191   0.598 -0.4457 -1.5620  0.1880
 9310SOL    HW238400   3.641   0.279   0.599 -2.1035  1.1007  0.4813
 9311SOL     OW38401   1.261   4.243   3.334  1.0322 -0.2569  0.1134
 9311SOL    HW138402   1.301   4.153   3.315  1.3497 -0.3676  1.3028
 9311SOL    HW238403   1.180   4.231   3.392  2.2194  0.3954  1.9063
 9312SOL     OW38404   3.561   7.891   1.346  0.1430 -0.2520 -0.3227
 9312SOL    HW138405   3.493   7.938   1.402  0.5097 -0.5153  0.3597
 9312SOL    HW238406   3.585   7.947   1.267 -0.1402  0.2754 -0.0352
 9313SOL     OW38407   2.191   2.774   1.297  0.3492 -0.2934 -0.5722
 9313SOL    HW138408   2.108   2.830   1.295 -0.0375 -0.8790 -1.3894
 9313SOL    HW238409   2.187   2.712   1.376  1.1387  1.3485  0.7790
 9314SOL     OW38410   1.687   6.525   2.677 -0.4102 -0.1587 -0.0499
 9314SOL    HW138411   1.763   6.496   2.735  0.0694  1.3178  0.0860
 9314SOL    HW238412   1.694   6.480   2.588  0.7458  0.1241 -0.1139
 9315SOL     OW38413   9.366   6.733   2.319 -0.1166 -0.0064 -0.2247
 9315SOL    HW138414   9.340   6.687   2.404  0.1371 -2.1229 -1.2564
 9315SOL    HW238415   9.444   6.684   2.278 -0.4897  0.7584 -1.8695
 9316SOL     OW38416   3.802   8.962   1.875  0.1795  0.1524  0.9329
 9316SOL    HW138417   3.740   9.035   1.905  0.1587  0.7408 -0.5511
 9316SOL    HW238418   3.886   9.001   1.840 -0.8180 -0.4104 -2.1889
 9317SOL     OW38419   9.568   3.372   0.755 -0.2862  0.0450  0.0078
 9317SOL    HW138420   9.499   3.365   0.682 -0.5185 -0.1986  0.2473
 9317SOL    HW238421   9.532   3.328   0.838  0.9296 -1.8463 -0.4332
 9318SOL     OW38422   0.769   7.655   2.208  0.3471 -0.6561  0.1899
 9318SOL    HW138423   0.768   7.753   2.228  1.3905 -0.6549  0.2847
 9318SOL    HW238424   0.748   7.640   2.111 -2.9217 -0.5514  0.8418
 9319SOL     OW38425   1.689   3.955   2.911  0.0941  1.0680  0.2308
 9319SOL    HW138426   1.768   3.910   2.870 -0.6964  0.3549 -0.5480
 9319SOL    HW238427   1.606   3.924   2.865 -0.6782  1.4666  1.3271
 9320SOL     OW38428   4.047   3.865   3.025 -0.0516 -0.1216  0.1371
 9320SOL    HW138429   4.061   3.771   3.059 -0.0553 -0.1373  0.0952
 9320SOL    HW238430   4.037   3.927   3.103 -0.3551 -0.2037  0.1635
 9321SOL     OW38431   6.286   8.352   1.867  0.7661  0.6590  0.1190
 9321SOL    HW138432   6.342   8.430   1.840  0.4160  0.7734 -0.2917
 9321SOL    HW238433   6.251   8.366   1.959 -0.1361  1.4666 -0.3381
 9322SOL     OW38434   9.776   4.544   1.055 -0.0551  0.7355  0.1524
 9322SOL    HW138435   9.724   4.630   1.047  0.1598  0.9098  0.5985
 9322SOL    HW238436   9.823   4.526   0.969 -0.8128  0.6043 -0.2444
 9323SOL     OW38437   3.563   3.296   3.524  0.2797 -0.2790  0.1309
 9323SOL    HW138438   3.516   3.259   3.605  0.4195  0.7629  0.6962
 9323SOL    HW238439   3.567   3.226   3.453  0.9378 -1.4982  1.3533
 9324SOL     OW38440   0.409   1.814   1.591  0.5754  0.0512  0.6444
 9324SOL    HW138441   0.455   1.725   1.581  0.2856 -0.1511  1.0750
 9324SOL    HW238442   0.324   1.812   1.538  1.4429  0.7014 -0.7891
 9325SOL     OW38443   0.261   9.030   3.656  0.4323 -0.7579  0.0703
 9325SOL    HW138444   0.326   8.963   3.692  1.1907  0.7942  1.6110
 9325SOL    HW238445   0.245   9.102   3.723 -0.1896  0.7619 -1.6443
 9326SOL     OW38446   2.966   6.671   0.578 -0.7065  0.9142 -0.5333
 9326SOL    HW138447   3.013   6.712   0.656 -0.4910  2.0802 -1.2646
 9326SOL    HW238448   3.013   6.587   0.551 -0.3094  0.9373  0.0889
 9327SOL     OW38449   1.350   3.866   3.744  0.3107  0.3365 -0.0243
 9327SOL    HW138450   1.276   3.931   3.757 -0.0666 -0.4912  2.1781
 9327SOL    HW238451   1.387   3.839   3.833  2.6269  0.0064 -1.0458
 9328SOL     OW38452   4.626   8.889   3.055 -0.0666  0.0720  0.4726
 9328SOL    HW138453   4.720   8.907   3.027  0.3536 -3.5521 -0.5934
 9328SOL    HW238454   4.563   8.933   2.990  0.8468  1.8212  0.7348
 9329SOL     OW38455   3.661   8.065   1.168  0.0683  0.1537  0.3324
 9329SOL    HW138456   3.720   8.073   1.087  1.6958 -0.0043  1.4853
 9329SOL    HW238457   3.597   8.142   1.170  2.0689  1.8430  0.5247
 9330SOL     OW38458   7.069   9.035   3.659 -0.9756 -0.2197  0.0757
 9330SOL    HW138459   6.973   9.009   3.649 -0.5016 -1.9000 -0.3536
 9330SOL    HW238460   7.115   9.028   3.570 -0.7507  1.8659  0.0137
 9331SOL     OW38461   2.693   1.195   0.734  0.5723  0.0346  0.0628
 9331SOL    HW138462   2.684   1.169   0.830 -0.6636 -1.2900 -0.3993
 9331SOL    HW238463   2.632   1.272   0.714  0.5433  0.0547  0.2269
 9332SOL     OW38464   5.322   3.274   0.741  0.3251  0.1369  0.3344
 9332SOL    HW138465   5.298   3.348   0.803  2.2954  0.5995  0.5554
 9332SOL    HW238466   5.282   3.188   0.774 -1.3703  0.9361  0.4475
 9333SOL     OW38467   1.879   0.559   1.828  0.2649  0.1604 -0.2314
 9333SOL    HW138468   1.820   0.637   1.852  1.4227  0.3200  2.2939
 9333SOL    HW238469   1.965   0.594   1.791  1.0800  0.1407  1.5953
 9334SOL     OW38470   2.368   6.059   2.133 -0.2451  0.4491  0.0033
 9334SOL    HW138471   2.402   5.965   2.120 -1.5745  0.1514 -1.3791
 9334SOL    HW238472   2.425   6.105   2.202  0.2575 -1.4500  0.8976
 9335SOL     OW38473   4.828   8.348   3.828  0.5278 -0.0773  0.3164
 9335SOL    HW138474   4.758   8.307   3.770  2.6702 -1.8017 -1.1284
 9335SOL    HW238475   4.844   8.443   3.800 -0.4327 -0.0217 -0.0437
 9336SOL     OW38476   2.845   1.402   2.389 -0.0326 -0.2349  0.5584
 9336SOL    HW138477   2.858   1.403   2.290 -1.6056  1.8143  0.3508
 9336SOL    HW238478   2.853   1.494   2.425 -0.1408 -0.8768  2.2657
 9337SOL     OW38479   2.165   4.524   0.619  0.2896  0.0938 -0.7069
 9337SOL    HW138480   2.231   4.507   0.691  0.0231 -2.8540 -1.0632
 9337SOL    HW238481   2.082   4.565   0.658  1.0259  0.6566  0.2781
 9338SOL     OW38482   0.516   1.548   1.575 -0.4008  0.0638 -0.0830
 9338SOL    HW138483   0.604   1.579   1.538 -1.3634 -0.0442 -2.5649
 9338SOL    HW238484   0.516   1.449   1.581 -0.6763  0.0061 -0.9685
 9339SOL     OW38485   5.513   0.098   3.164  0.8997 -0.4714 -0.0893
 9339SOL    HW138486   5.505   0.197   3.156  0.1989 -0.5368 -0.2822
 9339SOL    HW238487   5.604   0.074   3.196  0.2453  0.3926  2.5383
 9340SOL     OW38488   3.832   5.615   2.148  0.2972  0.5546  0.1653
 9340SOL    HW138489   3.781   5.700   2.142 -0.6160 -0.0321 -0.4885
 9340SOL    HW238490   3.906   5.625   2.215  0.0929  1.7973  0.2129
 9341SOL     OW38491   0.889   0.708   1.457  0.0391  0.8587  0.6351
 9341SOL    HW138492   0.967   0.667   1.409  1.0435  2.5887  0.7259
 9341SOL    HW238493   0.804   0.677   1.415  0.8265  0.1282 -0.4572
 9342SOL     OW38494   3.715   3.853   0.897  1.1791  0.5140 -0.1807
 9342SOL    HW138495   3.727   3.801   0.812 -1.3925 -0.4531 -0.0062
 9342SOL    HW238496   3.706   3.950   0.876 -0.9317  0.1275 -1.1840
 9343SOL     OW38497   9.156   0.844   1.857  0.7459  0.0782 -0.2275
 9343SOL    HW138498   9.123   0.866   1.765  2.0061 -1.7278 -1.1408
 9343SOL    HW238499   9.249   0.879   1.869  0.6409  0.1832  0.2962
 9344SOL     OW38500   4.771   2.526   0.779  0.6111  0.5567  0.1921
 9344SOL    HW138501   4.680   2.521   0.738  0.0122  0.4053  1.5034
 9344SOL    HW238502   4.839   2.487   0.717 -0.2405  0.5576 -0.7351
 9345SOL     OW38503   3.581   7.933   0.239  0.4295 -0.1046 -0.7242
 9345SOL    HW138504   3.669   7.949   0.283  0.6425 -0.2078 -1.1031
 9345SOL    HW238505   3.523   8.013   0.250 -0.4441 -1.0463  1.8787
 9346SOL     OW38506   8.810   4.272   1.260 -0.0269  0.1983  0.4037
 9346SOL    HW138507   8.900   4.295   1.223 -1.2341  2.8002 -0.9926
 9346SOL    HW238508   8.784   4.339   1.330 -1.4506  0.2018 -0.1285
 9347SOL     OW38509   9.838   7.622   0.142 -0.8255  0.4344  0.2632
 9347SOL    HW138510   9.903   7.640   0.216 -0.1250 -2.4526  0.4119
 9347SOL    HW238511   9.882   7.634   0.054  0.4740 -3.1518  0.3599
 9348SOL     OW38512   1.039   5.394   2.964  0.2892  0.7643  0.5722
 9348SOL    HW138513   1.057   5.489   2.989  1.5643  0.2236  1.7709
 9348SOL    HW238514   1.124   5.341   2.971  0.0491 -0.0631 -1.9977
 9349SOL     OW38515   0.312   9.077   1.954 -0.2736  0.2121  0.0875
 9349SOL    HW138516   0.241   9.146   1.965 -0.2013  0.1830  0.7220
 9349SOL    HW238517   0.270   8.987   1.945 -0.2751  0.0837  1.3958
 9350SOL     OW38518   8.885   9.565   1.227  0.1782  0.1220 -0.1061
 9350SOL    HW138519   8.822   9.615   1.167 -1.3810  0.7249  1.9836
 9350SOL    HW238520   8.945   9.630   1.273 -0.1501 -0.1415  0.6930
 9351SOL     OW38521   8.809   6.158   3.171  0.2268  0.3019  0.3116
 9351SOL    HW138522   8.851   6.153   3.262 -0.4755  0.0075  0.6266
 9351SOL    HW238523   8.877   6.134   3.102  0.0326 -2.3417  0.9813
 9352SOL     OW38524   2.691   0.703   1.348  0.3087 -0.2167 -0.1031
 9352SOL    HW138525   2.734   0.641   1.413 -1.3222  1.5872  2.8404
 9352SOL    HW238526   2.606   0.664   1.315  0.6378 -0.7035 -0.3779
 9353SOL     OW38527   9.420   3.727   0.101 -0.3810 -0.3756  0.1418
 9353SOL    HW138528   9.344   3.718   0.036 -1.0394 -1.9006  1.0875
 9353SOL    HW238529   9.474   3.643   0.102  0.3256  0.0763  0.6970
 9354SOL     OW38530   1.123   6.255   4.035  0.8072  0.2590 -1.1603
 9354SOL    HW138531   1.198   6.293   4.089 -0.8037  0.7654  0.7954
 9354SOL    HW238532   1.086   6.174   4.080 -1.2124  1.2575 -0.9333
 9355SOL     OW38533   3.556   2.706   3.094 -0.1036 -0.7048  0.3640
 9355SOL    HW138534   3.505   2.651   3.160 -2.6662  0.0135 -0.9587
 9355SOL    HW238535   3.615   2.647   3.039  0.3071 -1.5747  1.7042
 9356SOL     OW38536   1.022   7.163   1.357  0.1832 -0.2856 -0.3426
 9356SOL    HW138537   1.013   7.085   1.294  0.4884 -0.3458 -0.3151
 9356SOL    HW238538   1.024   7.129   1.451 -1.6293 -0.0880 -0.2286
 9357SOL     OW38539   0.427   3.835   0.181 -0.0124  0.4016 -0.2272
 9357SOL    HW138540   0.470   3.804   0.096  0.7028  2.1454 -0.5232
 9357SOL    HW238541   0.432   3.761   0.249  2.2993  0.0880 -0.6676
 9358SOL     OW38542   7.688   8.652   3.719 -0.6485  0.1615  0.1942
 9358SOL    HW138543   7.680   8.751   3.719  0.5518  0.2970 -1.8685
 9358SOL    HW238544   7.678   8.617   3.812 -1.0612  2.2041  0.9356
 9359SOL     OW38545   8.102   9.933   3.815 -0.2102  0.0395  0.4183
 9359SOL    HW138546   8.056   9.939   3.903 -0.3250  3.2445  0.1859
 9359SOL    HW238547   8.187   9.986   3.817  0.0720 -0.3042 -1.2194
 9360SOL     OW38548   9.772   1.377   0.252  0.0474 -0.3040  0.3131
 9360SOL    HW138549   9.713   1.455   0.273  0.2470 -0.2194  0.5736
 9360SOL    HW238550   9.717   1.300   0.222 -0.0231  0.4416 -1.4991
 9361SOL     OW38551   9.948   2.230   1.360 -0.4637  0.4644 -0.8490
 9361SOL    HW138552   9.903   2.205   1.274  0.1443 -0.0661 -1.0176
 9361SOL    HW238553   9.898   2.188   1.436 -1.7062  1.9076 -0.8405
 9362SOL     OW38554   9.441   7.711   2.102 -0.3893 -0.4682 -0.5444
 9362SOL    HW138555   9.371   7.674   2.040 -0.6438  0.2344 -0.6832
 9362SOL    HW238556   9.398   7.772   2.168 -0.2996 -2.1690  1.1375
 9363SOL     OW38557   7.871   1.208   3.558  0.1241  0.0369 -0.5372
 9363SOL    HW138558   7.882   1.140   3.630 -1.0195 -0.2227 -0.5910
 9363SOL    HW238559   7.958   1.222   3.511  0.8124  0.0156  0.7149
 9364SOL     OW38560   4.246   6.818   2.815  0.3980 -0.5658 -0.1846
 9364SOL    HW138561   4.323   6.867   2.858  0.4164 -1.7255  1.1119
 9364SOL    HW238562   4.168   6.880   2.808  0.5215 -0.2258  1.1764
 9365SOL     OW38563   5.868   8.550   3.023  0.4036  0.0855 -0.6610
 9365SOL    HW138564   5.917   8.463   3.031 -0.6564 -0.2917  2.5527
 9365SOL    HW238565   5.933   8.626   3.026  1.0427 -0.4961  0.5777
 9366SOL     OW38566   1.766   7.966   2.116  0.6705  0.0298  0.0922
 9366SOL    HW138567   1.700   7.938   2.186  0.5456  0.0822 -0.0022
 9366SOL    HW238568   1.723   7.959   2.025  0.7002  0.3386  0.0535
 9367SOL     OW38569   1.667   6.281   0.058  0.0490 -0.0792 -0.0932
 9367SOL    HW138570   1.629   6.370   0.033  0.4714  0.2679  0.4691
 9367SOL    HW238571   1.645   6.214  -0.013  1.3368  0.9050 -1.4541
  10.00000  10.00000   4.04060
